Generated by trjconv : CNT in water t=  52.00000
33518
    1C        C    1   2.838   2.766   4.743
    1C        C    2   2.892   2.716   4.863
    1C        C    3   2.837   2.771   4.980
    1C        C    4   2.843   2.768   4.257
    1C        C    5   2.895   2.722   4.381
    1C        C    6   2.836   2.767   4.501
    1C        C    7   3.006   2.636   4.621
    1C        C    8   2.890   2.716   4.621
    1C        C    9   3.075   2.606   4.740
    1C        C   10   3.009   2.637   4.861
    1C        C   11   3.177   2.492   4.975
    1C        C   12   3.055   2.559   4.968
    1C        C   13   2.844   2.762   3.769
    1C        C   14   2.894   2.716   3.892
    1C        C   15   2.845   2.772   4.013
    1C        C   16   3.010   2.639   4.136
    1C        C   17   2.896   2.723   4.134
    1C        C   18   3.071   2.604   4.259
    1C        C   19   3.015   2.648   4.381
    1C        C   20   3.207   2.554   4.503
    1C        C   21   3.075   2.604   4.502
    1C        C   22   3.276   2.529   4.624
    1C        C   23   3.203   2.544   4.744
    1C        C   24   3.407   2.477   4.866
    1C        C   25   3.264   2.494   4.862
    1C        C   26   3.486   2.480   4.981
    1C        C   27   2.848   2.764   3.279
    1C        C   28   2.901   2.720   3.402
    1C        C   29   2.847   2.770   3.522
    1C        C   30   3.008   2.633   3.648
    1C        C   31   2.898   2.722   3.645
    1C        C   32   3.071   2.598   3.770
    1C        C   33   3.013   2.640   3.891
    1C        C   34   3.203   2.550   4.013
    1C        C   35   3.073   2.604   4.014
    1C        C   36   3.271   2.532   4.136
    1C        C   37   3.201   2.550   4.257
    1C        C   38   3.410   2.503   4.379
    1C        C   39   3.271   2.533   4.379
    1C        C   40   3.481   2.492   4.501
    1C        C   41   3.414   2.498   4.625
    1C        C   42   3.625   2.491   4.741
    1C        C   43   3.483   2.482   4.747
    1C        C   44   3.701   2.486   4.860
    1C        C   45   3.625   2.475   4.978
    1C        C   46   2.836   2.746   2.788
    1C        C   47   2.889   2.705   2.913
    1C        C   48   2.838   2.758   3.033
    1C        C   49   3.011   2.633   3.159
    1C        C   50   2.899   2.719   3.155
    1C        C   51   3.075   2.600   3.281
    1C        C   52   3.016   2.638   3.404
    1C        C   53   3.201   2.541   3.524
    1C        C   54   3.070   2.595   3.527
    1C        C   55   3.269   2.523   3.647
    1C        C   56   3.201   2.542   3.769
    1C        C   57   3.409   2.501   3.892
    1C        C   58   3.269   2.522   3.891
    1C        C   59   3.481   2.496   4.013
    1C        C   60   3.410   2.507   4.135
    1C        C   61   3.621   2.495   4.257
    1C        C   62   3.480   2.495   4.257
    1C        C   63   3.695   2.504   4.377
    1C        C   64   3.622   2.500   4.498
    1C        C   65   3.830   2.545   4.618
    1C        C   66   3.693   2.510   4.619
    1C        C   67   3.898   2.564   4.740
    1C        C   68   3.838   2.520   4.860
    1C        C   69   4.050   2.582   4.972
    1C        C   70   3.923   2.522   4.971
    1C        C   71   2.820   2.729   2.306
    1C        C   72   2.883   2.685   2.424
    1C        C   73   2.830   2.736   2.545
    1C        C   74   3.003   2.616   2.670
    1C        C   75   2.884   2.691   2.667
    1C        C   76   3.067   2.585   2.793
    1C        C   77   3.007   2.627   2.914
    1C        C   78   3.201   2.542   3.037
    1C        C   79   3.071   2.598   3.036
    1C        C   80   3.269   2.517   3.158
    1C        C   81   3.201   2.537   3.280
    1C        C   82   3.407   2.490   3.400
    1C        C   83   3.268   2.514   3.403
    1C        C   84   3.479   2.488   3.522
    1C        C   85   3.408   2.498   3.644
    1C        C   86   3.617   2.501   3.766
    1C        C   87   3.476   2.493   3.768
    1C        C   88   3.688   2.510   3.888
    1C        C   89   3.623   2.498   4.013
    1C        C   90   3.828   2.548   4.132
    1C        C   91   3.692   2.509   4.135
    1C        C   92   3.899   2.567   4.253
    1C        C   93   3.832   2.539   4.374
    1C        C   94   4.023   2.632   4.495
    1C        C   95   3.897   2.569   4.496
    1C        C   96   4.086   2.671   4.616
    1C        C   97   4.027   2.625   4.736
    1C        C   98   4.190   2.762   4.857
    1C        C   99   4.097   2.653   4.857
    1C        C  100   4.204   2.841   4.972
    1C        C  101   2.819   2.723   2.067
    1C        C  102   2.984   2.585   2.185
    1C        C  103   2.868   2.668   2.186
    1C        C  104   3.063   2.571   2.303
    1C        C  105   3.002   2.610   2.425
    1C        C  106   3.196   2.528   2.550
    1C        C  107   3.065   2.580   2.548
    1C        C  108   3.266   2.510   2.671
    1C        C  109   3.198   2.533   2.792
    1C        C  110   3.408   2.500   2.914
    1C        C  111   3.270   2.527   2.914
    1C        C  112   3.481   2.492   3.035
    1C        C  113   3.409   2.498   3.156
    1C        C  114   3.620   2.495   3.278
    1C        C  115   3.479   2.488   3.278
    1C        C  116   3.689   2.507   3.401
    1C        C  117   3.620   2.498   3.523
    1C        C  118   3.827   2.545   3.643
    1C        C  119   3.690   2.511   3.645
    1C        C  120   3.892   2.574   3.765
    1C        C  121   3.825   2.547   3.886
    1C        C  122   4.019   2.634   4.008
    1C        C  123   3.892   2.571   4.008
    1C        C  124   4.081   2.673   4.129
    1C        C  125   4.024   2.633   4.252
    1C        C  126   4.193   2.761   4.374
    1C        C  127   4.084   2.670   4.374
    1C        C  128   4.241   2.816   4.495
    1C        C  129   4.193   2.762   4.616
    1C        C  130   4.325   2.931   4.738
    1C        C  131   4.244   2.814   4.737
    1C        C  132   4.360   2.995   4.859
    1C        C  133   4.285   2.955   4.969
    1C        C  134   3.171   2.464   2.081
    1C        C  135   3.037   2.506   2.078
    1C        C  136   3.258   2.470   2.190
    1C        C  137   3.193   2.514   2.307
    1C        C  138   3.403   2.478   2.426
    1C        C  139   3.265   2.504   2.429
    1C        C  140   3.475   2.481   2.547
    1C        C  141   3.406   2.490   2.670
    1C        C  142   3.619   2.497   2.790
    1C        C  143   3.478   2.488   2.791
    1C        C  144   3.691   2.510   2.911
    1C        C  145   3.622   2.501   3.034
    1C        C  146   3.829   2.534   3.153
    1C        C  147   3.692   2.500   3.157
    1C        C  148   3.892   2.564   3.276
    1C        C  149   3.826   2.543   3.399
    1C        C  150   4.022   2.625   3.519
    1C        C  151   3.894   2.565   3.520
    1C        C  152   4.078   2.669   3.642
    1C        C  153   4.018   2.638   3.766
    1C        C  154   4.191   2.763   3.885
    1C        C  155   4.081   2.674   3.887
    1C        C  156   4.243   2.811   4.008
    1C        C  157   4.192   2.760   4.129
    1C        C  158   4.334   2.917   4.249
    1C        C  159   4.245   2.808   4.252
    1C        C  160   4.369   2.979   4.371
    1C        C  161   4.333   2.924   4.496
    1C        C  162   4.438   3.111   4.614
    1C        C  163   4.372   2.987   4.616
    1C        C  164   4.463   3.182   4.734
    1C        C  165   4.435   3.114   4.854
    1C        C  166   4.509   3.316   4.969
    1C        C  167   4.476   3.180   4.971
    1C        C  168   3.473   2.429   2.070
    1C        C  169   3.397   2.446   2.186
    1C        C  170   3.616   2.468   2.305
    1C        C  171   3.474   2.463   2.304
    1C        C  172   3.689   2.485   2.425
    1C        C  173   3.616   2.485   2.546
    1C        C  174   3.824   2.537   2.666
    1C        C  175   3.688   2.500   2.667
    1C        C  176   3.897   2.555   2.786
    1C        C  177   3.830   2.534   2.909
    1C        C  178   4.026   2.614   3.029
    1C        C  179   3.897   2.555   3.031
    1C        C  180   4.081   2.659   3.151
    1C        C  181   4.018   2.628   3.274
    1C        C  182   4.195   2.744   3.396
    1C        C  183   4.083   2.657   3.396
    1C        C  184   4.243   2.800   3.516
    1C        C  185   4.187   2.758   3.639
    1C        C  186   4.335   2.911   3.760
    1C        C  187   4.240   2.806   3.760
    1C        C  188   4.378   2.970   3.881
    1C        C  189   4.334   2.919   4.005
    1C        C  190   4.441   3.101   4.123
    1C        C  191   4.377   2.975   4.127
    1C        C  192   4.461   3.169   4.245
    1C        C  193   4.429   3.107   4.368
    1C        C  194   4.500   3.309   4.492
    1C        C  195   4.457   3.175   4.489
    1C        C  196   4.518   3.384   4.610
    1C        C  197   4.507   3.317   4.734
    1C        C  198   4.556   3.532   4.846
    1C        C  199   4.529   3.391   4.853
    1C        C  200   4.576   3.618   4.959
    1C        C  201   3.612   2.414   2.073
    1C        C  202   3.825   2.507   2.180
    1C        C  203   3.689   2.463   2.184
    1C        C  204   3.896   2.534   2.301
    1C        C  205   3.827   2.517   2.423
    1C        C  206   4.017   2.616   2.540
    1C        C  207   3.893   2.548   2.544
    1C        C  208   4.080   2.655   2.660
    1C        C  209   4.020   2.624   2.784
    1C        C  210   4.194   2.743   2.904
    1C        C  211   4.084   2.655   2.907
    1C        C  212   4.246   2.791   3.026
    1C        C  213   4.194   2.744   3.149
    1C        C  214   4.333   2.902   3.269
    1C        C  215   4.245   2.791   3.272
    1C        C  216   4.371   2.964   3.390
    1C        C  217   4.332   2.911   3.515
    1C        C  218   4.439   3.094   3.636
    1C        C  219   4.372   2.970   3.637
    1C        C  220   4.464   3.161   3.757
    1C        C  221   4.441   3.097   3.881
    1C        C  222   4.493   3.306   4.001
    1C        C  223   4.461   3.169   4.001
    1C        C  224   4.506   3.376   4.124
    1C        C  225   4.497   3.306   4.246
    1C        C  226   4.505   3.518   4.366
    1C        C  227   4.502   3.377   4.368
    1C        C  228   4.510   3.594   4.485
    1C        C  229   4.524   3.525   4.608
    1C        C  230   4.501   3.741   4.721
    1C        C  231   4.538   3.603   4.725
    1C        C  232   4.491   3.814   4.841
    1C        C  233   4.548   3.755   4.955
    1C        C  234   4.015   2.607   2.059
    1C        C  235   3.898   2.532   2.063
    1C        C  236   4.079   2.650   2.177
    1C        C  237   4.021   2.602   2.296
    1C        C  238   4.194   2.731   2.417
    1C        C  239   4.079   2.647   2.416
    1C        C  240   4.247   2.782   2.538
    1C        C  241   4.193   2.740   2.662
    1C        C  242   4.335   2.901   2.781
    1C        C  243   4.247   2.790   2.782
    1C        C  244   4.375   2.959   2.903
    1C        C  245   4.336   2.900   3.025
    1C        C  246   4.431   3.090   3.146
    1C        C  247   4.370   2.963   3.147
    1C        C  248   4.459   3.154   3.269
    1C        C  249   4.433   3.091   3.393
    1C        C  250   4.496   3.296   3.510
    1C        C  251   4.465   3.159   3.513
    1C        C  252   4.504   3.368   3.632
    1C        C  253   4.491   3.300   3.755
    1C        C  254   4.516   3.512   3.875
    1C        C  255   4.506   3.371   3.876
    1C        C  256   4.511   3.584   3.997
    1C        C  257   4.512   3.517   4.121
    1C        C  258   4.484   3.727   4.236
    1C        C  259   4.507   3.588   4.243
    1C        C  260   4.466   3.798   4.357
    1C        C  261   4.475   3.731   4.481
    1C        C  262   4.427   3.941   4.600
    1C        C  263   4.464   3.804   4.601
    1C        C  264   4.398   4.008   4.721
    1C        C  265   4.431   3.942   4.842
    1C        C  266   4.319   4.131   4.954
    1C        C  267   4.387   4.010   4.956
    1C        C  268   4.266   2.770   2.063
    1C        C  269   4.194   2.732   2.177
    1C        C  270   4.341   2.888   2.295
    1C        C  271   4.252   2.778   2.297
    1C        C  272   4.385   2.947   2.417
    1C        C  273   4.339   2.889   2.537
    1C        C  274   4.446   3.077   2.657
    1C        C  275   4.373   2.956   2.657
    1C        C  276   4.476   3.144   2.777
    1C        C  277   4.444   3.083   2.901
    1C        C  278   4.499   3.287   3.024
    1C        C  279   4.465   3.150   3.023
    1C        C  280   4.514   3.358   3.145
    1C        C  281   4.502   3.289   3.268
    1C        C  282   4.511   3.505   3.385
    1C        C  283   4.507   3.364   3.387
    1C        C  284   4.507   3.577   3.507
    1C        C  285   4.507   3.509   3.631
    1C        C  286   4.486   3.720   3.748
    1C        C  287   4.511   3.581   3.752
    1C        C  288   4.471   3.790   3.870
    1C        C  289   4.490   3.724   3.993
    1C        C  290   4.422   3.929   4.112
    1C        C  291   4.471   3.796   4.113
    1C        C  292   4.393   3.993   4.234
    1C        C  293   4.421   3.932   4.358
    1C        C  294   4.326   4.125   4.473
    1C        C  295   4.396   4.003   4.477
    1C        C  296   4.286   4.188   4.594
    1C        C  297   4.326   4.130   4.717
    1C        C  298   4.194   4.308   4.834
    1C        C  299   4.282   4.195   4.835
    1C        C  300   4.159   4.393   4.944
    1C        C  301   4.351   2.879   2.061
    1C        C  302   4.473   3.064   2.174
    1C        C  303   4.401   2.940   2.177
    1C        C  304   4.478   3.138   2.296
    1C        C  305   4.449   3.072   2.418
    1C        C  306   4.507   3.282   2.535
    1C        C  307   4.474   3.145   2.536
    1C        C  308   4.514   3.355   2.656
    1C        C  309   4.508   3.282   2.777
    1C        C  310   4.512   3.493   2.898
    1C        C  311   4.514   3.352   2.899
    1C        C  312   4.505   3.567   3.018
    1C        C  313   4.513   3.500   3.142
    1C        C  314   4.479   3.713   3.260
    1C        C  315   4.509   3.574   3.262
    1C        C  316   4.468   3.784   3.381
    1C        C  317   4.482   3.716   3.504
    1C        C  318   4.422   3.922   3.624
    1C        C  319   4.466   3.788   3.625
    1C        C  320   4.394   3.988   3.745
    1C        C  321   4.424   3.923   3.867
    1C        C  322   4.315   4.108   3.990
    1C        C  323   4.391   3.989   3.988
    1C        C  324   4.274   4.167   4.111
    1C        C  325   4.322   4.115   4.234
    1C        C  326   4.186   4.286   4.351
    1C        C  327   4.283   4.183   4.352
    1C        C  328   4.132   4.335   4.472
    1C        C  329   4.192   4.292   4.593
    1C        C  330   4.022   4.433   4.708
    1C        C  331   4.137   4.349   4.711
    1C        C  332   3.969   4.490   4.826
    1C        C  333   4.053   4.484   4.938
    1C        C  334   4.552   3.266   2.060
    1C        C  335   4.533   3.127   2.061
    1C        C  336   4.542   3.346   2.175
    1C        C  337   4.515   3.275   2.294
    1C        C  338   4.522   3.493   2.408
    1C        C  339   4.516   3.352   2.413
    1C        C  340   4.522   3.568   2.528
    1C        C  341   4.520   3.496   2.649
    1C        C  342   4.488   3.700   2.771
    1C        C  343   4.513   3.561   2.775
    1C        C  344   4.470   3.773   2.891
    1C        C  345   4.487   3.707   3.015
    1C        C  346   4.413   3.909   3.135
    1C        C  347   4.462   3.777   3.135
    1C        C  348   4.393   3.981   3.255
    1C        C  349   4.422   3.917   3.378
    1C        C  350   4.320   4.105   3.500
    1C        C  351   4.393   3.984   3.500
    1C        C  352   4.273   4.162   3.620
    1C        C  353   4.317   4.107   3.743
    1C        C  354   4.173   4.261   3.865
    1C        C  355   4.274   4.162   3.866
    1C        C  356   4.122   4.315   3.985
    1C        C  357   4.176   4.269   4.107
    1C        C  358   4.012   4.403   4.227
    1C        C  359   4.128   4.323   4.228
    1C        C  360   3.949   4.445   4.346
    1C        C  361   4.017   4.416   4.467
    1C        C  362   3.826   4.513   4.587
    1C        C  363   3.958   4.463   4.586
    1C        C  364   3.760   4.545   4.707
    1C        C  365   3.836   4.537   4.826
    1C        C  366   3.628   4.586   4.945
    1C        C  367   3.765   4.564   4.944
    1C        C  368   4.503   3.560   2.052
    1C        C  369   4.525   3.485   2.168
    1C        C  370   4.496   3.703   2.284
    1C        C  371   4.518   3.564   2.285
    1C        C  372   4.479   3.774   2.405
    1C        C  373   4.501   3.707   2.527
    1C        C  374   4.423   3.904   2.649
    1C        C  375   4.475   3.773   2.650
    1C        C  376   4.398   3.974   2.769
    1C        C  377   4.425   3.907   2.890
    1C        C  378   4.317   4.092   3.011
    1C        C  379   4.391   3.972   3.011
    1C        C  380   4.273   4.151   3.132
    1C        C  381   4.320   4.102   3.256
    1C        C  382   4.172   4.255   3.371
    1C        C  383   4.274   4.158   3.377
    1C        C  384   4.120   4.305   3.493
    1C        C  385   4.173   4.262   3.617
    1C        C  386   4.005   4.384   3.740
    1C        C  387   4.123   4.306   3.741
    1C        C  388   3.942   4.424   3.860
    1C        C  389   4.006   4.394   3.983
    1C        C  390   3.814   4.483   4.104
    1C        C  391   3.947   4.434   4.105
    1C        C  392   3.746   4.507   4.225
    1C        C  393   3.818   4.497   4.347
    1C        C  394   3.612   4.550   4.471
    1C        C  395   3.751   4.526   4.467
    1C        C  396   3.543   4.562   4.594
    1C        C  397   3.619   4.560   4.712
    1C        C  398   3.407   4.545   4.837
    1C        C  399   3.546   4.568   4.833
    1C        C  400   3.337   4.509   4.953
    1C        C  401   4.497   3.699   2.051
    1C        C  402   4.448   3.915   2.163
    1C        C  403   4.487   3.779   2.165
    1C        C  404   4.407   3.977   2.283
    1C        C  405   4.429   3.906   2.403
    1C        C  406   4.320   4.087   2.520
    1C        C  407   4.398   3.969   2.526
    1C        C  408   4.275   4.144   2.642
    1C        C  409   4.319   4.091   2.765
    1C        C  410   4.178   4.248   2.885
    1C        C  411   4.279   4.149   2.887
    1C        C  412   4.120   4.294   3.005
    1C        C  413   4.171   4.249   3.129
    1C        C  414   4.000   4.378   3.251
    1C        C  415   4.118   4.301   3.249
    1C        C  416   3.942   4.417   3.374
    1C        C  417   4.002   4.383   3.497
    1C        C  418   3.810   4.474   3.614
    1C        C  419   3.939   4.417   3.619
    1C        C  420   3.744   4.495   3.737
    1C        C  421   3.810   4.474   3.860
    1C        C  422   3.605   4.527   3.985
    1C        C  423   3.744   4.500   3.982
    1C        C  424   3.536   4.537   4.107
    1C        C  425   3.608   4.536   4.228
    1C        C  426   3.398   4.551   4.354
    1C        C  427   3.539   4.554   4.350
    1C        C  428   3.328   4.544   4.476
    1C        C  429   3.402   4.552   4.596
    1C        C  430   3.192   4.520   4.717
    1C        C  431   3.332   4.545   4.718
    1C        C  432   3.121   4.490   4.837
    1C        C  433   3.200   4.486   4.953
    1C        C  434   4.376   4.118   2.046
    1C        C  435   4.437   3.992   2.046
    1C        C  436   4.298   4.162   2.158
    1C        C  437   4.325   4.093   2.280
    1C        C  438   4.173   4.244   2.399
    1C        C  439   4.275   4.147   2.401
    1C        C  440   4.123   4.295   2.521
    1C        C  441   4.176   4.244   2.642
    1C        C  442   4.006   4.375   2.764
    1C        C  443   4.122   4.294   2.763
    1C        C  444   3.940   4.406   2.885
    1C        C  445   4.001   4.370   3.007
    1C        C  446   3.809   4.467   3.128
    1C        C  447   3.937   4.407   3.127
    1C        C  448   3.745   4.494   3.251
    1C        C  449   3.812   4.473   3.373
    1C        C  450   3.601   4.521   3.494
    1C        C  451   3.740   4.494   3.493
    1C        C  452   3.535   4.532   3.618
    1C        C  453   3.606   4.525   3.740
    1C        C  454   3.394   4.541   3.862
    1C        C  455   3.535   4.535   3.862
    1C        C  456   3.326   4.535   3.986
    1C        C  457   3.394   4.535   4.110
    1C        C  458   3.188   4.502   4.235
    1C        C  459   3.326   4.534   4.233
    1C        C  460   3.122   4.482   4.358
    1C        C  461   3.189   4.516   4.478
    1C        C  462   2.993   4.433   4.599
    1C        C  463   3.118   4.498   4.599
    1C        C  464   2.928   4.400   4.720
    1C        C  465   2.988   4.438   4.844
    1C        C  466   2.802   4.332   4.957
    1C        C  467   2.905   4.427   4.960
    1C        C  468   4.119   4.289   2.038
    1C        C  469   4.181   4.244   2.155
    1C        C  470   4.002   4.366   2.274
    1C        C  471   4.123   4.291   2.276
    1C        C  472   3.941   4.400   2.397
    1C        C  473   4.006   4.374   2.519
    1C        C  474   3.811   4.456   2.640
    1C        C  475   3.945   4.411   2.642
    1C        C  476   3.741   4.476   2.761
    1C        C  477   3.809   4.458   2.883
    1C        C  478   3.604   4.516   3.008
    1C        C  479   3.742   4.485   3.005
    1C        C  480   3.532   4.527   3.129
    1C        C  481   3.607   4.526   3.249
    1C        C  482   3.394   4.532   3.375
    1C        C  483   3.535   4.536   3.370
    1C        C  484   3.323   4.524   3.497
    1C        C  485   3.394   4.535   3.619
    1C        C  486   3.185   4.502   3.742
    1C        C  487   3.323   4.535   3.741
    1C        C  488   3.121   4.476   3.866
    1C        C  489   3.188   4.502   3.987
    1C        C  490   3.001   4.412   4.112
    1C        C  491   3.123   4.483   4.111
    1C        C  492   2.941   4.377   4.235
    1C        C  493   2.995   4.422   4.357
    1C        C  494   2.827   4.293   4.481
    1C        C  495   2.932   4.388   4.479
    1C        C  496   2.771   4.252   4.604
    1C        C  497   2.812   4.318   4.721
    1C        C  498   2.664   4.162   4.843
    1C        C  499   2.752   4.273   4.841
    1C        C  500   2.597   4.114   4.956
    1C        C  501   3.992   4.345   2.036
    1C        C  502   3.811   4.463   2.155
    1C        C  503   3.937   4.399   2.153
    1C        C  504   3.741   4.476   2.277
    1C        C  505   3.810   4.453   2.398
    1C        C  506   3.603   4.504   2.520
    1C        C  507   3.743   4.481   2.519
    1C        C  508   3.532   4.513   2.642
    1C        C  509   3.603   4.507   2.764
    1C        C  510   3.393   4.527   2.882
    1C        C  511   3.534   4.524   2.886
    1C        C  512   3.324   4.522   3.005
    1C        C  513   3.391   4.526   3.130
    1C        C  514   3.186   4.489   3.253
    1C        C  515   3.323   4.523   3.253
    1C        C  516   3.118   4.469   3.375
    1C        C  517   3.184   4.495   3.497
    1C        C  518   2.996   4.407   3.623
    1C        C  519   3.117   4.480   3.621
    1C        C  520   2.937   4.369   3.746
    1C        C  521   2.995   4.412   3.867
    1C        C  522   2.830   4.285   3.992
    1C        C  523   2.936   4.377   3.991
    1C        C  524   2.782   4.235   4.116
    1C        C  525   2.832   4.287   4.237
    1C        C  526   2.694   4.129   4.360
    1C        C  527   2.774   4.246   4.359
    1C        C  528   2.654   4.073   4.483
    1C        C  529   2.683   4.141   4.604
    1C        C  530   2.576   3.960   4.728
    1C        C  531   2.638   4.087   4.726
    1C        C  532   2.532   3.900   4.850
    1C        C  533   2.528   3.993   4.960
    1C        C  534   3.609   4.551   2.039
    1C        C  535   3.744   4.512   2.042
    1C        C  536   3.531   4.528   2.157
    1C        C  537   3.604   4.512   2.279
    1C        C  538   3.390   4.519   2.397
    1C        C  539   3.531   4.519   2.400
    1C        C  540   3.318   4.512   2.518
    1C        C  541   3.391   4.516   2.640
    1C        C  542   3.182   4.487   2.765
    1C        C  543   3.320   4.517   2.762
    1C        C  544   3.115   4.461   2.887
    1C        C  545   3.188   4.482   3.006
    1C        C  546   2.997   4.397   3.130
    1C        C  547   3.123   4.461   3.129
    1C        C  548   2.940   4.360   3.254
    1C        C  549   2.994   4.402   3.377
    1C        C  550   2.831   4.273   3.501
    1C        C  551   2.938   4.365   3.502
    1C        C  552   2.781   4.226   3.624
    1C        C  553   2.828   4.278   3.746
    1C        C  554   2.694   4.119   3.874
    1C        C  555   2.782   4.230   3.871
    1C        C  556   2.652   4.063   3.996
    1C        C  557   2.689   4.129   4.116
    1C        C  558   2.592   3.942   4.244
    1C        C  559   2.654   4.068   4.239
    1C        C  560   2.564   3.878   4.367
    1C        C  561   2.592   3.946   4.488
    1C        C  562   2.532   3.745   4.615
    1C        C  563   2.563   3.883   4.611
    1C        C  564   2.522   3.676   4.738
    1C        C  565   2.520   3.758   4.854
    1C        C  566   2.525   3.544   4.974
    1C        C  567   2.517   3.683   4.973
    1C        C  568   3.322   4.468   2.038
    1C        C  569   3.392   4.498   2.155
    1C        C  570   3.179   4.475   2.277
    1C        C  571   3.318   4.504   2.277
    1C        C  572   3.113   4.457   2.400
    1C        C  573   3.179   4.485   2.522
    1C        C  574   2.986   4.400   2.642
    1C        C  575   3.112   4.465   2.644
    1C        C  576   2.928   4.362   2.765
    1C        C  577   2.990   4.394   2.887
    1C        C  578   2.820   4.272   3.013
    1C        C  579   2.931   4.359   3.011
    1C        C  580   2.773   4.224   3.137
    1C        C  581   2.829   4.271   3.258
    1C        C  582   2.689   4.112   3.381
    1C        C  583   2.782   4.218   3.380
    1C        C  584   2.653   4.056   3.506
    1C        C  585   2.693   4.114   3.628
    1C        C  586   2.585   3.936   3.754
    1C        C  587   2.652   4.061   3.752
    1C        C  588   2.570   3.869   3.878
    1C        C  589   2.594   3.935   4.000
    1C        C  590   2.531   3.736   4.123
    1C        C  591   2.564   3.873   4.124
    1C        C  592   2.519   3.671   4.248
    1C        C  593   2.530   3.741   4.370
    1C        C  594   2.512   3.533   4.494
    1C        C  595   2.516   3.675   4.494
    1C        C  596   2.515   3.461   4.615
    1C        C  597   2.514   3.534   4.736
    1C        C  598   2.535   3.325   4.857
    1C        C  599   2.517   3.465   4.859
    1C        C  600   2.542   3.248   4.974
    1C        C  601   3.188   4.436   2.043
    1C        C  602   2.974   4.396   2.155
    1C        C  603   3.108   4.446   2.157
    1C        C  604   2.916   4.365   2.282
    1C        C  605   2.986   4.394   2.401
    1C        C  606   2.817   4.266   2.526
    1C        C  607   2.923   4.359   2.522
    1C        C  608   2.767   4.219   2.649
    1C        C  609   2.819   4.271   2.770
    1C        C  610   2.683   4.109   2.890
    1C        C  611   2.767   4.223   2.892
    1C        C  612   2.651   4.050   3.015
    1C        C  613   2.687   4.112   3.137
    1C        C  614   2.589   3.926   3.262
    1C        C  615   2.647   4.054   3.259
    1C        C  616   2.567   3.863   3.387
    1C        C  617   2.597   3.927   3.509
    1C        C  618   2.526   3.731   3.634
    1C        C  619   2.564   3.867   3.633
    1C        C  620   2.518   3.663   3.758
    1C        C  621   2.531   3.733   3.880
    1C        C  622   2.503   3.523   4.007
    1C        C  623   2.519   3.663   4.002
    1C        C  624   2.506   3.456   4.131
    1C        C  625   2.506   3.530   4.251
    1C        C  626   2.536   3.320   4.375
    1C        C  627   2.514   3.459   4.373
    1C        C  628   2.552   3.251   4.497
    1C        C  629   2.537   3.322   4.619
    1C        C  630   2.592   3.113   4.740
    1C        C  631   2.550   3.249   4.739
    1C        C  632   2.611   3.045   4.864
    1C        C  633   2.561   3.110   4.982
    1C        C  634   2.777   4.299   2.049
    1C        C  635   2.884   4.390   2.044
    1C        C  636   2.746   4.228   2.166
    1C        C  637   2.809   4.272   2.285
    1C        C  638   2.669   4.110   2.407
    1C        C  639   2.758   4.219   2.406
    1C        C  640   2.634   4.049   2.529
    1C        C  641   2.680   4.108   2.649
    1C        C  642   2.584   3.917   2.772
    1C        C  643   2.644   4.045   2.770
    1C        C  644   2.562   3.854   2.897
    1C        C  645   2.585   3.925   3.017
    1C        C  646   2.529   3.722   3.145
    1C        C  647   2.563   3.859   3.140
    1C        C  648   2.515   3.655   3.268
    1C        C  649   2.531   3.726   3.389
    1C        C  650   2.515   3.518   3.514
    1C        C  651   2.521   3.659   3.513
    1C        C  652   2.515   3.450   3.638
    1C        C  653   2.513   3.522   3.760
    1C        C  654   2.526   3.314   3.888
    1C        C  655   2.505   3.454   3.883
    1C        C  656   2.546   3.246   4.010
    1C        C  657   2.528   3.316   4.131
    1C        C  658   2.601   3.117   4.254
    1C        C  659   2.548   3.248   4.254
    1C        C  660   2.633   3.056   4.377
    1C        C  661   2.596   3.117   4.499
    1C        C  662   2.701   2.930   4.622
    1C        C  663   2.622   3.047   4.619
    1C        C  664   2.744   2.873   4.744
    1C        C  665   2.695   2.929   4.865
    1C        C  666   2.734   2.865   4.983
    1C        C  667   2.675   4.022   2.050
    1C        C  668   2.684   4.102   2.164
    1C        C  669   2.582   3.914   2.286
    1C        C  670   2.639   4.044   2.285
    1C        C  671   2.557   3.849   2.409
    1C        C  672   2.579   3.918   2.530
    1C        C  673   2.515   3.715   2.656
    1C        C  674   2.550   3.852   2.652
    1C        C  675   2.507   3.646   2.779
    1C        C  676   2.519   3.720   2.899
    1C        C  677   2.500   3.512   3.024
    1C        C  678   2.509   3.653   3.023
    1C        C  679   2.509   3.443   3.147
    1C        C  680   2.511   3.514   3.270
    1C        C  681   2.534   3.305   3.395
    1C        C  682   2.513   3.445   3.393
    1C        C  683   2.553   3.241   3.519
    1C        C  684   2.535   3.310   3.641
    1C        C  685   2.603   3.116   3.770
    1C        C  686   2.545   3.245   3.766
    1C        C  687   2.636   3.052   3.892
    1C        C  688   2.599   3.115   4.013
    1C        C  689   2.711   2.933   4.136
    1C        C  690   2.630   3.048   4.134
    1C        C  691   2.752   2.876   4.259
    1C        C  692   2.709   2.937   4.378
    1C        C  693   2.744   2.874   4.500
    1C        C  694   2.631   3.889   2.056
    1C        C  695   2.521   3.703   2.174
    1C        C  696   2.572   3.834   2.170
    1C        C  697   2.507   3.636   2.298
    1C        C  698   2.527   3.711   2.416
    1C        C  699   2.489   3.500   2.542
    1C        C  700   2.504   3.641   2.536
    1C        C  701   2.503   3.431   2.664
    1C        C  702   2.500   3.505   2.784
    1C        C  703   2.528   3.296   2.910
    1C        C  704   2.501   3.434   2.906
    1C        C  705   2.555   3.231   3.032
    1C        C  706   2.536   3.305   3.151
    1C        C  707   2.596   3.102   3.278
    1C        C  708   2.545   3.234   3.273
    1C        C  709   2.630   3.044   3.402
    1C        C  710   2.603   3.110   3.525
    1C        C  711   2.712   2.932   3.647
    1C        C  712   2.635   3.050   3.649
    1C        C  713   2.755   2.873   3.768
    1C        C  714   2.710   2.932   3.888
    1C        C  715   2.757   2.883   4.012
    1C        C  716   2.452   3.497   2.062
    1C        C  717   2.488   3.632   2.058
    1C        C  718   2.469   3.419   2.181
    1C        C  719   2.485   3.496   2.300
    1C        C  720   2.511   3.286   2.424
    1C        C  721   2.492   3.425   2.422
    1C        C  722   2.532   3.217   2.545
    1C        C  723   2.524   3.291   2.665
    1C        C  724   2.596   3.094   2.788
    1C        C  725   2.544   3.225   2.788
    1C        C  726   2.623   3.031   2.911
    1C        C  727   2.596   3.096   3.034
    1C        C  728   2.705   2.917   3.156
    1C        C  729   2.628   3.036   3.158
    1C        C  730   2.751   2.867   3.279
    1C        C  731   2.710   2.927   3.400
    1C        C  732   2.751   2.874   3.524
    1C        C  733   2.485   3.195   2.070
    1C        C  734   2.487   3.277   2.183
    1C        C  735   2.578   3.081   2.302
    1C        C  736   2.523   3.212   2.304
    1C        C  737   2.613   3.018   2.424
    1C        C  738   2.587   3.087   2.544
    1C        C  739   2.699   2.906   2.664
    1C        C  740   2.624   3.027   2.666
    1C        C  741   2.742   2.852   2.787
    1C        C  742   2.700   2.912   2.907
    1C        C  743   2.742   2.861   3.032
    1C        C  744   2.538   3.066   2.072
    1C        C  745   2.684   2.895   2.182
    1C        C  746   2.605   3.012   2.182
    1C        C  747   2.731   2.840   2.304
    1C        C  748   2.683   2.895   2.424
    1C        C  749   2.739   2.844   2.544
    1C        C  750   2.731   2.831   2.067
    1C        C  751   3.665   2.321   1.970
    1C        O  752   3.680   2.198   1.991
    1C        O  753   3.653   2.348   1.834
    1C        C  754   4.621   3.056   1.965
    1C        O  755   4.583   3.053   1.845
    1C        O  756   4.750   3.004   1.984
    1C        C  757   4.451   4.226   1.978
    1C        O  758   4.549   4.278   2.037
    1C        O  759   4.411   4.270   1.851
    1C        C  760   3.575   4.661   1.946
    1C        O  761   3.613   4.776   1.980
    1C        O  762   3.568   4.651   1.806
    1C        C  763   2.860   4.497   1.944
    1C        O  764   2.881   4.464   1.824
    1C        O  765   2.826   4.628   1.977
    1C        C  766   2.358   3.475   1.949
    1C        O  767   2.397   3.447   1.833
    1C        O  768   2.223   3.510   1.945
    1C        C  769   4.678   3.595   5.063
    1C        O  770   4.645   3.593   5.185
    1C        O  771   4.811   3.631   5.038
    1C        C  772   4.249   4.421   5.058
    1C        O  773   4.215   4.444   5.177
    1C        O  774   4.355   4.511   5.041
    1C        C  775   4.152   2.519   5.059
    1C        O  776   4.150   2.393   5.049
    1C        O  777   4.166   2.546   5.196
    1C        C  778   2.866   4.548   5.036
    1C        O  779   2.856   4.659   4.977
    1C        O  780   2.891   4.582   5.169
    1C        C  781   2.483   3.043   5.088
    1C        O  782   2.389   2.965   5.059
    1C        O  783   2.484   3.078   5.223
    1C        C  784   2.420   3.978   5.060
    1C        O  785   2.299   3.977   5.023
    1C        O  786   2.446   3.971   5.197
    1C        C  787   2.956   2.465   1.961
    1C        O  788   2.991   2.509   1.848
    1C        O  789   2.892   2.342   1.967
    1C        C  790   3.173   2.374   5.064
    1C        O  791   3.098   2.278   5.032
    1C        O  792   3.181   2.399   5.202
    1C        H  793   4.276   3.010   5.061
    1C        H  794   4.186   2.792   5.065
    1C        H  795   4.525   3.118   5.043
    1C        H  796   4.470   3.369   5.053
    1C        H  797   4.558   3.815   5.043
    1C        H  798   4.418   3.978   5.054
    1C        H  799   4.267   4.158   5.044
    1C        H  800   4.016   4.526   5.030
    1C        H  801   3.806   4.545   5.041
    1C        H  802   3.583   4.632   5.031
    1C        H  803   3.389   4.520   5.046
    1C        H  804   3.159   4.482   5.052
    1C        H  805   3.899   2.457   5.052
    1C        H  806   3.679   2.475   5.070
    1C        H  807   2.983   2.547   5.046
    1C        H  808   3.434   2.497   5.073
    1C        H  809   2.894   2.761   5.070
    1C        H  810   2.665   2.856   5.065
    1C        H  811   2.597   3.294   5.053
    1C        H  812   2.594   3.510   5.048
    1C        H  813   2.540   3.732   5.065
    1C        H  814   2.581   4.181   5.038
    1C        H  815   2.730   4.329   5.036
    1C        H  816   2.707   2.869   1.970
    1C        H  817   2.889   2.724   1.985
    1C        H  818   3.201   2.416   1.990
    1C        H  819   3.419   2.439   1.978
    1C        H  820   3.891   2.460   1.984
    1C        H  821   4.071   2.597   1.968
    1C        H  822   4.300   2.683   2.011
    1C        H  823   4.364   2.934   1.970
    1C        H  824   4.546   3.315   1.965
    1C        H  825   4.496   3.506   1.960
    1C        H  826   4.497   3.744   1.954
    1C        H  827   3.793   4.515   1.947
    1C        H  828   3.930   4.307   1.958
    1C        H  829   4.152   4.245   1.946
    1C        H  830   4.507   3.981   1.966
    1C        H  831   2.683   3.825   1.987
    1C        H  832   2.701   4.062   1.954
    1C        H  833   2.705   4.297   1.970
    1C        H  834   3.353   4.514   1.947
    1C        H  835   3.145   4.410   1.948
    1C        H  836   2.542   3.012   1.980
    1C        H  837   2.458   3.240   1.976
    1C        H  838   2.497   3.682   1.963
    2V3OU   H29  839   2.794   3.549   1.068
    2V3OU   C27  840   2.773   3.498   1.166
    2V3OU   H27  841   2.714   3.567   1.232
    2V3OU   H28  842   2.718   3.403   1.149
    2V3OU   O11  843   2.901   3.472   1.225
    2V3OU   C15  844   2.913   3.396   1.339
    2V3OU   C13  845   3.045   3.381   1.388
    2V3OU   C14  846   3.071   3.275   1.476
    2V3OU   C16  847   2.970   3.186   1.512
    2V3OU    H6  848   2.992   3.106   1.584
    2V3OU   C12  849   3.209   3.232   1.509
    2V3OU    O2  850   3.230   3.122   1.565
    2V3OU   C10  851   3.321   3.304   1.448
    2V3OU    C8  852   3.453   3.267   1.469
    2V3OU   O10  853   3.484   3.155   1.540
    2V3OU   H26  854   3.401   3.104   1.548
    2V3OU    C6  855   3.558   3.343   1.408
    2V3OU    C5  856   3.534   3.462   1.341
    2V3OU    C4  857   3.699   3.296   1.405
    2V3OU    H4  858   3.723   3.232   1.495
    2V3OU    H5  859   3.702   3.231   1.312
    2V3OU    C2  860   3.814   3.398   1.402
    2V3OU    O6  861   3.805   3.472   1.524
    2V3OU   H21  862   3.763   3.555   1.496
    2V3OU    C3  863   3.776   3.489   1.285
    2V3OU    H2  864   3.859   3.564   1.277
    2V3OU    H3  865   3.781   3.433   1.188
    2V3OU   C25  866   3.946   3.325   1.376
    2V3OU    O7  867   3.987   3.294   1.265
    2V3OU   C26  868   4.024   3.284   1.500
    2V3OU   H22  869   4.071   3.375   1.544
    2V3OU   H23  870   4.113   3.222   1.469
    2V3OU    O8  871   3.953   3.205   1.592
    2V3OU   H24  872   3.924   3.257   1.669
    2V3OU    C1  873   3.642   3.558   1.301
    2V3OU    H1  874   3.620   3.611   1.203
    2V3OU    O3  875   3.656   3.655   1.405
    2V3OU   C19  876   3.619   3.791   1.380
    2V3OU    H9  877   3.518   3.809   1.333
    2V3OU    O4  878   3.716   3.850   1.296
    2V3OU   C20  879   3.847   3.873   1.349
    2V3OU   H10  880   3.893   3.772   1.369
    2V3OU   C24  881   3.608   3.856   1.518
    2V3OU   H16  882   3.538   3.787   1.572
    2V3OU   H17  883   3.558   3.954   1.500
    2V3OU   C23  884   3.747   3.874   1.580
    2V3OU   H15  885   3.790   3.770   1.600
    2V3OU    N1  886   3.736   3.954   1.701
    2V3OU   H19  887   3.804   3.922   1.766
    2V3OU   H20  888   3.646   3.937   1.741
    2V3OU   C21  889   3.843   3.948   1.482
    2V3OU   H11  890   3.946   3.926   1.522
    2V3OU    O5  891   3.825   4.089   1.489
    2V3OU   H18  892   3.786   4.110   1.575
    2V3OU   C22  893   3.916   3.946   1.234
    2V3OU   H12  894   3.862   4.042   1.217
    2V3OU   H13  895   3.897   3.889   1.140
    2V3OU   H14  896   4.024   3.962   1.259
    2V3OU   C11  897   3.156   3.469   1.352
    2V3OU    O1  898   3.136   3.583   1.304
    2V3OU    C9  899   3.295   3.422   1.372
    2V3OU    C7  900   3.398   3.499   1.320
    2V3OU    O9  901   3.380   3.606   1.234
    2V3OU   H25  902   3.285   3.622   1.224
    2V3OU   C17  903   2.813   3.313   1.393
    2V3OU    H7  904   2.713   3.327   1.351
    2V3OU   C18  905   2.837   3.208   1.481
    2V3OU    H8  906   2.759   3.142   1.523
    3SOL     OW  907   1.107   3.342   0.811
    3SOL    HW1  908   1.048   3.417   0.781
    3SOL    HW2  909   1.052   3.273   0.859
    4SOL     OW  910   5.583   1.019   2.258
    4SOL    HW1  911   5.561   1.108   2.299
    4SOL    HW2  912   5.649   1.033   2.184
    5SOL     OW  913   3.475   3.166   1.114
    5SOL    HW1  914   3.530   3.177   1.197
    5SOL    HW2  915   3.434   3.075   1.113
    6SOL     OW  916   2.508   2.416   1.125
    6SOL    HW1  917   2.517   2.358   1.207
    6SOL    HW2  918   2.575   2.387   1.057
    7SOL     OW  919   6.148   0.999   1.606
    7SOL    HW1  920   6.067   1.056   1.619
    7SOL    HW2  921   6.183   0.970   1.695
    8SOL     OW  922   2.896   1.629   3.507
    8SOL    HW1  923   2.863   1.551   3.559
    8SOL    HW2  924   2.994   1.641   3.522
    9SOL     OW  925   0.932   3.918   6.417
    9SOL    HW1  926   0.881   3.836   6.443
    9SOL    HW2  927   1.023   3.892   6.384
   10SOL     OW  928   0.382   4.098   0.172
   10SOL    HW1  929   0.444   4.124   0.098
   10SOL    HW2  930   0.421   4.124   0.260
   11SOL     OW  931   4.337   6.131   6.865
   11SOL    HW1  932   4.414   6.097   6.812
   11SOL    HW2  933   4.333   6.231   6.858
   12SOL     OW  934   5.286   6.091   2.667
   12SOL    HW1  935   5.325   6.075   2.576
   12SOL    HW2  936   5.236   6.177   2.667
   13SOL     OW  937   2.034   0.363   3.026
   13SOL    HW1  938   2.102   0.289   3.026
   13SOL    HW2  939   2.064   0.436   3.087
   14SOL     OW  940   2.904   6.734   1.724
   14SOL    HW1  941   2.865   6.642   1.728
   14SOL    HW2  942   2.836   6.800   1.756
   15SOL     OW  943   2.054   6.535   6.078
   15SOL    HW1  944   1.958   6.561   6.092
   15SOL    HW2  945   2.068   6.507   5.984
   16SOL     OW  946   6.683   1.366   6.474
   16SOL    HW1  947   6.718   1.386   6.382
   16SOL    HW2  948   6.755   1.321   6.528
   17SOL     OW  949   4.884   5.995   3.663
   17SOL    HW1  950   4.964   6.010   3.721
   17SOL    HW2  951   4.842   5.908   3.686
   18SOL     OW  952   1.437   1.316   0.010
   18SOL    HW1  953   1.394   1.392   0.058
   18SOL    HW2  954   1.382   1.291   6.948
   19SOL     OW  955   0.752   0.006   1.591
   19SOL    HW1  956   0.809   0.023   1.672
   19SOL    HW2  957   0.762   6.928   1.562
   20SOL     OW  958   3.015   0.986   4.353
   20SOL    HW1  959   3.040   0.894   4.385
   20SOL    HW2  960   2.935   0.980   4.293
   21SOL     OW  961   2.906   2.888   1.329
   21SOL    HW1  962   2.895   2.842   1.241
   21SOL    HW2  963   2.957   2.829   1.391
   22SOL     OW  964   0.931   1.243   5.148
   22SOL    HW1  965   0.888   1.330   5.125
   22SOL    HW2  966   0.981   1.208   5.069
   23SOL     OW  967   4.140   6.064   4.338
   23SOL    HW1  968   4.174   6.157   4.351
   23SOL    HW2  969   4.104   6.055   4.245
   24SOL     OW  970   4.162   1.042   4.696
   24SOL    HW1  971   4.084   1.085   4.741
   24SOL    HW2  972   4.189   0.959   4.745
   25SOL     OW  973   2.997   4.343   1.209
   25SOL    HW1  974   2.994   4.309   1.115
   25SOL    HW2  975   3.057   4.423   1.213
   26SOL     OW  976   5.794   1.090   2.798
   26SOL    HW1  977   5.879   1.089   2.852
   26SOL    HW2  978   5.791   1.010   2.739
   27SOL     OW  979   6.079   6.210   2.061
   27SOL    HW1  980   6.014   6.158   2.117
   27SOL    HW2  981   6.103   6.156   1.980
   28SOL     OW  982   3.218   1.006   0.698
   28SOL    HW1  983   3.145   0.958   0.649
   28SOL    HW2  984   3.301   1.006   0.643
   29SOL     OW  985   4.089   2.482   1.639
   29SOL    HW1  986   4.053   2.423   1.567
   29SOL    HW2  987   4.037   2.568   1.640
   30SOL     OW  988   3.949   1.221   4.752
   30SOL    HW1  989   3.974   1.249   4.845
   30SOL    HW2  990   3.931   1.302   4.697
   31SOL     OW  991   0.336   0.867   5.043
   31SOL    HW1  992   0.293   0.778   5.030
   31SOL    HW2  993   0.334   0.918   4.956
   32SOL     OW  994   0.030   2.187   1.834
   32SOL    HW1  995   0.105   2.249   1.852
   32SOL    HW2  996   0.063   2.110   1.778
   33SOL     OW  997   1.993   2.029   5.058
   33SOL    HW1  998   2.037   1.955   5.109
   33SOL    HW2  999   1.911   1.995   5.013
   34SOL     OW 1000   0.818   0.400   4.752
   34SOL    HW1 1001   0.907   0.437   4.778
   34SOL    HW2 1002   0.815   0.302   4.775
   35SOL     OW 1003   4.170   1.718   6.522
   35SOL    HW1 1004   4.089   1.661   6.534
   35SOL    HW2 1005   4.215   1.692   6.436
   36SOL     OW 1006   1.680   1.362   5.745
   36SOL    HW1 1007   1.651   1.343   5.839
   36SOL    HW2 1008   1.770   1.405   5.745
   37SOL     OW 1009   2.059   6.611   0.539
   37SOL    HW1 1010   2.015   6.539   0.486
   37SOL    HW2 1011   1.989   6.666   0.585
   38SOL     OW 1012   0.144   6.156   2.052
   38SOL    HW1 1013   0.129   6.233   2.114
   38SOL    HW2 1014   0.176   6.077   2.104
   39SOL     OW 1015   6.979   2.807   5.954
   39SOL    HW1 1016   6.910   2.737   5.974
   39SOL    HW2 1017   6.941   2.875   5.891
   40SOL     OW 1018   6.806   0.824   1.682
   40SOL    HW1 1019   6.797   0.756   1.755
   40SOL    HW2 1020   6.799   0.778   1.593
   41SOL     OW 1021   1.426   0.298   5.516
   41SOL    HW1 1022   1.523   0.297   5.541
   41SOL    HW2 1023   1.410   0.375   5.454
   42SOL     OW 1024   3.975   0.667   0.541
   42SOL    HW1 1025   3.897   0.705   0.589
   42SOL    HW2 1026   3.957   0.572   0.517
   43SOL     OW 1027   5.206   5.390   5.336
   43SOL    HW1 1028   5.184   5.459   5.405
   43SOL    HW2 1029   5.303   5.365   5.343
   44SOL     OW 1030   0.590   3.350   6.495
   44SOL    HW1 1031   0.536   3.288   6.551
   44SOL    HW2 1032   0.584   3.322   6.399
   45SOL     OW 1033   2.795   0.403   1.456
   45SOL    HW1 1034   2.876   0.456   1.481
   45SOL    HW2 1035   2.728   0.409   1.529
   46SOL     OW 1036   1.327   4.755   3.792
   46SOL    HW1 1037   1.290   4.670   3.754
   46SOL    HW2 1038   1.256   4.802   3.845
   47SOL     OW 1039   6.159   4.327   2.978
   47SOL    HW1 1040   6.137   4.273   3.059
   47SOL    HW2 1041   6.110   4.290   2.899
   48SOL     OW 1042   0.944   1.424   5.385
   48SOL    HW1 1043   0.869   1.428   5.318
   48SOL    HW2 1044   1.026   1.464   5.345
   49SOL     OW 1045   5.398   2.556   0.663
   49SOL    HW1 1046   5.363   2.463   0.653
   49SOL    HW2 1047   5.477   2.555   0.725
   50SOL     OW 1048   6.678   3.888   4.529
   50SOL    HW1 1049   6.655   3.820   4.459
   50SOL    HW2 1050   6.668   3.847   4.620
   51SOL     OW 1051   2.956   5.780   2.464
   51SOL    HW1 1052   2.934   5.697   2.516
   51SOL    HW2 1053   2.992   5.754   2.374
   52SOL     OW 1054   1.026   2.109   1.482
   52SOL    HW1 1055   1.044   2.025   1.533
   52SOL    HW2 1056   1.083   2.110   1.400
   53SOL     OW 1057   4.842   6.351   4.148
   53SOL    HW1 1058   4.755   6.331   4.102
   53SOL    HW2 1059   4.874   6.442   4.122
   54SOL     OW 1060   4.241   5.992   6.184
   54SOL    HW1 1061   4.312   5.973   6.252
   54SOL    HW2 1062   4.282   5.992   6.093
   55SOL     OW 1063   3.833   2.495   0.177
   55SOL    HW1 1064   3.745   2.483   0.130
   55SOL    HW2 1065   3.856   2.593   0.179
   56SOL     OW 1066   0.777   6.710   1.586
   56SOL    HW1 1067   0.862   6.658   1.581
   56SOL    HW2 1068   0.703   6.658   1.544
   57SOL     OW 1069   5.933   1.106   0.702
   57SOL    HW1 1070   5.959   1.018   0.661
   57SOL    HW2 1071   5.996   1.177   0.671
   58SOL     OW 1072   6.892   6.809   6.766
   58SOL    HW1 1073   6.879   6.863   6.849
   58SOL    HW2 1074   6.910   6.870   6.688
   59SOL     OW 1075   0.947   0.134   4.818
   59SOL    HW1 1076   0.884   0.079   4.874
   59SOL    HW2 1077   0.929   0.117   4.721
   60SOL     OW 1078   4.626   6.626   5.234
   60SOL    HW1 1079   4.594   6.647   5.327
   60SOL    HW2 1080   4.713   6.672   5.217
   61SOL     OW 1081   3.670   0.552   5.061
   61SOL    HW1 1082   3.676   0.471   5.119
   61SOL    HW2 1083   3.674   0.525   4.965
   62SOL     OW 1084   2.653   1.212   4.945
   62SOL    HW1 1085   2.648   1.296   4.999
   62SOL    HW2 1086   2.730   1.219   4.881
   63SOL     OW 1087   6.865   3.272   3.208
   63SOL    HW1 1088   6.893   3.189   3.160
   63SOL    HW2 1089   6.780   3.255   3.258
   64SOL     OW 1090   6.687   2.452   5.829
   64SOL    HW1 1091   6.727   2.428   5.741
   64SOL    HW2 1092   6.639   2.372   5.866
   65SOL     OW 1093   6.970   3.870   5.847
   65SOL    HW1 1094   0.023   3.940   5.835
   65SOL    HW2 1095   6.907   3.872   5.770
   66SOL     OW 1096   2.562   1.359   0.983
   66SOL    HW1 1097   2.633   1.301   0.945
   66SOL    HW2 1098   2.573   1.452   0.949
   67SOL     OW 1099   5.000   5.805   4.231
   67SOL    HW1 1100   5.085   5.857   4.243
   67SOL    HW2 1101   4.924   5.857   4.270
   68SOL     OW 1102   5.513   2.656   6.309
   68SOL    HW1 1103   5.579   2.586   6.283
   68SOL    HW2 1104   5.502   2.721   6.234
   69SOL     OW 1105   2.581   2.987   5.747
   69SOL    HW1 1106   2.504   3.025   5.799
   69SOL    HW2 1107   2.613   3.054   5.680
   70SOL     OW 1108   6.651   5.468   1.965
   70SOL    HW1 1109   6.619   5.382   1.926
   70SOL    HW2 1110   6.574   5.531   1.975
   71SOL     OW 1111   1.914   2.931   2.884
   71SOL    HW1 1112   1.826   2.885   2.873
   71SOL    HW2 1113   1.904   3.008   2.946
   72SOL     OW 1114   3.079   5.551   4.153
   72SOL    HW1 1115   3.024   5.486   4.100
   72SOL    HW2 1116   3.147   5.594   4.093
   73SOL     OW 1117   4.267   2.566   6.659
   73SOL    HW1 1118   4.295   2.480   6.700
   73SOL    HW2 1119   4.248   2.633   6.731
   74SOL     OW 1120   5.104   5.944   6.309
   74SOL    HW1 1121   5.017   5.988   6.332
   74SOL    HW2 1122   5.093   5.844   6.312
   75SOL     OW 1123   3.923   4.990   5.347
   75SOL    HW1 1124   3.962   5.051   5.279
   75SOL    HW2 1125   3.858   4.928   5.303
   76SOL     OW 1126   2.539   3.131   1.347
   76SOL    HW1 1127   2.460   3.192   1.340
   76SOL    HW2 1128   2.596   3.141   1.266
   77SOL     OW 1129   5.604   4.902   6.334
   77SOL    HW1 1130   5.655   4.882   6.250
   77SOL    HW2 1131   5.591   5.001   6.342
   78SOL     OW 1132   6.359   6.662   6.235
   78SOL    HW1 1133   6.417   6.590   6.197
   78SOL    HW2 1134   6.355   6.652   6.335
   79SOL     OW 1135   3.391   6.912   6.962
   79SOL    HW1 1136   3.481   6.885   6.997
   79SOL    HW2 1137   3.393   7.009   6.939
   80SOL     OW 1138   0.355   1.278   4.104
   80SOL    HW1 1139   0.304   1.360   4.131
   80SOL    HW2 1140   0.293   1.199   4.105
   81SOL     OW 1141   1.658   0.335   3.860
   81SOL    HW1 1142   1.607   0.288   3.932
   81SOL    HW2 1143   1.702   0.267   3.801
   82SOL     OW 1144   6.934   4.588   5.520
   82SOL    HW1 1145   6.891   4.560   5.435
   82SOL    HW2 1146   6.871   4.649   5.570
   83SOL     OW 1147   6.547   0.115   6.871
   83SOL    HW1 1148   6.569   0.163   6.956
   83SOL    HW2 1149   6.468   0.056   6.886
   84SOL     OW 1150   6.154   3.686   1.602
   84SOL    HW1 1151   6.069   3.718   1.644
   84SOL    HW2 1152   6.146   3.589   1.579
   85SOL     OW 1153   0.380   2.221   5.417
   85SOL    HW1 1154   0.284   2.201   5.437
   85SOL    HW2 1155   0.431   2.136   5.408
   86SOL     OW 1156   1.414   1.017   4.885
   86SOL    HW1 1157   1.354   0.962   4.942
   86SOL    HW2 1158   1.471   0.957   4.829
   87SOL     OW 1159   4.153   0.624   1.406
   87SOL    HW1 1160   4.080   0.566   1.442
   87SOL    HW2 1161   4.240   0.601   1.451
   88SOL     OW 1162   5.465   0.547   0.818
   88SOL    HW1 1163   5.385   0.566   0.762
   88SOL    HW2 1164   5.459   0.454   0.855
   89SOL     OW 1165   2.016   1.881   6.049
   89SOL    HW1 1166   2.086   1.834   6.102
   89SOL    HW2 1167   2.027   1.858   5.952
   90SOL     OW 1168   6.670   6.059   3.568
   90SOL    HW1 1169   6.766   6.083   3.557
   90SOL    HW2 1170   6.657   5.961   3.555
   91SOL     OW 1171   4.875   4.731   4.740
   91SOL    HW1 1172   4.939   4.671   4.788
   91SOL    HW2 1173   4.790   4.737   4.792
   92SOL     OW 1174   2.606   6.554   1.059
   92SOL    HW1 1175   2.543   6.598   1.124
   92SOL    HW2 1176   2.552   6.506   0.989
   93SOL     OW 1177   3.498   4.906   6.020
   93SOL    HW1 1178   3.523   5.002   6.010
   93SOL    HW2 1179   3.574   4.849   5.990
   94SOL     OW 1180   2.370   5.944   0.985
   94SOL    HW1 1181   2.415   5.885   0.918
   94SOL    HW2 1182   2.389   5.911   1.077
   95SOL     OW 1183   6.360   0.163   4.774
   95SOL    HW1 1184   6.365   0.179   4.675
   95SOL    HW2 1185   6.411   0.234   4.821
   96SOL     OW 1186   1.333   0.108   4.678
   96SOL    HW1 1187   1.335   0.015   4.714
   96SOL    HW2 1188   1.427   0.140   4.664
   97SOL     OW 1189   6.223   2.545   5.144
   97SOL    HW1 1190   6.276   2.626   5.167
   97SOL    HW2 1191   6.146   2.571   5.085
   98SOL     OW 1192   5.964   2.303   5.948
   98SOL    HW1 1193   6.016   2.254   5.877
   98SOL    HW2 1194   5.867   2.304   5.923
   99SOL     OW 1195   4.267   2.387   1.356
   99SOL    HW1 1196   4.310   2.322   1.293
   99SOL    HW2 1197   4.278   2.354   1.450
  100SOL     OW 1198   6.200   4.905   6.494
  100SOL    HW1 1199   6.281   4.865   6.536
  100SOL    HW2 1200   6.196   5.003   6.516
  101SOL     OW 1201   1.295   6.555   4.291
  101SOL    HW1 1202   1.368   6.486   4.292
  101SOL    HW2 1203   1.209   6.512   4.319
  102SOL     OW 1204   5.064   0.061   3.021
  102SOL    HW1 1205   4.974   0.090   2.987
  102SOL    HW2 1206   5.063   0.060   3.121
  103SOL     OW 1207   3.711   1.906   1.585
  103SOL    HW1 1208   3.796   1.959   1.588
  103SOL    HW2 1209   3.639   1.961   1.543
  104SOL     OW 1210   0.231   5.540   1.760
  104SOL    HW1 1211   0.137   5.567   1.738
  104SOL    HW2 1212   0.231   5.483   1.842
  105SOL     OW 1213   5.128   1.411   5.427
  105SOL    HW1 1214   5.215   1.445   5.465
  105SOL    HW2 1215   5.130   1.419   5.327
  106SOL     OW 1216   3.801   6.596   0.403
  106SOL    HW1 1217   3.759   6.522   0.455
  106SOL    HW2 1218   3.820   6.565   0.310
  107SOL     OW 1219   2.325   3.293   1.362
  107SOL    HW1 1220   2.304   3.285   1.460
  107SOL    HW2 1221   2.370   3.381   1.345
  108SOL     OW 1222   5.163   4.411   5.242
  108SOL    HW1 1223   5.101   4.336   5.265
  108SOL    HW2 1224   5.181   4.411   5.144
  109SOL     OW 1225   6.775   0.787   1.386
  109SOL    HW1 1226   6.678   0.806   1.401
  109SOL    HW2 1227   6.789   0.763   1.290
  110SOL     OW 1228   3.102   5.810   5.185
  110SOL    HW1 1229   3.184   5.839   5.135
  110SOL    HW2 1230   3.118   5.818   5.283
  111SOL     OW 1231   3.827   0.980   3.099
  111SOL    HW1 1232   3.833   0.942   3.191
  111SOL    HW2 1233   3.861   1.074   3.099
  112SOL     OW 1234   0.110   0.801   6.012
  112SOL    HW1 1235   0.189   0.779   6.069
  112SOL    HW2 1236   0.062   0.717   5.988
  113SOL     OW 1237   0.002   5.726   4.120
  113SOL    HW1 1238   0.028   5.658   4.187
  113SOL    HW2 1239   0.081   5.748   4.062
  114SOL     OW 1240   0.254   6.807   6.880
  114SOL    HW1 1241   0.251   6.832   6.783
  114SOL    HW2 1242   0.235   6.888   6.936
  115SOL     OW 1243   5.100   1.078   4.934
  115SOL    HW1 1244   5.146   1.005   4.883
  115SOL    HW2 1245   5.130   1.077   5.029
  116SOL     OW 1246   6.026   4.663   2.573
  116SOL    HW1 1247   6.033   4.668   2.673
  116SOL    HW2 1248   6.114   4.689   2.533
  117SOL     OW 1249   0.985   6.591   6.459
  117SOL    HW1 1250   1.068   6.633   6.422
  117SOL    HW2 1251   0.987   6.493   6.440
  118SOL     OW 1252   1.385   0.576   2.169
  118SOL    HW1 1253   1.434   0.582   2.256
  118SOL    HW2 1254   1.289   0.555   2.186
  119SOL     OW 1255   6.548   2.895   6.328
  119SOL    HW1 1256   6.498   2.930   6.248
  119SOL    HW2 1257   6.502   2.813   6.363
  120SOL     OW 1258   5.629   6.367   1.430
  120SOL    HW1 1259   5.695   6.384   1.357
  120SOL    HW2 1260   5.677   6.342   1.514
  121SOL     OW 1261   2.967   3.311   5.928
  121SOL    HW1 1262   2.997   3.308   5.833
  121SOL    HW2 1263   3.046   3.325   5.987
  122SOL     OW 1264   0.381   3.325   4.670
  122SOL    HW1 1265   0.363   3.380   4.588
  122SOL    HW2 1266   0.363   3.379   4.752
  123SOL     OW 1267   1.107   1.848   1.588
  123SOL    HW1 1268   1.189   1.833   1.533
  123SOL    HW2 1269   1.119   1.807   1.678
  124SOL     OW 1270   4.767   2.921   1.032
  124SOL    HW1 1271   4.847   2.905   0.974
  124SOL    HW2 1272   4.711   2.838   1.036
  125SOL     OW 1273   2.090   3.476   1.721
  125SOL    HW1 1274   2.135   3.441   1.640
  125SOL    HW2 1275   2.152   3.470   1.799
  126SOL     OW 1276   3.191   4.517   1.287
  126SOL    HW1 1277   3.129   4.591   1.314
  126SOL    HW2 1278   3.270   4.516   1.348
  127SOL     OW 1279   0.832   5.757   5.922
  127SOL    HW1 1280   0.812   5.666   5.887
  127SOL    HW2 1281   0.905   5.799   5.867
  128SOL     OW 1282   4.613   2.481   1.788
  128SOL    HW1 1283   4.708   2.511   1.798
  128SOL    HW2 1284   4.573   2.526   1.707
  129SOL     OW 1285   2.724   3.471   6.267
  129SOL    HW1 1286   2.638   3.468   6.318
  129SOL    HW2 1287   2.800   3.475   6.332
  130SOL     OW 1288   1.191   2.113   4.657
  130SOL    HW1 1289   1.128   2.129   4.580
  130SOL    HW2 1290   1.270   2.174   4.647
  131SOL     OW 1291   5.196   2.351   2.675
  131SOL    HW1 1292   5.169   2.418   2.606
  131SOL    HW2 1293   5.117   2.293   2.697
  132SOL     OW 1294   0.445   2.491   0.877
  132SOL    HW1 1295   0.472   2.506   0.782
  132SOL    HW2 1296   0.396   2.572   0.911
  133SOL     OW 1297   6.354   5.242   2.043
  133SOL    HW1 1298   6.332   5.311   2.112
  133SOL    HW2 1299   6.275   5.228   1.983
  134SOL     OW 1300   0.326   3.883   2.680
  134SOL    HW1 1301   0.355   3.926   2.594
  134SOL    HW2 1302   0.270   3.803   2.659
  135SOL     OW 1303   4.777   1.402   4.066
  135SOL    HW1 1304   4.813   1.403   4.159
  135SOL    HW2 1305   4.795   1.491   4.023
  136SOL     OW 1306   5.605   4.780   5.766
  136SOL    HW1 1307   5.510   4.749   5.762
  136SOL    HW2 1308   5.665   4.712   5.724
  137SOL     OW 1309   3.991   0.312   5.921
  137SOL    HW1 1310   3.977   0.364   5.836
  137SOL    HW2 1311   3.934   0.230   5.919
  138SOL     OW 1312   6.648   5.165   4.899
  138SOL    HW1 1313   6.623   5.216   4.982
  138SOL    HW2 1314   6.641   5.225   4.820
  139SOL     OW 1315   3.701   5.578   5.553
  139SOL    HW1 1316   3.758   5.603   5.475
  139SOL    HW2 1317   3.758   5.569   5.634
  140SOL     OW 1318   6.045   4.216   5.111
  140SOL    HW1 1319   6.062   4.312   5.134
  140SOL    HW2 1320   6.084   4.157   5.183
  141SOL     OW 1321   1.135   2.325   3.235
  141SOL    HW1 1322   1.108   2.244   3.182
  141SOL    HW2 1323   1.231   2.345   3.219
  142SOL     OW 1324   1.404   5.670   1.366
  142SOL    HW1 1325   1.454   5.644   1.284
  142SOL    HW2 1326   1.395   5.590   1.426
  143SOL     OW 1327   5.524   3.883   1.330
  143SOL    HW1 1328   5.541   3.981   1.316
  143SOL    HW2 1329   5.586   3.849   1.401
  144SOL     OW 1330   2.603   6.321   0.678
  144SOL    HW1 1331   2.583   6.419   0.681
  144SOL    HW2 1332   2.574   6.279   0.764
  145SOL     OW 1333   6.686   5.635   0.407
  145SOL    HW1 1334   6.622   5.700   0.448
  145SOL    HW2 1335   6.705   5.662   0.312
  146SOL     OW 1336   6.217   4.848   0.817
  146SOL    HW1 1337   6.313   4.846   0.792
  146SOL    HW2 1338   6.186   4.943   0.825
  147SOL     OW 1339   6.002   2.210   1.409
  147SOL    HW1 1340   6.094   2.233   1.379
  147SOL    HW2 1341   6.006   2.141   1.481
  148SOL     OW 1342   1.358   4.996   5.903
  148SOL    HW1 1343   1.456   4.977   5.903
  148SOL    HW2 1344   1.310   4.927   5.847
  149SOL     OW 1345   3.086   1.000   6.239
  149SOL    HW1 1346   3.027   0.960   6.310
  149SOL    HW2 1347   3.129   0.927   6.187
  150SOL     OW 1348   0.437   5.862   5.950
  150SOL    HW1 1349   0.410   5.821   6.037
  150SOL    HW2 1350   0.429   5.794   5.877
  151SOL     OW 1351   4.053   1.048   1.655
  151SOL    HW1 1352   3.984   1.118   1.635
  151SOL    HW2 1353   4.036   0.967   1.600
  152SOL     OW 1354   3.395   0.994   4.530
  152SOL    HW1 1355   3.446   1.032   4.608
  152SOL    HW2 1356   3.312   0.950   4.563
  153SOL     OW 1357   1.606   0.867   3.064
  153SOL    HW1 1358   1.642   0.932   2.997
  153SOL    HW2 1359   1.594   0.913   3.152
  154SOL     OW 1360   6.564   2.160   2.889
  154SOL    HW1 1361   6.578   2.255   2.862
  154SOL    HW2 1362   6.497   2.157   2.964
  155SOL     OW 1363   0.261   0.703   2.655
  155SOL    HW1 1364   0.287   0.655   2.571
  155SOL    HW2 1365   0.344   0.729   2.705
  156SOL     OW 1366   6.904   2.094   0.973
  156SOL    HW1 1367   6.836   2.078   1.044
  156SOL    HW2 1368   6.956   2.010   0.958
  157SOL     OW 1369   5.855   4.119   2.802
  157SOL    HW1 1370   5.760   4.093   2.786
  157SOL    HW2 1371   5.862   4.169   2.888
  158SOL     OW 1372   1.296   1.788   3.250
  158SOL    HW1 1373   1.223   1.823   3.309
  158SOL    HW2 1374   1.285   1.690   3.237
  159SOL     OW 1375   5.065   3.677   2.204
  159SOL    HW1 1376   5.152   3.675   2.253
  159SOL    HW2 1377   5.053   3.592   2.153
  160SOL     OW 1378   6.758   4.413   5.823
  160SOL    HW1 1379   6.829   4.398   5.755
  160SOL    HW2 1380   6.792   4.386   5.913
  161SOL     OW 1381   3.672   4.886   5.286
  161SOL    HW1 1382   3.622   4.877   5.200
  161SOL    HW2 1383   3.615   4.932   5.354
  162SOL     OW 1384   4.500   6.149   2.078
  162SOL    HW1 1385   4.557   6.070   2.055
  162SOL    HW2 1386   4.408   6.116   2.102
  163SOL     OW 1387   5.163   0.704   1.930
  163SOL    HW1 1388   5.113   0.748   1.856
  163SOL    HW2 1389   5.102   0.688   2.008
  164SOL     OW 1390   6.173   3.375   1.272
  164SOL    HW1 1391   6.255   3.393   1.218
  164SOL    HW2 1392   6.096   3.361   1.211
  165SOL     OW 1393   5.460   4.059   6.454
  165SOL    HW1 1394   5.498   4.005   6.379
  165SOL    HW2 1395   5.464   4.007   6.539
  166SOL     OW 1396   1.475   0.694   1.698
  166SOL    HW1 1397   1.385   0.702   1.654
  166SOL    HW2 1398   1.463   0.687   1.797
  167SOL     OW 1399   6.509   3.232   0.362
  167SOL    HW1 1400   6.606   3.222   0.383
  167SOL    HW2 1401   6.480   3.326   0.380
  168SOL     OW 1402   2.442   5.509   1.566
  168SOL    HW1 1403   2.512   5.536   1.631
  168SOL    HW2 1404   2.418   5.413   1.580
  169SOL     OW 1405   1.013   7.006   1.426
  169SOL    HW1 1406   0.962   7.006   1.513
  169SOL    HW2 1407   1.070   0.071   1.421
  170SOL     OW 1408   0.454   1.614   3.351
  170SOL    HW1 1409   0.461   1.673   3.270
  170SOL    HW2 1410   0.372   1.557   3.343
  171SOL     OW 1411   3.371   3.515   6.936
  171SOL    HW1 1412   3.408   3.545   6.848
  171SOL    HW2 1413   3.425   3.438   6.970
  172SOL     OW 1414   6.976   2.927   0.291
  172SOL    HW1 1415   6.917   2.983   0.233
  172SOL    HW2 1416   6.938   2.836   0.302
  173SOL     OW 1417   0.458   6.478   5.736
  173SOL    HW1 1418   0.388   6.409   5.717
  173SOL    HW2 1419   0.548   6.436   5.730
  174SOL     OW 1420   2.807   5.576   3.784
  174SOL    HW1 1421   2.866   5.499   3.809
  174SOL    HW2 1422   2.723   5.542   3.743
  175SOL     OW 1423   0.662   5.404   2.844
  175SOL    HW1 1424   0.633   5.426   2.937
  175SOL    HW2 1425   0.747   5.451   2.823
  176SOL     OW 1426   2.947   5.199   1.166
  176SOL    HW1 1427   2.868   5.259   1.150
  176SOL    HW2 1428   2.925   5.106   1.136
  177SOL     OW 1429   4.584   2.004   2.744
  177SOL    HW1 1430   4.680   1.987   2.765
  177SOL    HW2 1431   4.573   2.098   2.711
  178SOL     OW 1432   5.837   4.350   6.403
  178SOL    HW1 1433   5.770   4.424   6.392
  178SOL    HW2 1434   5.834   4.290   6.323
  179SOL     OW 1435   2.967   0.100   0.819
  179SOL    HW1 1436   2.988   0.003   0.821
  179SOL    HW2 1437   2.922   0.123   0.733
  180SOL     OW 1438   1.209   2.487   6.630
  180SOL    HW1 1439   1.197   2.524   6.538
  180SOL    HW2 1440   1.281   2.417   6.629
  181SOL     OW 1441   3.092   2.891   5.243
  181SOL    HW1 1442   3.102   2.795   5.270
  181SOL    HW2 1443   3.157   2.912   5.170
  182SOL     OW 1444   4.745   2.912   5.064
  182SOL    HW1 1445   4.776   3.005   5.078
  182SOL    HW2 1446   4.812   2.848   5.101
  183SOL     OW 1447   5.443   1.800   2.148
  183SOL    HW1 1448   5.369   1.868   2.140
  183SOL    HW2 1449   5.425   1.742   2.227
  184SOL     OW 1450   0.326   4.687   3.436
  184SOL    HW1 1451   0.325   4.617   3.365
  184SOL    HW2 1452   0.352   4.646   3.524
  185SOL     OW 1453   2.734   3.404   6.672
  185SOL    HW1 1454   2.660   3.345   6.705
  185SOL    HW2 1455   2.726   3.494   6.715
  186SOL     OW 1456   5.960   6.339   3.309
  186SOL    HW1 1457   5.988   6.427   3.346
  186SOL    HW2 1458   6.036   6.298   3.258
  187SOL     OW 1459   5.514   1.209   3.818
  187SOL    HW1 1460   5.450   1.138   3.849
  187SOL    HW2 1461   5.489   1.297   3.859
  188SOL     OW 1462   6.189   2.708   4.056
  188SOL    HW1 1463   6.226   2.750   3.973
  188SOL    HW2 1464   6.157   2.616   4.036
  189SOL     OW 1465   2.149   4.012   2.545
  189SOL    HW1 1466   2.101   3.932   2.508
  189SOL    HW2 1467   2.180   4.070   2.469
  190SOL     OW 1468   3.205   0.980   6.851
  190SOL    HW1 1469   3.196   1.074   6.882
  190SOL    HW2 1470   3.273   0.975   6.778
  191SOL     OW 1471   4.450   5.746   5.473
  191SOL    HW1 1472   4.467   5.833   5.428
  191SOL    HW2 1473   4.493   5.746   5.563
  192SOL     OW 1474   0.045   0.315   1.192
  192SOL    HW1 1475   0.036   0.310   1.092
  192SOL    HW2 1476   6.973   0.329   1.233
  193SOL     OW 1477   5.537   4.562   6.484
  193SOL    HW1 1478   5.550   4.646   6.433
  193SOL    HW2 1479   5.476   4.580   6.562
  194SOL     OW 1480   4.070   0.116   4.414
  194SOL    HW1 1481   4.137   0.056   4.458
  194SOL    HW2 1482   4.108   0.151   4.328
  195SOL     OW 1483   6.871   5.459   3.401
  195SOL    HW1 1484   6.963   5.467   3.363
  195SOL    HW2 1485   6.862   5.519   3.481
  196SOL     OW 1486   0.938   1.548   0.953
  196SOL    HW1 1487   1.038   1.548   0.954
  196SOL    HW2 1488   0.904   1.522   1.043
  197SOL     OW 1489   1.863   0.940   0.683
  197SOL    HW1 1490   1.902   0.858   0.725
  197SOL    HW2 1491   1.932   1.013   0.682
  198SOL     OW 1492   2.728   1.243   3.525
  198SOL    HW1 1493   2.692   1.278   3.439
  198SOL    HW2 1494   2.827   1.237   3.521
  199SOL     OW 1495   0.774   1.641   4.326
  199SOL    HW1 1496   0.782   1.541   4.331
  199SOL    HW2 1497   0.837   1.676   4.256
  200SOL     OW 1498   6.590   2.735   0.329
  200SOL    HW1 1499   6.569   2.760   0.424
  200SOL    HW2 1500   6.532   2.788   0.267
  201SOL     OW 1501   0.561   0.877   6.152
  201SOL    HW1 1502   0.505   0.946   6.197
  201SOL    HW2 1503   0.619   0.920   6.083
  202SOL     OW 1504   4.727   6.982   0.465
  202SOL    HW1 1505   4.791   0.040   0.447
  202SOL    HW2 1506   4.668   7.006   0.542
  203SOL     OW 1507   6.260   2.899   6.474
  203SOL    HW1 1508   6.197   2.828   6.505
  203SOL    HW2 1509   6.348   2.858   6.451
  204SOL     OW 1510   6.317   0.670   4.936
  204SOL    HW1 1511   6.309   0.719   4.850
  204SOL    HW2 1512   6.357   0.731   5.005
  205SOL     OW 1513   2.049   3.390   3.029
  205SOL    HW1 1514   1.982   3.367   2.958
  205SOL    HW2 1515   2.066   3.489   3.028
  206SOL     OW 1516   0.557   3.238   0.198
  206SOL    HW1 1517   0.520   3.186   0.276
  206SOL    HW2 1518   0.481   3.270   0.141
  207SOL     OW 1519   6.027   2.883   4.754
  207SOL    HW1 1520   5.967   2.822   4.806
  207SOL    HW2 1521   6.106   2.832   4.721
  208SOL     OW 1522   1.288   3.681   4.763
  208SOL    HW1 1523   1.361   3.614   4.747
  208SOL    HW2 1524   1.329   3.772   4.773
  209SOL     OW 1525   6.769   4.577   3.021
  209SOL    HW1 1526   6.750   4.488   3.063
  209SOL    HW2 1527   6.788   4.565   2.924
  210SOL     OW 1528   4.494   2.878   0.109
  210SOL    HW1 1529   4.411   2.874   0.053
  210SOL    HW2 1530   4.475   2.930   0.193
  211SOL     OW 1531   0.411   1.410   2.650
  211SOL    HW1 1532   0.334   1.346   2.659
  211SOL    HW2 1533   0.479   1.372   2.588
  212SOL     OW 1534   2.118   3.977   2.116
  212SOL    HW1 1535   2.164   4.022   2.040
  212SOL    HW2 1536   2.133   3.878   2.110
  213SOL     OW 1537   0.743   4.724   1.507
  213SOL    HW1 1538   0.825   4.781   1.498
  213SOL    HW2 1539   0.681   4.742   1.430
  214SOL     OW 1540   5.320   5.801   1.529
  214SOL    HW1 1541   5.234   5.805   1.479
  214SOL    HW2 1542   5.325   5.715   1.580
  215SOL     OW 1543   2.685   5.673   3.346
  215SOL    HW1 1544   2.716   5.589   3.301
  215SOL    HW2 1545   2.759   5.740   3.346
  216SOL     OW 1546   0.885   6.284   2.768
  216SOL    HW1 1547   0.881   6.206   2.705
  216SOL    HW2 1548   0.957   6.346   2.739
  217SOL     OW 1549   0.907   4.579   5.751
  217SOL    HW1 1550   0.891   4.501   5.691
  217SOL    HW2 1551   0.832   4.644   5.741
  218SOL     OW 1552   2.137   1.881   5.222
  218SOL    HW1 1553   2.076   1.808   5.256
  218SOL    HW2 1554   2.136   1.957   5.286
  219SOL     OW 1555   4.228   1.794   1.314
  219SOL    HW1 1556   4.147   1.756   1.358
  219SOL    HW2 1557   4.201   1.843   1.231
  220SOL     OW 1558   2.942   6.587   1.077
  220SOL    HW1 1559   3.000   6.562   1.154
  220SOL    HW2 1560   2.848   6.602   1.110
  221SOL     OW 1561   5.555   4.768   1.911
  221SOL    HW1 1562   5.648   4.748   1.879
  221SOL    HW2 1563   5.559   4.823   1.995
  222SOL     OW 1564   2.266   4.872   6.529
  222SOL    HW1 1565   2.223   4.924   6.455
  222SOL    HW2 1566   2.198   4.813   6.572
  223SOL     OW 1567   6.053   2.026   5.564
  223SOL    HW1 1568   6.015   1.970   5.638
  223SOL    HW2 1569   6.030   1.985   5.476
  224SOL     OW 1570   2.277   1.386   6.164
  224SOL    HW1 1571   2.277   1.434   6.252
  224SOL    HW2 1572   2.371   1.378   6.130
  225SOL     OW 1573   4.099   6.469   5.799
  225SOL    HW1 1574   4.086   6.371   5.785
  225SOL    HW2 1575   4.176   6.484   5.861
  226SOL     OW 1576   1.217   2.525   6.353
  226SOL    HW1 1577   1.299   2.582   6.348
  226SOL    HW2 1578   1.144   2.568   6.300
  227SOL     OW 1579   1.974   3.702   1.352
  227SOL    HW1 1580   2.039   3.737   1.420
  227SOL    HW2 1581   1.988   3.751   1.266
  228SOL     OW 1582   1.216   0.211   2.504
  228SOL    HW1 1583   1.302   0.184   2.547
  228SOL    HW2 1584   1.215   0.310   2.492
  229SOL     OW 1585   3.778   6.832   6.079
  229SOL    HW1 1586   3.732   6.760   6.027
  229SOL    HW2 1587   3.709   6.896   6.114
  230SOL     OW 1588   5.546   5.609   5.834
  230SOL    HW1 1589   5.565   5.542   5.905
  230SOL    HW2 1590   5.473   5.670   5.864
  231SOL     OW 1591   5.310   1.933   6.385
  231SOL    HW1 1592   5.236   1.967   6.443
  231SOL    HW2 1593   5.382   1.892   6.441
  232SOL     OW 1594   1.394   1.787   5.839
  232SOL    HW1 1595   1.425   1.806   5.746
  232SOL    HW2 1596   1.400   1.689   5.856
  233SOL     OW 1597   3.212   1.773   2.962
  233SOL    HW1 1598   3.185   1.869   2.955
  233SOL    HW2 1599   3.220   1.734   2.870
  234SOL     OW 1600   4.703   0.687   0.627
  234SOL    HW1 1601   4.647   0.705   0.546
  234SOL    HW2 1602   4.797   0.716   0.610
  235SOL     OW 1603   4.889   3.146   2.825
  235SOL    HW1 1604   4.906   3.072   2.891
  235SOL    HW2 1605   4.858   3.227   2.875
  236SOL     OW 1606   4.192   5.129   6.134
  236SOL    HW1 1607   4.262   5.157   6.069
  236SOL    HW2 1608   4.144   5.048   6.099
  237SOL     OW 1609   5.982   3.315   3.180
  237SOL    HW1 1610   6.080   3.334   3.172
  237SOL    HW2 1611   5.965   3.218   3.165
  238SOL     OW 1612   6.665   1.895   0.710
  238SOL    HW1 1613   6.729   1.967   0.737
  238SOL    HW2 1614   6.571   1.929   0.719
  239SOL     OW 1615   1.163   3.266   6.941
  239SOL    HW1 1616   1.155   3.271   6.841
  239SOL    HW2 1617   1.255   3.294   6.969
  240SOL     OW 1618   5.076   3.388   3.343
  240SOL    HW1 1619   5.049   3.316   3.406
  240SOL    HW2 1620   5.026   3.472   3.364
  241SOL     OW 1621   2.680   2.179   4.142
  241SOL    HW1 1622   2.642   2.092   4.173
  241SOL    HW2 1623   2.681   2.182   4.042
  242SOL     OW 1624   3.632   3.768   2.652
  242SOL    HW1 1625   3.669   3.857   2.678
  242SOL    HW2 1626   3.698   3.720   2.595
  243SOL     OW 1627   4.021   2.615   5.970
  243SOL    HW1 1628   3.976   2.612   5.881
  243SOL    HW2 1629   4.120   2.620   5.957
  244SOL     OW 1630   4.885   3.453   5.241
  244SOL    HW1 1631   4.887   3.469   5.340
  244SOL    HW2 1632   4.819   3.515   5.199
  245SOL     OW 1633   4.232   1.442   3.124
  245SOL    HW1 1634   4.327   1.472   3.119
  245SOL    HW2 1635   4.226   1.347   3.095
  246SOL     OW 1636   6.264   1.095   1.996
  246SOL    HW1 1637   6.218   1.034   1.932
  246SOL    HW2 1638   6.308   1.169   1.946
  247SOL     OW 1639   1.520   1.744   1.341
  247SOL    HW1 1640   1.494   1.784   1.253
  247SOL    HW2 1641   1.482   1.652   1.349
  248SOL     OW 1642   2.017   2.841   2.020
  248SOL    HW1 1643   2.101   2.789   2.033
  248SOL    HW2 1644   2.031   2.911   1.950
  249SOL     OW 1645   4.928   6.005   5.039
  249SOL    HW1 1646   4.969   5.939   5.102
  249SOL    HW2 1647   4.998   6.046   4.982
  250SOL     OW 1648   4.035   2.461   0.447
  250SOL    HW1 1649   4.116   2.488   0.498
  250SOL    HW2 1650   4.034   2.507   0.358
  251SOL     OW 1651   3.853   4.081   5.553
  251SOL    HW1 1652   3.879   4.015   5.623
  251SOL    HW2 1653   3.797   4.036   5.483
  252SOL     OW 1654   6.355   6.427   5.493
  252SOL    HW1 1655   6.427   6.414   5.562
  252SOL    HW2 1656   6.365   6.518   5.452
  253SOL     OW 1657   3.986   6.499   6.225
  253SOL    HW1 1658   4.079   6.466   6.241
  253SOL    HW2 1659   3.956   6.469   6.134
  254SOL     OW 1660   5.674   2.637   5.482
  254SOL    HW1 1661   5.737   2.704   5.522
  254SOL    HW2 1662   5.582   2.653   5.517
  255SOL     OW 1663   1.626   4.208   6.298
  255SOL    HW1 1664   1.704   4.222   6.237
  255SOL    HW2 1665   1.545   4.186   6.245
  256SOL     OW 1666   5.080   2.214   5.318
  256SOL    HW1 1667   5.058   2.303   5.277
  256SOL    HW2 1668   5.019   2.196   5.395
  257SOL     OW 1669   4.990   6.611   2.369
  257SOL    HW1 1670   4.920   6.674   2.402
  257SOL    HW2 1671   4.954   6.558   2.293
  258SOL     OW 1672   1.603   3.412   5.519
  258SOL    HW1 1673   1.581   3.314   5.525
  258SOL    HW2 1674   1.573   3.458   5.602
  259SOL     OW 1675   3.852   6.657   3.882
  259SOL    HW1 1676   3.776   6.710   3.845
  259SOL    HW2 1677   3.888   6.703   3.964
  260SOL     OW 1678   3.903   5.523   3.333
  260SOL    HW1 1679   3.907   5.489   3.427
  260SOL    HW2 1680   3.835   5.470   3.282
  261SOL     OW 1681   4.471   4.737   0.638
  261SOL    HW1 1682   4.422   4.680   0.703
  261SOL    HW2 1683   4.441   4.716   0.545
  262SOL     OW 1684   1.324   4.027   6.464
  262SOL    HW1 1685   1.313   3.929   6.446
  262SOL    HW2 1686   1.244   4.077   6.429
  263SOL     OW 1687   0.744   6.802   4.226
  263SOL    HW1 1688   0.808   6.872   4.194
  263SOL    HW2 1689   0.695   6.836   4.307
  264SOL     OW 1690   6.432   3.428   6.431
  264SOL    HW1 1691   6.484   3.438   6.516
  264SOL    HW2 1692   6.334   3.424   6.452
  265SOL     OW 1693   6.398   0.230   3.946
  265SOL    HW1 1694   6.380   0.225   3.848
  265SOL    HW2 1695   6.330   0.176   3.996
  266SOL     OW 1696   3.820   0.773   5.957
  266SOL    HW1 1697   3.826   0.693   6.017
  266SOL    HW2 1698   3.800   0.854   6.013
  267SOL     OW 1699   1.588   0.976   3.983
  267SOL    HW1 1700   1.512   1.040   3.972
  267SOL    HW2 1701   1.651   0.986   3.906
  268SOL     OW 1702   3.416   2.206   1.231
  268SOL    HW1 1703   3.482   2.221   1.157
  268SOL    HW2 1704   3.463   2.207   1.319
  269SOL     OW 1705   4.576   1.867   0.585
  269SOL    HW1 1706   4.670   1.896   0.568
  269SOL    HW2 1707   4.513   1.916   0.525
  270SOL     OW 1708   5.046   0.521   6.937
  270SOL    HW1 1709   4.962   0.508   6.990
  270SOL    HW2 1710   5.026   0.571   6.853
  271SOL     OW 1711   1.122   3.440   6.453
  271SOL    HW1 1712   1.023   3.448   6.469
  271SOL    HW2 1713   1.144   3.346   6.429
  272SOL     OW 1714   3.168   6.201   3.901
  272SOL    HW1 1715   3.117   6.246   3.828
  272SOL    HW2 1716   3.250   6.254   3.922
  273SOL     OW 1717   1.949   4.696   6.395
  273SOL    HW1 1718   2.020   4.626   6.392
  273SOL    HW2 1719   1.973   4.766   6.462
  274SOL     OW 1720   4.990   2.564   3.987
  274SOL    HW1 1721   4.974   2.589   3.892
  274SOL    HW2 1722   5.019   2.468   3.992
  275SOL     OW 1723   6.522   6.337   1.735
  275SOL    HW1 1724   6.597   6.300   1.679
  275SOL    HW2 1725   6.463   6.394   1.677
  276SOL     OW 1726   0.897   0.946   4.826
  276SOL    HW1 1727   0.960   0.882   4.783
  276SOL    HW2 1728   0.911   0.947   4.924
  277SOL     OW 1729   2.205   4.180   1.002
  277SOL    HW1 1730   2.303   4.163   1.001
  277SOL    HW2 1731   2.185   4.260   1.058
  278SOL     OW 1732   0.370   2.711   1.997
  278SOL    HW1 1733   0.397   2.660   1.915
  278SOL    HW2 1734   0.289   2.766   1.976
  279SOL     OW 1735   5.923   1.612   3.740
  279SOL    HW1 1736   5.978   1.675   3.795
  279SOL    HW2 1737   5.827   1.619   3.768
  280SOL     OW 1738   1.869   4.817   2.600
  280SOL    HW1 1739   1.962   4.828   2.565
  280SOL    HW2 1740   1.820   4.749   2.545
  281SOL     OW 1741   2.452   4.427   1.177
  281SOL    HW1 1742   2.510   4.437   1.097
  281SOL    HW2 1743   2.360   4.400   1.148
  282SOL     OW 1744   2.729   2.014   6.313
  282SOL    HW1 1745   2.640   1.988   6.350
  282SOL    HW2 1746   2.792   2.034   6.388
  283SOL     OW 1747   3.982   2.348   5.885
  283SOL    HW1 1748   3.970   2.260   5.932
  283SOL    HW2 1749   3.998   2.420   5.952
  284SOL     OW 1750   1.300   4.515   3.654
  284SOL    HW1 1751   1.400   4.513   3.647
  284SOL    HW2 1752   1.261   4.544   3.566
  285SOL     OW 1753   5.480   4.606   4.379
  285SOL    HW1 1754   5.447   4.549   4.455
  285SOL    HW2 1755   5.562   4.655   4.408
  286SOL     OW 1756   3.139   3.786   6.800
  286SOL    HW1 1757   3.235   3.813   6.801
  286SOL    HW2 1758   3.129   3.698   6.753
  287SOL     OW 1759   1.736   3.616   6.866
  287SOL    HW1 1760   1.760   3.559   6.787
  287SOL    HW2 1761   1.772   3.709   6.852
  288SOL     OW 1762   4.999   3.618   0.811
  288SOL    HW1 1763   4.984   3.672   0.893
  288SOL    HW2 1764   4.945   3.534   0.815
  289SOL     OW 1765   3.162   4.925   6.447
  289SOL    HW1 1766   3.189   4.878   6.531
  289SOL    HW2 1767   3.243   4.945   6.392
  290SOL     OW 1768   1.318   1.254   4.658
  290SOL    HW1 1769   1.328   1.161   4.624
  290SOL    HW2 1770   1.409   1.293   4.676
  291SOL     OW 1771   0.045   1.976   2.492
  291SOL    HW1 1772   6.977   1.925   2.481
  291SOL    HW2 1773   0.083   1.997   2.402
  292SOL     OW 1774   2.436   6.849   3.710
  292SOL    HW1 1775   2.403   6.793   3.786
  292SOL    HW2 1776   2.473   6.935   3.746
  293SOL     OW 1777   3.136   5.006   3.590
  293SOL    HW1 1778   3.080   4.924   3.580
  293SOL    HW2 1779   3.076   5.086   3.594
  294SOL     OW 1780   4.750   0.485   0.054
  294SOL    HW1 1781   4.811   0.429   0.109
  294SOL    HW2 1782   4.670   0.432   0.028
  295SOL     OW 1783   5.336   6.976   3.333
  295SOL    HW1 1784   5.334   6.876   3.346
  295SOL    HW2 1785   5.247   7.007   3.301
  296SOL     OW 1786   2.615   2.015   3.390
  296SOL    HW1 1787   2.551   1.971   3.453
  296SOL    HW2 1788   2.604   1.976   3.299
  297SOL     OW 1789   1.334   4.690   2.894
  297SOL    HW1 1790   1.434   4.692   2.900
  297SOL    HW2 1791   1.298   4.783   2.896
  298SOL     OW 1792   6.485   5.219   0.891
  298SOL    HW1 1793   6.477   5.227   0.990
  298SOL    HW2 1794   6.452   5.303   0.848
  299SOL     OW 1795   6.041   2.592   4.614
  299SOL    HW1 1796   6.131   2.567   4.649
  299SOL    HW2 1797   6.052   2.642   4.528
  300SOL     OW 1798   6.755   6.948   2.521
  300SOL    HW1 1799   6.776   0.009   2.579
  300SOL    HW2 1800   6.719   6.980   2.433
  301SOL     OW 1801   4.529   3.327   6.032
  301SOL    HW1 1802   4.447   3.271   6.046
  301SOL    HW2 1803   4.502   3.422   6.015
  302SOL     OW 1804   0.920   6.449   4.086
  302SOL    HW1 1805   0.939   6.544   4.062
  302SOL    HW2 1806   0.830   6.423   4.049
  303SOL     OW 1807   6.114   6.519   3.063
  303SOL    HW1 1808   6.134   6.572   2.981
  303SOL    HW2 1809   6.045   6.567   3.118
  304SOL     OW 1810   3.497   6.513   3.728
  304SOL    HW1 1811   3.579   6.464   3.699
  304SOL    HW2 1812   3.469   6.481   3.818
  305SOL     OW 1813   1.567   3.949   1.685
  305SOL    HW1 1814   1.588   3.861   1.729
  305SOL    HW2 1815   1.649   3.984   1.641
  306SOL     OW 1816   2.059   0.721   3.462
  306SOL    HW1 1817   1.972   0.766   3.479
  306SOL    HW2 1818   2.111   0.715   3.548
  307SOL     OW 1819   3.265   0.229   1.652
  307SOL    HW1 1820   3.297   0.152   1.707
  307SOL    HW2 1821   3.228   0.195   1.566
  308SOL     OW 1822   0.955   5.103   4.376
  308SOL    HW1 1823   0.968   5.086   4.474
  308SOL    HW2 1824   0.954   5.016   4.327
  309SOL     OW 1825   3.563   4.913   5.026
  309SOL    HW1 1826   3.653   4.905   4.984
  309SOL    HW2 1827   3.492   4.918   4.955
  310SOL     OW 1828   0.902   6.015   6.303
  310SOL    HW1 1829   0.888   6.015   6.402
  310SOL    HW2 1830   0.874   5.927   6.265
  311SOL     OW 1831   0.370   0.515   1.402
  311SOL    HW1 1832   0.304   0.571   1.353
  311SOL    HW2 1833   0.331   0.425   1.421
  312SOL     OW 1834   3.744   1.694   4.525
  312SOL    HW1 1835   3.711   1.681   4.619
  312SOL    HW2 1836   3.671   1.674   4.460
  313SOL     OW 1837   6.896   4.749   0.666
  313SOL    HW1 1838   6.891   4.844   0.697
  313SOL    HW2 1839   6.992   4.723   0.655
  314SOL     OW 1840   3.093   6.329   1.130
  314SOL    HW1 1841   2.998   6.310   1.104
  314SOL    HW2 1842   3.140   6.373   1.053
  315SOL     OW 1843   0.904   3.349   2.567
  315SOL    HW1 1844   1.004   3.352   2.567
  315SOL    HW2 1845   0.873   3.279   2.503
  316SOL     OW 1846   2.154   3.892   4.366
  316SOL    HW1 1847   2.126   3.890   4.462
  316SOL    HW2 1848   2.150   3.987   4.332
  317SOL     OW 1849   6.386   1.156   0.146
  317SOL    HW1 1850   6.468   1.199   0.183
  317SOL    HW2 1851   6.411   1.070   0.102
  318SOL     OW 1852   2.093   4.921   0.987
  318SOL    HW1 1853   2.165   4.874   0.935
  318SOL    HW2 1854   2.120   5.015   1.005
  319SOL     OW 1855   1.343   6.982   6.770
  319SOL    HW1 1856   1.313   7.001   6.864
  319SOL    HW2 1857   1.327   0.045   6.713
  320SOL     OW 1858   5.121   3.100   0.867
  320SOL    HW1 1859   5.199   3.160   0.848
  320SOL    HW2 1860   5.147   3.031   0.935
  321SOL     OW 1861   2.268   1.078   1.887
  321SOL    HW1 1862   2.193   1.043   1.944
  321SOL    HW2 1863   2.231   1.108   1.799
  322SOL     OW 1864   3.011   2.745   5.587
  322SOL    HW1 1865   3.031   2.704   5.676
  322SOL    HW2 1866   3.026   2.677   5.515
  323SOL     OW 1867   0.718   4.259   2.150
  323SOL    HW1 1868   0.733   4.203   2.068
  323SOL    HW2 1869   0.621   4.284   2.155
  324SOL     OW 1870   0.593   3.264   4.452
  324SOL    HW1 1871   0.547   3.267   4.540
  324SOL    HW2 1872   0.625   3.356   4.427
  325SOL     OW 1873   2.466   2.504   2.581
  325SOL    HW1 1874   2.422   2.591   2.561
  325SOL    HW2 1875   2.399   2.430   2.577
  326SOL     OW 1876   2.331   4.961   5.474
  326SOL    HW1 1877   2.355   4.902   5.397
  326SOL    HW2 1878   2.361   4.919   5.560
  327SOL     OW 1879   6.212   5.217   6.244
  327SOL    HW1 1880   6.222   5.199   6.342
  327SOL    HW2 1881   6.300   5.246   6.206
  328SOL     OW 1882   3.216   5.764   1.491
  328SOL    HW1 1883   3.169   5.726   1.411
  328SOL    HW2 1884   3.315   5.752   1.480
  329SOL     OW 1885   3.246   3.593   2.559
  329SOL    HW1 1886   3.203   3.516   2.513
  329SOL    HW2 1887   3.183   3.632   2.626
  330SOL     OW 1888   3.149   1.653   1.937
  330SOL    HW1 1889   3.099   1.713   1.874
  330SOL    HW2 1890   3.185   1.575   1.886
  331SOL     OW 1891   5.689   4.431   5.958
  331SOL    HW1 1892   5.738   4.505   6.003
  331SOL    HW2 1893   5.665   4.459   5.865
  332SOL     OW 1894   4.630   2.047   3.941
  332SOL    HW1 1895   4.564   2.025   3.869
  332SOL    HW2 1896   4.617   2.142   3.969
  333SOL     OW 1897   4.262   6.339   0.431
  333SOL    HW1 1898   4.282   6.365   0.336
  333SOL    HW2 1899   4.336   6.370   0.490
  334SOL     OW 1900   4.790   6.638   2.630
  334SOL    HW1 1901   4.860   6.568   2.645
  334SOL    HW2 1902   4.748   6.663   2.717
  335SOL     OW 1903   3.536   6.779   3.234
  335SOL    HW1 1904   3.591   6.752   3.155
  335SOL    HW2 1905   3.515   6.877   3.229
  336SOL     OW 1906   3.656   0.448   4.780
  336SOL    HW1 1907   3.561   0.425   4.758
  336SOL    HW2 1908   3.706   0.470   4.696
  337SOL     OW 1909   0.331   4.151   1.564
  337SOL    HW1 1910   0.360   4.055   1.569
  337SOL    HW2 1911   0.265   4.162   1.491
  338SOL     OW 1912   2.763   2.555   1.432
  338SOL    HW1 1913   2.665   2.573   1.431
  338SOL    HW2 1914   2.804   2.596   1.513
  339SOL     OW 1915   4.199   0.667   3.097
  339SOL    HW1 1916   4.154   0.620   3.021
  339SOL    HW2 1917   4.159   0.636   3.183
  340SOL     OW 1918   4.915   3.888   4.618
  340SOL    HW1 1919   4.856   3.815   4.584
  340SOL    HW2 1920   4.892   3.974   4.572
  341SOL     OW 1921   5.180   5.074   5.792
  341SOL    HW1 1922   5.249   5.096   5.723
  341SOL    HW2 1923   5.201   4.985   5.833
  342SOL     OW 1924   5.607   3.796   0.336
  342SOL    HW1 1925   5.625   3.781   0.433
  342SOL    HW2 1926   5.549   3.723   0.301
  343SOL     OW 1927   2.265   0.896   2.612
  343SOL    HW1 1928   2.311   0.982   2.634
  343SOL    HW2 1929   2.305   0.857   2.529
  344SOL     OW 1930   3.676   5.348   6.737
  344SOL    HW1 1931   3.770   5.357   6.770
  344SOL    HW2 1932   3.677   5.337   6.637
  345SOL     OW 1933   1.440   0.592   5.942
  345SOL    HW1 1934   1.486   0.536   6.011
  345SOL    HW2 1935   1.384   0.534   5.883
  346SOL     OW 1936   3.158   0.713   4.340
  346SOL    HW1 1937   3.120   0.632   4.295
  346SOL    HW2 1938   3.251   0.729   4.307
  347SOL     OW 1939   4.803   6.691   5.652
  347SOL    HW1 1940   4.810   6.698   5.752
  347SOL    HW2 1941   4.743   6.614   5.629
  348SOL     OW 1942   2.864   6.198   2.573
  348SOL    HW1 1943   2.866   6.098   2.563
  348SOL    HW2 1944   2.912   6.224   2.657
  349SOL     OW 1945   2.398   4.909   1.725
  349SOL    HW1 1946   2.305   4.892   1.693
  349SOL    HW2 1947   2.398   4.986   1.788
  350SOL     OW 1948   4.605   3.156   0.910
  350SOL    HW1 1949   4.562   3.066   0.913
  350SOL    HW2 1950   4.679   3.156   0.843
  351SOL     OW 1951   3.093   1.930   0.674
  351SOL    HW1 1952   3.071   1.962   0.766
  351SOL    HW2 1953   3.010   1.926   0.618
  352SOL     OW 1954   3.252   1.357   6.212
  352SOL    HW1 1955   3.215   1.328   6.300
  352SOL    HW2 1956   3.275   1.455   6.216
  353SOL     OW 1957   2.049   0.635   1.105
  353SOL    HW1 1958   2.024   0.732   1.104
  353SOL    HW2 1959   2.142   0.625   1.142
  354SOL     OW 1960   5.118   1.014   2.446
  354SOL    HW1 1961   5.105   1.012   2.347
  354SOL    HW2 1962   5.153   0.926   2.477
  355SOL     OW 1963   1.484   1.389   1.678
  355SOL    HW1 1964   1.454   1.335   1.600
  355SOL    HW2 1965   1.558   1.343   1.726
  356SOL     OW 1966   3.947   6.263   2.806
  356SOL    HW1 1967   3.895   6.334   2.758
  356SOL    HW2 1968   3.992   6.303   2.886
  357SOL     OW 1969   1.643   4.578   6.004
  357SOL    HW1 1970   1.614   4.643   5.933
  357SOL    HW2 1971   1.599   4.490   5.989
  358SOL     OW 1972   5.497   0.811   2.716
  358SOL    HW1 1973   5.594   0.801   2.694
  358SOL    HW2 1974   5.478   0.772   2.806
  359SOL     OW 1975   1.159   2.250   0.415
  359SOL    HW1 1976   1.231   2.309   0.451
  359SOL    HW2 1977   1.150   2.265   0.316
  360SOL     OW 1978   4.877   6.863   0.687
  360SOL    HW1 1979   4.855   6.884   0.783
  360SOL    HW2 1980   4.819   6.919   0.627
  361SOL     OW 1981   3.592   0.883   3.637
  361SOL    HW1 1982   3.536   0.957   3.601
  361SOL    HW2 1983   3.539   0.798   3.637
  362SOL     OW 1984   2.835   3.883   1.052
  362SOL    HW1 1985   2.756   3.904   0.994
  362SOL    HW2 1986   2.804   3.854   1.142
  363SOL     OW 1987   4.303   4.764   3.557
  363SOL    HW1 1988   4.329   4.701   3.630
  363SOL    HW2 1989   4.288   4.855   3.595
  364SOL     OW 1990   1.842   6.258   6.372
  364SOL    HW1 1991   1.764   6.286   6.316
  364SOL    HW2 1992   1.916   6.225   6.313
  365SOL     OW 1993   4.946   6.913   2.767
  365SOL    HW1 1994   5.015   6.862   2.819
  365SOL    HW2 1995   4.867   6.854   2.751
  366SOL     OW 1996   4.930   0.826   0.543
  366SOL    HW1 1997   4.890   0.911   0.511
  366SOL    HW2 1998   5.003   0.846   0.608
  367SOL     OW 1999   4.774   1.640   1.978
  367SOL    HW1 2000   4.827   1.721   1.955
  367SOL    HW2 2001   4.796   1.566   1.914
  368SOL     OW 2002   1.731   5.069   5.767
  368SOL    HW1 2003   1.709   5.013   5.687
  368SOL    HW2 2004   1.687   5.029   5.848
  369SOL     OW 2005   0.582   3.349   1.334
  369SOL    HW1 2006   0.587   3.265   1.281
  369SOL    HW2 2007   0.657   3.351   1.400
  370SOL     OW 2008   3.222   1.762   0.019
  370SOL    HW1 2009   3.294   1.753   6.967
  370SOL    HW2 2010   3.185   1.855   0.017
  371SOL     OW 2011   3.826   2.890   5.936
  371SOL    HW1 2012   3.838   2.832   6.016
  371SOL    HW2 2013   3.774   2.971   5.961
  372SOL     OW 2014   1.818   4.901   0.046
  372SOL    HW1 2015   1.905   4.940   0.015
  372SOL    HW2 2016   1.807   4.920   0.143
  373SOL     OW 2017   6.491   6.473   0.103
  373SOL    HW1 2018   6.479   6.553   0.044
  373SOL    HW2 2019   6.578   6.480   0.151
  374SOL     OW 2020   4.752   1.110   1.106
  374SOL    HW1 2021   4.712   1.020   1.120
  374SOL    HW2 2022   4.689   1.168   1.055
  375SOL     OW 2023   6.908   4.461   1.160
  375SOL    HW1 2024   6.857   4.547   1.152
  375SOL    HW2 2025   6.844   4.387   1.181
  376SOL     OW 2026   2.049   3.600   4.515
  376SOL    HW1 2027   2.097   3.676   4.559
  376SOL    HW2 2028   1.985   3.636   4.447
  377SOL     OW 2029   4.522   2.035   4.616
  377SOL    HW1 2030   4.425   2.016   4.603
  377SOL    HW2 2031   4.571   2.021   4.530
  378SOL     OW 2032   5.220   2.628   4.578
  378SOL    HW1 2033   5.131   2.657   4.544
  378SOL    HW2 2034   5.287   2.630   4.504
  379SOL     OW 2035   6.995   2.477   1.393
  379SOL    HW1 2036   0.052   2.461   1.328
  379SOL    HW2 2037   6.923   2.409   1.378
  380SOL     OW 2038   1.147   2.190   0.093
  380SOL    HW1 2039   1.207   2.177   0.014
  380SOL    HW2 2040   1.140   2.288   0.113
  381SOL     OW 2041   4.116   4.799   0.598
  381SOL    HW1 2042   4.190   4.759   0.652
  381SOL    HW2 2043   4.040   4.734   0.592
  382SOL     OW 2044   2.406   5.150   0.571
  382SOL    HW1 2045   2.368   5.077   0.514
  382SOL    HW2 2046   2.334   5.186   0.631
  383SOL     OW 2047   6.423   2.118   0.364
  383SOL    HW1 2048   6.434   2.120   0.265
  383SOL    HW2 2049   6.420   2.212   0.399
  384SOL     OW 2050   1.813   5.072   5.049
  384SOL    HW1 2051   1.902   5.034   5.072
  384SOL    HW2 2052   1.825   5.153   4.991
  385SOL     OW 2053   4.256   5.273   1.769
  385SOL    HW1 2054   4.214   5.246   1.682
  385SOL    HW2 2055   4.206   5.350   1.807
  386SOL     OW 2056   2.482   6.399   4.597
  386SOL    HW1 2057   2.476   6.392   4.498
  386SOL    HW2 2058   2.508   6.310   4.635
  387SOL     OW 2059   6.646   0.144   6.092
  387SOL    HW1 2060   6.724   0.151   6.155
  387SOL    HW2 2061   6.563   0.125   6.145
  388SOL     OW 2062   0.284   2.278   4.284
  388SOL    HW1 2063   0.185   2.282   4.301
  388SOL    HW2 2064   0.305   2.196   4.231
  389SOL     OW 2065   5.236   4.328   2.130
  389SOL    HW1 2066   5.282   4.269   2.065
  389SOL    HW2 2067   5.231   4.421   2.093
  390SOL     OW 2068   4.100   2.515   6.915
  390SOL    HW1 2069   4.002   2.494   6.913
  390SOL    HW2 2070   4.142   2.469   6.994
  391SOL     OW 2071   4.097   3.711   3.757
  391SOL    HW1 2072   4.120   3.644   3.687
  391SOL    HW2 2073   4.107   3.669   3.847
  392SOL     OW 2074   2.078   3.958   1.724
  392SOL    HW1 2075   2.162   3.984   1.770
  392SOL    HW2 2076   2.008   3.936   1.792
  393SOL     OW 2077   1.445   5.487   1.562
  393SOL    HW1 2078   1.541   5.511   1.570
  393SOL    HW2 2079   1.395   5.519   1.643
  394SOL     OW 2080   6.027   1.503   6.192
  394SOL    HW1 2081   5.981   1.550   6.267
  394SOL    HW2 2082   6.111   1.460   6.227
  395SOL     OW 2083   5.965   4.586   0.373
  395SOL    HW1 2084   6.064   4.570   0.376
  395SOL    HW2 2085   5.918   4.515   0.425
  396SOL     OW 2086   1.408   0.745   1.336
  396SOL    HW1 2087   1.504   0.727   1.359
  396SOL    HW2 2088   1.402   0.829   1.282
  397SOL     OW 2089   4.434   2.266   4.730
  397SOL    HW1 2090   4.341   2.241   4.756
  397SOL    HW2 2091   4.487   2.184   4.710
  398SOL     OW 2092   0.169   0.912   3.486
  398SOL    HW1 2093   0.087   0.871   3.447
  398SOL    HW2 2094   0.147   0.952   3.575
  399SOL     OW 2095   6.035   5.849   3.743
  399SOL    HW1 2096   6.047   5.852   3.842
  399SOL    HW2 2097   5.969   5.920   3.716
  400SOL     OW 2098   6.866   6.861   3.587
  400SOL    HW1 2099   6.938   6.872   3.656
  400SOL    HW2 2100   6.907   6.840   3.499
  401SOL     OW 2101   1.169   5.323   4.467
  401SOL    HW1 2102   1.160   5.403   4.408
  401SOL    HW2 2103   1.105   5.252   4.437
  402SOL     OW 2104   5.805   1.729   4.112
  402SOL    HW1 2105   5.778   1.699   4.204
  402SOL    HW2 2106   5.746   1.804   4.083
  403SOL     OW 2107   3.117   1.557   4.911
  403SOL    HW1 2108   3.144   1.491   4.981
  403SOL    HW2 2109   3.038   1.610   4.944
  404SOL     OW 2110   2.998   5.222   3.628
  404SOL    HW1 2111   3.064   5.280   3.674
  404SOL    HW2 2112   2.928   5.279   3.584
  405SOL     OW 2113   2.557   5.289   4.107
  405SOL    HW1 2114   2.613   5.372   4.103
  405SOL    HW2 2115   2.525   5.267   4.015
  406SOL     OW 2116   0.445   6.785   6.191
  406SOL    HW1 2117   0.470   6.725   6.267
  406SOL    HW2 2118   0.428   6.729   6.109
  407SOL     OW 2119   1.790   3.582   3.963
  407SOL    HW1 2120   1.788   3.682   3.963
  407SOL    HW2 2121   1.814   3.550   4.054
  408SOL     OW 2122   2.336   2.716   2.494
  408SOL    HW1 2123   2.296   2.766   2.417
  408SOL    HW2 2124   2.333   2.773   2.576
  409SOL     OW 2125   0.385   2.915   2.694
  409SOL    HW1 2126   0.445   2.977   2.644
  409SOL    HW2 2127   0.333   2.859   2.630
  410SOL     OW 2128   1.778   3.265   1.558
  410SOL    HW1 2129   1.865   3.228   1.591
  410SOL    HW2 2130   1.788   3.361   1.533
  411SOL     OW 2131   6.970   2.076   0.350
  411SOL    HW1 2132   7.008   2.092   0.441
  411SOL    HW2 2133   6.894   2.012   0.356
  412SOL     OW 2134   1.628   5.040   2.761
  412SOL    HW1 2135   1.549   5.089   2.798
  412SOL    HW2 2136   1.613   5.021   2.664
  413SOL     OW 2137   6.157   4.549   2.019
  413SOL    HW1 2138   6.172   4.455   1.989
  413SOL    HW2 2139   6.209   4.565   2.104
  414SOL     OW 2140   2.238   6.496   3.129
  414SOL    HW1 2141   2.296   6.568   3.169
  414SOL    HW2 2142   2.142   6.523   3.134
  415SOL     OW 2143   5.583   1.508   6.708
  415SOL    HW1 2144   5.635   1.546   6.632
  415SOL    HW2 2145   5.509   1.451   6.672
  416SOL     OW 2146   5.780   2.970   6.285
  416SOL    HW1 2147   5.845   2.969   6.361
  416SOL    HW2 2148   5.790   2.887   6.231
  417SOL     OW 2149   2.365   2.601   5.584
  417SOL    HW1 2150   2.370   2.691   5.539
  417SOL    HW2 2151   2.422   2.601   5.666
  418SOL     OW 2152   3.706   6.598   5.827
  418SOL    HW1 2153   3.641   6.663   5.866
  418SOL    HW2 2154   3.675   6.571   5.736
  419SOL     OW 2155   6.004   0.827   6.955
  419SOL    HW1 2156   6.005   0.889   0.016
  419SOL    HW2 2157   5.951   0.869   6.880
  420SOL     OW 2158   3.669   0.169   1.070
  420SOL    HW1 2159   3.753   0.207   1.109
  420SOL    HW2 2160   3.686   0.077   1.036
  421SOL     OW 2161   4.807   4.265   2.674
  421SOL    HW1 2162   4.809   4.358   2.637
  421SOL    HW2 2163   4.741   4.261   2.749
  422SOL     OW 2164   3.962   2.038   1.587
  422SOL    HW1 2165   3.938   2.127   1.625
  422SOL    HW2 2166   3.978   1.972   1.661
  423SOL     OW 2167   2.990   0.875   6.447
  423SOL    HW1 2168   3.021   0.780   6.450
  423SOL    HW2 2169   3.050   0.931   6.505
  424SOL     OW 2170   1.764   3.711   4.297
  424SOL    HW1 2171   1.795   3.793   4.250
  424SOL    HW2 2172   1.817   3.632   4.265
  425SOL     OW 2173   3.146   1.494   0.061
  425SOL    HW1 2174   3.197   1.577   0.079
  425SOL    HW2 2175   3.085   1.508   7.000
  426SOL     OW 2176   2.349   2.234   4.442
  426SOL    HW1 2177   2.385   2.285   4.364
  426SOL    HW2 2178   2.306   2.298   4.506
  427SOL     OW 2179   4.774   1.635   3.588
  427SOL    HW1 2180   4.782   1.558   3.525
  427SOL    HW2 2181   4.683   1.637   3.628
  428SOL     OW 2182   2.538   2.039   6.665
  428SOL    HW1 2183   2.480   1.973   6.712
  428SOL    HW2 2184   2.513   2.042   6.568
  429SOL     OW 2185   0.333   6.103   3.917
  429SOL    HW1 2186   0.298   6.117   4.009
  429SOL    HW2 2187   0.364   6.191   3.879
  430SOL     OW 2188   2.340   0.417   3.922
  430SOL    HW1 2189   2.249   0.376   3.931
  430SOL    HW2 2190   2.383   0.384   3.838
  431SOL     OW 2191   2.884   1.250   1.372
  431SOL    HW1 2192   2.803   1.305   1.394
  431SOL    HW2 2193   2.881   1.165   1.424
  432SOL     OW 2194   4.830   1.683   1.441
  432SOL    HW1 2195   4.762   1.692   1.513
  432SOL    HW2 2196   4.921   1.681   1.481
  433SOL     OW 2197   1.658   4.373   0.694
  433SOL    HW1 2198   1.670   4.333   0.603
  433SOL    HW2 2199   1.663   4.473   0.688
  434SOL     OW 2200   4.554   5.634   2.781
  434SOL    HW1 2201   4.553   5.583   2.695
  434SOL    HW2 2202   4.582   5.573   2.855
  435SOL     OW 2203   3.840   2.639   6.165
  435SOL    HW1 2204   3.922   2.640   6.108
  435SOL    HW2 2205   3.761   2.610   6.110
  436SOL     OW 2206   5.228   5.897   1.975
  436SOL    HW1 2207   5.218   5.923   2.071
  436SOL    HW2 2208   5.260   5.975   1.922
  437SOL     OW 2209   6.968   1.521   4.798
  437SOL    HW1 2210   0.015   1.573   4.854
  437SOL    HW2 2211   7.004   1.429   4.783
  438SOL     OW 2212   0.958   4.339   2.621
  438SOL    HW1 2213   0.968   4.336   2.522
  438SOL    HW2 2214   0.991   4.254   2.661
  439SOL     OW 2215   0.265   0.722   5.767
  439SOL    HW1 2216   0.309   0.769   5.843
  439SOL    HW2 2217   0.243   0.628   5.793
  440SOL     OW 2218   4.213   2.189   0.755
  440SOL    HW1 2219   4.242   2.262   0.694
  440SOL    HW2 2220   4.283   2.117   0.756
  441SOL     OW 2221   6.932   4.666   2.377
  441SOL    HW1 2222   6.993   4.587   2.368
  441SOL    HW2 2223   6.936   4.721   2.294
  442SOL     OW 2224   3.674   3.223   5.067
  442SOL    HW1 2225   3.753   3.250   5.012
  442SOL    HW2 2226   3.590   3.254   5.022
  443SOL     OW 2227   4.717   2.840   3.138
  443SOL    HW1 2228   4.626   2.823   3.101
  443SOL    HW2 2229   4.729   2.792   3.224
  444SOL     OW 2230   4.416   1.949   1.504
  444SOL    HW1 2231   4.359   1.876   1.466
  444SOL    HW2 2232   4.445   1.925   1.596
  445SOL     OW 2233   2.895   5.530   2.576
  445SOL    HW1 2234   2.895   5.433   2.602
  445SOL    HW2 2235   2.800   5.561   2.566
  446SOL     OW 2236   6.095   0.093   1.705
  446SOL    HW1 2237   6.049   0.150   1.773
  446SOL    HW2 2238   6.191   0.122   1.696
  447SOL     OW 2239   6.003   4.117   0.430
  447SOL    HW1 2240   5.920   4.168   0.412
  447SOL    HW2 2241   5.979   4.026   0.465
  448SOL     OW 2242   3.610   6.228   3.899
  448SOL    HW1 2243   3.648   6.281   3.823
  448SOL    HW2 2244   3.653   6.256   3.985
  449SOL     OW 2245   0.865   4.111   4.864
  449SOL    HW1 2246   0.867   4.121   4.963
  449SOL    HW2 2247   0.959   4.113   4.829
  450SOL     OW 2248   6.774   4.067   3.203
  450SOL    HW1 2249   6.852   4.104   3.253
  450SOL    HW2 2250   6.805   3.992   3.145
  451SOL     OW 2251   1.543   2.100   0.333
  451SOL    HW1 2252   1.513   2.133   0.423
  451SOL    HW2 2253   1.471   2.045   0.291
  452SOL     OW 2254   4.131   5.510   1.831
  452SOL    HW1 2255   4.090   5.545   1.747
  452SOL    HW2 2256   4.158   5.586   1.890
  453SOL     OW 2257   4.234   0.883   0.174
  453SOL    HW1 2258   4.182   0.811   0.221
  453SOL    HW2 2259   4.303   0.921   0.236
  454SOL     OW 2260   6.946   3.271   4.199
  454SOL    HW1 2261   0.026   3.296   4.199
  454SOL    HW2 2262   6.925   3.224   4.285
  455SOL     OW 2263   5.461   5.211   6.809
  455SOL    HW1 2264   5.513   5.277   6.755
  455SOL    HW2 2265   5.524   5.160   6.868
  456SOL     OW 2266   2.140   1.145   2.999
  456SOL    HW1 2267   2.059   1.203   2.991
  456SOL    HW2 2268   2.149   1.089   2.917
  457SOL     OW 2269   3.298   5.566   0.018
  457SOL    HW1 2270   3.334   5.493   0.075
  457SOL    HW2 2271   3.208   5.540   7.001
  458SOL     OW 2272   4.090   1.534   3.527
  458SOL    HW1 2273   4.065   1.575   3.439
  458SOL    HW2 2274   4.161   1.465   3.512
  459SOL     OW 2275   2.973   1.299   3.160
  459SOL    HW1 2276   3.054   1.308   3.217
  459SOL    HW2 2277   2.947   1.203   3.155
  460SOL     OW 2278   0.493   1.470   6.359
  460SOL    HW1 2279   0.407   1.455   6.409
  460SOL    HW2 2280   0.544   1.545   6.402
  461SOL     OW 2281   1.534   6.716   5.557
  461SOL    HW1 2282   1.601   6.789   5.571
  461SOL    HW2 2283   1.503   6.683   5.646
  462SOL     OW 2284   3.693   4.130   4.579
  462SOL    HW1 2285   3.671   4.177   4.664
  462SOL    HW2 2286   3.791   4.111   4.576
  463SOL     OW 2287   5.383   5.939   3.081
  463SOL    HW1 2288   5.318   5.963   3.153
  463SOL    HW2 2289   5.409   6.022   3.030
  464SOL     OW 2290   4.387   5.768   5.080
  464SOL    HW1 2291   4.354   5.862   5.073
  464SOL    HW2 2292   4.486   5.768   5.096
  465SOL     OW 2293   7.002   4.849   6.879
  465SOL    HW1 2294   7.014   4.801   6.792
  465SOL    HW2 2295   6.913   4.824   6.919
  466SOL     OW 2296   3.830   4.851   4.060
  466SOL    HW1 2297   3.795   4.925   4.117
  466SOL    HW2 2298   3.816   4.874   3.963
  467SOL     OW 2299   6.752   6.992   2.051
  467SOL    HW1 2300   6.832   6.947   2.012
  467SOL    HW2 2301   6.759   0.073   2.038
  468SOL     OW 2302   2.501   6.005   6.366
  468SOL    HW1 2303   2.539   5.928   6.316
  468SOL    HW2 2304   2.401   6.004   6.360
  469SOL     OW 2305   3.113   4.578   5.458
  469SOL    HW1 2306   3.057   4.516   5.403
  469SOL    HW2 2307   3.126   4.664   5.408
  470SOL     OW 2308   2.188   5.137   2.569
  470SOL    HW1 2309   2.231   5.112   2.482
  470SOL    HW2 2310   2.250   5.197   2.620
  471SOL     OW 2311   1.526   2.133   3.905
  471SOL    HW1 2312   1.470   2.083   3.838
  471SOL    HW2 2313   1.623   2.117   3.885
  472SOL     OW 2314   5.340   4.329   6.421
  472SOL    HW1 2315   5.364   4.237   6.451
  472SOL    HW2 2316   5.387   4.396   6.477
  473SOL     OW 2317   5.425   3.229   2.183
  473SOL    HW1 2318   5.327   3.220   2.164
  473SOL    HW2 2319   5.478   3.182   2.112
  474SOL     OW 2320   5.071   5.258   3.681
  474SOL    HW1 2321   5.035   5.335   3.628
  474SOL    HW2 2322   5.120   5.196   3.620
  475SOL     OW 2323   5.379   1.330   0.216
  475SOL    HW1 2324   5.312   1.349   0.145
  475SOL    HW2 2325   5.339   1.349   0.306
  476SOL     OW 2326   1.155   3.750   0.296
  476SOL    HW1 2327   1.142   3.762   0.197
  476SOL    HW2 2328   1.126   3.833   0.343
  477SOL     OW 2329   6.783   5.188   3.450
  477SOL    HW1 2330   6.798   5.281   3.416
  477SOL    HW2 2331   6.686   5.165   3.445
  478SOL     OW 2332   5.987   5.180   2.572
  478SOL    HW1 2333   6.032   5.097   2.604
  478SOL    HW2 2334   5.979   5.177   2.472
  479SOL     OW 2335   3.190   3.995   2.684
  479SOL    HW1 2336   3.144   3.955   2.605
  479SOL    HW2 2337   3.255   4.065   2.654
  480SOL     OW 2338   0.861   1.038   2.113
  480SOL    HW1 2339   0.813   1.103   2.173
  480SOL    HW2 2340   0.920   1.088   2.050
  481SOL     OW 2341   5.735   6.321   0.992
  481SOL    HW1 2342   5.772   6.389   1.055
  481SOL    HW2 2343   5.669   6.365   0.931
  482SOL     OW 2344   3.563   5.208   2.521
  482SOL    HW1 2345   3.638   5.265   2.555
  482SOL    HW2 2346   3.544   5.135   2.588
  483SOL     OW 2347   5.931   0.826   3.865
  483SOL    HW1 2348   5.835   0.804   3.848
  483SOL    HW2 2349   5.963   0.891   3.797
  484SOL     OW 2350   1.877   4.918   3.231
  484SOL    HW1 2351   1.945   4.853   3.197
  484SOL    HW2 2352   1.870   4.996   3.169
  485SOL     OW 2353   4.897   2.153   0.781
  485SOL    HW1 2354   4.871   2.209   0.859
  485SOL    HW2 2355   4.975   2.095   0.806
  486SOL     OW 2356   6.155   6.755   5.414
  486SOL    HW1 2357   6.145   6.777   5.511
  486SOL    HW2 2358   6.111   6.826   5.359
  487SOL     OW 2359   0.369   0.874   6.753
  487SOL    HW1 2360   0.435   0.949   6.763
  487SOL    HW2 2361   0.332   0.850   6.842
  488SOL     OW 2362   2.048   5.858   3.026
  488SOL    HW1 2363   2.130   5.860   3.084
  488SOL    HW2 2364   1.978   5.917   3.065
  489SOL     OW 2365   3.034   4.783   5.241
  489SOL    HW1 2366   2.973   4.839   5.295
  489SOL    HW2 2367   2.989   4.697   5.217
  490SOL     OW 2368   1.528   3.556   4.720
  490SOL    HW1 2369   1.586   3.527   4.796
  490SOL    HW2 2370   1.584   3.576   4.640
  491SOL     OW 2371   6.188   3.156   1.067
  491SOL    HW1 2372   6.163   3.090   0.996
  491SOL    HW2 2373   6.108   3.212   1.090
  492SOL     OW 2374   1.807   2.317   5.853
  492SOL    HW1 2375   1.831   2.399   5.904
  492SOL    HW2 2376   1.890   2.276   5.815
  493SOL     OW 2377   1.946   5.723   3.674
  493SOL    HW1 2378   1.917   5.721   3.578
  493SOL    HW2 2379   2.011   5.799   3.687
  494SOL     OW 2380   2.798   0.537   3.986
  494SOL    HW1 2381   2.889   0.522   4.024
  494SOL    HW2 2382   2.792   0.629   3.946
  495SOL     OW 2383   3.737   4.520   6.682
  495SOL    HW1 2384   3.659   4.540   6.742
  495SOL    HW2 2385   3.715   4.549   6.589
  496SOL     OW 2386   5.249   0.933   2.852
  496SOL    HW1 2387   5.331   0.973   2.892
  496SOL    HW2 2388   5.169   0.986   2.881
  497SOL     OW 2389   4.102   2.563   1.100
  497SOL    HW1 2390   4.032   2.564   1.173
  497SOL    HW2 2391   4.150   2.475   1.103
  498SOL     OW 2392   0.505   0.095   1.148
  498SOL    HW1 2393   0.537   0.188   1.164
  498SOL    HW2 2394   0.566   0.030   1.193
  499SOL     OW 2395   3.040   6.159   0.058
  499SOL    HW1 2396   3.139   6.171   0.053
  499SOL    HW2 2397   3.018   6.075   0.107
  500SOL     OW 2398   5.641   1.897   6.091
  500SOL    HW1 2399   5.732   1.877   6.056
  500SOL    HW2 2400   5.646   1.914   6.190
  501SOL     OW 2401   1.610   1.679   4.418
  501SOL    HW1 2402   1.679   1.751   4.424
  501SOL    HW2 2403   1.519   1.720   4.426
  502SOL     OW 2404   2.292   3.893   6.596
  502SOL    HW1 2405   2.230   3.839   6.652
  502SOL    HW2 2406   2.353   3.832   6.545
  503SOL     OW 2407   3.379   5.301   0.971
  503SOL    HW1 2408   3.468   5.276   0.934
  503SOL    HW2 2409   3.307   5.265   0.911
  504SOL     OW 2410   6.048   0.100   0.468
  504SOL    HW1 2411   6.016   0.080   0.560
  504SOL    HW2 2412   6.022   0.026   0.406
  505SOL     OW 2413   6.369   4.106   5.570
  505SOL    HW1 2414   6.345   4.194   5.612
  505SOL    HW2 2415   6.382   4.037   5.642
  506SOL     OW 2416   3.071   5.388   3.060
  506SOL    HW1 2417   3.137   5.349   3.124
  506SOL    HW2 2418   3.000   5.321   3.040
  507SOL     OW 2419   3.443   0.232   3.046
  507SOL    HW1 2420   3.365   0.169   3.049
  507SOL    HW2 2421   3.456   0.273   3.136
  508SOL     OW 2422   0.487   5.349   3.716
  508SOL    HW1 2423   0.419   5.354   3.642
  508SOL    HW2 2424   0.493   5.255   3.749
  509SOL     OW 2425   4.466   0.236   6.492
  509SOL    HW1 2426   4.502   0.317   6.540
  509SOL    HW2 2427   4.447   0.164   6.558
  510SOL     OW 2428   6.220   4.110   6.809
  510SOL    HW1 2429   6.230   4.209   6.810
  510SOL    HW2 2430   6.308   4.068   6.784
  511SOL     OW 2431   0.908   1.205   6.835
  511SOL    HW1 2432   0.858   1.153   6.904
  511SOL    HW2 2433   0.845   1.266   6.786
  512SOL     OW 2434   0.196   2.074   4.092
  512SOL    HW1 2435   0.150   2.111   4.011
  512SOL    HW2 2436   0.144   1.996   4.126
  513SOL     OW 2437   5.855   6.385   2.963
  513SOL    HW1 2438   5.952   6.402   2.981
  513SOL    HW2 2439   5.808   6.364   3.049
  514SOL     OW 2440   4.708   1.485   4.778
  514SOL    HW1 2441   4.729   1.547   4.703
  514SOL    HW2 2442   4.787   1.477   4.838
  515SOL     OW 2443   3.077   0.732   0.315
  515SOL    HW1 2444   3.143   0.746   0.240
  515SOL    HW2 2445   3.110   0.779   0.397
  516SOL     OW 2446   1.383   6.158   1.801
  516SOL    HW1 2447   1.444   6.200   1.868
  516SOL    HW2 2448   1.289   6.189   1.817
  517SOL     OW 2449   3.238   5.146   1.464
  517SOL    HW1 2450   3.206   5.175   1.374
  517SOL    HW2 2451   3.270   5.225   1.515
  518SOL     OW 2452   2.263   6.047   4.004
  518SOL    HW1 2453   2.345   6.059   4.061
  518SOL    HW2 2454   2.196   6.117   4.028
  519SOL     OW 2455   6.583   0.187   2.624
  519SOL    HW1 2456   6.619   0.186   2.718
  519SOL    HW2 2457   6.646   0.236   2.565
  520SOL     OW 2458   2.142   5.183   1.037
  520SOL    HW1 2459   2.228   5.218   1.072
  520SOL    HW2 2460   2.117   5.233   0.953
  521SOL     OW 2461   6.525   5.957   5.546
  521SOL    HW1 2462   6.495   6.021   5.474
  521SOL    HW2 2463   6.618   5.926   5.527
  522SOL     OW 2464   3.929   4.647   6.953
  522SOL    HW1 2465   3.950   4.587   6.876
  522SOL    HW2 2466   4.001   4.638   0.005
  523SOL     OW 2467   1.959   6.891   6.001
  523SOL    HW1 2468   1.913   6.822   5.944
  523SOL    HW2 2469   1.922   6.886   6.094
  524SOL     OW 2470   0.102   0.975   0.872
  524SOL    HW1 2471   0.026   0.986   0.807
  524SOL    HW2 2472   0.124   1.063   0.913
  525SOL     OW 2473   0.832   3.315   3.400
  525SOL    HW1 2474   0.921   3.321   3.354
  525SOL    HW2 2475   0.808   3.405   3.436
  526SOL     OW 2476   4.208   6.836   5.122
  526SOL    HW1 2477   4.151   6.770   5.172
  526SOL    HW2 2478   4.289   6.789   5.087
  527SOL     OW 2479   0.502   0.715   0.962
  527SOL    HW1 2480   0.484   0.712   0.864
  527SOL    HW2 2481   0.598   0.741   0.977
  528SOL     OW 2482   6.921   2.293   4.632
  528SOL    HW1 2483   6.916   2.218   4.566
  528SOL    HW2 2484   6.839   2.349   4.626
  529SOL     OW 2485   1.343   0.997   5.938
  529SOL    HW1 2486   1.391   0.936   6.001
  529SOL    HW2 2487   1.340   0.954   5.847
  530SOL     OW 2488   2.958   4.933   1.655
  530SOL    HW1 2489   2.876   4.877   1.665
  530SOL    HW2 2490   3.015   4.897   1.581
  531SOL     OW 2491   0.984   0.776   6.251
  531SOL    HW1 2492   1.021   0.723   6.327
  531SOL    HW2 2493   0.921   0.719   6.198
  532SOL     OW 2494   3.012   0.465   6.854
  532SOL    HW1 2495   2.956   0.538   6.817
  532SOL    HW2 2496   3.059   0.417   6.779
  533SOL     OW 2497   4.385   0.042   4.471
  533SOL    HW1 2498   4.397   0.141   4.463
  533SOL    HW2 2499   4.414   7.015   4.387
  534SOL     OW 2500   2.119   4.277   1.728
  534SOL    HW1 2501   2.188   4.253   1.797
  534SOL    HW2 2502   2.115   4.206   1.658
  535SOL     OW 2503   4.838   4.083   4.470
  535SOL    HW1 2504   4.822   4.085   4.371
  535SOL    HW2 2505   4.761   4.127   4.517
  536SOL     OW 2506   6.580   6.266   1.281
  536SOL    HW1 2507   6.614   6.350   1.237
  536SOL    HW2 2508   6.553   6.200   1.211
  537SOL     OW 2509   2.638   2.004   2.336
  537SOL    HW1 2510   2.675   1.914   2.359
  537SOL    HW2 2511   2.541   2.008   2.360
  538SOL     OW 2512   4.139   4.694   5.240
  538SOL    HW1 2513   4.128   4.652   5.330
  538SOL    HW2 2514   4.191   4.633   5.180
  539SOL     OW 2515   2.272   6.873   6.632
  539SOL    HW1 2516   2.218   6.808   6.685
  539SOL    HW2 2517   2.361   6.833   6.610
  540SOL     OW 2518   2.027   1.277   5.457
  540SOL    HW1 2519   2.028   1.233   5.368
  540SOL    HW2 2520   2.108   1.249   5.509
  541SOL     OW 2521   5.043   6.310   3.514
  541SOL    HW1 2522   5.017   6.216   3.536
  541SOL    HW2 2523   4.965   6.358   3.474
  542SOL     OW 2524   3.390   6.333   5.928
  542SOL    HW1 2525   3.426   6.278   6.003
  542SOL    HW2 2526   3.314   6.390   5.961
  543SOL     OW 2527   5.941   2.837   4.375
  543SOL    HW1 2528   5.949   2.932   4.342
  543SOL    HW2 2529   6.029   2.807   4.412
  544SOL     OW 2530   1.238   3.552   1.067
  544SOL    HW1 2531   1.278   3.511   1.149
  544SOL    HW2 2532   1.296   3.532   0.988
  545SOL     OW 2533   6.804   5.403   0.489
  545SOL    HW1 2534   6.901   5.388   0.469
  545SOL    HW2 2535   6.776   5.491   0.451
  546SOL     OW 2536   0.053   4.425   2.024
  546SOL    HW1 2537   0.073   4.521   2.043
  546SOL    HW2 2538   0.004   4.386   2.102
  547SOL     OW 2539   3.922   0.030   6.696
  547SOL    HW1 2540   3.956   0.068   6.782
  547SOL    HW2 2541   3.964   0.077   6.619
  548SOL     OW 2542   4.118   2.753   0.086
  548SOL    HW1 2543   4.020   2.753   0.105
  548SOL    HW2 2544   4.134   2.787   7.011
  549SOL     OW 2545   5.482   2.352   3.767
  549SOL    HW1 2546   5.388   2.383   3.783
  549SOL    HW2 2547   5.545   2.429   3.780
  550SOL     OW 2548   6.829   5.639   3.598
  550SOL    HW1 2549   6.739   5.667   3.564
  550SOL    HW2 2550   6.824   5.621   3.696
  551SOL     OW 2551   5.322   0.475   0.116
  551SOL    HW1 2552   5.390   0.545   0.136
  551SOL    HW2 2553   5.272   0.452   0.199
  552SOL     OW 2554   0.554   0.162   4.831
  552SOL    HW1 2555   0.499   0.180   4.913
  552SOL    HW2 2556   0.522   0.219   4.756
  553SOL     OW 2557   3.489   2.321   5.830
  553SOL    HW1 2558   3.438   2.323   5.916
  553SOL    HW2 2559   3.540   2.235   5.823
  554SOL     OW 2560   6.595   6.147   0.593
  554SOL    HW1 2561   6.638   6.105   0.513
  554SOL    HW2 2562   6.531   6.082   0.634
  555SOL     OW 2563   2.780   3.978   6.002
  555SOL    HW1 2564   2.827   3.989   5.915
  555SOL    HW2 2565   2.845   3.947   6.071
  556SOL     OW 2566   6.393   5.936   2.725
  556SOL    HW1 2567   6.330   6.012   2.732
  556SOL    HW2 2568   6.343   5.850   2.734
  557SOL     OW 2569   5.516   3.963   6.200
  557SOL    HW1 2570   5.527   4.040   6.138
  557SOL    HW2 2571   5.471   3.888   6.152
  558SOL     OW 2572   3.595   3.488   2.350
  558SOL    HW1 2573   3.626   3.581   2.329
  558SOL    HW2 2574   3.584   3.479   2.449
  559SOL     OW 2575   6.640   1.237   6.057
  559SOL    HW1 2576   6.550   1.255   6.098
  559SOL    HW2 2577   6.662   1.310   5.991
  560SOL     OW 2578   0.109   2.513   3.747
  560SOL    HW1 2579   0.170   2.435   3.761
  560SOL    HW2 2580   0.163   2.597   3.741
  561SOL     OW 2581   0.523   4.203   7.001
  561SOL    HW1 2582   0.561   4.258   6.927
  561SOL    HW2 2583   0.596   4.179   0.048
  562SOL     OW 2584   4.543   6.283   3.494
  562SOL    HW1 2585   4.581   6.224   3.565
  562SOL    HW2 2586   4.580   6.257   3.405
  563SOL     OW 2587   1.254   1.285   3.769
  563SOL    HW1 2588   1.274   1.223   3.694
  563SOL    HW2 2589   1.307   1.258   3.850
  564SOL     OW 2590   5.957   1.740   5.749
  564SOL    HW1 2591   5.896   1.663   5.768
  564SOL    HW2 2592   6.050   1.717   5.777
  565SOL     OW 2593   2.894   3.577   3.658
  565SOL    HW1 2594   2.911   3.632   3.576
  565SOL    HW2 2595   2.830   3.503   3.635
  566SOL     OW 2596   2.024   1.836   3.861
  566SOL    HW1 2597   2.031   1.885   3.947
  566SOL    HW2 2598   2.104   1.776   3.851
  567SOL     OW 2599   2.042   3.353   5.224
  567SOL    HW1 2600   2.139   3.335   5.244
  567SOL    HW2 2601   1.988   3.342   5.307
  568SOL     OW 2602   0.993   6.794   7.011
  568SOL    HW1 2603   1.044   6.872   0.030
  568SOL    HW2 2604   0.898   6.799   0.026
  569SOL     OW 2605   5.279   3.491   6.098
  569SOL    HW1 2606   5.352   3.559   6.089
  569SOL    HW2 2607   5.256   3.455   6.008
  570SOL     OW 2608   3.917   0.549   6.084
  570SOL    HW1 2609   3.985   0.488   6.044
  570SOL    HW2 2610   3.843   0.493   6.125
  571SOL     OW 2611   2.478   4.481   1.723
  571SOL    HW1 2612   2.554   4.437   1.674
  571SOL    HW2 2613   2.515   4.536   1.799
  572SOL     OW 2614   3.041   1.141   4.589
  572SOL    HW1 2615   2.979   1.098   4.655
  572SOL    HW2 2616   3.032   1.096   4.500
  573SOL     OW 2617   0.307   0.779   5.342
  573SOL    HW1 2618   0.390   0.764   5.287
  573SOL    HW2 2619   0.332   0.787   5.438
  574SOL     OW 2620   2.146   1.156   6.202
  574SOL    HW1 2621   2.195   1.239   6.176
  574SOL    HW2 2622   2.101   1.117   6.122
  575SOL     OW 2623   3.809   3.901   0.254
  575SOL    HW1 2624   3.737   3.833   0.263
  575SOL    HW2 2625   3.892   3.868   0.299
  576SOL     OW 2626   0.779   1.015   2.976
  576SOL    HW1 2627   0.761   1.110   2.999
  576SOL    HW2 2628   0.878   1.001   2.967
  577SOL     OW 2629   0.234   0.501   2.013
  577SOL    HW1 2630   0.234   0.413   2.061
  577SOL    HW2 2631   0.328   0.536   2.010
  578SOL     OW 2632   3.933   6.753   0.132
  578SOL    HW1 2633   3.836   6.732   0.147
  578SOL    HW2 2634   3.958   6.730   0.038
  579SOL     OW 2635   1.069   3.829   1.798
  579SOL    HW1 2636   0.981   3.785   1.816
  579SOL    HW2 2637   1.062   3.885   1.716
  580SOL     OW 2638   4.868   5.030   4.464
  580SOL    HW1 2639   4.860   5.055   4.561
  580SOL    HW2 2640   4.879   4.931   4.456
  581SOL     OW 2641   1.957   2.409   4.310
  581SOL    HW1 2642   2.012   2.362   4.379
  581SOL    HW2 2643   2.018   2.451   4.242
  582SOL     OW 2644   5.546   4.466   5.420
  582SOL    HW1 2645   5.464   4.523   5.424
  582SOL    HW2 2646   5.525   4.375   5.453
  583SOL     OW 2647   3.206   6.179   5.783
  583SOL    HW1 2648   3.198   6.196   5.685
  583SOL    HW2 2649   3.286   6.227   5.820
  584SOL     OW 2650   4.055   0.620   4.927
  584SOL    HW1 2651   3.989   0.558   4.886
  584SOL    HW2 2652   4.100   0.575   5.004
  585SOL     OW 2653   3.280   6.581   1.385
  585SOL    HW1 2654   3.226   6.630   1.453
  585SOL    HW2 2655   3.264   6.483   1.393
  586SOL     OW 2656   3.180   0.037   0.593
  586SOL    HW1 2657   3.183   0.118   0.533
  586SOL    HW2 2658   3.273   0.017   0.625
  587SOL     OW 2659   4.818   1.311   2.696
  587SOL    HW1 2660   4.785   1.384   2.636
  587SOL    HW2 2661   4.868   1.352   2.773
  588SOL     OW 2662   2.019   4.467   2.770
  588SOL    HW1 2663   1.989   4.551   2.816
  588SOL    HW2 2664   2.104   4.484   2.721
  589SOL     OW 2665   3.550   5.124   0.602
  589SOL    HW1 2666   3.632   5.067   0.599
  589SOL    HW2 2667   3.550   5.179   0.685
  590SOL     OW 2668   3.101   2.278   6.325
  590SOL    HW1 2669   3.144   2.310   6.410
  590SOL    HW2 2670   3.061   2.356   6.277
  591SOL     OW 2671   2.675   6.806   3.559
  591SOL    HW1 2672   2.617   6.790   3.639
  591SOL    HW2 2673   2.620   6.845   3.485
  592SOL     OW 2674   5.094   2.348   4.718
  592SOL    HW1 2675   5.188   2.366   4.690
  592SOL    HW2 2676   5.033   2.416   4.677
  593SOL     OW 2677   1.707   1.155   6.622
  593SOL    HW1 2678   1.796   1.194   6.596
  593SOL    HW2 2679   1.714   1.112   6.712
  594SOL     OW 2680   3.778   1.038   4.017
  594SOL    HW1 2681   3.871   1.014   3.989
  594SOL    HW2 2682   3.777   1.053   4.116
  595SOL     OW 2683   6.137   4.027   2.215
  595SOL    HW1 2684   6.061   3.970   2.246
  595SOL    HW2 2685   6.128   4.119   2.254
  596SOL     OW 2686   5.724   4.789   4.436
  596SOL    HW1 2687   5.802   4.763   4.379
  596SOL    HW2 2688   5.740   4.758   4.530
  597SOL     OW 2689   3.151   1.764   6.668
  597SOL    HW1 2690   3.142   1.704   6.588
  597SOL    HW2 2691   3.157   1.859   6.637
  598SOL     OW 2692   3.225   3.609   3.300
  598SOL    HW1 2693   3.233   3.687   3.362
  598SOL    HW2 2694   3.129   3.596   3.275
  599SOL     OW 2695   1.705   4.688   1.650
  599SOL    HW1 2696   1.703   4.706   1.748
  599SOL    HW2 2697   1.612   4.667   1.619
  600SOL     OW 2698   0.301   3.808   5.158
  600SOL    HW1 2699   0.345   3.718   5.166
  600SOL    HW2 2700   0.212   3.805   5.203
  601SOL     OW 2701   0.379   6.599   5.962
  601SOL    HW1 2702   0.394   6.543   5.881
  601SOL    HW2 2703   0.283   6.593   5.990
  602SOL     OW 2704   1.363   1.042   3.283
  602SOL    HW1 2705   1.415   1.007   3.361
  602SOL    HW2 2706   1.407   1.124   3.247
  603SOL     OW 2707   1.745   1.963   3.907
  603SOL    HW1 2708   1.831   1.929   3.870
  603SOL    HW2 2709   1.696   1.888   3.951
  604SOL     OW 2710   5.628   2.857   0.881
  604SOL    HW1 2711   5.670   2.820   0.963
  604SOL    HW2 2712   5.532   2.829   0.877
  605SOL     OW 2713   5.829   6.449   1.265
  605SOL    HW1 2714   5.898   6.446   1.337
  605SOL    HW2 2715   5.814   6.543   1.236
  606SOL     OW 2716   3.301   6.562   4.878
  606SOL    HW1 2717   3.269   6.477   4.837
  606SOL    HW2 2718   3.233   6.634   4.865
  607SOL     OW 2719   1.690   2.597   6.195
  607SOL    HW1 2720   1.661   2.523   6.256
  607SOL    HW2 2721   1.783   2.581   6.164
  608SOL     OW 2722   3.246   1.236   6.956
  608SOL    HW1 2723   3.212   1.324   6.988
  608SOL    HW2 2724   3.346   1.237   6.957
  609SOL     OW 2725   3.756   2.989   2.301
  609SOL    HW1 2726   3.744   2.948   2.210
  609SOL    HW2 2727   3.730   3.085   2.298
  610SOL     OW 2728   4.812   3.632   1.866
  610SOL    HW1 2729   4.730   3.588   1.830
  610SOL    HW2 2730   4.799   3.731   1.869
  611SOL     OW 2731   4.286   1.169   2.715
  611SOL    HW1 2732   4.218   1.116   2.767
  611SOL    HW2 2733   4.364   1.191   2.774
  612SOL     OW 2734   4.955   4.468   4.169
  612SOL    HW1 2735   4.921   4.558   4.141
  612SOL    HW2 2736   4.980   4.471   4.266
  613SOL     OW 2737   3.960   4.951   6.450
  613SOL    HW1 2738   3.904   4.928   6.371
  613SOL    HW2 2739   3.926   5.034   6.493
  614SOL     OW 2740   2.639   6.534   6.516
  614SOL    HW1 2741   2.599   6.454   6.470
  614SOL    HW2 2742   2.732   6.513   6.544
  615SOL     OW 2743   0.105   5.062   3.043
  615SOL    HW1 2744   0.153   5.011   3.114
  615SOL    HW2 2745   0.031   5.115   3.084
  616SOL     OW 2746   6.383   3.430   4.007
  616SOL    HW1 2747   6.377   3.331   4.017
  616SOL    HW2 2748   6.293   3.470   4.022
  617SOL     OW 2749   2.740   0.287   5.817
  617SOL    HW1 2750   2.648   0.319   5.793
  617SOL    HW2 2751   2.756   0.197   5.778
  618SOL     OW 2752   1.742   0.519   3.658
  618SOL    HW1 2753   1.662   0.526   3.718
  618SOL    HW2 2754   1.810   0.460   3.701
  619SOL     OW 2755   1.104   2.027   6.541
  619SOL    HW1 2756   1.115   1.939   6.586
  619SOL    HW2 2757   1.043   2.018   6.463
  620SOL     OW 2758   4.693   3.493   0.684
  620SOL    HW1 2759   4.771   3.506   0.622
  620SOL    HW2 2760   4.727   3.474   0.776
  621SOL     OW 2761   0.057   6.025   0.560
  621SOL    HW1 2762   0.040   6.043   0.657
  621SOL    HW2 2763   0.018   5.936   0.535
  622SOL     OW 2764   0.264   0.752   6.985
  622SOL    HW1 2765   0.200   0.710   6.921
  622SOL    HW2 2766   0.267   0.698   0.052
  623SOL     OW 2767   0.597   4.560   4.765
  623SOL    HW1 2768   0.687   4.582   4.727
  623SOL    HW2 2769   0.533   4.540   4.691
  624SOL     OW 2770   0.607   1.756   1.604
  624SOL    HW1 2771   0.648   1.840   1.569
  624SOL    HW2 2772   0.633   1.680   1.546
  625SOL     OW 2773   1.297   1.327   2.686
  625SOL    HW1 2774   1.339   1.414   2.708
  625SOL    HW2 2775   1.366   1.255   2.685
  626SOL     OW 2776   3.056   5.915   4.754
  626SOL    HW1 2777   2.990   5.872   4.816
  626SOL    HW2 2778   3.143   5.864   4.759
  627SOL     OW 2779   5.542   6.730   6.801
  627SOL    HW1 2780   5.467   6.673   6.835
  627SOL    HW2 2781   5.590   6.773   6.878
  628SOL     OW 2782   5.505   4.060   3.056
  628SOL    HW1 2783   5.422   4.049   3.111
  628SOL    HW2 2784   5.480   4.077   2.960
  629SOL     OW 2785   1.347   0.472   0.736
  629SOL    HW1 2786   1.348   0.390   0.679
  629SOL    HW2 2787   1.253   0.501   0.750
  630SOL     OW 2788   2.924   1.317   1.100
  630SOL    HW1 2789   2.872   1.320   1.186
  630SOL    HW2 2790   2.989   1.394   1.098
  631SOL     OW 2791   2.515   0.582   4.464
  631SOL    HW1 2792   2.591   0.627   4.419
  631SOL    HW2 2793   2.439   0.572   4.398
  632SOL     OW 2794   2.753   0.228   0.969
  632SOL    HW1 2795   2.834   0.180   0.936
  632SOL    HW2 2796   2.727   0.192   1.059
  633SOL     OW 2797   2.339   0.145   5.293
  633SOL    HW1 2798   2.288   0.195   5.363
  633SOL    HW2 2799   2.277   0.084   5.244
  634SOL     OW 2800   2.440   5.544   2.005
  634SOL    HW1 2801   2.395   5.494   2.079
  634SOL    HW2 2802   2.374   5.605   1.961
  635SOL     OW 2803   2.943   0.111   2.897
  635SOL    HW1 2804   2.952   0.062   2.984
  635SOL    HW2 2805   2.857   0.161   2.896
  636SOL     OW 2806   4.515   5.432   6.692
  636SOL    HW1 2807   4.467   5.514   6.722
  636SOL    HW2 2808   4.611   5.438   6.719
  637SOL     OW 2809   6.172   4.492   6.637
  637SOL    HW1 2810   6.195   4.482   6.733
  637SOL    HW2 2811   6.106   4.420   6.612
  638SOL     OW 2812   5.144   1.406   3.242
  638SOL    HW1 2813   5.130   1.311   3.214
  638SOL    HW2 2814   5.231   1.439   3.206
  639SOL     OW 2815   4.847   3.657   1.485
  639SOL    HW1 2816   4.798   3.674   1.400
  639SOL    HW2 2817   4.785   3.614   1.551
  640SOL     OW 2818   2.307   3.277   5.299
  640SOL    HW1 2819   2.360   3.338   5.358
  640SOL    HW2 2820   2.365   3.202   5.268
  641SOL     OW 2821   6.998   5.490   5.281
  641SOL    HW1 2822   0.002   5.491   5.184
  641SOL    HW2 2823   6.943   5.570   5.305
  642SOL     OW 2824   1.910   4.552   6.093
  642SOL    HW1 2825   1.816   4.569   6.065
  642SOL    HW2 2826   1.950   4.637   6.129
  643SOL     OW 2827   5.977   5.921   4.942
  643SOL    HW1 2828   5.886   5.887   4.967
  643SOL    HW2 2829   5.983   6.018   4.965
  644SOL     OW 2830   2.203   6.420   1.720
  644SOL    HW1 2831   2.133   6.486   1.694
  644SOL    HW2 2832   2.255   6.456   1.798
  645SOL     OW 2833   6.950   2.561   2.878
  645SOL    HW1 2834   0.019   2.601   2.910
  645SOL    HW2 2835   6.963   2.465   2.857
  646SOL     OW 2836   1.183   3.038   4.593
  646SOL    HW1 2837   1.210   2.970   4.525
  646SOL    HW2 2838   1.133   3.112   4.548
  647SOL     OW 2839   5.429   3.543   0.559
  647SOL    HW1 2840   5.505   3.607   0.558
  647SOL    HW2 2841   5.394   3.534   0.652
  648SOL     OW 2842   4.443   2.323   4.449
  648SOL    HW1 2843   4.487   2.234   4.446
  648SOL    HW2 2844   4.391   2.332   4.534
  649SOL     OW 2845   4.423   4.546   1.900
  649SOL    HW1 2846   4.387   4.573   1.810
  649SOL    HW2 2847   4.432   4.447   1.904
  650SOL     OW 2848   5.114   4.299   0.542
  650SOL    HW1 2849   5.046   4.281   0.613
  650SOL    HW2 2850   5.069   4.316   0.455
  651SOL     OW 2851   1.178   5.774   6.492
  651SOL    HW1 2852   1.104   5.732   6.439
  651SOL    HW2 2853   1.212   5.708   6.560
  652SOL     OW 2854   4.879   1.915   2.804
  652SOL    HW1 2855   4.837   1.859   2.875
  652SOL    HW2 2856   4.861   1.874   2.714
  653SOL     OW 2857   3.697   4.866   2.525
  653SOL    HW1 2858   3.616   4.879   2.468
  653SOL    HW2 2859   3.777   4.851   2.467
  654SOL     OW 2860   6.702   5.814   6.401
  654SOL    HW1 2861   6.662   5.904   6.384
  654SOL    HW2 2862   6.648   5.766   6.470
  655SOL     OW 2863   0.767   1.796   6.844
  655SOL    HW1 2864   0.859   1.770   6.816
  655SOL    HW2 2865   0.773   1.866   6.916
  656SOL     OW 2866   2.293   6.221   1.067
  656SOL    HW1 2867   2.329   6.278   0.992
  656SOL    HW2 2868   2.299   6.125   1.041
  657SOL     OW 2869   3.887   1.152   0.311
  657SOL    HW1 2870   3.802   1.099   0.310
  657SOL    HW2 2871   3.952   1.110   0.373
  658SOL     OW 2872   3.601   5.525   6.526
  658SOL    HW1 2873   3.621   5.623   6.528
  658SOL    HW2 2874   3.531   5.505   6.594
  659SOL     OW 2875   4.051   0.853   6.168
  659SOL    HW1 2876   4.065   0.788   6.093
  659SOL    HW2 2877   3.954   0.875   6.176
  660SOL     OW 2878   3.768   6.133   3.004
  660SOL    HW1 2879   3.816   6.150   2.918
  660SOL    HW2 2880   3.808   6.189   3.076
  661SOL     OW 2881   5.718   5.024   2.447
  661SOL    HW1 2882   5.730   5.052   2.542
  661SOL    HW2 2883   5.640   5.073   2.407
  662SOL     OW 2884   4.063   1.909   0.675
  662SOL    HW1 2885   4.062   2.007   0.693
  662SOL    HW2 2886   4.146   1.869   0.714
  663SOL     OW 2887   1.615   4.391   4.913
  663SOL    HW1 2888   1.563   4.415   4.831
  663SOL    HW2 2889   1.686   4.459   4.929
  664SOL     OW 2890   5.830   6.974   5.996
  664SOL    HW1 2891   5.800   6.928   6.080
  664SOL    HW2 2892   5.750   7.007   5.945
  665SOL     OW 2893   0.973   4.417   1.835
  665SOL    HW1 2894   0.896   4.472   1.867
  665SOL    HW2 2895   0.974   4.415   1.735
  666SOL     OW 2896   4.305   1.325   1.739
  666SOL    HW1 2897   4.239   1.253   1.763
  666SOL    HW2 2898   4.272   1.413   1.774
  667SOL     OW 2899   0.985   0.058   2.497
  667SOL    HW1 2900   0.981   0.006   2.583
  667SOL    HW2 2901   1.064   0.119   2.498
  668SOL     OW 2902   5.739   3.014   0.074
  668SOL    HW1 2903   5.697   3.049   0.158
  668SOL    HW2 2904   5.742   3.087   0.006
  669SOL     OW 2905   5.234   1.758   3.330
  669SOL    HW1 2906   5.195   1.754   3.422
  669SOL    HW2 2907   5.309   1.825   3.328
  670SOL     OW 2908   3.471   1.858   2.335
  670SOL    HW1 2909   3.383   1.818   2.361
  670SOL    HW2 2910   3.460   1.956   2.321
  671SOL     OW 2911   2.052   6.257   2.068
  671SOL    HW1 2912   2.032   6.236   2.164
  671SOL    HW2 2913   1.988   6.327   2.035
  672SOL     OW 2914   0.625   0.152   2.192
  672SOL    HW1 2915   0.608   0.250   2.181
  672SOL    HW2 2916   0.719   0.138   2.225
  673SOL     OW 2917   6.073   0.060   6.602
  673SOL    HW1 2918   6.119   0.020   6.523
  673SOL    HW2 2919   5.979   0.028   6.606
  674SOL     OW 2920   5.082   0.216   3.998
  674SOL    HW1 2921   5.178   0.194   4.017
  674SOL    HW2 2922   5.040   0.253   4.081
  675SOL     OW 2923   0.639   3.690   2.697
  675SOL    HW1 2924   0.619   3.787   2.713
  675SOL    HW2 2925   0.648   3.674   2.599
  676SOL     OW 2926   2.587   6.096   6.622
  676SOL    HW1 2927   2.511   6.092   6.688
  676SOL    HW2 2928   2.555   6.063   6.533
  677SOL     OW 2929   6.067   1.476   1.139
  677SOL    HW1 2930   6.009   1.512   1.066
  677SOL    HW2 2931   6.144   1.539   1.154
  678SOL     OW 2932   0.889   5.435   3.618
  678SOL    HW1 2933   0.829   5.374   3.566
  678SOL    HW2 2934   0.844   5.524   3.630
  679SOL     OW 2935   4.597   2.128   5.142
  679SOL    HW1 2936   4.568   2.123   5.238
  679SOL    HW2 2937   4.548   2.202   5.096
  680SOL     OW 2938   6.373   6.456   3.785
  680SOL    HW1 2939   6.468   6.463   3.816
  680SOL    HW2 2940   6.312   6.498   3.852
  681SOL     OW 2941   4.830   4.854   2.935
  681SOL    HW1 2942   4.786   4.878   3.022
  681SOL    HW2 2943   4.925   4.883   2.937
  682SOL     OW 2944   6.796   1.661   3.080
  682SOL    HW1 2945   6.698   1.669   3.061
  682SOL    HW2 2946   6.832   1.749   3.111
  683SOL     OW 2947   3.243   3.788   1.008
  683SOL    HW1 2948   3.195   3.874   1.024
  683SOL    HW2 2949   3.182   3.711   1.031
  684SOL     OW 2950   6.412   1.130   5.521
  684SOL    HW1 2951   6.359   1.178   5.591
  684SOL    HW2 2952   6.384   1.161   5.430
  685SOL     OW 2953   3.017   6.601   3.137
  685SOL    HW1 2954   2.933   6.636   3.093
  685SOL    HW2 2955   3.020   6.632   3.232
  686SOL     OW 2956   4.161   0.836   5.363
  686SOL    HW1 2957   4.251   0.812   5.327
  686SOL    HW2 2958   4.170   0.915   5.425
  687SOL     OW 2959   0.021   1.445   4.402
  687SOL    HW1 2960   0.017   1.393   4.317
  687SOL    HW2 2961   6.965   1.513   4.402
  688SOL     OW 2962   5.840   1.900   6.960
  688SOL    HW1 2963   5.925   1.911   6.908
  688SOL    HW2 2964   5.765   1.878   6.898
  689SOL     OW 2965   2.026   5.520   0.493
  689SOL    HW1 2966   2.084   5.530   0.574
  689SOL    HW2 2967   2.065   5.451   0.432
  690SOL     OW 2968   5.371   4.017   3.452
  690SOL    HW1 2969   5.431   3.939   3.436
  690SOL    HW2 2970   5.407   4.097   3.404
  691SOL     OW 2971   5.821   1.116   1.346
  691SOL    HW1 2972   5.800   1.091   1.441
  691SOL    HW2 2973   5.905   1.169   1.344
  692SOL     OW 2974   1.678   1.305   3.843
  692SOL    HW1 2975   1.590   1.257   3.844
  692SOL    HW2 2976   1.665   1.397   3.879
  693SOL     OW 2977   5.861   5.022   3.368
  693SOL    HW1 2978   5.848   5.009   3.269
  693SOL    HW2 2979   5.869   4.933   3.412
  694SOL     OW 2980   4.168   5.516   4.318
  694SOL    HW1 2981   4.157   5.498   4.221
  694SOL    HW2 2982   4.079   5.540   4.358
  695SOL     OW 2983   4.805   6.470   3.756
  695SOL    HW1 2984   4.869   6.394   3.774
  695SOL    HW2 2985   4.793   6.480   3.657
  696SOL     OW 2986   5.577   3.967   2.434
  696SOL    HW1 2987   5.502   3.997   2.376
  696SOL    HW2 2988   5.634   4.045   2.459
  697SOL     OW 2989   0.826   6.546   2.584
  697SOL    HW1 2990   0.903   6.519   2.643
  697SOL    HW2 2991   0.804   6.642   2.599
  698SOL     OW 2992   5.588   6.188   6.136
  698SOL    HW1 2993   5.646   6.108   6.121
  698SOL    HW2 2994   5.545   6.182   6.226
  699SOL     OW 2995   4.128   3.908   0.641
  699SOL    HW1 2996   4.219   3.924   0.679
  699SOL    HW2 2997   4.058   3.941   0.705
  700SOL     OW 2998   3.669   6.732   5.310
  700SOL    HW1 2999   3.767   6.729   5.287
  700SOL    HW2 3000   3.616   6.701   5.231
  701SOL     OW 3001   4.281   4.932   1.590
  701SOL    HW1 3002   4.378   4.926   1.568
  701SOL    HW2 3003   4.228   4.879   1.523
  702SOL     OW 3004   4.417   0.419   4.867
  702SOL    HW1 3005   4.327   0.421   4.910
  702SOL    HW2 3006   4.486   0.397   4.937
  703SOL     OW 3007   2.989   3.056   6.979
  703SOL    HW1 3008   2.939   3.073   6.894
  703SOL    HW2 3009   3.076   3.105   6.976
  704SOL     OW 3010   3.723   1.118   6.016
  704SOL    HW1 3011   3.651   1.184   6.042
  704SOL    HW2 3012   3.717   1.098   5.919
  705SOL     OW 3013   0.242   6.318   5.705
  705SOL    HW1 3014   0.292   6.238   5.738
  705SOL    HW2 3015   0.159   6.288   5.657
  706SOL     OW 3016   3.781   0.905   4.704
  706SOL    HW1 3017   3.850   0.890   4.633
  706SOL    HW2 3018   3.820   0.961   4.777
  707SOL     OW 3019   2.727   5.507   4.077
  707SOL    HW1 3020   2.809   5.508   4.020
  707SOL    HW2 3021   2.743   5.560   4.160
  708SOL     OW 3022   4.079   6.056   4.066
  708SOL    HW1 3023   4.089   5.957   4.080
  708SOL    HW2 3024   4.091   6.077   3.969
  709SOL     OW 3025   2.603   0.416   1.662
  709SOL    HW1 3026   2.653   0.479   1.722
  709SOL    HW2 3027   2.554   0.349   1.718
  710SOL     OW 3028   4.899   3.639   2.436
  710SOL    HW1 3029   4.905   3.726   2.484
  710SOL    HW2 3030   4.947   3.645   2.349
  711SOL     OW 3031   0.611   1.837   0.243
  711SOL    HW1 3032   0.596   1.900   0.320
  711SOL    HW2 3033   0.564   1.871   0.162
  712SOL     OW 3034   5.193   4.036   6.949
  712SOL    HW1 3035   5.149   3.971   7.011
  712SOL    HW2 3036   5.154   4.027   6.857
  713SOL     OW 3037   4.028   3.218   5.993
  713SOL    HW1 3038   4.079   3.149   5.942
  713SOL    HW2 3039   3.977   3.174   6.067
  714SOL     OW 3040   5.322   6.418   2.981
  714SOL    HW1 3041   5.389   6.347   3.003
  714SOL    HW2 3042   5.232   6.376   2.971
  715SOL     OW 3043   6.057   5.019   5.287
  715SOL    HW1 3044   6.006   4.935   5.270
  715SOL    HW2 3045   6.113   5.009   5.369
  716SOL     OW 3046   3.138   2.138   3.489
  716SOL    HW1 3047   3.045   2.118   3.458
  716SOL    HW2 3048   3.204   2.103   3.423
  717SOL     OW 3049   5.314   5.058   3.831
  717SOL    HW1 3050   5.227   5.069   3.878
  717SOL    HW2 3051   5.299   5.056   3.732
  718SOL     OW 3052   6.195   2.258   5.044
  718SOL    HW1 3053   6.199   2.349   5.085
  718SOL    HW2 3054   6.224   2.190   5.111
  719SOL     OW 3055   4.749   6.182   3.316
  719SOL    HW1 3056   4.737   6.165   3.218
  719SOL    HW2 3057   4.698   6.114   3.369
  720SOL     OW 3058   3.001   1.341   1.795
  720SOL    HW1 3059   2.910   1.327   1.835
  720SOL    HW2 3060   2.993   1.398   1.713
  721SOL     OW 3061   6.666   3.028   1.878
  721SOL    HW1 3062   6.602   2.951   1.887
  721SOL    HW2 3063   6.621   3.103   1.830
  722SOL     OW 3064   4.736   6.254   1.152
  722SOL    HW1 3065   4.794   6.191   1.099
  722SOL    HW2 3066   4.763   6.348   1.133
  723SOL     OW 3067   2.147   0.550   4.635
  723SOL    HW1 3068   2.071   0.614   4.626
  723SOL    HW2 3069   2.147   0.511   4.727
  724SOL     OW 3070   0.991   2.103   4.456
  724SOL    HW1 3071   1.001   2.115   4.357
  724SOL    HW2 3072   0.937   2.020   4.474
  725SOL     OW 3073   1.888   4.753   2.851
  725SOL    HW1 3074   1.884   4.775   2.753
  725SOL    HW2 3075   1.964   4.803   2.893
  726SOL     OW 3076   2.304   3.852   0.627
  726SOL    HW1 3077   2.300   3.893   0.536
  726SOL    HW2 3078   2.242   3.774   0.631
  727SOL     OW 3079   3.489   5.526   4.848
  727SOL    HW1 3080   3.504   5.523   4.947
  727SOL    HW2 3081   3.436   5.446   4.819
  728SOL     OW 3082   6.864   3.252   3.829
  728SOL    HW1 3083   6.775   3.246   3.784
  728SOL    HW2 3084   6.888   3.163   3.867
  729SOL     OW 3085   0.712   4.352   0.859
  729SOL    HW1 3086   0.650   4.427   0.882
  729SOL    HW2 3087   0.731   4.299   0.941
  730SOL     OW 3088   4.491   1.539   3.114
  730SOL    HW1 3089   4.510   1.514   3.018
  730SOL    HW2 3090   4.487   1.638   3.122
  731SOL     OW 3091   4.702   4.554   4.570
  731SOL    HW1 3092   4.784   4.597   4.609
  731SOL    HW2 3093   4.624   4.616   4.581
  732SOL     OW 3094   4.001   0.608   4.569
  732SOL    HW1 3095   3.917   0.570   4.609
  732SOL    HW2 3096   4.081   0.562   4.607
  733SOL     OW 3097   6.343   5.310   3.940
  733SOL    HW1 3098   6.275   5.380   3.960
  733SOL    HW2 3099   6.382   5.326   3.850
  734SOL     OW 3100   6.412   6.522   2.863
  734SOL    HW1 3101   6.466   6.603   2.842
  734SOL    HW2 3102   6.319   6.534   2.830
  735SOL     OW 3103   4.105   0.159   2.385
  735SOL    HW1 3104   4.060   0.248   2.384
  735SOL    HW2 3105   4.183   0.161   2.448
  736SOL     OW 3106   1.661   1.967   3.536
  736SOL    HW1 3107   1.598   1.995   3.464
  736SOL    HW2 3108   1.755   1.980   3.506
  737SOL     OW 3109   3.356   1.054   6.245
  737SOL    HW1 3110   3.390   1.006   6.165
  737SOL    HW2 3111   3.256   1.044   6.250
  738SOL     OW 3112   1.458   4.754   0.350
  738SOL    HW1 3113   1.380   4.807   0.382
  738SOL    HW2 3114   1.436   4.711   0.263
  739SOL     OW 3115   1.994   6.972   3.588
  739SOL    HW1 3116   2.015   0.017   3.664
  739SOL    HW2 3117   2.056   6.894   3.590
  740SOL     OW 3118   4.987   3.639   3.511
  740SOL    HW1 3119   4.962   3.608   3.603
  740SOL    HW2 3120   5.085   3.657   3.507
  741SOL     OW 3121   3.120   1.109   2.884
  741SOL    HW1 3122   3.047   1.169   2.852
  741SOL    HW2 3123   3.208   1.155   2.874
  742SOL     OW 3124   1.512   6.942   2.313
  742SOL    HW1 3125   1.498   0.024   2.301
  742SOL    HW2 3126   1.446   6.908   2.379
  743SOL     OW 3127   0.228   6.204   2.880
  743SOL    HW1 3128   0.243   6.106   2.886
  743SOL    HW2 3129   0.180   6.226   2.794
  744SOL     OW 3130   5.361   1.546   0.747
  744SOL    HW1 3131   5.421   1.508   0.818
  744SOL    HW2 3132   5.287   1.596   0.791
  745SOL     OW 3133   2.288   6.440   5.018
  745SOL    HW1 3134   2.289   6.533   4.982
  745SOL    HW2 3135   2.373   6.422   5.067
  746SOL     OW 3136   0.055   4.868   4.546
  746SOL    HW1 3137   6.996   4.870   4.611
  746SOL    HW2 3138   0.095   4.959   4.540
  747SOL     OW 3139   4.643   5.384   2.891
  747SOL    HW1 3140   4.742   5.387   2.878
  747SOL    HW2 3141   4.600   5.348   2.808
  748SOL     OW 3142   5.485   4.804   1.109
  748SOL    HW1 3143   5.390   4.780   1.129
  748SOL    HW2 3144   5.535   4.722   1.083
  749SOL     OW 3145   5.071   4.692   5.303
  749SOL    HW1 3146   5.126   4.739   5.372
  749SOL    HW2 3147   5.087   4.733   5.213
  750SOL     OW 3148   2.202   2.211   3.350
  750SOL    HW1 3149   2.236   2.244   3.262
  750SOL    HW2 3150   2.123   2.152   3.335
  751SOL     OW 3151   3.446   1.013   0.575
  751SOL    HW1 3152   3.407   1.057   0.495
  751SOL    HW2 3153   3.476   1.083   0.640
  752SOL     OW 3154   3.230   2.945   5.021
  752SOL    HW1 3155   3.300   2.886   5.060
  752SOL    HW2 3156   3.228   2.934   4.922
  753SOL     OW 3157   3.715   4.070   3.827
  753SOL    HW1 3158   3.791   4.017   3.789
  753SOL    HW2 3159   3.652   4.096   3.754
  754SOL     OW 3160   4.735   0.759   6.876
  754SOL    HW1 3161   4.812   0.695   6.880
  754SOL    HW2 3162   4.768   0.850   6.853
  755SOL     OW 3163   4.468   4.684   5.227
  755SOL    HW1 3164   4.402   4.734   5.283
  755SOL    HW2 3165   4.420   4.624   5.164
  756SOL     OW 3166   2.908   5.042   6.397
  756SOL    HW1 3167   2.996   4.994   6.400
  756SOL    HW2 3168   2.921   5.137   6.426
  757SOL     OW 3169   1.590   6.582   1.818
  757SOL    HW1 3170   1.576   6.536   1.906
  757SOL    HW2 3171   1.506   6.628   1.791
  758SOL     OW 3172   4.858   1.028   4.566
  758SOL    HW1 3173   4.831   0.955   4.629
  758SOL    HW2 3174   4.950   1.009   4.530
  759SOL     OW 3175   0.003   3.723   4.149
  759SOL    HW1 3176   6.971   3.650   4.197
  759SOL    HW2 3177   0.077   3.683   4.094
  760SOL     OW 3178   6.561   5.423   3.632
  760SOL    HW1 3179   6.590   5.473   3.714
  760SOL    HW2 3180   6.465   5.442   3.613
  761SOL     OW 3181   5.052   5.067   6.109
  761SOL    HW1 3182   4.988   4.990   6.119
  761SOL    HW2 3183   5.000   5.150   6.087
  762SOL     OW 3184   3.929   5.575   3.871
  762SOL    HW1 3185   3.861   5.520   3.919
  762SOL    HW2 3186   4.017   5.527   3.869
  763SOL     OW 3187   5.270   0.854   0.864
  763SOL    HW1 3188   5.347   0.828   0.922
  763SOL    HW2 3189   5.288   0.824   0.770
  764SOL     OW 3190   5.139   6.302   5.202
  764SOL    HW1 3191   5.142   6.241   5.122
  764SOL    HW2 3192   5.166   6.252   5.283
  765SOL     OW 3193   5.784   6.515   0.321
  765SOL    HW1 3194   5.776   6.568   0.237
  765SOL    HW2 3195   5.877   6.480   0.330
  766SOL     OW 3196   2.571   1.948   4.244
  766SOL    HW1 3197   2.549   1.923   4.338
  766SOL    HW2 3198   2.625   1.876   4.202
  767SOL     OW 3199   6.930   5.984   4.147
  767SOL    HW1 3200   6.971   6.023   4.065
  767SOL    HW2 3201   6.967   5.892   4.162
  768SOL     OW 3202   2.131   5.273   2.217
  768SOL    HW1 3203   2.039   5.308   2.237
  768SOL    HW2 3204   2.132   5.232   2.126
  769SOL     OW 3205   3.173   1.994   5.328
  769SOL    HW1 3206   3.170   2.086   5.367
  769SOL    HW2 3207   3.153   1.999   5.230
  770SOL     OW 3208   1.335   4.567   5.850
  770SOL    HW1 3209   1.314   4.601   5.942
  770SOL    HW2 3210   1.308   4.634   5.782
  771SOL     OW 3211   1.345   4.853   2.620
  771SOL    HW1 3212   1.321   4.758   2.602
  771SOL    HW2 3213   1.293   4.887   2.698
  772SOL     OW 3214   5.335   4.585   0.344
  772SOL    HW1 3215   5.292   4.595   0.434
  772SOL    HW2 3216   5.434   4.577   0.355
  773SOL     OW 3217   2.356   4.400   3.460
  773SOL    HW1 3218   2.264   4.428   3.489
  773SOL    HW2 3219   2.377   4.443   3.372
  774SOL     OW 3220   2.227   1.667   3.769
  774SOL    HW1 3221   2.250   1.730   3.695
  774SOL    HW2 3222   2.308   1.652   3.826
  775SOL     OW 3223   1.173   4.614   2.610
  775SOL    HW1 3224   1.158   4.593   2.706
  775SOL    HW2 3225   1.233   4.546   2.569
  776SOL     OW 3226   2.519   5.162   6.320
  776SOL    HW1 3227   2.454   5.160   6.244
  776SOL    HW2 3228   2.507   5.082   6.378
  777SOL     OW 3229   2.159   3.727   6.029
  777SOL    HW1 3230   2.182   3.634   6.057
  777SOL    HW2 3231   2.211   3.751   5.947
  778SOL     OW 3232   3.504   5.825   6.539
  778SOL    HW1 3233   3.411   5.846   6.508
  778SOL    HW2 3234   3.522   5.872   6.625
  779SOL     OW 3235   5.914   1.874   3.106
  779SOL    HW1 3236   5.914   1.930   3.190
  779SOL    HW2 3237   5.985   1.804   3.114
  780SOL     OW 3238   6.791   2.151   4.214
  780SOL    HW1 3239   6.792   2.236   4.267
  780SOL    HW2 3240   6.722   2.157   4.142
  781SOL     OW 3241   0.352   4.464   6.561
  781SOL    HW1 3242   0.257   4.461   6.593
  781SOL    HW2 3243   0.354   4.455   6.461
  782SOL     OW 3244   2.429   4.138   5.378
  782SOL    HW1 3245   2.435   4.092   5.467
  782SOL    HW2 3246   2.424   4.070   5.305
  783SOL     OW 3247   6.773   5.137   6.867
  783SOL    HW1 3248   6.675   5.132   6.848
  783SOL    HW2 3249   6.793   5.223   6.915
  784SOL     OW 3250   1.901   5.874   0.601
  784SOL    HW1 3251   1.970   5.870   0.528
  784SOL    HW2 3252   1.934   5.933   0.674
  785SOL     OW 3253   0.453   0.456   4.595
  785SOL    HW1 3254   0.519   0.505   4.652
  785SOL    HW2 3255   0.380   0.419   4.653
  786SOL     OW 3256   5.845   0.729   4.310
  786SOL    HW1 3257   5.760   0.691   4.346
  786SOL    HW2 3258   5.921   0.699   4.367
  787SOL     OW 3259   1.923   6.658   1.341
  787SOL    HW1 3260   1.924   6.595   1.419
  787SOL    HW2 3261   1.906   6.751   1.374
  788SOL     OW 3262   2.165   3.175   2.274
  788SOL    HW1 3263   2.149   3.221   2.186
  788SOL    HW2 3264   2.184   3.078   2.257
  789SOL     OW 3265   3.794   5.078   2.919
  789SOL    HW1 3266   3.814   5.036   3.008
  789SOL    HW2 3267   3.740   5.014   2.864
  790SOL     OW 3268   0.409   3.170   2.302
  790SOL    HW1 3269   0.334   3.236   2.300
  790SOL    HW2 3270   0.374   3.080   2.276
  791SOL     OW 3271   2.833   0.385   3.746
  791SOL    HW1 3272   2.780   0.443   3.807
  791SOL    HW2 3273   2.827   0.290   3.776
  792SOL     OW 3274   2.486   0.541   0.897
  792SOL    HW1 3275   2.458   0.627   0.939
  792SOL    HW2 3276   2.419   0.470   0.916
  793SOL     OW 3277   2.126   6.077   4.694
  793SOL    HW1 3278   2.163   6.075   4.601
  793SOL    HW2 3279   2.194   6.117   4.755
  794SOL     OW 3280   2.936   3.611   2.596
  794SOL    HW1 3281   2.926   3.523   2.643
  794SOL    HW2 3282   2.966   3.680   2.661
  795SOL     OW 3283   4.985   0.807   5.201
  795SOL    HW1 3284   5.068   0.765   5.165
  795SOL    HW2 3285   4.924   0.831   5.126
  796SOL     OW 3286   0.919   1.981   6.986
  796SOL    HW1 3287   1.013   2.014   6.986
  796SOL    HW2 3288   0.860   2.048   0.015
  797SOL     OW 3289   3.322   6.854   1.254
  797SOL    HW1 3290   3.228   6.890   1.253
  797SOL    HW2 3291   3.319   6.755   1.269
  798SOL     OW 3292   5.242   4.170   1.622
  798SOL    HW1 3293   5.194   4.121   1.695
  798SOL    HW2 3294   5.329   4.205   1.657
  799SOL     OW 3295   2.814   2.383   5.815
  799SOL    HW1 3296   2.904   2.400   5.776
  799SOL    HW2 3297   2.799   2.446   5.892
  800SOL     OW 3298   5.595   3.044   3.441
  800SOL    HW1 3299   5.648   3.070   3.360
  800SOL    HW2 3300   5.658   3.023   3.516
  801SOL     OW 3301   2.050   5.906   6.564
  801SOL    HW1 3302   2.110   5.862   6.631
  801SOL    HW2 3303   1.998   5.979   6.609
  802SOL     OW 3304   4.365   2.481   6.175
  802SOL    HW1 3305   4.424   2.529   6.240
  802SOL    HW2 3306   4.294   2.431   6.225
  803SOL     OW 3307   2.065   1.966   4.137
  803SOL    HW1 3308   2.152   1.983   4.183
  803SOL    HW2 3309   2.016   2.052   4.125
  804SOL     OW 3310   4.969   0.246   2.790
  804SOL    HW1 3311   4.991   0.344   2.790
  804SOL    HW2 3312   5.040   0.195   2.743
  805SOL     OW 3313   3.224   0.905   4.065
  805SOL    HW1 3314   3.125   0.920   4.076
  805SOL    HW2 3315   3.256   0.843   4.137
  806SOL     OW 3316   3.124   6.589   5.826
  806SOL    HW1 3317   3.179   6.560   5.748
  806SOL    HW2 3318   3.167   6.558   5.911
  807SOL     OW 3319   1.153   5.982   6.199
  807SOL    HW1 3320   1.231   5.999   6.259
  807SOL    HW2 3321   1.072   6.029   6.236
  808SOL     OW 3322   5.103   2.592   6.368
  808SOL    HW1 3323   5.111   2.684   6.328
  808SOL    HW2 3324   5.118   2.524   6.297
  809SOL     OW 3325   3.207   5.807   6.435
  809SOL    HW1 3326   3.122   5.779   6.480
  809SOL    HW2 3327   3.189   5.885   6.376
  810SOL     OW 3328   3.417   3.847   0.048
  810SOL    HW1 3329   3.373   3.760   0.069
  810SOL    HW2 3330   3.505   3.831   0.005
  811SOL     OW 3331   5.815   5.439   4.198
  811SOL    HW1 3332   5.762   5.521   4.220
  811SOL    HW2 3333   5.803   5.417   4.101
  812SOL     OW 3334   1.056   3.239   1.407
  812SOL    HW1 3335   1.088   3.154   1.449
  812SOL    HW2 3336   1.105   3.253   1.321
  813SOL     OW 3337   2.215   1.896   4.915
  813SOL    HW1 3338   2.236   1.945   4.999
  813SOL    HW2 3339   2.138   1.834   4.930
  814SOL     OW 3340   0.460   4.393   2.119
  814SOL    HW1 3341   0.404   4.462   2.166
  814SOL    HW2 3342   0.434   4.388   2.023
  815SOL     OW 3343   4.799   2.482   4.704
  815SOL    HW1 3344   4.723   2.536   4.740
  815SOL    HW2 3345   4.784   2.463   4.607
  816SOL     OW 3346   5.132   3.883   6.185
  816SOL    HW1 3347   5.177   3.939   6.115
  816SOL    HW2 3348   5.058   3.935   6.227
  817SOL     OW 3349   0.046   4.989   6.460
  817SOL    HW1 3350   6.974   4.988   6.505
  817SOL    HW2 3351   0.106   4.922   6.503
  818SOL     OW 3352   0.145   1.607   4.955
  818SOL    HW1 3353   0.227   1.577   4.906
  818SOL    HW2 3354   0.170   1.628   5.050
  819SOL     OW 3355   5.235   2.812   1.331
  819SOL    HW1 3356   5.141   2.800   1.364
  819SOL    HW2 3357   5.296   2.754   1.384
  820SOL     OW 3358   2.855   1.934   5.129
  820SOL    HW1 3359   2.777   1.980   5.087
  820SOL    HW2 3360   2.825   1.849   5.172
  821SOL     OW 3361   4.744   3.930   6.761
  821SOL    HW1 3362   4.709   3.917   6.668
  821SOL    HW2 3363   4.838   3.964   6.757
  822SOL     OW 3364   6.956   5.212   3.671
  822SOL    HW1 3365   6.887   5.204   3.600
  822SOL    HW2 3366   6.953   5.131   3.730
  823SOL     OW 3367   2.014   2.657   4.464
  823SOL    HW1 3368   1.924   2.616   4.454
  823SOL    HW2 3369   2.011   2.731   4.532
  824SOL     OW 3370   5.263   0.336   6.888
  824SOL    HW1 3371   5.296   0.375   6.974
  824SOL    HW2 3372   5.190   0.394   6.851
  825SOL     OW 3373   6.160   5.758   0.525
  825SOL    HW1 3374   6.205   5.847   0.537
  825SOL    HW2 3375   6.062   5.773   0.512
  826SOL     OW 3376   3.971   1.859   0.370
  826SOL    HW1 3377   4.040   1.806   0.321
  826SOL    HW2 3378   3.887   1.861   0.316
  827SOL     OW 3379   3.232   3.708   4.497
  827SOL    HW1 3380   3.269   3.697   4.589
  827SOL    HW2 3381   3.181   3.627   4.471
  828SOL     OW 3382   0.244   6.868   6.501
  828SOL    HW1 3383   0.312   6.802   6.531
  828SOL    HW2 3384   0.290   6.952   6.472
  829SOL     OW 3385   3.884   3.377   1.820
  829SOL    HW1 3386   3.895   3.319   1.901
  829SOL    HW2 3387   3.788   3.401   1.808
  830SOL     OW 3388   6.705   4.767   5.949
  830SOL    HW1 3389   6.667   4.812   6.030
  830SOL    HW2 3390   6.685   4.669   5.952
  831SOL     OW 3391   5.692   1.268   2.583
  831SOL    HW1 3392   5.782   1.226   2.574
  831SOL    HW2 3393   5.625   1.200   2.610
  832SOL     OW 3394   2.959   1.905   4.305
  832SOL    HW1 3395   2.885   1.889   4.239
  832SOL    HW2 3396   2.970   2.003   4.320
  833SOL     OW 3397   3.706   3.032   0.192
  833SOL    HW1 3398   3.662   3.055   0.106
  833SOL    HW2 3399   3.789   3.086   0.204
  834SOL     OW 3400   5.323   3.005   0.173
  834SOL    HW1 3401   5.336   2.931   0.107
  834SOL    HW2 3402   5.229   3.004   0.206
  835SOL     OW 3403   0.084   0.026   4.622
  835SOL    HW1 3404   0.140   0.069   4.552
  835SOL    HW2 3405   7.005   0.037   4.600
  836SOL     OW 3406   5.200   0.478   4.384
  836SOL    HW1 3407   5.165   0.471   4.477
  836SOL    HW2 3408   5.262   0.556   4.377
  837SOL     OW 3409   1.605   0.504   6.636
  837SOL    HW1 3410   1.534   0.573   6.621
  837SOL    HW2 3411   1.651   0.522   6.723
  838SOL     OW 3412   1.819   5.975   3.123
  838SOL    HW1 3413   1.831   6.063   3.076
  838SOL    HW2 3414   1.832   5.988   3.222
  839SOL     OW 3415   1.414   2.404   0.388
  839SOL    HW1 3416   1.499   2.452   0.364
  839SOL    HW2 3417   1.433   2.342   0.464
  840SOL     OW 3418   4.353   4.906   1.174
  840SOL    HW1 3419   4.398   4.936   1.090
  840SOL    HW2 3420   4.263   4.948   1.181
  841SOL     OW 3421   2.335   5.280   6.709
  841SOL    HW1 3422   2.317   5.332   6.625
  841SOL    HW2 3423   2.303   5.332   6.788
  842SOL     OW 3424   4.430   6.314   0.821
  842SOL    HW1 3425   4.387   6.224   0.814
  842SOL    HW2 3426   4.389   6.366   0.896
  843SOL     OW 3427   1.233   0.431   1.802
  843SOL    HW1 3428   1.189   0.516   1.831
  843SOL    HW2 3429   1.244   0.432   1.702
  844SOL     OW 3430   6.784   0.168   1.817
  844SOL    HW1 3431   6.864   0.114   1.793
  844SOL    HW2 3432   6.801   0.264   1.797
  845SOL     OW 3433   3.777   1.490   2.104
  845SOL    HW1 3434   3.712   1.509   2.177
  845SOL    HW2 3435   3.828   1.406   2.125
  846SOL     OW 3436   2.092   2.119   0.710
  846SOL    HW1 3437   2.040   2.182   0.768
  846SOL    HW2 3438   2.111   2.035   0.761
  847SOL     OW 3439   2.612   3.652   1.496
  847SOL    HW1 3440   2.528   3.651   1.551
  847SOL    HW2 3441   2.687   3.690   1.550
  848SOL     OW 3442   6.365   6.285   0.240
  848SOL    HW1 3443   6.381   6.369   0.188
  848SOL    HW2 3444   6.368   6.306   0.338
  849SOL     OW 3445   5.909   3.211   6.573
  849SOL    HW1 3446   5.905   3.112   6.559
  849SOL    HW2 3447   5.816   3.248   6.579
  850SOL     OW 3448   1.695   0.918   4.525
  850SOL    HW1 3449   1.707   0.905   4.427
  850SOL    HW2 3450   1.767   0.978   4.560
  851SOL     OW 3451   4.988   2.673   6.619
  851SOL    HW1 3452   5.020   2.629   6.535
  851SOL    HW2 3453   5.039   2.758   6.634
  852SOL     OW 3454   6.831   4.714   1.849
  852SOL    HW1 3455   6.776   4.640   1.811
  852SOL    HW2 3456   6.775   4.772   1.908
  853SOL     OW 3457   3.201   3.185   0.651
  853SOL    HW1 3458   3.265   3.141   0.588
  853SOL    HW2 3459   3.148   3.115   0.699
  854SOL     OW 3460   6.834   0.102   5.436
  854SOL    HW1 3461   6.764   0.044   5.395
  854SOL    HW2 3462   6.911   0.046   5.466
  855SOL     OW 3463   5.145   1.759   0.600
  855SOL    HW1 3464   5.065   1.704   0.625
  855SOL    HW2 3465   5.203   1.708   0.537
  856SOL     OW 3466   2.001   5.391   1.717
  856SOL    HW1 3467   1.960   5.300   1.709
  856SOL    HW2 3468   1.930   5.458   1.739
  857SOL     OW 3469   6.885   5.230   5.147
  857SOL    HW1 3470   6.849   5.265   5.233
  857SOL    HW2 3471   6.812   5.185   5.096
  858SOL     OW 3472   4.311   4.177   0.235
  858SOL    HW1 3473   4.233   4.169   0.173
  858SOL    HW2 3474   4.327   4.089   0.280
  859SOL     OW 3475   4.873   5.237   5.290
  859SOL    HW1 3476   4.820   5.152   5.289
  859SOL    HW2 3477   4.968   5.216   5.312
  860SOL     OW 3478   4.734   3.337   6.231
  860SOL    HW1 3479   4.657   3.351   6.169
  860SOL    HW2 3480   4.804   3.281   6.186
  861SOL     OW 3481   1.601   5.579   2.580
  861SOL    HW1 3482   1.658   5.509   2.623
  861SOL    HW2 3483   1.555   5.633   2.650
  862SOL     OW 3484   0.722   4.087   3.944
  862SOL    HW1 3485   0.786   4.037   4.003
  862SOL    HW2 3486   0.721   4.046   3.853
  863SOL     OW 3487   6.329   0.654   1.349
  863SOL    HW1 3488   6.331   0.565   1.394
  863SOL    HW2 3489   6.360   0.725   1.413
  864SOL     OW 3490   5.977   5.857   2.757
  864SOL    HW1 3491   5.918   5.829   2.682
  864SOL    HW2 3492   5.966   5.794   2.834
  865SOL     OW 3493   1.722   5.664   5.139
  865SOL    HW1 3494   1.814   5.626   5.151
  865SOL    HW2 3495   1.654   5.597   5.168
  866SOL     OW 3496   3.479   0.480   1.910
  866SOL    HW1 3497   3.405   0.428   1.953
  866SOL    HW2 3498   3.504   0.557   1.969
  867SOL     OW 3499   5.877   3.020   5.799
  867SOL    HW1 3500   5.895   3.115   5.772
  867SOL    HW2 3501   5.847   2.968   5.719
  868SOL     OW 3502   0.606   2.234   1.677
  868SOL    HW1 3503   0.619   2.152   1.732
  868SOL    HW2 3504   0.684   2.247   1.616
  869SOL     OW 3505   6.841   3.790   3.164
  869SOL    HW1 3506   6.838   3.821   3.259
  869SOL    HW2 3507   6.906   3.715   3.155
  870SOL     OW 3508   3.467   5.335   2.306
  870SOL    HW1 3509   3.516   5.279   2.373
  870SOL    HW2 3510   3.500   5.313   2.214
  871SOL     OW 3511   4.975   2.187   4.131
  871SOL    HW1 3512   5.028   2.190   4.216
  871SOL    HW2 3513   4.891   2.240   4.144
  872SOL     OW 3514   1.357   1.896   5.026
  872SOL    HW1 3515   1.376   1.798   5.026
  872SOL    HW2 3516   1.361   1.932   4.933
  873SOL     OW 3517   4.539   0.465   6.623
  873SOL    HW1 3518   4.614   0.493   6.564
  873SOL    HW2 3519   4.502   0.546   6.670
  874SOL     OW 3520   5.801   3.533   1.440
  874SOL    HW1 3521   5.786   3.436   1.424
  874SOL    HW2 3522   5.899   3.552   1.443
  875SOL     OW 3523   5.027   5.477   1.781
  875SOL    HW1 3524   4.959   5.452   1.712
  875SOL    HW2 3525   5.110   5.423   1.768
  876SOL     OW 3526   5.899   0.428   6.901
  876SOL    HW1 3527   5.914   0.365   6.824
  876SOL    HW2 3528   5.921   0.521   6.871
  877SOL     OW 3529   1.113   3.744   0.029
  877SOL    HW1 3530   1.071   3.658   0.058
  877SOL    HW2 3531   1.212   3.734   0.028
  878SOL     OW 3532   4.245   6.555   4.491
  878SOL    HW1 3533   4.224   6.567   4.588
  878SOL    HW2 3534   4.214   6.636   4.440
  879SOL     OW 3535   5.732   6.684   6.619
  879SOL    HW1 3536   5.645   6.679   6.666
  879SOL    HW2 3537   5.720   6.661   6.522
  880SOL     OW 3538   3.098   3.771   2.807
  880SOL    HW1 3539   3.173   3.805   2.751
  880SOL    HW2 3540   3.068   3.843   2.870
  881SOL     OW 3541   4.626   1.691   0.785
  881SOL    HW1 3542   4.579   1.713   0.870
  881SOL    HW2 3543   4.597   1.755   0.714
  882SOL     OW 3544   1.671   2.974   3.230
  882SOL    HW1 3545   1.727   3.028   3.292
  882SOL    HW2 3546   1.689   2.877   3.243
  883SOL     OW 3547   2.603   6.961   2.958
  883SOL    HW1 3548   2.614   0.009   2.884
  883SOL    HW2 3549   2.567   7.007   3.039
  884SOL     OW 3550   3.416   3.517   5.746
  884SOL    HW1 3551   3.515   3.519   5.737
  884SOL    HW2 3552   3.374   3.535   5.657
  885SOL     OW 3553   4.326   2.636   5.952
  885SOL    HW1 3554   4.329   2.580   5.870
  885SOL    HW2 3555   4.354   2.582   6.031
  886SOL     OW 3556   3.578   2.056   6.804
  886SOL    HW1 3557   3.522   2.035   6.884
  886SOL    HW2 3558   3.549   1.999   6.727
  887SOL     OW 3559   5.271   1.142   5.165
  887SOL    HW1 3560   5.268   1.124   5.263
  887SOL    HW2 3561   5.365   1.132   5.132
  888SOL     OW 3562   6.803   6.213   2.095
  888SOL    HW1 3563   6.821   6.217   2.193
  888SOL    HW2 3564   6.823   6.122   2.060
  889SOL     OW 3565   0.734   3.680   6.988
  889SOL    HW1 3566   0.650   3.655   0.018
  889SOL    HW2 3567   0.748   3.619   6.910
  890SOL     OW 3568   2.625   6.075   4.490
  890SOL    HW1 3569   2.607   6.048   4.395
  890SOL    HW2 3570   2.713   6.122   4.494
  891SOL     OW 3571   5.164   5.020   1.863
  891SOL    HW1 3572   5.131   5.059   1.949
  891SOL    HW2 3573   5.091   4.968   1.819
  892SOL     OW 3574   2.394   4.701   0.574
  892SOL    HW1 3575   2.383   4.639   0.652
  892SOL    HW2 3576   2.395   4.647   0.489
  893SOL     OW 3577   1.144   5.470   2.485
  893SOL    HW1 3578   1.193   5.548   2.524
  893SOL    HW2 3579   1.111   5.493   2.393
  894SOL     OW 3580   1.154   4.215   0.906
  894SOL    HW1 3581   1.209   4.170   0.977
  894SOL    HW2 3582   1.208   4.224   0.823
  895SOL     OW 3583   0.099   5.770   4.628
  895SOL    HW1 3584   0.022   5.769   4.564
  895SOL    HW2 3585   0.155   5.688   4.614
  896SOL     OW 3586   0.744   0.702   6.666
  896SOL    HW1 3587   0.795   0.695   6.580
  896SOL    HW2 3588   0.806   0.688   6.743
  897SOL     OW 3589   4.850   1.072   0.427
  897SOL    HW1 3590   4.931   1.071   0.368
  897SOL    HW2 3591   4.768   1.081   0.370
  898SOL     OW 3592   4.515   0.370   3.110
  898SOL    HW1 3593   4.444   0.436   3.136
  898SOL    HW2 3594   4.578   0.413   3.046
  899SOL     OW 3595   6.839   6.054   0.074
  899SOL    HW1 3596   6.775   6.122   0.109
  899SOL    HW2 3597   6.932   6.089   0.081
  900SOL     OW 3598   5.351   5.433   0.966
  900SOL    HW1 3599   5.297   5.506   0.924
  900SOL    HW2 3600   5.448   5.457   0.963
  901SOL     OW 3601   1.427   0.417   2.856
  901SOL    HW1 3602   1.442   0.488   2.925
  901SOL    HW2 3603   1.449   0.327   2.895
  902SOL     OW 3604   6.377   2.644   1.592
  902SOL    HW1 3605   6.437   2.715   1.555
  902SOL    HW2 3606   6.431   2.565   1.619
  903SOL     OW 3607   0.196   1.426   1.190
  903SOL    HW1 3608   0.251   1.444   1.109
  903SOL    HW2 3609   0.100   1.414   1.163
  904SOL     OW 3610   2.658   1.100   2.405
  904SOL    HW1 3611   2.757   1.109   2.415
  904SOL    HW2 3612   2.638   1.029   2.337
  905SOL     OW 3613   5.921   2.134   6.425
  905SOL    HW1 3614   5.835   2.091   6.453
  905SOL    HW2 3615   5.987   2.127   6.500
  906SOL     OW 3616   5.053   2.578   6.911
  906SOL    HW1 3617   4.954   2.587   6.898
  906SOL    HW2 3618   5.099   2.591   6.823
  907SOL     OW 3619   5.445   4.496   6.954
  907SOL    HW1 3620   5.437   4.545   6.867
  907SOL    HW2 3621   5.444   4.561   0.012
  908SOL     OW 3622   1.102   4.549   2.911
  908SOL    HW1 3623   1.094   4.492   2.993
  908SOL    HW2 3624   1.180   4.610   2.921
  909SOL     OW 3625   5.387   5.554   6.303
  909SOL    HW1 3626   5.382   5.506   6.391
  909SOL    HW2 3627   5.474   5.602   6.296
  910SOL     OW 3628   2.955   4.867   0.645
  910SOL    HW1 3629   3.002   4.954   0.629
  910SOL    HW2 3630   3.021   4.800   0.681
  911SOL     OW 3631   1.015   4.746   5.951
  911SOL    HW1 3632   0.982   4.682   5.882
  911SOL    HW2 3633   1.078   4.698   6.013
  912SOL     OW 3634   5.251   1.718   4.560
  912SOL    HW1 3635   5.238   1.704   4.658
  912SOL    HW2 3636   5.167   1.754   4.520
  913SOL     OW 3637   5.684   6.600   2.801
  913SOL    HW1 3638   5.641   6.568   2.717
  913SOL    HW2 3639   5.705   6.522   2.860
  914SOL     OW 3640   3.336   6.578   6.666
  914SOL    HW1 3641   3.293   6.495   6.630
  914SOL    HW2 3642   3.269   6.630   6.720
  915SOL     OW 3643   4.855   5.749   1.473
  915SOL    HW1 3644   4.814   5.662   1.447
  915SOL    HW2 3645   4.839   5.817   1.402
  916SOL     OW 3646   1.542   3.381   2.547
  916SOL    HW1 3647   1.482   3.454   2.578
  916SOL    HW2 3648   1.545   3.308   2.615
  917SOL     OW 3649   0.244   6.562   0.281
  917SOL    HW1 3650   0.330   6.533   0.239
  917SOL    HW2 3651   0.227   6.508   0.364
  918SOL     OW 3652   3.000   6.322   6.862
  918SOL    HW1 3653   3.082   6.268   6.843
  918SOL    HW2 3654   2.953   6.284   6.941
  919SOL     OW 3655   5.206   1.286   6.264
  919SOL    HW1 3656   5.273   1.352   6.232
  919SOL    HW2 3657   5.158   1.246   6.185
  920SOL     OW 3658   2.835   5.028   2.106
  920SOL    HW1 3659   2.757   5.043   2.046
  920SOL    HW2 3660   2.894   4.956   2.068
  921SOL     OW 3661   4.765   5.393   4.752
  921SOL    HW1 3662   4.698   5.459   4.787
  921SOL    HW2 3663   4.784   5.414   4.656
  922SOL     OW 3664   3.236   3.022   3.911
  922SOL    HW1 3665   3.278   3.113   3.911
  922SOL    HW2 3666   3.262   2.974   3.995
  923SOL     OW 3667   2.280   3.430   5.727
  923SOL    HW1 3668   2.297   3.452   5.823
  923SOL    HW2 3669   2.347   3.363   5.695
  924SOL     OW 3670   6.824   2.990   1.616
  924SOL    HW1 3671   6.767   2.920   1.661
  924SOL    HW2 3672   6.848   3.060   1.683
  925SOL     OW 3673   1.047   1.867   0.538
  925SOL    HW1 3674   1.044   1.882   0.439
  925SOL    HW2 3675   0.954   1.851   0.572
  926SOL     OW 3676   1.972   1.757   1.801
  926SOL    HW1 3677   1.957   1.712   1.889
  926SOL    HW2 3678   1.994   1.688   1.732
  927SOL     OW 3679   6.657   3.703   4.335
  927SOL    HW1 3680   6.721   3.637   4.375
  927SOL    HW2 3681   6.582   3.655   4.290
  928SOL     OW 3682   3.278   4.353   5.567
  928SOL    HW1 3683   3.229   4.439   5.574
  928SOL    HW2 3684   3.354   4.352   5.632
  929SOL     OW 3685   0.229   1.505   4.163
  929SOL    HW1 3686   0.194   1.575   4.100
  929SOL    HW2 3687   0.206   1.531   4.257
  930SOL     OW 3688   5.057   5.462   5.100
  930SOL    HW1 3689   5.102   5.436   5.185
  930SOL    HW2 3690   5.021   5.380   5.055
  931SOL     OW 3691   6.181   0.636   3.094
  931SOL    HW1 3692   6.142   0.555   3.050
  931SOL    HW2 3693   6.278   0.619   3.115
  932SOL     OW 3694   3.687   0.813   3.901
  932SOL    HW1 3695   3.676   0.845   3.808
  932SOL    HW2 3696   3.700   0.891   3.962
  933SOL     OW 3697   1.471   5.747   1.962
  933SOL    HW1 3698   1.561   5.780   1.935
  933SOL    HW2 3699   1.479   5.696   2.048
  934SOL     OW 3700   1.820   3.239   0.746
  934SOL    HW1 3701   1.800   3.309   0.815
  934SOL    HW2 3702   1.854   3.283   0.663
  935SOL     OW 3703   5.733   2.446   5.751
  935SOL    HW1 3704   5.778   2.520   5.700
  935SOL    HW2 3705   5.727   2.365   5.693
  936SOL     OW 3706   1.983   0.491   5.913
  936SOL    HW1 3707   2.056   0.552   5.943
  936SOL    HW2 3708   2.005   0.397   5.940
  937SOL     OW 3709   3.394   1.672   6.139
  937SOL    HW1 3710   3.314   1.729   6.126
  937SOL    HW2 3711   3.450   1.671   6.056
  938SOL     OW 3712   5.512   5.865   4.316
  938SOL    HW1 3713   5.448   5.941   4.302
  938SOL    HW2 3714   5.582   5.893   4.383
  939SOL     OW 3715   1.190   6.964   5.772
  939SOL    HW1 3716   1.183   0.024   5.834
  939SOL    HW2 3717   1.283   6.957   5.737
  940SOL     OW 3718   1.585   5.029   0.580
  940SOL    HW1 3719   1.511   5.077   0.626
  940SOL    HW2 3720   1.669   5.082   0.587
  941SOL     OW 3721   3.506   0.298   0.430
  941SOL    HW1 3722   3.463   0.378   0.471
  941SOL    HW2 3723   3.453   0.269   0.350
  942SOL     OW 3724   6.481   4.844   6.957
  942SOL    HW1 3725   6.454   4.904   6.882
  942SOL    HW2 3726   6.440   4.878   0.025
  943SOL     OW 3727   3.629   5.624   1.217
  943SOL    HW1 3728   3.705   5.563   1.194
  943SOL    HW2 3729   3.543   5.586   1.182
  944SOL     OW 3730   6.501   6.206   3.433
  944SOL    HW1 3731   6.570   6.260   3.385
  944SOL    HW2 3732   6.546   6.142   3.495
  945SOL     OW 3733   0.346   5.403   6.125
  945SOL    HW1 3734   0.365   5.305   6.138
  945SOL    HW2 3735   0.251   5.422   6.148
  946SOL     OW 3736   5.775   2.250   4.351
  946SOL    HW1 3737   5.707   2.301   4.403
  946SOL    HW2 3738   5.753   2.153   4.352
  947SOL     OW 3739   3.748   3.753   3.836
  947SOL    HW1 3740   3.685   3.735   3.760
  947SOL    HW2 3741   3.827   3.806   3.802
  948SOL     OW 3742   3.214   1.192   3.718
  948SOL    HW1 3743   3.279   1.238   3.658
  948SOL    HW2 3744   3.264   1.152   3.795
  949SOL     OW 3745   3.014   0.255   5.778
  949SOL    HW1 3746   2.924   0.246   5.821
  949SOL    HW2 3747   3.041   0.351   5.777
  950SOL     OW 3748   0.033   0.408   2.367
  950SOL    HW1 3749   0.124   0.427   2.331
  950SOL    HW2 3750   7.007   0.495   2.393
  951SOL     OW 3751   1.749   6.875   3.204
  951SOL    HW1 3752   1.739   6.967   3.240
  951SOL    HW2 3753   1.794   6.878   3.115
  952SOL     OW 3754   3.821   1.791   3.523
  952SOL    HW1 3755   3.823   1.694   3.495
  952SOL    HW2 3756   3.802   1.848   3.443
  953SOL     OW 3757   0.512   4.699   5.867
  953SOL    HW1 3758   0.545   4.744   5.784
  953SOL    HW2 3759   0.418   4.667   5.852
  954SOL     OW 3760   4.899   6.446   2.199
  954SOL    HW1 3761   4.870   6.356   2.231
  954SOL    HW2 3762   4.905   6.445   2.099
  955SOL     OW 3763   1.898   5.139   1.145
  955SOL    HW1 3764   1.863   5.222   1.190
  955SOL    HW2 3765   1.984   5.161   1.099
  956SOL     OW 3766   4.592   0.874   1.045
  956SOL    HW1 3767   4.511   0.830   1.082
  956SOL    HW2 3768   4.582   0.882   0.945
  957SOL     OW 3769   5.906   0.142   3.007
  957SOL    HW1 3770   5.832   0.184   3.060
  957SOL    HW2 3771   5.975   0.212   2.986
  958SOL     OW 3772   5.079   6.357   1.323
  958SOL    HW1 3773   5.151   6.425   1.306
  958SOL    HW2 3774   5.112   6.267   1.297
  959SOL     OW 3775   5.145   6.720   2.837
  959SOL    HW1 3776   5.217   6.725   2.768
  959SOL    HW2 3777   5.173   6.770   2.918
  960SOL     OW 3778   1.371   6.592   6.554
  960SOL    HW1 3779   1.465   6.572   6.583
  960SOL    HW2 3780   1.309   6.579   6.631
  961SOL     OW 3781   3.818   1.487   3.531
  961SOL    HW1 3782   3.806   1.419   3.604
  961SOL    HW2 3783   3.916   1.500   3.514
  962SOL     OW 3784   0.257   0.319   4.757
  962SOL    HW1 3785   0.260   0.239   4.817
  962SOL    HW2 3786   0.162   0.337   4.732
  963SOL     OW 3787   5.883   3.046   1.193
  963SOL    HW1 3788   5.883   3.056   1.093
  963SOL    HW2 3789   5.972   3.010   1.222
  964SOL     OW 3790   3.964   6.371   4.752
  964SOL    HW1 3791   3.960   6.303   4.826
  964SOL    HW2 3792   3.957   6.463   4.791
  965SOL     OW 3793   5.869   2.148   3.742
  965SOL    HW1 3794   5.775   2.132   3.710
  965SOL    HW2 3795   5.907   2.063   3.778
  966SOL     OW 3796   5.013   0.695   4.378
  966SOL    HW1 3797   5.083   0.626   4.389
  966SOL    HW2 3798   4.951   0.669   4.304
  967SOL     OW 3799   4.285   5.030   6.364
  967SOL    HW1 3800   4.260   5.049   6.269
  967SOL    HW2 3801   4.303   5.116   6.411
  968SOL     OW 3802   3.500   0.534   1.475
  968SOL    HW1 3803   3.419   0.507   1.528
  968SOL    HW2 3804   3.477   0.535   1.377
  969SOL     OW 3805   2.615   3.840   6.225
  969SOL    HW1 3806   2.695   3.828   6.284
  969SOL    HW2 3807   2.610   3.934   6.194
  970SOL     OW 3808   5.192   6.501   5.821
  970SOL    HW1 3809   5.236   6.553   5.894
  970SOL    HW2 3810   5.213   6.404   5.831
  971SOL     OW 3811   5.256   3.720   3.498
  971SOL    HW1 3812   5.282   3.781   3.424
  971SOL    HW2 3813   5.333   3.660   3.521
  972SOL     OW 3814   0.365   2.857   0.793
  972SOL    HW1 3815   0.297   2.820   0.729
  972SOL    HW2 3816   0.349   2.821   0.884
  973SOL     OW 3817   0.171   2.633   5.407
  973SOL    HW1 3818   0.242   2.685   5.453
  973SOL    HW2 3819   0.213   2.561   5.352
  974SOL     OW 3820   0.913   4.319   2.342
  974SOL    HW1 3821   0.970   4.237   2.346
  974SOL    HW2 3822   0.845   4.309   2.270
  975SOL     OW 3823   3.007   0.551   2.405
  975SOL    HW1 3824   3.041   0.459   2.423
  975SOL    HW2 3825   2.992   0.599   2.491
  976SOL     OW 3826   6.975   3.024   3.172
  976SOL    HW1 3827   6.992   2.993   3.265
  976SOL    HW2 3828   6.972   2.946   3.110
  977SOL     OW 3829   6.430   1.238   1.832
  977SOL    HW1 3830   6.498   1.311   1.843
  977SOL    HW2 3831   6.345   1.276   1.796
  978SOL     OW 3832   4.942   2.895   0.813
  978SOL    HW1 3833   4.972   2.990   0.814
  978SOL    HW2 3834   5.022   2.835   0.812
  979SOL     OW 3835   0.275   4.855   6.551
  979SOL    HW1 3836   0.304   4.948   6.572
  979SOL    HW2 3837   0.327   4.819   6.474
  980SOL     OW 3838   4.416   1.007   4.419
  980SOL    HW1 3839   4.431   0.909   4.428
  980SOL    HW2 3840   4.318   1.025   4.413
  981SOL     OW 3841   0.838   6.514   5.494
  981SOL    HW1 3842   0.913   6.552   5.440
  981SOL    HW2 3843   0.757   6.505   5.437
  982SOL     OW 3844   6.940   1.323   6.644
  982SOL    HW1 3845   7.015   1.389   6.636
  982SOL    HW2 3846   6.858   1.369   6.678
  983SOL     OW 3847   0.624   4.074   3.342
  983SOL    HW1 3848   0.680   4.011   3.397
  983SOL    HW2 3849   0.576   4.023   3.271
  984SOL     OW 3850   0.435   3.715   3.971
  984SOL    HW1 3851   0.534   3.726   3.976
  984SOL    HW2 3852   0.397   3.789   3.916
  985SOL     OW 3853   6.065   5.560   4.914
  985SOL    HW1 3854   6.077   5.629   4.843
  985SOL    HW2 3855   6.017   5.481   4.876
  986SOL     OW 3856   4.112   5.482   1.551
  986SOL    HW1 3857   4.142   5.404   1.495
  986SOL    HW2 3858   4.190   5.541   1.569
  987SOL     OW 3859   4.756   4.628   5.036
  987SOL    HW1 3860   4.700   4.587   4.964
  987SOL    HW2 3861   4.844   4.581   5.041
  988SOL     OW 3862   2.765   4.761   2.199
  988SOL    HW1 3863   2.781   4.853   2.163
  988SOL    HW2 3864   2.807   4.694   2.138
  989SOL     OW 3865   1.069   2.768   0.980
  989SOL    HW1 3866   1.164   2.737   0.975
  989SOL    HW2 3867   1.030   2.772   0.887
  990SOL     OW 3868   3.734   6.868   4.918
  990SOL    HW1 3869   3.664   6.802   4.888
  990SOL    HW2 3870   3.800   6.821   4.977
  991SOL     OW 3871   0.839   5.794   4.221
  991SOL    HW1 3872   0.751   5.825   4.256
  991SOL    HW2 3873   0.906   5.867   4.230
  992SOL     OW 3874   6.763   2.744   6.985
  992SOL    HW1 3875   6.805   2.703   0.048
  992SOL    HW2 3876   6.703   2.678   6.940
  993SOL     OW 3877   1.413   4.658   0.065
  993SOL    HW1 3878   1.360   4.575   0.052
  993SOL    HW2 3879   1.440   4.695   6.994
  994SOL     OW 3880   3.111   6.896   0.868
  994SOL    HW1 3881   3.097   6.848   0.782
  994SOL    HW2 3882   3.205   6.879   0.900
  995SOL     OW 3883   6.116   3.804   5.403
  995SOL    HW1 3884   6.070   3.767   5.483
  995SOL    HW2 3885   6.133   3.731   5.337
  996SOL     OW 3886   4.190   6.639   4.746
  996SOL    HW1 3887   4.221   6.734   4.755
  996SOL    HW2 3888   4.221   6.587   4.825
  997SOL     OW 3889   1.500   6.419   3.449
  997SOL    HW1 3890   1.567   6.409   3.523
  997SOL    HW2 3891   1.421   6.362   3.468
  998SOL     OW 3892   4.739   0.468   6.452
  998SOL    HW1 3893   4.752   0.413   6.535
  998SOL    HW2 3894   4.776   0.560   6.466
  999SOL     OW 3895   5.494   2.964   2.785
  999SOL    HW1 3896   5.482   2.864   2.784
  999SOL    HW2 3897   5.546   2.992   2.705
 1000SOL     OW 3898   5.400   1.509   2.117
 1000SOL    HW1 3899   5.365   1.594   2.079
 1000SOL    HW2 3900   5.490   1.524   2.158
 1001SOL     OW 3901   2.859   6.617   2.645
 1001SOL    HW1 3902   2.809   6.701   2.625
 1001SOL    HW2 3903   2.835   6.585   2.737
 1002SOL     OW 3904   4.106   2.986   1.278
 1002SOL    HW1 3905   4.159   2.984   1.193
 1002SOL    HW2 3906   4.009   2.975   1.258
 1003SOL     OW 3907   1.423   0.192   3.023
 1003SOL    HW1 3908   1.327   0.169   3.039
 1003SOL    HW2 3909   1.470   0.205   3.110
 1004SOL     OW 3910   4.949   1.304   4.881
 1004SOL    HW1 3911   5.011   1.382   4.870
 1004SOL    HW2 3912   5.002   1.219   4.885
 1005SOL     OW 3913   0.652   4.883   2.094
 1005SOL    HW1 3914   0.565   4.838   2.077
 1005SOL    HW2 3915   0.679   4.936   2.014
 1006SOL     OW 3916   2.196   4.207   1.430
 1006SOL    HW1 3917   2.281   4.197   1.379
 1006SOL    HW2 3918   2.125   4.151   1.387
 1007SOL     OW 3919   4.934   0.611   6.233
 1007SOL    HW1 3920   4.895   0.568   6.152
 1007SOL    HW2 3921   4.977   0.698   6.207
 1008SOL     OW 3922   0.560   5.099   5.137
 1008SOL    HW1 3923   0.502   5.022   5.113
 1008SOL    HW2 3924   0.585   5.094   5.234
 1009SOL     OW 3925   6.620   6.124   5.885
 1009SOL    HW1 3926   6.663   6.184   5.818
 1009SOL    HW2 3927   6.662   6.139   5.975
 1010SOL     OW 3928   3.140   3.730   0.379
 1010SOL    HW1 3929   3.178   3.644   0.413
 1010SOL    HW2 3930   3.071   3.711   0.309
 1011SOL     OW 3931   6.595   4.776   2.959
 1011SOL    HW1 3932   6.608   4.870   2.991
 1011SOL    HW2 3933   6.674   4.721   2.984
 1012SOL     OW 3934   5.550   6.397   2.573
 1012SOL    HW1 3935   5.583   6.366   2.484
 1012SOL    HW2 3936   5.570   6.326   2.641
 1013SOL     OW 3937   0.332   0.071   6.370
 1013SOL    HW1 3938   0.333   0.117   6.458
 1013SOL    HW2 3939   0.426   0.065   6.334
 1014SOL     OW 3940   1.122   4.757   4.745
 1014SOL    HW1 3941   1.111   4.822   4.821
 1014SOL    HW2 3942   1.035   4.710   4.729
 1015SOL     OW 3943   2.072   6.239   0.406
 1015SOL    HW1 3944   1.996   6.292   0.444
 1015SOL    HW2 3945   2.119   6.294   0.336
 1016SOL     OW 3946   6.866   3.934   0.952
 1016SOL    HW1 3947   6.899   4.028   0.942
 1016SOL    HW2 3948   6.923   3.873   0.897
 1017SOL     OW 3949   2.362   1.204   2.632
 1017SOL    HW1 3950   2.314   1.288   2.659
 1017SOL    HW2 3951   2.370   1.200   2.532
 1018SOL     OW 3952   6.173   6.225   4.236
 1018SOL    HW1 3953   6.181   6.165   4.317
 1018SOL    HW2 3954   6.137   6.171   4.159
 1019SOL     OW 3955   6.031   4.184   1.144
 1019SOL    HW1 3956   6.077   4.222   1.064
 1019SOL    HW2 3957   6.096   4.133   1.199
 1020SOL     OW 3958   5.210   1.252   1.322
 1020SOL    HW1 3959   5.145   1.235   1.248
 1020SOL    HW2 3960   5.234   1.349   1.323
 1021SOL     OW 3961   0.912   6.498   1.278
 1021SOL    HW1 3962   0.886   6.521   1.184
 1021SOL    HW2 3963   0.953   6.577   1.322
 1022SOL     OW 3964   2.435   5.455   6.399
 1022SOL    HW1 3965   2.500   5.529   6.383
 1022SOL    HW2 3966   2.443   5.387   6.325
 1023SOL     OW 3967   0.768   1.808   2.423
 1023SOL    HW1 3968   0.703   1.885   2.426
 1023SOL    HW2 3969   0.844   1.827   2.485
 1024SOL     OW 3970   1.623   2.099   4.274
 1024SOL    HW1 3971   1.643   2.159   4.196
 1024SOL    HW2 3972   1.534   2.056   4.260
 1025SOL     OW 3973   4.831   4.358   1.148
 1025SOL    HW1 3974   4.798   4.448   1.119
 1025SOL    HW2 3975   4.787   4.332   1.234
 1026SOL     OW 3976   2.908   2.920   1.721
 1026SOL    HW1 3977   2.823   2.972   1.714
 1026SOL    HW2 3978   2.959   2.950   1.801
 1027SOL     OW 3979   6.623   6.962   0.155
 1027SOL    HW1 3980   6.572   6.881   0.126
 1027SOL    HW2 3981   6.696   6.980   0.089
 1028SOL     OW 3982   1.225   5.571   2.759
 1028SOL    HW1 3983   1.155   5.578   2.830
 1028SOL    HW2 3984   1.261   5.662   2.738
 1029SOL     OW 3985   1.467   1.228   5.004
 1029SOL    HW1 3986   1.398   1.228   5.077
 1029SOL    HW2 3987   1.447   1.155   4.939
 1030SOL     OW 3988   3.884   3.352   0.506
 1030SOL    HW1 3989   3.882   3.418   0.431
 1030SOL    HW2 3990   3.943   3.275   0.482
 1031SOL     OW 3991   4.277   3.668   0.527
 1031SOL    HW1 3992   4.216   3.731   0.575
 1031SOL    HW2 3993   4.308   3.597   0.591
 1032SOL     OW 3994   1.782   1.401   0.484
 1032SOL    HW1 3995   1.697   1.348   0.486
 1032SOL    HW2 3996   1.859   1.339   0.469
 1033SOL     OW 3997   0.178   1.006   2.141
 1033SOL    HW1 3998   0.177   0.906   2.142
 1033SOL    HW2 3999   0.123   1.039   2.065
 1034SOL     OW 4000   3.266   0.734   4.998
 1034SOL    HW1 4001   3.351   0.699   4.958
 1034SOL    HW2 4002   3.237   0.815   4.947
 1035SOL     OW 4003   1.474   0.574   0.217
 1035SOL    HW1 4004   1.411   0.609   0.287
 1035SOL    HW2 4005   1.481   0.641   0.143
 1036SOL     OW 4006   4.597   1.434   1.721
 1036SOL    HW1 4007   4.506   1.469   1.742
 1036SOL    HW2 4008   4.591   1.366   1.649
 1037SOL     OW 4009   1.380   3.697   2.387
 1037SOL    HW1 4010   1.426   3.781   2.414
 1037SOL    HW2 4011   1.343   3.651   2.468
 1038SOL     OW 4012   2.055   5.794   0.319
 1038SOL    HW1 4013   1.975   5.734   0.327
 1038SOL    HW2 4014   2.107   5.768   0.238
 1039SOL     OW 4015   3.193   3.923   3.234
 1039SOL    HW1 4016   3.212   4.017   3.264
 1039SOL    HW2 4017   3.278   3.879   3.208
 1040SOL     OW 4018   3.469   1.717   3.299
 1040SOL    HW1 4019   3.511   1.776   3.230
 1040SOL    HW2 4020   3.427   1.773   3.370
 1041SOL     OW 4021   6.336   6.596   6.510
 1041SOL    HW1 4022   6.408   6.533   6.540
 1041SOL    HW2 4023   6.326   6.670   6.575
 1042SOL     OW 4024   5.453   4.042   3.706
 1042SOL    HW1 4025   5.448   4.141   3.698
 1042SOL    HW2 4026   5.412   4.000   3.625
 1043SOL     OW 4027   2.716   1.534   4.158
 1043SOL    HW1 4028   2.703   1.456   4.096
 1043SOL    HW2 4029   2.653   1.525   4.235
 1044SOL     OW 4030   5.935   4.967   1.905
 1044SOL    HW1 4031   5.922   4.909   1.825
 1044SOL    HW2 4032   5.851   4.968   1.960
 1045SOL     OW 4033   2.283   0.693   2.157
 1045SOL    HW1 4034   2.369   0.680   2.108
 1045SOL    HW2 4035   2.208   0.653   2.104
 1046SOL     OW 4036   2.997   2.063   1.540
 1046SOL    HW1 4037   3.062   2.003   1.493
 1046SOL    HW2 4038   3.042   2.105   1.619
 1047SOL     OW 4039   4.097   0.265   3.263
 1047SOL    HW1 4040   4.150   0.184   3.288
 1047SOL    HW2 4041   4.003   0.238   3.243
 1048SOL     OW 4042   0.969   0.343   2.154
 1048SOL    HW1 4043   0.924   0.261   2.192
 1048SOL    HW2 4044   0.903   0.417   2.146
 1049SOL     OW 4045   4.315   6.410   6.827
 1049SOL    HW1 4046   4.276   6.501   6.842
 1049SOL    HW2 4047   4.284   6.375   6.738
 1050SOL     OW 4048   3.154   0.092   3.999
 1050SOL    HW1 4049   3.245   0.124   4.027
 1050SOL    HW2 4050   3.084   0.149   4.043
 1051SOL     OW 4051   1.963   1.678   5.292
 1051SOL    HW1 4052   1.890   1.620   5.255
 1051SOL    HW2 4053   1.952   1.685   5.391
 1052SOL     OW 4054   3.958   1.412   0.311
 1052SOL    HW1 4055   4.005   1.424   0.224
 1052SOL    HW2 4056   3.937   1.315   0.324
 1053SOL     OW 4057   5.419   2.594   4.758
 1053SOL    HW1 4058   5.408   2.495   4.771
 1053SOL    HW2 4059   5.342   2.628   4.703
 1054SOL     OW 4060   4.345   5.261   6.516
 1054SOL    HW1 4061   4.340   5.335   6.449
 1054SOL    HW2 4062   4.404   5.288   6.592
 1055SOL     OW 4063   4.735   5.822   6.391
 1055SOL    HW1 4064   4.740   5.812   6.292
 1055SOL    HW2 4065   4.761   5.736   6.435
 1056SOL     OW 4066   3.569   3.867   6.437
 1056SOL    HW1 4067   3.633   3.942   6.416
 1056SOL    HW2 4068   3.544   3.871   6.534
 1057SOL     OW 4069   3.208   2.772   6.762
 1057SOL    HW1 4070   3.136   2.801   6.699
 1057SOL    HW2 4071   3.289   2.746   6.711
 1058SOL     OW 4072   2.983   2.088   1.954
 1058SOL    HW1 4073   2.947   2.180   1.966
 1058SOL    HW2 4074   2.946   2.048   1.871
 1059SOL     OW 4075   2.442   6.295   2.082
 1059SOL    HW1 4076   2.414   6.315   2.177
 1059SOL    HW2 4077   2.534   6.330   2.067
 1060SOL     OW 4078   6.478   0.858   5.080
 1060SOL    HW1 4079   6.454   0.843   5.176
 1060SOL    HW2 4080   6.570   0.823   5.063
 1061SOL     OW 4081   0.416   3.503   5.984
 1061SOL    HW1 4082   0.508   3.481   5.953
 1061SOL    HW2 4083   0.350   3.482   5.911
 1062SOL     OW 4084   3.293   5.334   4.759
 1062SOL    HW1 4085   3.241   5.294   4.684
 1062SOL    HW2 4086   3.299   5.268   4.835
 1063SOL     OW 4087   3.100   6.471   4.188
 1063SOL    HW1 4088   3.186   6.438   4.148
 1063SOL    HW2 4089   3.084   6.565   4.159
 1064SOL     OW 4090   1.041   3.053   0.093
 1064SOL    HW1 4091   1.110   3.125   0.085
 1064SOL    HW2 4092   0.950   3.092   0.080
 1065SOL     OW 4093   6.161   0.995   4.542
 1065SOL    HW1 4094   6.111   0.988   4.628
 1065SOL    HW2 4095   6.162   1.090   4.512
 1066SOL     OW 4096   5.164   6.596   0.994
 1066SOL    HW1 4097   5.215   6.571   0.912
 1066SOL    HW2 4098   5.114   6.516   1.027
 1067SOL     OW 4099   2.327   1.599   0.112
 1067SOL    HW1 4100   2.339   1.685   0.063
 1067SOL    HW2 4101   2.308   1.525   0.048
 1068SOL     OW 4102   6.594   2.860   1.277
 1068SOL    HW1 4103   6.495   2.865   1.271
 1068SOL    HW2 4104   6.635   2.911   1.201
 1069SOL     OW 4105   6.576   3.142   2.738
 1069SOL    HW1 4106   6.571   3.143   2.638
 1069SOL    HW2 4107   6.485   3.131   2.776
 1070SOL     OW 4108   1.066   0.842   2.147
 1070SOL    HW1 4109   0.977   0.886   2.139
 1070SOL    HW2 4110   1.122   0.889   2.215
 1071SOL     OW 4111   0.908   2.911   6.196
 1071SOL    HW1 4112   0.885   2.976   6.124
 1071SOL    HW2 4113   0.826   2.892   6.251
 1072SOL     OW 4114   1.577   1.620   2.040
 1072SOL    HW1 4115   1.593   1.592   2.135
 1072SOL    HW2 4116   1.625   1.706   2.022
 1073SOL     OW 4117   5.448   2.388   3.101
 1073SOL    HW1 4118   5.406   2.461   3.155
 1073SOL    HW2 4119   5.377   2.341   3.048
 1074SOL     OW 4120   2.898   5.189   1.665
 1074SOL    HW1 4121   2.803   5.188   1.694
 1074SOL    HW2 4122   2.934   5.096   1.663
 1075SOL     OW 4123   6.818   3.926   5.445
 1075SOL    HW1 4124   6.776   3.852   5.498
 1075SOL    HW2 4125   6.747   3.989   5.415
 1076SOL     OW 4126   2.042   4.449   5.063
 1076SOL    HW1 4127   2.073   4.501   4.983
 1076SOL    HW2 4128   2.120   4.399   5.102
 1077SOL     OW 4129   6.754   6.599   0.185
 1077SOL    HW1 4130   6.698   6.646   0.253
 1077SOL    HW2 4131   6.851   6.617   0.204
 1078SOL     OW 4132   6.385   5.997   4.578
 1078SOL    HW1 4133   6.421   6.073   4.632
 1078SOL    HW2 4134   6.308   6.029   4.522
 1079SOL     OW 4135   0.640   6.538   1.407
 1079SOL    HW1 4136   0.715   6.472   1.401
 1079SOL    HW2 4137   0.602   6.554   1.316
 1080SOL     OW 4138   3.995   6.681   0.803
 1080SOL    HW1 4139   3.946   6.596   0.784
 1080SOL    HW2 4140   3.936   6.759   0.783
 1081SOL     OW 4141   6.325   6.647   3.564
 1081SOL    HW1 4142   6.334   6.581   3.639
 1081SOL    HW2 4143   6.356   6.604   3.478
 1082SOL     OW 4144   4.233   6.641   0.939
 1082SOL    HW1 4145   4.310   6.667   0.882
 1082SOL    HW2 4146   4.148   6.648   0.886
 1083SOL     OW 4147   6.078   3.889   1.963
 1083SOL    HW1 4148   6.100   3.968   2.020
 1083SOL    HW2 4149   5.984   3.897   1.929
 1084SOL     OW 4150   5.464   0.370   5.641
 1084SOL    HW1 4151   5.419   0.281   5.647
 1084SOL    HW2 4152   5.465   0.413   5.731
 1085SOL     OW 4153   2.177   3.808   4.669
 1085SOL    HW1 4154   2.187   3.751   4.751
 1085SOL    HW2 4155   2.198   3.903   4.692
 1086SOL     OW 4156   5.172   5.273   0.815
 1086SOL    HW1 4157   5.235   5.295   0.889
 1086SOL    HW2 4158   5.213   5.296   0.728
 1087SOL     OW 4159   4.236   0.087   5.867
 1087SOL    HW1 4160   4.263   7.015   5.831
 1087SOL    HW2 4161   4.274   0.099   5.958
 1088SOL     OW 4162   6.527   5.355   4.378
 1088SOL    HW1 4163   6.488   5.280   4.430
 1088SOL    HW2 4164   6.588   5.319   4.308
 1089SOL     OW 4165   5.541   5.257   4.003
 1089SOL    HW1 4166   5.625   5.299   3.968
 1089SOL    HW2 4167   5.497   5.321   4.066
 1090SOL     OW 4168   5.614   2.385   5.279
 1090SOL    HW1 4169   5.666   2.453   5.330
 1090SOL    HW2 4170   5.672   2.344   5.209
 1091SOL     OW 4171   1.924   3.340   3.347
 1091SOL    HW1 4172   1.860   3.330   3.423
 1091SOL    HW2 4173   1.887   3.294   3.266
 1092SOL     OW 4174   0.629   6.035   0.733
 1092SOL    HW1 4175   0.559   6.037   0.805
 1092SOL    HW2 4176   0.616   5.955   0.676
 1093SOL     OW 4177   1.557   0.681   3.342
 1093SOL    HW1 4178   1.518   0.608   3.398
 1093SOL    HW2 4179   1.484   0.736   3.302
 1094SOL     OW 4180   0.471   0.300   2.913
 1094SOL    HW1 4181   0.539   0.267   2.847
 1094SOL    HW2 4182   0.501   0.276   3.006
 1095SOL     OW 4183   5.850   3.721   0.176
 1095SOL    HW1 4184   5.760   3.759   0.198
 1095SOL    HW2 4185   5.844   3.621   0.172
 1096SOL     OW 4186   1.774   5.538   1.817
 1096SOL    HW1 4187   1.770   5.632   1.852
 1096SOL    HW2 4188   1.741   5.536   1.722
 1097SOL     OW 4189   3.240   6.473   4.473
 1097SOL    HW1 4190   3.208   6.384   4.440
 1097SOL    HW2 4191   3.331   6.491   4.437
 1098SOL     OW 4192   6.849   3.918   0.499
 1098SOL    HW1 4193   6.777   3.852   0.523
 1098SOL    HW2 4194   6.812   4.010   0.504
 1099SOL     OW 4195   5.144   0.260   6.564
 1099SOL    HW1 4196   5.093   0.309   6.493
 1099SOL    HW2 4197   5.205   0.323   6.610
 1100SOL     OW 4198   4.668   2.013   4.372
 1100SOL    HW1 4199   4.580   1.971   4.348
 1100SOL    HW2 4200   4.734   1.996   4.300
 1101SOL     OW 4201   4.572   2.700   6.634
 1101SOL    HW1 4202   4.628   2.781   6.616
 1101SOL    HW2 4203   4.631   2.626   6.665
 1102SOL     OW 4204   2.782   0.578   3.307
 1102SOL    HW1 4205   2.786   0.626   3.394
 1102SOL    HW2 4206   2.794   0.643   3.232
 1103SOL     OW 4207   3.509   5.899   0.866
 1103SOL    HW1 4208   3.512   5.999   0.872
 1103SOL    HW2 4209   3.414   5.869   0.863
 1104SOL     OW 4210   6.536   2.690   3.879
 1104SOL    HW1 4211   6.623   2.738   3.886
 1104SOL    HW2 4212   6.462   2.756   3.866
 1105SOL     OW 4213   5.073   1.507   6.431
 1105SOL    HW1 4214   5.090   1.412   6.407
 1105SOL    HW2 4215   5.039   1.556   6.350
 1106SOL     OW 4216   6.402   1.514   0.883
 1106SOL    HW1 4217   6.498   1.512   0.855
 1106SOL    HW2 4218   6.350   1.450   0.828
 1107SOL     OW 4219   0.652   1.398   6.757
 1107SOL    HW1 4220   0.647   1.337   6.678
 1107SOL    HW2 4221   0.619   1.489   6.732
 1108SOL     OW 4222   2.252   0.687   3.685
 1108SOL    HW1 4223   2.292   0.621   3.749
 1108SOL    HW2 4224   2.214   0.764   3.737
 1109SOL     OW 4225   4.936   2.660   4.864
 1109SOL    HW1 4226   4.922   2.586   4.797
 1109SOL    HW2 4227   4.936   2.748   4.816
 1110SOL     OW 4228   1.438   1.321   2.394
 1110SOL    HW1 4229   1.344   1.324   2.427
 1110SOL    HW2 4230   1.461   1.228   2.366
 1111SOL     OW 4231   5.565   3.533   6.351
 1111SOL    HW1 4232   5.526   3.463   6.292
 1111SOL    HW2 4233   5.623   3.489   6.420
 1112SOL     OW 4234   5.797   0.370   2.508
 1112SOL    HW1 4235   5.742   0.310   2.567
 1112SOL    HW2 4236   5.822   0.321   2.425
 1113SOL     OW 4237   6.582   3.141   2.458
 1113SOL    HW1 4238   6.508   3.110   2.398
 1113SOL    HW2 4239   6.667   3.148   2.405
 1114SOL     OW 4240   3.674   3.743   4.693
 1114SOL    HW1 4241   3.687   3.766   4.790
 1114SOL    HW2 4242   3.721   3.657   4.673
 1115SOL     OW 4243   2.756   4.868   5.757
 1115SOL    HW1 4244   2.659   4.880   5.775
 1115SOL    HW2 4245   2.773   4.775   5.725
 1116SOL     OW 4246   4.016   0.074   0.455
 1116SOL    HW1 4247   4.015   0.054   0.357
 1116SOL    HW2 4248   3.936   0.031   0.499
 1117SOL     OW 4249   2.041   2.096   1.519
 1117SOL    HW1 4250   2.047   2.076   1.617
 1117SOL    HW2 4251   2.127   2.139   1.489
 1118SOL     OW 4252   4.462   5.885   0.033
 1118SOL    HW1 4253   4.377   5.842   0.002
 1118SOL    HW2 4254   4.440   5.964   0.091
 1119SOL     OW 4255   3.383   4.955   3.670
 1119SOL    HW1 4256   3.290   4.984   3.648
 1119SOL    HW2 4257   3.429   4.925   3.587
 1120SOL     OW 4258   6.922   2.965   1.363
 1120SOL    HW1 4259   0.004   2.961   1.351
 1120SOL    HW2 4260   6.901   2.973   1.461
 1121SOL     OW 4261   6.544   4.725   5.131
 1121SOL    HW1 4262   6.639   4.742   5.156
 1121SOL    HW2 4263   6.483   4.780   5.189
 1122SOL     OW 4264   6.026   1.507   1.907
 1122SOL    HW1 4265   6.096   1.486   1.975
 1122SOL    HW2 4266   6.005   1.605   1.910
 1123SOL     OW 4267   3.855   1.435   4.597
 1123SOL    HW1 4268   3.806   1.352   4.571
 1123SOL    HW2 4269   3.821   1.512   4.543
 1124SOL     OW 4270   2.320   2.654   3.969
 1124SOL    HW1 4271   2.384   2.676   4.043
 1124SOL    HW2 4272   2.240   2.713   3.975
 1125SOL     OW 4273   1.579   3.529   3.622
 1125SOL    HW1 4274   1.591   3.583   3.539
 1125SOL    HW2 4275   1.506   3.569   3.678
 1126SOL     OW 4276   4.205   4.800   4.528
 1126SOL    HW1 4277   4.259   4.875   4.490
 1126SOL    HW2 4278   4.145   4.763   4.457
 1127SOL     OW 4279   6.687   6.890   1.597
 1127SOL    HW1 4280   6.630   6.885   1.679
 1127SOL    HW2 4281   6.709   6.798   1.565
 1128SOL     OW 4282   4.445   1.446   4.796
 1128SOL    HW1 4283   4.423   1.356   4.759
 1128SOL    HW2 4284   4.541   1.468   4.777
 1129SOL     OW 4285   1.040   0.324   7.000
 1129SOL    HW1 4286   0.946   0.355   6.988
 1129SOL    HW2 4287   1.085   0.381   0.051
 1130SOL     OW 4288   2.222   4.609   2.081
 1130SOL    HW1 4289   2.126   4.585   2.070
 1130SOL    HW2 4290   2.234   4.707   2.066
 1131SOL     OW 4291   2.421   5.639   3.409
 1131SOL    HW1 4292   2.519   5.654   3.391
 1131SOL    HW2 4293   2.409   5.600   3.500
 1132SOL     OW 4294   1.628   1.797   2.528
 1132SOL    HW1 4295   1.675   1.828   2.445
 1132SOL    HW2 4296   1.624   1.873   2.593
 1133SOL     OW 4297   0.959   6.326   6.378
 1133SOL    HW1 4298   1.054   6.296   6.379
 1133SOL    HW2 4299   0.924   6.324   6.285
 1134SOL     OW 4300   3.643   6.191   1.065
 1134SOL    HW1 4301   3.574   6.185   0.993
 1134SOL    HW2 4302   3.690   6.279   1.059
 1135SOL     OW 4303   1.562   6.657   3.148
 1135SOL    HW1 4304   1.643   6.619   3.193
 1135SOL    HW2 4305   1.584   6.676   3.052
 1136SOL     OW 4306   1.228   5.027   2.456
 1136SOL    HW1 4307   1.294   4.976   2.510
 1136SOL    HW2 4308   1.270   5.054   2.369
 1137SOL     OW 4309   1.417   6.103   4.505
 1137SOL    HW1 4310   1.391   6.071   4.414
 1137SOL    HW2 4311   1.389   6.035   4.573
 1138SOL     OW 4312   1.530   4.251   5.278
 1138SOL    HW1 4313   1.602   4.315   5.302
 1138SOL    HW2 4314   1.570   4.165   5.246
 1139SOL     OW 4315   2.513   5.253   4.916
 1139SOL    HW1 4316   2.610   5.276   4.927
 1139SOL    HW2 4317   2.502   5.189   4.840
 1140SOL     OW 4318   1.855   2.315   1.403
 1140SOL    HW1 4319   1.919   2.242   1.430
 1140SOL    HW2 4320   1.786   2.327   1.474
 1141SOL     OW 4321   0.214   4.797   5.711
 1141SOL    HW1 4322   0.235   4.824   5.616
 1141SOL    HW2 4323   0.187   4.879   5.763
 1142SOL     OW 4324   1.459   6.271   2.029
 1142SOL    HW1 4325   1.415   6.300   2.114
 1142SOL    HW2 4326   1.549   6.314   2.021
 1143SOL     OW 4327   6.988   3.990   1.702
 1143SOL    HW1 4328   7.002   3.915   1.637
 1143SOL    HW2 4329   6.997   3.955   1.796
 1144SOL     OW 4330   5.485   4.376   0.187
 1144SOL    HW1 4331   5.535   4.439   0.247
 1144SOL    HW2 4332   5.499   4.402   0.092
 1145SOL     OW 4333   5.573   0.010   0.541
 1145SOL    HW1 4334   5.547   6.951   0.482
 1145SOL    HW2 4335   5.637   0.070   0.491
 1146SOL     OW 4336   1.059   1.110   1.189
 1146SOL    HW1 4337   0.988   1.131   1.121
 1146SOL    HW2 4338   1.029   1.035   1.247
 1147SOL     OW 4339   1.869   6.395   0.550
 1147SOL    HW1 4340   1.807   6.318   0.566
 1147SOL    HW2 4341   1.858   6.463   0.623
 1148SOL     OW 4342   4.723   5.705   3.322
 1148SOL    HW1 4343   4.628   5.737   3.316
 1148SOL    HW2 4344   4.727   5.607   3.302
 1149SOL     OW 4345   5.058   3.276   1.731
 1149SOL    HW1 4346   5.003   3.302   1.651
 1149SOL    HW2 4347   4.998   3.261   1.809
 1150SOL     OW 4348   1.108   3.477   0.337
 1150SOL    HW1 4349   1.088   3.452   0.243
 1150SOL    HW2 4350   1.101   3.577   0.347
 1151SOL     OW 4351   5.894   5.229   4.363
 1151SOL    HW1 4352   5.992   5.250   4.361
 1151SOL    HW2 4353   5.845   5.295   4.307
 1152SOL     OW 4354   3.500   6.587   6.443
 1152SOL    HW1 4355   3.463   6.615   6.532
 1152SOL    HW2 4356   3.426   6.581   6.377
 1153SOL     OW 4357   5.735   6.611   2.024
 1153SOL    HW1 4358   5.807   6.588   1.959
 1153SOL    HW2 4359   5.649   6.626   1.975
 1154SOL     OW 4360   2.551   2.787   0.696
 1154SOL    HW1 4361   2.475   2.846   0.668
 1154SOL    HW2 4362   2.581   2.733   0.617
 1155SOL     OW 4363   3.647   5.771   4.033
 1155SOL    HW1 4364   3.672   5.852   3.980
 1155SOL    HW2 4365   3.729   5.719   4.057
 1156SOL     OW 4366   2.663   1.546   2.622
 1156SOL    HW1 4367   2.680   1.637   2.660
 1156SOL    HW2 4368   2.603   1.496   2.684
 1157SOL     OW 4369   2.770   1.381   0.652
 1157SOL    HW1 4370   2.779   1.311   0.723
 1157SOL    HW2 4371   2.808   1.467   0.686
 1158SOL     OW 4372   5.927   4.248   3.148
 1158SOL    HW1 4373   5.830   4.252   3.173
 1158SOL    HW2 4374   5.983   4.253   3.231
 1159SOL     OW 4375   6.330   5.136   0.424
 1159SOL    HW1 4376   6.323   5.216   0.484
 1159SOL    HW2 4377   6.242   5.119   0.380
 1160SOL     OW 4378   4.572   2.151   0.416
 1160SOL    HW1 4379   4.546   2.244   0.388
 1160SOL    HW2 4380   4.648   2.156   0.481
 1161SOL     OW 4381   6.462   5.374   1.176
 1161SOL    HW1 4382   6.386   5.425   1.136
 1161SOL    HW2 4383   6.438   5.278   1.183
 1162SOL     OW 4384   2.811   2.200   4.557
 1162SOL    HW1 4385   2.895   2.186   4.610
 1162SOL    HW2 4386   2.744   2.130   4.583
 1163SOL     OW 4387   5.989   2.685   1.292
 1163SOL    HW1 4388   6.071   2.628   1.287
 1163SOL    HW2 4389   5.924   2.646   1.357
 1164SOL     OW 4390   4.175   2.830   6.282
 1164SOL    HW1 4391   4.214   2.760   6.223
 1164SOL    HW2 4392   4.238   2.851   6.356
 1165SOL     OW 4393   4.595   6.770   3.516
 1165SOL    HW1 4394   4.496   6.760   3.527
 1165SOL    HW2 4395   4.632   6.824   3.592
 1166SOL     OW 4396   3.010   4.709   6.476
 1166SOL    HW1 4397   3.089   4.769   6.471
 1166SOL    HW2 4398   2.989   4.673   6.385
 1167SOL     OW 4399   4.869   4.596   2.669
 1167SOL    HW1 4400   4.832   4.571   2.580
 1167SOL    HW2 4401   4.962   4.559   2.678
 1168SOL     OW 4402   0.106   0.077   2.080
 1168SOL    HW1 4403   0.097   6.997   2.057
 1168SOL    HW2 4404   0.015   0.114   2.101
 1169SOL     OW 4405   4.456   1.498   5.444
 1169SOL    HW1 4406   4.425   1.416   5.493
 1169SOL    HW2 4407   4.521   1.472   5.372
 1170SOL     OW 4408   5.083   4.927   2.617
 1170SOL    HW1 4409   5.002   4.885   2.577
 1170SOL    HW2 4410   5.136   4.973   2.545
 1171SOL     OW 4411   7.002   6.264   0.485
 1171SOL    HW1 4412   0.003   6.167   0.502
 1171SOL    HW2 4413   6.915   6.289   0.527
 1172SOL     OW 4414   6.608   3.469   6.196
 1172SOL    HW1 4415   6.650   3.388   6.155
 1172SOL    HW2 4416   6.533   3.441   6.257
 1173SOL     OW 4417   3.625   2.638   0.622
 1173SOL    HW1 4418   3.680   2.671   0.700
 1173SOL    HW2 4419   3.687   2.607   0.549
 1174SOL     OW 4420   1.955   4.474   0.349
 1174SOL    HW1 4421   1.871   4.420   0.345
 1174SOL    HW2 4422   2.012   4.443   0.426
 1175SOL     OW 4423   3.130   3.379   4.230
 1175SOL    HW1 4424   3.218   3.410   4.193
 1175SOL    HW2 4425   3.132   3.388   4.330
 1176SOL     OW 4426   5.003   2.874   0.000
 1176SOL    HW1 4427   5.008   2.962   6.969
 1176SOL    HW2 4428   4.917   2.829   6.996
 1177SOL     OW 4429   1.040   1.539   4.188
 1177SOL    HW1 4430   1.053   1.497   4.099
 1177SOL    HW2 4431   1.013   1.635   4.176
 1178SOL     OW 4432   4.652   6.108   6.966
 1178SOL    HW1 4433   4.685   6.090   6.873
 1178SOL    HW2 4434   4.577   6.046   6.987
 1179SOL     OW 4435   1.039   5.662   0.222
 1179SOL    HW1 4436   1.126   5.707   0.203
 1179SOL    HW2 4437   0.967   5.731   0.232
 1180SOL     OW 4438   3.646   6.448   0.561
 1180SOL    HW1 4439   3.677   6.360   0.527
 1180SOL    HW2 4440   3.554   6.438   0.600
 1181SOL     OW 4441   6.288   6.997   6.424
 1181SOL    HW1 4442   6.362   6.934   6.451
 1181SOL    HW2 4443   6.308   0.018   6.334
 1182SOL     OW 4444   4.535   4.658   2.509
 1182SOL    HW1 4445   4.611   4.593   2.516
 1182SOL    HW2 4446   4.568   4.750   2.528
 1183SOL     OW 4447   1.885   3.802   6.038
 1183SOL    HW1 4448   1.851   3.819   5.946
 1183SOL    HW2 4449   1.965   3.742   6.033
 1184SOL     OW 4450   0.351   0.344   5.614
 1184SOL    HW1 4451   0.299   0.264   5.644
 1184SOL    HW2 4452   0.305   0.386   5.536
 1185SOL     OW 4453   6.743   1.223   6.959
 1185SOL    HW1 4454   6.736   1.134   7.003
 1185SOL    HW2 4455   6.819   1.274   6.999
 1186SOL     OW 4456   5.841   6.367   4.739
 1186SOL    HW1 4457   5.753   6.413   4.731
 1186SOL    HW2 4458   5.913   6.435   4.754
 1187SOL     OW 4459   6.620   1.213   5.681
 1187SOL    HW1 4460   6.716   1.211   5.652
 1187SOL    HW2 4461   6.563   1.173   5.609
 1188SOL     OW 4462   2.806   0.646   6.849
 1188SOL    HW1 4463   2.849   0.737   6.846
 1188SOL    HW2 4464   2.720   0.651   6.899
 1189SOL     OW 4465   5.646   3.483   3.993
 1189SOL    HW1 4466   5.581   3.476   3.918
 1189SOL    HW2 4467   5.694   3.396   4.004
 1190SOL     OW 4468   2.417   6.529   3.566
 1190SOL    HW1 4469   2.458   6.439   3.555
 1190SOL    HW2 4470   2.478   6.586   3.622
 1191SOL     OW 4471   4.141   6.141   2.520
 1191SOL    HW1 4472   4.219   6.089   2.488
 1191SOL    HW2 4473   4.170   6.204   2.593
 1192SOL     OW 4474   5.948   5.974   3.297
 1192SOL    HW1 4475   5.885   5.988   3.221
 1192SOL    HW2 4476   6.021   6.042   3.293
 1193SOL     OW 4477   0.180   5.592   4.287
 1193SOL    HW1 4478   0.245   5.535   4.337
 1193SOL    HW2 4479   0.203   5.689   4.302
 1194SOL     OW 4480   3.848   0.207   1.402
 1194SOL    HW1 4481   3.861   0.247   1.312
 1194SOL    HW2 4482   3.795   0.269   1.460
 1195SOL     OW 4483   5.292   2.572   3.798
 1195SOL    HW1 4484   5.289   2.666   3.831
 1195SOL    HW2 4485   5.209   2.524   3.824
 1196SOL     OW 4486   0.070   6.485   4.879
 1196SOL    HW1 4487   0.050   6.441   4.792
 1196SOL    HW2 4488   0.016   6.568   4.889
 1197SOL     OW 4489   2.313   6.090   0.487
 1197SOL    HW1 4490   2.222   6.119   0.459
 1197SOL    HW2 4491   2.327   6.111   0.584
 1198SOL     OW 4492   1.670   2.664   6.836
 1198SOL    HW1 4493   1.697   2.633   6.927
 1198SOL    HW2 4494   1.572   2.649   6.823
 1199SOL     OW 4495   6.161   4.067   1.770
 1199SOL    HW1 4496   6.146   3.983   1.822
 1199SOL    HW2 4497   6.233   4.052   1.702
 1200SOL     OW 4498   2.900   3.705   2.348
 1200SOL    HW1 4499   2.807   3.739   2.364
 1200SOL    HW2 4500   2.931   3.653   2.427
 1201SOL     OW 4501   1.569   2.047   4.760
 1201SOL    HW1 4502   1.620   2.009   4.836
 1201SOL    HW2 4503   1.612   2.131   4.729
 1202SOL     OW 4504   1.450   5.669   5.603
 1202SOL    HW1 4505   1.528   5.607   5.592
 1202SOL    HW2 4506   1.401   5.645   5.687
 1203SOL     OW 4507   3.645   5.829   5.230
 1203SOL    HW1 4508   3.744   5.823   5.240
 1203SOL    HW2 4509   3.612   5.753   5.174
 1204SOL     OW 4510   2.089   0.012   2.741
 1204SOL    HW1 4511   2.107   0.052   2.651
 1204SOL    HW2 4512   2.009   0.055   2.782
 1205SOL     OW 4513   5.502   3.950   2.135
 1205SOL    HW1 4514   5.506   4.048   2.120
 1205SOL    HW2 4515   5.452   3.906   2.061
 1206SOL     OW 4516   3.394   3.704   4.756
 1206SOL    HW1 4517   3.480   3.728   4.710
 1206SOL    HW2 4518   3.356   3.786   4.799
 1207SOL     OW 4519   1.262   5.869   2.723
 1207SOL    HW1 4520   1.235   5.897   2.631
 1207SOL    HW2 4521   1.185   5.881   2.786
 1208SOL     OW 4522   3.181   3.716   5.809
 1208SOL    HW1 4523   3.084   3.693   5.812
 1208SOL    HW2 4524   3.233   3.651   5.864
 1209SOL     OW 4525   3.604   6.269   5.732
 1209SOL    HW1 4526   3.575   6.258   5.637
 1209SOL    HW2 4527   3.527   6.300   5.787
 1210SOL     OW 4528   3.458   1.076   3.494
 1210SOL    HW1 4529   3.362   1.061   3.472
 1210SOL    HW2 4530   3.471   1.170   3.523
 1211SOL     OW 4531   1.222   2.833   0.176
 1211SOL    HW1 4532   1.242   2.764   0.107
 1211SOL    HW2 4533   1.169   2.907   0.136
 1212SOL     OW 4534   1.437   0.275   0.018
 1212SOL    HW1 4535   1.504   0.320   0.077
 1212SOL    HW2 4536   1.436   0.320   6.946
 1213SOL     OW 4537   5.407   3.095   1.162
 1213SOL    HW1 4538   5.321   3.064   1.122
 1213SOL    HW2 4539   5.475   3.106   1.089
 1214SOL     OW 4540   6.836   2.701   1.451
 1214SOL    HW1 4541   6.850   2.775   1.386
 1214SOL    HW2 4542   6.908   2.632   1.441
 1215SOL     OW 4543   1.524   5.976   3.372
 1215SOL    HW1 4544   1.569   5.888   3.364
 1215SOL    HW2 4545   1.563   6.040   3.306
 1216SOL     OW 4546   3.418   6.825   1.663
 1216SOL    HW1 4547   3.471   6.775   1.731
 1216SOL    HW2 4548   3.464   6.818   1.574
 1217SOL     OW 4549   3.141   4.745   0.139
 1217SOL    HW1 4550   3.210   4.740   0.211
 1217SOL    HW2 4551   3.064   4.685   0.163
 1218SOL     OW 4552   2.287   5.380   3.954
 1218SOL    HW1 4553   2.322   5.330   3.875
 1218SOL    HW2 4554   2.361   5.429   3.999
 1219SOL     OW 4555   3.820   6.682   2.245
 1219SOL    HW1 4556   3.823   6.595   2.195
 1219SOL    HW2 4557   3.731   6.725   2.232
 1220SOL     OW 4558   0.857   4.589   2.709
 1220SOL    HW1 4559   0.900   4.501   2.689
 1220SOL    HW2 4560   0.928   4.657   2.728
 1221SOL     OW 4561   5.059   4.543   6.901
 1221SOL    HW1 4562   5.093   4.454   6.932
 1221SOL    HW2 4563   5.118   4.616   6.936
 1222SOL     OW 4564   6.735   0.442   6.156
 1222SOL    HW1 4565   6.638   0.453   6.175
 1222SOL    HW2 4566   6.750   0.430   6.058
 1223SOL     OW 4567   3.502   6.638   0.892
 1223SOL    HW1 4568   3.541   6.603   0.977
 1223SOL    HW2 4569   3.504   6.565   0.823
 1224SOL     OW 4570   2.809   0.096   1.993
 1224SOL    HW1 4571   2.771   0.186   2.016
 1224SOL    HW2 4572   2.789   0.075   1.897
 1225SOL     OW 4573   2.852   3.809   5.525
 1225SOL    HW1 4574   2.830   3.829   5.429
 1225SOL    HW2 4575   2.770   3.772   5.570
 1226SOL     OW 4576   1.958   4.636   0.602
 1226SOL    HW1 4577   2.051   4.608   0.621
 1226SOL    HW2 4578   1.937   4.620   0.505
 1227SOL     OW 4579   1.139   3.205   5.779
 1227SOL    HW1 4580   1.161   3.122   5.832
 1227SOL    HW2 4581   1.223   3.241   5.739
 1228SOL     OW 4582   3.809   2.003   6.917
 1228SOL    HW1 4583   3.851   1.943   6.849
 1228SOL    HW2 4584   3.730   2.049   6.877
 1229SOL     OW 4585   2.866   4.285   6.623
 1229SOL    HW1 4586   2.847   4.366   6.678
 1229SOL    HW2 4587   2.884   4.207   6.683
 1230SOL     OW 4588   4.439   0.742   3.344
 1230SOL    HW1 4589   4.465   0.798   3.265
 1230SOL    HW2 4590   4.384   0.665   3.313
 1231SOL     OW 4591   1.325   4.661   4.598
 1231SOL    HW1 4592   1.255   4.709   4.650
 1231SOL    HW2 4593   1.392   4.727   4.564
 1232SOL     OW 4594   1.822   2.654   3.627
 1232SOL    HW1 4595   1.782   2.564   3.645
 1232SOL    HW2 4596   1.909   2.642   3.579
 1233SOL     OW 4597   0.546   3.055   4.234
 1233SOL    HW1 4598   0.583   3.031   4.145
 1233SOL    HW2 4599   0.592   3.137   4.269
 1234SOL     OW 4600   6.665   3.957   4.217
 1234SOL    HW1 4601   6.655   3.866   4.257
 1234SOL    HW2 4602   6.674   4.024   4.291
 1235SOL     OW 4603   6.799   5.519   4.217
 1235SOL    HW1 4604   6.855   5.557   4.144
 1235SOL    HW2 4605   6.760   5.432   4.188
 1236SOL     OW 4606   5.567   1.068   6.064
 1236SOL    HW1 4607   5.520   1.079   6.151
 1236SOL    HW2 4608   5.630   1.144   6.049
 1237SOL     OW 4609   2.738   4.700   6.596
 1237SOL    HW1 4610   2.802   4.680   6.522
 1237SOL    HW2 4611   2.687   4.784   6.575
 1238SOL     OW 4612   1.402   1.787   0.738
 1238SOL    HW1 4613   1.485   1.774   0.683
 1238SOL    HW2 4614   1.387   1.885   0.752
 1239SOL     OW 4615   0.967   6.911   5.609
 1239SOL    HW1 4616   0.945   6.815   5.624
 1239SOL    HW2 4617   1.049   6.936   5.660
 1240SOL     OW 4618   4.297   5.977   2.266
 1240SOL    HW1 4619   4.204   6.013   2.270
 1240SOL    HW2 4620   4.296   5.885   2.228
 1241SOL     OW 4621   0.406   2.515   4.342
 1241SOL    HW1 4622   0.380   2.425   4.377
 1241SOL    HW2 4623   0.425   2.508   4.244
 1242SOL     OW 4624   2.213   3.220   6.280
 1242SOL    HW1 4625   2.225   3.223   6.379
 1242SOL    HW2 4626   2.162   3.137   6.256
 1243SOL     OW 4627   2.344   5.269   5.326
 1243SOL    HW1 4628   2.297   5.188   5.362
 1243SOL    HW2 4629   2.340   5.267   5.226
 1244SOL     OW 4630   0.515   1.020   3.228
 1244SOL    HW1 4631   0.485   0.929   3.200
 1244SOL    HW2 4632   0.559   1.066   3.151
 1245SOL     OW 4633   3.159   2.801   6.037
 1245SOL    HW1 4634   3.243   2.800   6.092
 1245SOL    HW2 4635   3.118   2.892   6.041
 1246SOL     OW 4636   0.822   0.022   1.241
 1246SOL    HW1 4637   0.893   7.016   1.306
 1246SOL    HW2 4638   0.740   6.985   1.260
 1247SOL     OW 4639   0.919   6.355   6.763
 1247SOL    HW1 4640   0.880   6.429   6.709
 1247SOL    HW2 4641   0.919   6.381   6.860
 1248SOL     OW 4642   1.854   6.278   3.165
 1248SOL    HW1 4643   1.934   6.256   3.221
 1248SOL    HW2 4644   1.869   6.366   3.120
 1249SOL     OW 4645   5.780   3.070   3.634
 1249SOL    HW1 4646   5.805   3.166   3.618
 1249SOL    HW2 4647   5.808   3.043   3.726
 1250SOL     OW 4648   0.282   4.130   4.365
 1250SOL    HW1 4649   0.347   4.058   4.344
 1250SOL    HW2 4650   0.316   4.218   4.331
 1251SOL     OW 4651   3.385   6.930   6.274
 1251SOL    HW1 4652   3.463   6.990   6.252
 1251SOL    HW2 4653   3.304   6.962   6.225
 1252SOL     OW 4654   3.398   3.581   6.627
 1252SOL    HW1 4655   3.439   3.493   6.603
 1252SOL    HW2 4656   3.299   3.572   6.631
 1253SOL     OW 4657   4.272   6.911   2.657
 1253SOL    HW1 4658   4.221   6.886   2.740
 1253SOL    HW2 4659   4.265   6.837   2.590
 1254SOL     OW 4660   6.078   1.491   2.636
 1254SOL    HW1 4661   6.138   1.562   2.602
 1254SOL    HW2 4662   6.075   1.415   2.570
 1255SOL     OW 4663   6.292   0.520   0.389
 1255SOL    HW1 4664   6.302   0.592   0.458
 1255SOL    HW2 4665   6.303   0.560   0.298
 1256SOL     OW 4666   5.126   2.345   3.838
 1256SOL    HW1 4667   5.108   2.258   3.884
 1256SOL    HW2 4668   5.149   2.328   3.742
 1257SOL     OW 4669   6.095   1.434   3.969
 1257SOL    HW1 4670   6.077   1.532   3.980
 1257SOL    HW2 4671   6.120   1.414   3.875
 1258SOL     OW 4672   0.229   5.833   3.980
 1258SOL    HW1 4673   0.253   5.930   3.974
 1258SOL    HW2 4674   0.269   5.784   3.903
 1259SOL     OW 4675   4.375   2.226   5.355
 1259SOL    HW1 4676   4.311   2.265   5.421
 1259SOL    HW2 4677   4.400   2.296   5.288
 1260SOL     OW 4678   0.804   1.498   5.144
 1260SOL    HW1 4679   0.739   1.495   5.068
 1260SOL    HW2 4680   0.832   1.592   5.161
 1261SOL     OW 4681   6.712   3.606   0.769
 1261SOL    HW1 4682   6.804   3.637   0.791
 1261SOL    HW2 4683   6.696   3.615   0.671
 1262SOL     OW 4684   5.016   5.900   2.509
 1262SOL    HW1 4685   5.012   5.994   2.475
 1262SOL    HW2 4686   5.027   5.901   2.609
 1263SOL     OW 4687   6.580   2.548   3.654
 1263SOL    HW1 4688   6.640   2.611   3.605
 1263SOL    HW2 4689   6.553   2.588   3.742
 1264SOL     OW 4690   1.093   2.504   5.428
 1264SOL    HW1 4691   1.162   2.558   5.478
 1264SOL    HW2 4692   1.094   2.529   5.332
 1265SOL     OW 4693   5.836   6.935   5.639
 1265SOL    HW1 4694   5.751   6.886   5.617
 1265SOL    HW2 4695   5.894   6.939   5.558
 1266SOL     OW 4696   2.262   1.206   5.549
 1266SOL    HW1 4697   2.251   1.242   5.642
 1266SOL    HW2 4698   2.329   1.132   5.550
 1267SOL     OW 4699   3.499   0.360   2.806
 1267SOL    HW1 4700   3.524   0.446   2.851
 1267SOL    HW2 4701   3.487   0.289   2.876
 1268SOL     OW 4702   3.900   2.561   5.379
 1268SOL    HW1 4703   3.952   2.644   5.400
 1268SOL    HW2 4704   3.881   2.511   5.464
 1269SOL     OW 4705   6.030   1.908   3.811
 1269SOL    HW1 4706   5.996   1.855   3.889
 1269SOL    HW2 4707   6.129   1.921   3.821
 1270SOL     OW 4708   6.144   4.987   2.674
 1270SOL    HW1 4709   6.179   4.922   2.607
 1270SOL    HW2 4710   6.140   4.944   2.764
 1271SOL     OW 4711   2.408   1.253   1.178
 1271SOL    HW1 4712   2.466   1.279   1.101
 1271SOL    HW2 4713   2.359   1.334   1.211
 1272SOL     OW 4714   6.094   1.936   0.194
 1272SOL    HW1 4715   6.056   1.894   0.111
 1272SOL    HW2 4716   6.111   2.033   0.177
 1273SOL     OW 4717   2.072   4.232   5.723
 1273SOL    HW1 4718   2.164   4.199   5.701
 1273SOL    HW2 4719   2.059   4.323   5.684
 1274SOL     OW 4720   7.007   4.671   4.004
 1274SOL    HW1 4721   6.968   4.697   3.916
 1274SOL    HW2 4722   6.980   4.578   4.027
 1275SOL     OW 4723   2.105   1.806   2.529
 1275SOL    HW1 4724   2.101   1.744   2.450
 1275SOL    HW2 4725   2.089   1.900   2.497
 1276SOL     OW 4726   5.655   4.390   3.421
 1276SOL    HW1 4727   5.741   4.387   3.473
 1276SOL    HW2 4728   5.671   4.355   3.329
 1277SOL     OW 4729   0.700   6.640   6.890
 1277SOL    HW1 4730   0.732   6.614   6.799
 1277SOL    HW2 4731   0.605   6.611   6.902
 1278SOL     OW 4732   0.358   5.634   2.642
 1278SOL    HW1 4733   0.319   5.541   2.642
 1278SOL    HW2 4734   0.286   5.700   2.663
 1279SOL     OW 4735   2.708   3.130   1.111
 1279SOL    HW1 4736   2.787   3.136   1.051
 1279SOL    HW2 4737   2.634   3.081   1.064
 1280SOL     OW 4738   2.682   2.479   4.123
 1280SOL    HW1 4739   2.759   2.501   4.062
 1280SOL    HW2 4740   2.676   2.380   4.134
 1281SOL     OW 4741   6.227   6.222   4.834
 1281SOL    HW1 4742   6.135   6.204   4.868
 1281SOL    HW2 4743   6.227   6.305   4.778
 1282SOL     OW 4744   0.658   2.658   1.343
 1282SOL    HW1 4745   0.622   2.750   1.326
 1282SOL    HW2 4746   0.662   2.642   1.442
 1283SOL     OW 4747   7.010   1.899   4.118
 1283SOL    HW1 4748   6.956   1.896   4.202
 1283SOL    HW2 4749   6.960   1.950   4.048
 1284SOL     OW 4750   3.878   2.045   2.061
 1284SOL    HW1 4751   3.850   1.949   2.065
 1284SOL    HW2 4752   3.798   2.102   2.042
 1285SOL     OW 4753   4.731   0.999   4.163
 1285SOL    HW1 4754   4.770   0.913   4.196
 1285SOL    HW2 4755   4.703   1.055   4.241
 1286SOL     OW 4756   5.078   1.635   1.515
 1286SOL    HW1 4757   5.104   1.723   1.553
 1286SOL    HW2 4758   5.080   1.565   1.586
 1287SOL     OW 4759   5.723   5.061   5.427
 1287SOL    HW1 4760   5.734   4.967   5.461
 1287SOL    HW2 4761   5.648   5.063   5.360
 1288SOL     OW 4762   4.696   4.722   7.008
 1288SOL    HW1 4763   4.603   4.723   6.971
 1288SOL    HW2 4764   4.716   4.632   0.029
 1289SOL     OW 4765   6.626   7.015   0.691
 1289SOL    HW1 4766   6.626   0.011   0.591
 1289SOL    HW2 4767   6.719   7.000   0.723
 1290SOL     OW 4768   1.537   6.600   5.807
 1290SOL    HW1 4769   1.522   6.510   5.766
 1290SOL    HW2 4770   1.449   6.640   5.832
 1291SOL     OW 4771   5.920   5.156   3.857
 1291SOL    HW1 4772   6.010   5.186   3.827
 1291SOL    HW2 4773   5.929   5.084   3.926
 1292SOL     OW 4774   0.813   6.838   2.421
 1292SOL    HW1 4775   0.768   6.818   2.334
 1292SOL    HW2 4776   0.752   6.893   2.478
 1293SOL     OW 4777   5.016   1.146   0.795
 1293SOL    HW1 4778   5.110   1.179   0.795
 1293SOL    HW2 4779   5.015   1.046   0.792
 1294SOL     OW 4780   2.149   4.620   4.865
 1294SOL    HW1 4781   2.242   4.653   4.850
 1294SOL    HW2 4782   2.111   4.585   4.780
 1295SOL     OW 4783   0.066   4.577   0.527
 1295SOL    HW1 4784   0.045   4.482   0.502
 1295SOL    HW2 4785   0.125   4.577   0.608
 1296SOL     OW 4786   5.091   6.863   5.960
 1296SOL    HW1 4787   5.015   6.799   5.972
 1296SOL    HW2 4788   5.165   6.817   5.911
 1297SOL     OW 4789   6.364   6.943   0.683
 1297SOL    HW1 4790   6.461   6.964   0.696
 1297SOL    HW2 4791   6.352   6.895   0.596
 1298SOL     OW 4792   5.155   0.698   3.054
 1298SOL    HW1 4793   5.215   0.736   2.985
 1298SOL    HW2 4794   5.196   0.616   3.093
 1299SOL     OW 4795   0.901   3.650   4.464
 1299SOL    HW1 4796   0.973   3.647   4.534
 1299SOL    HW2 4797   0.812   3.632   4.507
 1300SOL     OW 4798   0.507   5.627   1.045
 1300SOL    HW1 4799   0.468   5.535   1.039
 1300SOL    HW2 4800   0.585   5.635   0.984
 1301SOL     OW 4801   6.607   0.279   0.075
 1301SOL    HW1 4802   6.673   0.258   0.147
 1301SOL    HW2 4803   6.519   0.239   0.098
 1302SOL     OW 4804   6.673   6.947   5.211
 1302SOL    HW1 4805   6.671   6.866   5.153
 1302SOL    HW2 4806   6.755   7.001   5.191
 1303SOL     OW 4807   2.837   6.521   1.368
 1303SOL    HW1 4808   2.856   6.619   1.367
 1303SOL    HW2 4809   2.851   6.485   1.460
 1304SOL     OW 4810   0.180   0.727   0.940
 1304SOL    HW1 4811   0.262   0.678   0.910
 1304SOL    HW2 4812   0.173   0.813   0.891
 1305SOL     OW 4813   4.135   4.686   6.088
 1305SOL    HW1 4814   4.231   4.662   6.103
 1305SOL    HW2 4815   4.081   4.660   6.169
 1306SOL     OW 4816   2.978   5.986   3.786
 1306SOL    HW1 4817   3.045   6.057   3.808
 1306SOL    HW2 4818   2.908   6.024   3.725
 1307SOL     OW 4819   2.010   3.171   4.197
 1307SOL    HW1 4820   1.927   3.144   4.246
 1307SOL    HW2 4821   2.063   3.234   4.253
 1308SOL     OW 4822   6.565   3.741   6.137
 1308SOL    HW1 4823   6.655   3.781   6.120
 1308SOL    HW2 4824   6.575   3.642   6.152
 1309SOL     OW 4825   5.773   3.585   6.596
 1309SOL    HW1 4826   5.727   3.674   6.603
 1309SOL    HW2 4827   5.856   3.586   6.652
 1310SOL     OW 4828   1.764   4.242   3.305
 1310SOL    HW1 4829   1.686   4.259   3.245
 1310SOL    HW2 4830   1.765   4.308   3.379
 1311SOL     OW 4831   5.340   5.326   0.597
 1311SOL    HW1 4832   5.302   5.294   0.510
 1311SOL    HW2 4833   5.407   5.398   0.580
 1312SOL     OW 4834   2.576   1.136   6.262
 1312SOL    HW1 4835   2.652   1.136   6.327
 1312SOL    HW2 4836   2.545   1.042   6.246
 1313SOL     OW 4837   6.345   5.672   1.274
 1313SOL    HW1 4838   6.267   5.724   1.308
 1313SOL    HW2 4839   6.380   5.613   1.347
 1314SOL     OW 4840   1.985   1.460   4.094
 1314SOL    HW1 4841   1.961   1.545   4.139
 1314SOL    HW2 4842   1.926   1.386   4.129
 1315SOL     OW 4843   6.074   1.020   2.887
 1315SOL    HW1 4844   6.157   0.965   2.871
 1315SOL    HW2 4845   6.000   0.959   2.916
 1316SOL     OW 4846   5.173   6.993   6.478
 1316SOL    HW1 4847   5.243   6.950   6.534
 1316SOL    HW2 4848   5.168   0.073   6.500
 1317SOL     OW 4849   3.115   3.066   5.447
 1317SOL    HW1 4850   3.169   3.052   5.530
 1317SOL    HW2 4851   3.117   2.982   5.392
 1318SOL     OW 4852   1.893   1.594   6.012
 1318SOL    HW1 4853   1.831   1.658   5.968
 1318SOL    HW2 4854   1.848   1.552   6.090
 1319SOL     OW 4855   7.004   0.579   0.298
 1319SOL    HW1 4856   0.077   0.575   0.341
 1319SOL    HW2 4857   6.989   0.496   0.244
 1320SOL     OW 4858   3.065   3.086   6.419
 1320SOL    HW1 4859   3.089   3.064   6.324
 1320SOL    HW2 4860   2.984   3.144   6.420
 1321SOL     OW 4861   6.948   2.814   0.708
 1321SOL    HW1 4862   6.974   2.803   0.804
 1321SOL    HW2 4863   0.010   2.795   0.650
 1322SOL     OW 4864   3.549   2.637   0.299
 1322SOL    HW1 4865   3.494   2.618   0.381
 1322SOL    HW2 4866   3.642   2.605   0.314
 1323SOL     OW 4867   4.087   0.229   1.516
 1323SOL    HW1 4868   3.993   0.235   1.484
 1323SOL    HW2 4869   4.149   0.224   1.438
 1324SOL     OW 4870   2.339   4.173   5.754
 1324SOL    HW1 4871   2.324   4.131   5.844
 1324SOL    HW2 4872   2.388   4.109   5.695
 1325SOL     OW 4873   3.497   6.059   4.957
 1325SOL    HW1 4874   3.511   6.066   4.858
 1325SOL    HW2 4875   3.579   6.091   5.004
 1326SOL     OW 4876   5.194   1.621   5.091
 1326SOL    HW1 4877   5.212   1.678   5.171
 1326SOL    HW2 4878   5.134   1.545   5.118
 1327SOL     OW 4879   5.163   5.268   2.491
 1327SOL    HW1 4880   5.188   5.346   2.435
 1327SOL    HW2 4881   5.174   5.291   2.588
 1328SOL     OW 4882   2.374   2.050   6.112
 1328SOL    HW1 4883   2.388   2.007   6.023
 1328SOL    HW2 4884   2.297   2.114   6.107
 1329SOL     OW 4885   0.936   2.949   3.768
 1329SOL    HW1 4886   0.873   2.875   3.791
 1329SOL    HW2 4887   1.029   2.914   3.761
 1330SOL     OW 4888   5.930   3.159   2.860
 1330SOL    HW1 4889   5.935   3.074   2.808
 1330SOL    HW2 4890   5.889   3.141   2.950
 1331SOL     OW 4891   4.770   2.470   3.560
 1331SOL    HW1 4892   4.807   2.423   3.480
 1331SOL    HW2 4893   4.786   2.414   3.641
 1332SOL     OW 4894   1.715   5.525   0.856
 1332SOL    HW1 4895   1.615   5.523   0.854
 1332SOL    HW2 4896   1.746   5.583   0.931
 1333SOL     OW 4897   3.480   3.791   2.956
 1333SOL    HW1 4898   3.408   3.853   2.926
 1333SOL    HW2 4899   3.446   3.697   2.954
 1334SOL     OW 4900   6.843   3.364   1.719
 1334SOL    HW1 4901   6.923   3.364   1.659
 1334SOL    HW2 4902   6.859   3.424   1.797
 1335SOL     OW 4903   0.361   3.583   3.686
 1335SOL    HW1 4904   0.340   3.506   3.747
 1335SOL    HW2 4905   0.347   3.669   3.734
 1336SOL     OW 4906   1.910   0.093   5.389
 1336SOL    HW1 4907   1.996   0.132   5.420
 1336SOL    HW2 4908   1.845   0.090   5.465
 1337SOL     OW 4909   0.164   6.778   2.196
 1337SOL    HW1 4910   0.225   6.699   2.186
 1337SOL    HW2 4911   0.133   6.784   2.291
 1338SOL     OW 4912   6.554   4.126   5.104
 1338SOL    HW1 4913   6.631   4.111   5.043
 1338SOL    HW2 4914   6.469   4.102   5.058
 1339SOL     OW 4915   6.008   0.976   6.532
 1339SOL    HW1 4916   5.952   0.999   6.453
 1339SOL    HW2 4917   6.045   1.060   6.573
 1340SOL     OW 4918   3.620   3.008   1.778
 1340SOL    HW1 4919   3.563   2.949   1.722
 1340SOL    HW2 4920   3.599   3.104   1.758
 1341SOL     OW 4921   5.011   5.406   6.728
 1341SOL    HW1 4922   4.994   5.491   6.680
 1341SOL    HW2 4923   5.010   5.329   6.664
 1342SOL     OW 4924   1.707   6.389   1.299
 1342SOL    HW1 4925   1.769   6.316   1.326
 1342SOL    HW2 4926   1.695   6.454   1.374
 1343SOL     OW 4927   5.264   5.540   3.012
 1343SOL    HW1 4928   5.180   5.587   3.037
 1343SOL    HW2 4929   5.279   5.462   3.073
 1344SOL     OW 4930   0.844   0.549   4.508
 1344SOL    HW1 4931   0.806   0.509   4.591
 1344SOL    HW2 4932   0.774   0.603   4.462
 1345SOL     OW 4933   1.189   6.812   6.576
 1345SOL    HW1 4934   1.257   6.853   6.636
 1345SOL    HW2 4935   1.228   6.802   6.484
 1346SOL     OW 4936   3.139   4.931   4.577
 1346SOL    HW1 4937   3.210   4.998   4.557
 1346SOL    HW2 4938   3.058   4.978   4.612
 1347SOL     OW 4939   1.825   0.464   6.486
 1347SOL    HW1 4940   1.748   0.476   6.548
 1347SOL    HW2 4941   1.884   0.390   6.518
 1348SOL     OW 4942   1.108   6.433   5.173
 1348SOL    HW1 4943   1.166   6.506   5.209
 1348SOL    HW2 4944   1.024   6.427   5.228
 1349SOL     OW 4945   5.331   3.741   4.158
 1349SOL    HW1 4946   5.415   3.778   4.119
 1349SOL    HW2 4947   5.292   3.808   4.221
 1350SOL     OW 4948   4.727   4.877   6.783
 1350SOL    HW1 4949   4.656   4.834   6.727
 1350SOL    HW2 4950   4.719   4.844   6.877
 1351SOL     OW 4951   6.829   2.584   6.010
 1351SOL    HW1 4952   6.917   2.543   6.033
 1351SOL    HW2 4953   6.771   2.515   5.965
 1352SOL     OW 4954   0.086   1.056   2.849
 1352SOL    HW1 4955   0.127   0.986   2.907
 1352SOL    HW2 4956   7.014   1.024   2.817
 1353SOL     OW 4957   6.909   1.347   0.249
 1353SOL    HW1 4958   6.862   1.261   0.265
 1353SOL    HW2 4959   6.920   1.362   0.151
 1354SOL     OW 4960   5.127   4.866   2.165
 1354SOL    HW1 4961   5.149   4.957   2.130
 1354SOL    HW2 4962   5.166   4.855   2.256
 1355SOL     OW 4963   4.477   3.412   5.329
 1355SOL    HW1 4964   4.545   3.439   5.260
 1355SOL    HW2 4965   4.519   3.346   5.392
 1356SOL     OW 4966   2.850   3.251   0.072
 1356SOL    HW1 4967   2.881   3.340   0.037
 1356SOL    HW2 4968   2.901   3.178   0.027
 1357SOL     OW 4969   1.464   2.485   5.912
 1357SOL    HW1 4970   1.481   2.559   5.978
 1357SOL    HW2 4971   1.540   2.480   5.848
 1358SOL     OW 4972   2.093   6.455   6.982
 1358SOL    HW1 4973   2.168   6.388   6.984
 1358SOL    HW2 4974   2.005   6.406   6.980
 1359SOL     OW 4975   6.210   4.053   0.857
 1359SOL    HW1 4976   6.193   4.151   0.866
 1359SOL    HW2 4977   6.281   4.024   0.921
 1360SOL     OW 4978   2.308   2.613   0.403
 1360SOL    HW1 4979   2.220   2.600   0.448
 1360SOL    HW2 4980   2.346   2.523   0.377
 1361SOL     OW 4981   6.579   4.582   4.628
 1361SOL    HW1 4982   6.584   4.508   4.696
 1361SOL    HW2 4983   6.647   4.652   4.651
 1362SOL     OW 4984   3.327   4.150   3.291
 1362SOL    HW1 4985   3.426   4.143   3.286
 1362SOL    HW2 4986   3.294   4.217   3.225
 1363SOL     OW 4987   0.831   6.579   4.354
 1363SOL    HW1 4988   0.758   6.511   4.348
 1363SOL    HW2 4989   0.803   6.662   4.306
 1364SOL     OW 4990   4.494   4.347   0.706
 1364SOL    HW1 4991   4.581   4.391   0.681
 1364SOL    HW2 4992   4.505   4.301   0.795
 1365SOL     OW 4993   6.031   2.927   6.814
 1365SOL    HW1 4994   5.970   2.920   6.893
 1365SOL    HW2 4995   6.096   2.851   6.814
 1366SOL     OW 4996   2.023   0.017   5.715
 1366SOL    HW1 4997   2.011   0.028   5.813
 1366SOL    HW2 4998   1.935   0.026   5.669
 1367SOL     OW 4999   2.856   1.643   2.035
 1367SOL    HW1 5000   2.910   1.564   2.062
 1367SOL    HW2 5001   2.889   1.724   2.084
 1368SOL     OW 5002   6.241   6.840   3.405
 1368SOL    HW1 5003   6.283   6.762   3.452
 1368SOL    HW2 5004   6.255   6.923   3.459
 1369SOL     OW 5005   0.957   0.441   2.663
 1369SOL    HW1 5006   0.924   0.521   2.713
 1369SOL    HW2 5007   1.044   0.463   2.618
 1370SOL     OW 5008   2.559   1.424   2.142
 1370SOL    HW1 5009   2.543   1.392   2.235
 1370SOL    HW2 5010   2.620   1.503   2.144
 1371SOL     OW 5011   3.659   0.379   6.194
 1371SOL    HW1 5012   3.625   0.431   6.272
 1371SOL    HW2 5013   3.626   0.420   6.109
 1372SOL     OW 5014   2.773   2.222   1.765
 1372SOL    HW1 5015   2.842   2.228   1.693
 1372SOL    HW2 5016   2.803   2.277   1.844
 1373SOL     OW 5017   1.522   5.806   6.680
 1373SOL    HW1 5018   1.541   5.901   6.706
 1373SOL    HW2 5019   1.568   5.786   6.594
 1374SOL     OW 5020   4.909   4.249   6.927
 1374SOL    HW1 5021   4.889   4.159   6.967
 1374SOL    HW2 5022   4.994   4.284   6.966
 1375SOL     OW 5023   0.978   4.409   5.013
 1375SOL    HW1 5024   1.038   4.384   4.936
 1375SOL    HW2 5025   0.889   4.439   4.978
 1376SOL     OW 5026   4.980   0.682   2.454
 1376SOL    HW1 5027   4.906   0.641   2.507
 1376SOL    HW2 5028   5.042   0.730   2.516
 1377SOL     OW 5029   0.861   4.639   4.398
 1377SOL    HW1 5030   0.888   4.727   4.359
 1377SOL    HW2 5031   0.875   4.567   4.330
 1378SOL     OW 5032   1.954   2.592   0.146
 1378SOL    HW1 5033   1.950   2.685   0.183
 1378SOL    HW2 5034   1.874   2.576   0.088
 1379SOL     OW 5035   3.728   6.264   1.458
 1379SOL    HW1 5036   3.667   6.329   1.413
 1379SOL    HW2 5037   3.715   6.173   1.418
 1380SOL     OW 5038   5.774   5.080   2.735
 1380SOL    HW1 5039   5.840   5.120   2.671
 1380SOL    HW2 5040   5.808   4.992   2.767
 1381SOL     OW 5041   6.118   6.776   2.287
 1381SOL    HW1 5042   6.135   6.680   2.310
 1381SOL    HW2 5043   6.140   6.792   2.190
 1382SOL     OW 5044   0.144   4.303   6.154
 1382SOL    HW1 5045   0.056   4.301   6.201
 1382SOL    HW2 5046   0.129   4.298   6.055
 1383SOL     OW 5047   2.649   0.321   0.438
 1383SOL    HW1 5048   2.655   0.364   0.348
 1383SOL    HW2 5049   2.595   0.236   0.432
 1384SOL     OW 5050   1.266   2.007   2.381
 1384SOL    HW1 5051   1.231   1.976   2.469
 1384SOL    HW2 5052   1.309   1.930   2.334
 1385SOL     OW 5053   5.242   3.329   4.040
 1385SOL    HW1 5054   5.240   3.259   3.969
 1385SOL    HW2 5055   5.317   3.392   4.023
 1386SOL     OW 5056   2.341   2.705   3.682
 1386SOL    HW1 5057   2.387   2.633   3.630
 1386SOL    HW2 5058   2.350   2.687   3.780
 1387SOL     OW 5059   3.051   0.514   4.186
 1387SOL    HW1 5060   3.128   0.483   4.130
 1387SOL    HW2 5061   3.044   0.457   4.268
 1388SOL     OW 5062   5.401   1.435   3.927
 1388SOL    HW1 5063   5.356   1.508   3.876
 1388SOL    HW2 5064   5.463   1.475   3.995
 1389SOL     OW 5065   6.934   0.453   3.603
 1389SOL    HW1 5066   6.999   0.380   3.582
 1389SOL    HW2 5067   6.871   0.422   3.674
 1390SOL     OW 5068   4.574   2.336   2.945
 1390SOL    HW1 5069   4.565   2.251   2.997
 1390SOL    HW2 5070   4.550   2.320   2.849
 1391SOL     OW 5071   5.323   0.738   4.623
 1391SOL    HW1 5072   5.397   0.804   4.611
 1391SOL    HW2 5073   5.361   0.652   4.658
 1392SOL     OW 5074   4.002   6.615   5.580
 1392SOL    HW1 5075   4.036   6.590   5.670
 1392SOL    HW2 5076   3.919   6.669   5.590
 1393SOL     OW 5077   4.822   7.000   0.025
 1393SOL    HW1 5078   4.786   0.036   6.966
 1393SOL    HW2 5079   4.913   0.016   0.050
 1394SOL     OW 5080   3.994   0.133   4.101
 1394SOL    HW1 5081   3.981   0.230   4.120
 1394SOL    HW2 5082   4.083   0.119   4.059
 1395SOL     OW 5083   0.151   4.999   2.460
 1395SOL    HW1 5084   0.245   4.967   2.472
 1395SOL    HW2 5085   0.101   4.989   2.546
 1396SOL     OW 5086   0.871   2.167   3.600
 1396SOL    HW1 5087   0.883   2.092   3.665
 1396SOL    HW2 5088   0.959   2.213   3.585
 1397SOL     OW 5089   1.985   5.199   4.718
 1397SOL    HW1 5090   1.940   5.252   4.790
 1397SOL    HW2 5091   2.020   5.113   4.756
 1398SOL     OW 5092   2.622   6.987   6.696
 1398SOL    HW1 5093   2.595   6.913   6.634
 1398SOL    HW2 5094   2.557   6.992   6.772
 1399SOL     OW 5095   3.687   6.874   6.962
 1399SOL    HW1 5096   3.662   6.873   6.865
 1399SOL    HW2 5097   3.751   6.949   6.979
 1400SOL     OW 5098   0.670   0.647   5.547
 1400SOL    HW1 5099   0.582   0.695   5.550
 1400SOL    HW2 5100   0.721   0.676   5.466
 1401SOL     OW 5101   5.898   6.973   2.175
 1401SOL    HW1 5102   5.969   6.912   2.211
 1401SOL    HW2 5103   5.873   6.944   2.083
 1402SOL     OW 5104   5.966   4.930   2.304
 1402SOL    HW1 5105   6.006   4.839   2.313
 1402SOL    HW2 5106   5.874   4.929   2.344
 1403SOL     OW 5107   2.814   3.874   6.412
 1403SOL    HW1 5108   2.776   3.967   6.412
 1403SOL    HW2 5109   2.913   3.878   6.404
 1404SOL     OW 5110   3.856   6.424   0.756
 1404SOL    HW1 5111   3.904   6.381   0.680
 1404SOL    HW2 5112   3.757   6.414   0.744
 1405SOL     OW 5113   1.028   3.450   0.093
 1405SOL    HW1 5114   0.935   3.414   0.080
 1405SOL    HW2 5115   1.094   3.383   0.059
 1406SOL     OW 5116   2.376   2.440   6.887
 1406SOL    HW1 5117   2.301   2.474   6.943
 1406SOL    HW2 5118   2.384   2.496   6.805
 1407SOL     OW 5119   0.144   2.420   1.194
 1407SOL    HW1 5120   0.243   2.406   1.190
 1407SOL    HW2 5121   0.098   2.332   1.181
 1408SOL     OW 5122   5.521   6.313   0.394
 1408SOL    HW1 5123   5.526   6.216   0.419
 1408SOL    HW2 5124   5.606   6.358   0.420
 1409SOL     OW 5125   6.216   1.435   5.582
 1409SOL    HW1 5126   6.144   1.496   5.548
 1409SOL    HW2 5127   6.297   1.489   5.605
 1410SOL     OW 5128   2.848   0.591   0.369
 1410SOL    HW1 5129   2.927   0.628   0.320
 1410SOL    HW2 5130   2.877   0.557   0.458
 1411SOL     OW 5131   3.900   5.710   6.857
 1411SOL    HW1 5132   3.834   5.656   6.806
 1411SOL    HW2 5133   3.855   5.791   6.896
 1412SOL     OW 5134   2.549   2.151   0.411
 1412SOL    HW1 5135   2.480   2.175   0.480
 1412SOL    HW2 5136   2.597   2.068   0.440
 1413SOL     OW 5137   2.252   1.501   5.524
 1413SOL    HW1 5138   2.154   1.521   5.535
 1413SOL    HW2 5139   2.263   1.405   5.497
 1414SOL     OW 5140   0.092   5.036   2.106
 1414SOL    HW1 5141   0.109   5.038   2.205
 1414SOL    HW2 5142   7.017   5.070   2.088
 1415SOL     OW 5143   3.735   1.791   4.807
 1415SOL    HW1 5144   3.675   1.787   4.886
 1415SOL    HW2 5145   3.743   1.885   4.775
 1416SOL     OW 5146   4.808   0.268   4.717
 1416SOL    HW1 5147   4.787   0.350   4.664
 1416SOL    HW2 5148   4.906   0.250   4.715
 1417SOL     OW 5149   3.502   3.445   4.464
 1417SOL    HW1 5150   3.597   3.441   4.495
 1417SOL    HW2 5151   3.441   3.446   4.543
 1418SOL     OW 5152   2.957   3.785   4.670
 1418SOL    HW1 5153   2.991   3.842   4.744
 1418SOL    HW2 5154   2.962   3.835   4.584
 1419SOL     OW 5155   0.983   5.989   2.024
 1419SOL    HW1 5156   0.968   6.059   2.094
 1419SOL    HW2 5157   1.081   5.974   2.013
 1420SOL     OW 5158   2.851   6.185   3.190
 1420SOL    HW1 5159   2.897   6.240   3.121
 1420SOL    HW2 5160   2.869   6.088   3.173
 1421SOL     OW 5161   1.779   5.476   0.583
 1421SOL    HW1 5162   1.868   5.515   0.559
 1421SOL    HW2 5163   1.760   5.494   0.679
 1422SOL     OW 5164   1.849   3.852   6.868
 1422SOL    HW1 5165   1.922   3.820   6.807
 1422SOL    HW2 5166   1.810   3.936   6.831
 1423SOL     OW 5167   4.676   0.907   4.752
 1423SOL    HW1 5168   4.627   0.822   4.774
 1423SOL    HW2 5169   4.624   0.985   4.786
 1424SOL     OW 5170   6.494   2.388   1.629
 1424SOL    HW1 5171   6.573   2.331   1.608
 1424SOL    HW2 5172   6.414   2.353   1.582
 1425SOL     OW 5173   5.685   6.618   3.125
 1425SOL    HW1 5174   5.744   6.668   3.062
 1425SOL    HW2 5175   5.590   6.623   3.094
 1426SOL     OW 5176   3.834   1.060   0.797
 1426SOL    HW1 5177   3.847   1.079   0.895
 1426SOL    HW2 5178   3.886   0.979   0.771
 1427SOL     OW 5179   1.092   0.436   4.096
 1427SOL    HW1 5180   1.015   0.422   4.158
 1427SOL    HW2 5181   1.098   0.360   4.032
 1428SOL     OW 5182   2.252   3.979   3.923
 1428SOL    HW1 5183   2.284   3.989   3.829
 1428SOL    HW2 5184   2.193   3.898   3.929
 1429SOL     OW 5185   6.321   0.104   2.259
 1429SOL    HW1 5186   6.296   0.200   2.271
 1429SOL    HW2 5187   6.290   0.072   2.169
 1430SOL     OW 5188   2.060   4.126   4.580
 1430SOL    HW1 5189   2.099   4.204   4.531
 1430SOL    HW2 5190   2.071   4.140   4.678
 1431SOL     OW 5191   3.351   2.008   0.581
 1431SOL    HW1 5192   3.252   2.015   0.586
 1431SOL    HW2 5193   3.383   1.938   0.645
 1432SOL     OW 5194   4.456   6.852   2.854
 1432SOL    HW1 5195   4.444   6.937   2.906
 1432SOL    HW2 5196   4.444   6.871   2.757
 1433SOL     OW 5197   2.944   2.226   3.733
 1433SOL    HW1 5198   2.987   2.231   3.824
 1433SOL    HW2 5199   3.015   2.217   3.663
 1434SOL     OW 5200   5.288   3.543   0.796
 1434SOL    HW1 5201   5.338   3.569   0.879
 1434SOL    HW2 5202   5.204   3.597   0.790
 1435SOL     OW 5203   0.463   6.337   4.168
 1435SOL    HW1 5204   0.423   6.428   4.169
 1435SOL    HW2 5205   0.390   6.269   4.159
 1436SOL     OW 5206   5.040   0.863   0.184
 1436SOL    HW1 5207   5.095   0.812   0.118
 1436SOL    HW2 5208   4.950   0.821   0.191
 1437SOL     OW 5209   4.607   1.252   0.908
 1437SOL    HW1 5210   4.676   1.230   0.839
 1437SOL    HW2 5211   4.516   1.226   0.875
 1438SOL     OW 5212   2.298   0.388   2.696
 1438SOL    HW1 5213   2.339   0.329   2.626
 1438SOL    HW2 5214   2.284   0.479   2.659
 1439SOL     OW 5215   0.905   5.298   5.254
 1439SOL    HW1 5216   0.910   5.283   5.353
 1439SOL    HW2 5217   0.839   5.371   5.235
 1440SOL     OW 5218   3.745   3.266   2.314
 1440SOL    HW1 5219   3.786   3.308   2.394
 1440SOL    HW2 5220   3.681   3.330   2.271
 1441SOL     OW 5221   6.957   1.925   6.074
 1441SOL    HW1 5222   6.996   2.009   6.113
 1441SOL    HW2 5223   0.012   1.871   6.031
 1442SOL     OW 5224   5.249   6.092   0.095
 1442SOL    HW1 5225   5.185   6.131   0.160
 1442SOL    HW2 5226   5.250   6.148   0.012
 1443SOL     OW 5227   1.702   2.897   3.583
 1443SOL    HW1 5228   1.777   2.953   3.548
 1443SOL    HW2 5229   1.730   2.801   3.582
 1444SOL     OW 5230   5.324   6.452   4.826
 1444SOL    HW1 5231   5.357   6.363   4.857
 1444SOL    HW2 5232   5.256   6.487   4.891
 1445SOL     OW 5233   6.947   2.420   0.016
 1445SOL    HW1 5234   6.851   2.410   7.005
 1445SOL    HW2 5235   6.979   2.334   0.056
 1446SOL     OW 5236   3.805   6.016   1.982
 1446SOL    HW1 5237   3.711   5.982   1.978
 1446SOL    HW2 5238   3.822   6.076   1.904
 1447SOL     OW 5239   6.786   0.776   4.409
 1447SOL    HW1 5240   6.853   0.790   4.483
 1447SOL    HW2 5241   6.756   0.864   4.374
 1448SOL     OW 5242   5.205   0.736   7.017
 1448SOL    HW1 5243   5.300   0.716   0.025
 1448SOL    HW2 5244   5.162   0.653   6.980
 1449SOL     OW 5245   4.522   5.759   0.285
 1449SOL    HW1 5246   4.510   5.826   0.212
 1449SOL    HW2 5247   4.471   5.676   0.262
 1450SOL     OW 5248   5.661   1.686   3.709
 1450SOL    HW1 5249   5.582   1.747   3.710
 1450SOL    HW2 5250   5.640   1.605   3.655
 1451SOL     OW 5251   1.097   6.854   1.740
 1451SOL    HW1 5252   1.050   6.766   1.735
 1451SOL    HW2 5253   1.029   6.927   1.748
 1452SOL     OW 5254   2.875   0.230   6.059
 1452SOL    HW1 5255   2.812   0.275   5.996
 1452SOL    HW2 5256   2.898   0.294   6.133
 1453SOL     OW 5257   5.361   4.143   4.335
 1453SOL    HW1 5258   5.392   4.050   4.355
 1453SOL    HW2 5259   5.309   4.178   4.413
 1454SOL     OW 5260   5.404   3.597   1.015
 1454SOL    HW1 5261   5.461   3.540   1.074
 1454SOL    HW2 5262   5.330   3.637   1.068
 1455SOL     OW 5263   1.740   1.865   1.445
 1455SOL    HW1 5264   1.685   1.948   1.455
 1455SOL    HW2 5265   1.680   1.788   1.428
 1456SOL     OW 5266   6.174   5.481   5.296
 1456SOL    HW1 5267   6.090   5.530   5.273
 1456SOL    HW2 5268   6.252   5.531   5.259
 1457SOL     OW 5269   1.789   0.590   4.356
 1457SOL    HW1 5270   1.793   0.593   4.456
 1457SOL    HW2 5271   1.694   0.601   4.326
 1458SOL     OW 5272   0.358   5.120   6.647
 1458SOL    HW1 5273   0.346   5.074   6.735
 1458SOL    HW2 5274   0.285   5.187   6.635
 1459SOL     OW 5275   2.222   7.006   1.360
 1459SOL    HW1 5276   2.273   0.012   1.277
 1459SOL    HW2 5277   2.276   6.944   1.416
 1460SOL     OW 5278   0.278   0.046   6.980
 1460SOL    HW1 5279   0.208   0.117   6.980
 1460SOL    HW2 5280   0.333   0.053   6.898
 1461SOL     OW 5281   4.793   5.351   2.155
 1461SOL    HW1 5282   4.726   5.324   2.086
 1461SOL    HW2 5283   4.746   5.377   2.239
 1462SOL     OW 5284   5.171   0.053   5.160
 1462SOL    HW1 5285   5.226   0.087   5.236
 1462SOL    HW2 5286   5.231   0.029   5.083
 1463SOL     OW 5287   0.696   2.640   5.659
 1463SOL    HW1 5288   0.753   2.595   5.728
 1463SOL    HW2 5289   0.630   2.574   5.623
 1464SOL     OW 5290   0.833   0.921   1.426
 1464SOL    HW1 5291   0.765   0.952   1.359
 1464SOL    HW2 5292   0.796   0.933   1.518
 1465SOL     OW 5293   1.326   1.350   3.366
 1465SOL    HW1 5294   1.406   1.372   3.422
 1465SOL    HW2 5295   1.300   1.254   3.381
 1466SOL     OW 5296   5.820   5.308   4.613
 1466SOL    HW1 5297   5.831   5.267   4.523
 1466SOL    HW2 5298   5.790   5.403   4.604
 1467SOL     OW 5299   6.592   4.083   3.986
 1467SOL    HW1 5300   6.600   4.032   4.071
 1467SOL    HW2 5301   6.540   4.028   3.920
 1468SOL     OW 5302   4.721   0.389   2.505
 1468SOL    HW1 5303   4.788   0.317   2.489
 1468SOL    HW2 5304   4.641   0.373   2.447
 1469SOL     OW 5305   0.871   0.595   2.113
 1469SOL    HW1 5306   0.899   0.684   2.077
 1469SOL    HW2 5307   0.777   0.600   2.146
 1470SOL     OW 5308   0.149   0.034   2.627
 1470SOL    HW1 5309   0.146   0.016   2.725
 1470SOL    HW2 5310   0.217   6.990   2.584
 1471SOL     OW 5311   5.943   0.978   1.140
 1471SOL    HW1 5312   5.884   0.930   1.076
 1471SOL    HW2 5313   5.887   1.030   1.204
 1472SOL     OW 5314   4.832   5.116   4.724
 1472SOL    HW1 5315   4.904   5.072   4.778
 1472SOL    HW2 5316   4.812   5.207   4.762
 1473SOL     OW 5317   6.380   3.635   3.660
 1473SOL    HW1 5318   6.411   3.724   3.627
 1473SOL    HW2 5319   6.456   3.587   3.704
 1474SOL     OW 5320   4.516   5.318   3.113
 1474SOL    HW1 5321   4.573   5.345   3.191
 1474SOL    HW2 5322   4.571   5.319   3.030
 1475SOL     OW 5323   6.352   6.515   3.302
 1475SOL    HW1 5324   6.358   6.415   3.306
 1475SOL    HW2 5325   6.320   6.543   3.211
 1476SOL     OW 5326   0.792   2.606   1.592
 1476SOL    HW1 5327   0.864   2.568   1.534
 1476SOL    HW2 5328   0.820   2.599   1.688
 1477SOL     OW 5329   2.748   6.440   4.401
 1477SOL    HW1 5330   2.759   6.377   4.324
 1477SOL    HW2 5331   2.668   6.498   4.386
 1478SOL     OW 5332   6.909   3.207   1.244
 1478SOL    HW1 5333   6.903   3.286   1.306
 1478SOL    HW2 5334   6.905   3.123   1.297
 1479SOL     OW 5335   1.090   5.436   0.357
 1479SOL    HW1 5336   1.016   5.370   0.362
 1479SOL    HW2 5337   1.061   5.516   0.304
 1480SOL     OW 5338   2.326   0.918   7.012
 1480SOL    HW1 5339   2.283   0.907   0.085
 1480SOL    HW2 5340   2.425   0.914   0.004
 1481SOL     OW 5341   0.483   3.585   0.060
 1481SOL    HW1 5342   0.425   3.545   0.131
 1481SOL    HW2 5343   0.440   3.669   0.025
 1482SOL     OW 5344   5.606   0.421   6.166
 1482SOL    HW1 5345   5.683   0.366   6.135
 1482SOL    HW2 5346   5.539   0.363   6.212
 1483SOL     OW 5347   6.495   1.660   6.323
 1483SOL    HW1 5348   6.496   1.730   6.251
 1483SOL    HW2 5349   6.509   1.570   6.281
 1484SOL     OW 5350   6.278   6.686   2.620
 1484SOL    HW1 5351   6.293   6.619   2.547
 1484SOL    HW2 5352   6.321   6.773   2.594
 1485SOL     OW 5353   5.467   3.498   4.216
 1485SOL    HW1 5354   5.403   3.573   4.204
 1485SOL    HW2 5355   5.532   3.497   4.140
 1486SOL     OW 5356   5.411   2.464   2.325
 1486SOL    HW1 5357   5.347   2.436   2.396
 1486SOL    HW2 5358   5.383   2.424   2.238
 1487SOL     OW 5359   6.875   0.309   5.639
 1487SOL    HW1 5360   6.863   0.245   5.563
 1487SOL    HW2 5361   6.911   0.396   5.604
 1488SOL     OW 5362   5.351   1.977   4.616
 1488SOL    HW1 5363   5.380   1.888   4.579
 1488SOL    HW2 5364   5.369   1.980   4.714
 1489SOL     OW 5365   3.545   4.948   4.542
 1489SOL    HW1 5366   3.644   4.956   4.557
 1489SOL    HW2 5367   3.528   4.878   4.473
 1490SOL     OW 5368   2.553   2.330   1.377
 1490SOL    HW1 5369   2.556   2.293   1.470
 1490SOL    HW2 5370   2.632   2.389   1.362
 1491SOL     OW 5371   0.130   2.339   5.079
 1491SOL    HW1 5372   0.147   2.243   5.056
 1491SOL    HW2 5373   0.112   2.391   4.996
 1492SOL     OW 5374   6.880   2.404   1.697
 1492SOL    HW1 5375   6.931   2.424   1.613
 1492SOL    HW2 5376   6.932   2.338   1.751
 1493SOL     OW 5377   5.956   1.944   5.307
 1493SOL    HW1 5378   5.864   1.948   5.270
 1493SOL    HW2 5379   6.018   1.998   5.249
 1494SOL     OW 5380   5.476   1.520   4.271
 1494SOL    HW1 5381   5.538   1.442   4.269
 1494SOL    HW2 5382   5.497   1.578   4.350
 1495SOL     OW 5383   1.203   3.870   2.277
 1495SOL    HW1 5384   1.248   3.783   2.299
 1495SOL    HW2 5385   1.123   3.853   2.220
 1496SOL     OW 5386   1.131   0.586   2.247
 1496SOL    HW1 5387   1.102   0.673   2.206
 1496SOL    HW2 5388   1.067   0.514   2.221
 1497SOL     OW 5389   5.589   5.445   6.064
 1497SOL    HW1 5390   5.607   5.494   6.150
 1497SOL    HW2 5391   5.500   5.398   6.071
 1498SOL     OW 5392   2.506   5.476   0.546
 1498SOL    HW1 5393   2.602   5.450   0.535
 1498SOL    HW2 5394   2.499   5.575   0.557
 1499SOL     OW 5395   0.796   4.364   4.700
 1499SOL    HW1 5396   0.835   4.272   4.689
 1499SOL    HW2 5397   0.705   4.356   4.741
 1500SOL     OW 5398   3.637   6.596   5.550
 1500SOL    HW1 5399   3.568   6.523   5.549
 1500SOL    HW2 5400   3.647   6.634   5.459
 1501SOL     OW 5401   3.521   0.479   0.832
 1501SOL    HW1 5402   3.601   0.530   0.862
 1501SOL    HW2 5403   3.501   0.406   0.897
 1502SOL     OW 5404   0.887   6.663   5.710
 1502SOL    HW1 5405   0.929   6.593   5.768
 1502SOL    HW2 5406   0.857   6.621   5.624
 1503SOL     OW 5407   3.293   3.852   5.017
 1503SOL    HW1 5408   3.341   3.792   5.080
 1503SOL    HW2 5409   3.241   3.921   5.068
 1504SOL     OW 5410   2.900   6.916   4.025
 1504SOL    HW1 5411   2.843   6.834   4.031
 1504SOL    HW2 5412   2.992   6.895   4.060
 1505SOL     OW 5413   5.176   6.917   2.570
 1505SOL    HW1 5414   5.183   6.829   2.524
 1505SOL    HW2 5415   5.084   6.929   2.608
 1506SOL     OW 5416   1.146   6.490   3.781
 1506SOL    HW1 5417   1.233   6.535   3.802
 1506SOL    HW2 5418   1.080   6.558   3.748
 1507SOL     OW 5419   1.926   2.324   6.895
 1507SOL    HW1 5420   1.927   2.236   6.943
 1507SOL    HW2 5421   1.967   2.313   6.805
 1508SOL     OW 5422   4.657   6.856   1.171
 1508SOL    HW1 5423   4.678   6.761   1.151
 1508SOL    HW2 5424   4.593   6.861   1.247
 1509SOL     OW 5425   5.684   1.604   6.468
 1509SOL    HW1 5426   5.765   1.663   6.462
 1509SOL    HW2 5427   5.712   1.508   6.470
 1510SOL     OW 5428   6.487   1.194   2.841
 1510SOL    HW1 5429   6.507   1.290   2.862
 1510SOL    HW2 5430   6.393   1.187   2.806
 1511SOL     OW 5431   1.311   2.897   6.845
 1511SOL    HW1 5432   1.348   2.957   6.916
 1511SOL    HW2 5433   1.224   2.935   6.812
 1512SOL     OW 5434   0.024   1.517   2.143
 1512SOL    HW1 5435   6.988   1.434   2.125
 1512SOL    HW2 5436   0.089   1.531   2.069
 1513SOL     OW 5437   2.698   0.960   2.967
 1513SOL    HW1 5438   2.629   0.888   2.973
 1513SOL    HW2 5439   2.692   1.005   2.878
 1514SOL     OW 5440   4.481   0.529   5.913
 1514SOL    HW1 5441   4.414   0.478   5.967
 1514SOL    HW2 5442   4.523   0.600   5.970
 1515SOL     OW 5443   5.395   5.108   5.611
 1515SOL    HW1 5444   5.416   5.031   5.551
 1515SOL    HW2 5445   5.477   5.163   5.626
 1516SOL     OW 5446   0.261   1.546   0.807
 1516SOL    HW1 5447   0.321   1.552   0.727
 1516SOL    HW2 5448   0.176   1.595   0.788
 1517SOL     OW 5449   3.275   5.680   2.449
 1517SOL    HW1 5450   3.276   5.633   2.537
 1517SOL    HW2 5451   3.264   5.614   2.375
 1518SOL     OW 5452   0.404   4.806   0.717
 1518SOL    HW1 5453   0.501   4.820   0.697
 1518SOL    HW2 5454   0.349   4.849   0.645
 1519SOL     OW 5455   0.500   3.991   0.977
 1519SOL    HW1 5456   0.509   4.074   1.032
 1519SOL    HW2 5457   0.591   3.958   0.952
 1520SOL     OW 5458   1.239   3.305   2.826
 1520SOL    HW1 5459   1.177   3.383   2.821
 1520SOL    HW2 5460   1.219   3.240   2.753
 1521SOL     OW 5461   2.421   4.541   5.072
 1521SOL    HW1 5462   2.396   4.472   5.004
 1521SOL    HW2 5463   2.394   4.508   5.163
 1522SOL     OW 5464   1.477   1.527   6.524
 1522SOL    HW1 5465   1.489   1.596   6.595
 1522SOL    HW2 5466   1.414   1.562   6.454
 1523SOL     OW 5467   5.829   1.668   1.324
 1523SOL    HW1 5468   5.802   1.626   1.237
 1523SOL    HW2 5469   5.929   1.669   1.329
 1524SOL     OW 5470   0.078   1.336   1.426
 1524SOL    HW1 5471   0.096   1.244   1.459
 1524SOL    HW2 5472   0.147   1.362   1.359
 1525SOL     OW 5473   4.789   1.405   5.994
 1525SOL    HW1 5474   4.760   1.490   5.951
 1525SOL    HW2 5475   4.710   1.359   6.034
 1526SOL     OW 5476   6.016   1.507   0.422
 1526SOL    HW1 5477   5.973   1.429   0.376
 1526SOL    HW2 5478   5.973   1.592   0.390
 1527SOL     OW 5479   3.294   1.156   5.941
 1527SOL    HW1 5480   3.221   1.190   6.001
 1527SOL    HW2 5481   3.280   1.058   5.924
 1528SOL     OW 5482   5.348   5.588   3.821
 1528SOL    HW1 5483   5.317   5.653   3.891
 1528SOL    HW2 5484   5.402   5.636   3.752
 1529SOL     OW 5485   1.792   6.893   5.301
 1529SOL    HW1 5486   1.710   6.892   5.359
 1529SOL    HW2 5487   1.836   6.982   5.307
 1530SOL     OW 5488   2.412   6.620   1.244
 1530SOL    HW1 5489   2.389   6.704   1.295
 1530SOL    HW2 5490   2.328   6.576   1.214
 1531SOL     OW 5491   5.686   0.693   6.689
 1531SOL    HW1 5492   5.716   0.598   6.678
 1531SOL    HW2 5493   5.621   0.699   6.764
 1532SOL     OW 5494   3.025   1.760   5.414
 1532SOL    HW1 5495   3.062   1.769   5.507
 1532SOL    HW2 5496   3.061   1.832   5.356
 1533SOL     OW 5497   4.637   3.061   6.887
 1533SOL    HW1 5498   4.691   3.134   6.845
 1533SOL    HW2 5499   4.621   3.083   6.983
 1534SOL     OW 5500   6.698   0.377   1.127
 1534SOL    HW1 5501   6.751   0.436   1.188
 1534SOL    HW2 5502   6.652   0.432   1.058
 1535SOL     OW 5503   4.959   4.415   4.691
 1535SOL    HW1 5504   4.940   4.419   4.592
 1535SOL    HW2 5505   4.916   4.333   4.729
 1536SOL     OW 5506   3.282   6.568   3.096
 1536SOL    HW1 5507   3.190   6.608   3.100
 1536SOL    HW2 5508   3.349   6.642   3.089
 1537SOL     OW 5509   2.938   5.648   4.672
 1537SOL    HW1 5510   3.031   5.625   4.701
 1537SOL    HW2 5511   2.892   5.700   4.744
 1538SOL     OW 5512   3.144   5.663   6.729
 1538SOL    HW1 5513   3.055   5.695   6.697
 1538SOL    HW2 5514   3.132   5.597   6.803
 1539SOL     OW 5515   2.529   6.602   1.775
 1539SOL    HW1 5516   2.496   6.684   1.822
 1539SOL    HW2 5517   2.456   6.535   1.769
 1540SOL     OW 5518   5.782   6.596   4.995
 1540SOL    HW1 5519   5.703   6.615   4.936
 1540SOL    HW2 5520   5.758   6.525   5.061
 1541SOL     OW 5521   5.359   1.470   1.660
 1541SOL    HW1 5522   5.344   1.371   1.659
 1541SOL    HW2 5523   5.305   1.512   1.733
 1542SOL     OW 5524   6.843   6.417   1.139
 1542SOL    HW1 5525   6.824   6.326   1.177
 1542SOL    HW2 5526   6.858   6.482   1.213
 1543SOL     OW 5527   3.540   3.555   3.295
 1543SOL    HW1 5528   3.535   3.531   3.197
 1543SOL    HW2 5529   3.490   3.640   3.311
 1544SOL     OW 5530   3.619   3.830   2.313
 1544SOL    HW1 5531   3.668   3.779   2.384
 1544SOL    HW2 5532   3.684   3.861   2.244
 1545SOL     OW 5533   0.050   6.976   4.879
 1545SOL    HW1 5534   0.146   6.977   4.909
 1545SOL    HW2 5535   0.047   6.999   4.781
 1546SOL     OW 5536   6.669   6.623   6.371
 1546SOL    HW1 5537   6.727   6.587   6.444
 1546SOL    HW2 5538   6.722   6.689   6.316
 1547SOL     OW 5539   3.318   5.794   0.160
 1547SOL    HW1 5540   3.306   5.706   0.113
 1547SOL    HW2 5541   3.398   5.840   0.122
 1548SOL     OW 5542   6.542   4.002   3.295
 1548SOL    HW1 5543   6.536   3.998   3.395
 1548SOL    HW2 5544   6.636   4.021   3.267
 1549SOL     OW 5545   6.815   2.513   0.868
 1549SOL    HW1 5546   6.723   2.503   0.829
 1549SOL    HW2 5547   6.817   2.475   0.960
 1550SOL     OW 5548   2.780   5.296   2.362
 1550SOL    HW1 5549   2.826   5.321   2.276
 1550SOL    HW2 5550   2.847   5.294   2.436
 1551SOL     OW 5551   0.442   2.431   1.566
 1551SOL    HW1 5552   0.428   2.405   1.470
 1551SOL    HW2 5553   0.490   2.358   1.613
 1552SOL     OW 5554   1.463   6.586   2.388
 1552SOL    HW1 5555   1.558   6.559   2.405
 1552SOL    HW2 5556   1.438   6.659   2.452
 1553SOL     OW 5557   5.816   1.092   5.806
 1553SOL    HW1 5558   5.913   1.094   5.827
 1553SOL    HW2 5559   5.778   1.002   5.829
 1554SOL     OW 5560   2.882   2.791   0.701
 1554SOL    HW1 5561   2.827   2.732   0.642
 1554SOL    HW2 5562   2.937   2.735   0.762
 1555SOL     OW 5563   4.213   1.305   0.593
 1555SOL    HW1 5564   4.211   1.310   0.494
 1555SOL    HW2 5565   4.119   1.302   0.628
 1556SOL     OW 5566   3.455   2.332   0.405
 1556SOL    HW1 5567   3.496   2.287   0.325
 1556SOL    HW2 5568   3.497   2.295   0.488
 1557SOL     OW 5569   1.700   3.046   0.376
 1557SOL    HW1 5570   1.799   3.050   0.368
 1557SOL    HW2 5571   1.673   3.057   0.471
 1558SOL     OW 5572   4.784   2.508   6.672
 1558SOL    HW1 5573   4.820   2.417   6.653
 1558SOL    HW2 5574   4.854   2.577   6.649
 1559SOL     OW 5575   2.768   6.319   3.461
 1559SOL    HW1 5576   2.829   6.380   3.511
 1559SOL    HW2 5577   2.813   6.288   3.377
 1560SOL     OW 5578   4.401   3.073   1.303
 1560SOL    HW1 5579   4.362   3.042   1.390
 1560SOL    HW2 5580   4.333   3.126   1.253
 1561SOL     OW 5581   5.317   6.354   0.584
 1561SOL    HW1 5582   5.235   6.297   0.575
 1561SOL    HW2 5583   5.370   6.349   0.499
 1562SOL     OW 5584   2.440   0.338   2.200
 1562SOL    HW1 5585   2.367   0.351   2.133
 1562SOL    HW2 5586   2.427   0.401   2.277
 1563SOL     OW 5587   2.004   3.495   3.813
 1563SOL    HW1 5588   2.005   3.399   3.842
 1563SOL    HW2 5589   1.939   3.546   3.868
 1564SOL     OW 5590   0.842   2.030   2.795
 1564SOL    HW1 5591   0.867   2.126   2.781
 1564SOL    HW2 5592   0.744   2.019   2.774
 1565SOL     OW 5593   4.904   1.958   5.208
 1565SOL    HW1 5594   4.815   2.001   5.194
 1565SOL    HW2 5595   4.976   2.027   5.200
 1566SOL     OW 5596   0.644   3.829   3.524
 1566SOL    HW1 5597   0.601   3.787   3.604
 1566SOL    HW2 5598   0.622   3.776   3.443
 1567SOL     OW 5599   5.363   0.180   5.307
 1567SOL    HW1 5600   5.384   0.118   5.383
 1567SOL    HW2 5601   5.446   0.226   5.277
 1568SOL     OW 5602   2.332   4.516   0.780
 1568SOL    HW1 5603   2.246   4.475   0.813
 1568SOL    HW2 5604   2.407   4.452   0.796
 1569SOL     OW 5605   1.901   1.270   2.526
 1569SOL    HW1 5606   1.805   1.292   2.542
 1569SOL    HW2 5607   1.944   1.345   2.474
 1570SOL     OW 5608   2.809   5.747   6.754
 1570SOL    HW1 5609   2.711   5.727   6.763
 1570SOL    HW2 5610   2.829   5.835   6.795
 1571SOL     OW 5611   6.885   2.497   4.322
 1571SOL    HW1 5612   6.858   2.544   4.239
 1571SOL    HW2 5613   6.836   2.535   4.400
 1572SOL     OW 5614   2.095   6.160   3.007
 1572SOL    HW1 5615   2.127   6.172   2.913
 1572SOL    HW2 5616   2.172   6.170   3.069
 1573SOL     OW 5617   5.484   5.565   0.333
 1573SOL    HW1 5618   5.494   5.582   0.235
 1573SOL    HW2 5619   5.575   5.560   0.375
 1574SOL     OW 5620   0.715   4.518   3.346
 1574SOL    HW1 5621   0.767   4.453   3.291
 1574SOL    HW2 5622   0.683   4.474   3.430
 1575SOL     OW 5623   6.918   2.410   0.351
 1575SOL    HW1 5624   7.015   2.425   0.331
 1575SOL    HW2 5625   6.910   2.365   0.440
 1576SOL     OW 5626   1.797   6.171   1.746
 1576SOL    HW1 5627   1.772   6.156   1.842
 1576SOL    HW2 5628   1.750   6.252   1.711
 1577SOL     OW 5629   4.675   5.634   4.099
 1577SOL    HW1 5630   4.769   5.640   4.066
 1577SOL    HW2 5631   4.672   5.575   4.179
 1578SOL     OW 5632   5.693   1.998   1.807
 1578SOL    HW1 5633   5.688   1.911   1.856
 1578SOL    HW2 5634   5.603   2.023   1.773
 1579SOL     OW 5635   1.730   3.041   1.918
 1579SOL    HW1 5636   1.740   3.140   1.923
 1579SOL    HW2 5637   1.716   3.004   2.010
 1580SOL     OW 5638   3.648   4.140   3.008
 1580SOL    HW1 5639   3.573   4.182   2.957
 1580SOL    HW2 5640   3.691   4.070   2.952
 1581SOL     OW 5641   5.551   4.387   5.160
 1581SOL    HW1 5642   5.533   4.423   5.251
 1581SOL    HW2 5643   5.468   4.390   5.106
 1582SOL     OW 5644   4.384   6.028   4.803
 1582SOL    HW1 5645   4.451   6.069   4.741
 1582SOL    HW2 5646   4.296   6.074   4.791
 1583SOL     OW 5647   1.374   4.891   5.395
 1583SOL    HW1 5648   1.444   4.925   5.333
 1583SOL    HW2 5649   1.418   4.852   5.476
 1584SOL     OW 5650   0.282   3.885   0.344
 1584SOL    HW1 5651   0.207   3.931   0.391
 1584SOL    HW2 5652   0.321   3.947   0.276
 1585SOL     OW 5653   5.083   6.319   4.614
 1585SOL    HW1 5654   5.055   6.250   4.547
 1585SOL    HW2 5655   5.109   6.403   4.566
 1586SOL     OW 5656   2.552   5.919   3.486
 1586SOL    HW1 5657   2.603   5.833   3.493
 1586SOL    HW2 5658   2.552   5.951   3.392
 1587SOL     OW 5659   3.340   6.218   0.074
 1587SOL    HW1 5660   3.330   6.212   0.174
 1587SOL    HW2 5661   3.370   6.129   0.039
 1588SOL     OW 5662   6.198   2.124   3.447
 1588SOL    HW1 5663   6.165   2.032   3.469
 1588SOL    HW2 5664   6.188   2.141   3.349
 1589SOL     OW 5665   0.042   2.454   4.817
 1589SOL    HW1 5666   0.118   2.464   4.752
 1589SOL    HW2 5667   6.986   2.401   4.775
 1590SOL     OW 5668   5.181   0.841   3.768
 1590SOL    HW1 5669   5.190   0.771   3.697
 1590SOL    HW2 5670   5.085   0.858   3.787
 1591SOL     OW 5671   0.680   5.495   0.343
 1591SOL    HW1 5672   0.611   5.561   0.314
 1591SOL    HW2 5673   0.737   5.469   0.265
 1592SOL     OW 5674   6.971   3.911   4.980
 1592SOL    HW1 5675   6.994   3.839   4.914
 1592SOL    HW2 5676   0.024   3.983   4.976
 1593SOL     OW 5677   3.713   6.029   1.294
 1593SOL    HW1 5678   3.786   5.961   1.294
 1593SOL    HW2 5679   3.690   6.055   1.200
 1594SOL     OW 5680   4.899   0.661   2.957
 1594SOL    HW1 5681   4.996   0.682   2.970
 1594SOL    HW2 5682   4.857   0.732   2.902
 1595SOL     OW 5683   0.848   3.455   6.488
 1595SOL    HW1 5684   0.766   3.399   6.478
 1595SOL    HW2 5685   0.822   3.545   6.524
 1596SOL     OW 5686   5.186   4.171   4.107
 1596SOL    HW1 5687   5.230   4.151   4.194
 1596SOL    HW2 5688   5.182   4.270   4.093
 1597SOL     OW 5689   3.574   5.880   0.036
 1597SOL    HW1 5690   3.628   5.963   0.049
 1597SOL    HW2 5691   3.617   5.804   0.086
 1598SOL     OW 5692   1.187   4.498   6.339
 1598SOL    HW1 5693   1.181   4.403   6.308
 1598SOL    HW2 5694   1.152   4.505   6.433
 1599SOL     OW 5695   4.734   5.479   3.803
 1599SOL    HW1 5696   4.670   5.440   3.869
 1599SOL    HW2 5697   4.828   5.462   3.833
 1600SOL     OW 5698   4.430   0.581   1.466
 1600SOL    HW1 5699   4.439   0.649   1.539
 1600SOL    HW2 5700   4.520   0.552   1.435
 1601SOL     OW 5701   6.347   0.813   4.721
 1601SOL    HW1 5702   6.408   0.773   4.653
 1601SOL    HW2 5703   6.278   0.869   4.675
 1602SOL     OW 5704   4.383   5.360   3.556
 1602SOL    HW1 5705   4.392   5.320   3.646
 1602SOL    HW2 5706   4.343   5.293   3.493
 1603SOL     OW 5707   3.274   5.017   2.216
 1603SOL    HW1 5708   3.206   5.089   2.232
 1603SOL    HW2 5709   3.249   4.966   2.134
 1604SOL     OW 5710   4.163   5.153   2.778
 1604SOL    HW1 5711   4.195   5.124   2.688
 1604SOL    HW2 5712   4.241   5.160   2.841
 1605SOL     OW 5713   4.888   5.244   0.297
 1605SOL    HW1 5714   4.842   5.187   0.365
 1605SOL    HW2 5715   4.880   5.200   0.207
 1606SOL     OW 5716   3.345   5.865   5.072
 1606SOL    HW1 5717   3.321   5.859   4.975
 1606SOL    HW2 5718   3.433   5.911   5.082
 1607SOL     OW 5719   4.926   3.898   3.684
 1607SOL    HW1 5720   4.893   3.816   3.730
 1607SOL    HW2 5721   5.000   3.874   3.621
 1608SOL     OW 5722   5.549   2.915   3.772
 1608SOL    HW1 5723   5.476   2.927   3.705
 1608SOL    HW2 5724   5.517   2.945   3.862
 1609SOL     OW 5725   1.702   0.185   0.693
 1609SOL    HW1 5726   1.662   0.199   0.783
 1609SOL    HW2 5727   1.700   0.272   0.643
 1610SOL     OW 5728   5.598   6.438   0.751
 1610SOL    HW1 5729   5.687   6.425   0.708
 1610SOL    HW2 5730   5.532   6.467   0.681
 1611SOL     OW 5731   0.783   4.138   0.086
 1611SOL    HW1 5732   0.818   4.230   0.101
 1611SOL    HW2 5733   0.853   4.083   0.040
 1612SOL     OW 5734   4.620   1.085   2.064
 1612SOL    HW1 5735   4.637   1.112   2.159
 1612SOL    HW2 5736   4.683   1.011   2.039
 1613SOL     OW 5737   0.316   5.923   2.767
 1613SOL    HW1 5738   0.221   5.896   2.755
 1613SOL    HW2 5739   0.352   5.958   2.680
 1614SOL     OW 5740   6.618   1.408   5.407
 1614SOL    HW1 5741   6.548   1.463   5.362
 1614SOL    HW2 5742   6.673   1.361   5.338
 1615SOL     OW 5743   6.856   3.404   5.441
 1615SOL    HW1 5744   6.895   3.313   5.422
 1615SOL    HW2 5745   6.780   3.421   5.378
 1616SOL     OW 5746   0.837   1.439   3.234
 1616SOL    HW1 5747   0.765   1.440   3.303
 1616SOL    HW2 5748   0.905   1.369   3.256
 1617SOL     OW 5749   6.605   5.530   3.898
 1617SOL    HW1 5750   6.695   5.574   3.906
 1617SOL    HW2 5751   6.543   5.572   3.964
 1618SOL     OW 5752   3.379   5.729   3.134
 1618SOL    HW1 5753   3.350   5.706   3.041
 1618SOL    HW2 5754   3.353   5.824   3.155
 1619SOL     OW 5755   1.088   3.839   6.666
 1619SOL    HW1 5756   1.004   3.836   6.721
 1619SOL    HW2 5757   1.073   3.790   6.581
 1620SOL     OW 5758   3.122   6.771   4.123
 1620SOL    HW1 5759   3.202   6.813   4.081
 1620SOL    HW2 5760   3.113   6.801   4.218
 1621SOL     OW 5761   4.744   5.503   0.729
 1621SOL    HW1 5762   4.842   5.491   0.714
 1621SOL    HW2 5763   4.727   5.588   0.777
 1622SOL     OW 5764   6.338   4.295   3.683
 1622SOL    HW1 5765   6.334   4.228   3.609
 1622SOL    HW2 5766   6.330   4.387   3.645
 1623SOL     OW 5767   0.477   2.614   3.840
 1623SOL    HW1 5768   0.403   2.651   3.785
 1623SOL    HW2 5769   0.504   2.525   3.803
 1624SOL     OW 5770   3.786   3.087   0.784
 1624SOL    HW1 5771   3.835   3.135   0.856
 1624SOL    HW2 5772   3.843   3.083   0.702
 1625SOL     OW 5773   0.774   6.345   0.245
 1625SOL    HW1 5774   0.720   6.342   0.161
 1625SOL    HW2 5775   0.825   6.431   0.248
 1626SOL     OW 5776   2.323   2.068   1.813
 1626SOL    HW1 5777   2.381   2.084   1.733
 1626SOL    HW2 5778   2.294   2.156   1.851
 1627SOL     OW 5779   4.067   1.814   6.193
 1627SOL    HW1 5780   3.995   1.874   6.229
 1627SOL    HW2 5781   4.118   1.862   6.122
 1628SOL     OW 5782   5.366   6.395   1.149
 1628SOL    HW1 5783   5.343   6.376   1.053
 1628SOL    HW2 5784   5.318   6.478   1.179
 1629SOL     OW 5785   1.821   6.791   3.454
 1629SOL    HW1 5786   1.887   6.862   3.477
 1629SOL    HW2 5787   1.760   6.823   3.381
 1630SOL     OW 5788   0.624   3.893   5.867
 1630SOL    HW1 5789   0.662   3.913   5.777
 1630SOL    HW2 5790   0.621   3.977   5.921
 1631SOL     OW 5791   5.638   3.425   0.297
 1631SOL    HW1 5792   5.602   3.334   0.279
 1631SOL    HW2 5793   5.562   3.487   0.320
 1632SOL     OW 5794   6.240   6.106   2.427
 1632SOL    HW1 5795   6.183   6.027   2.453
 1632SOL    HW2 5796   6.206   6.188   2.473
 1633SOL     OW 5797   5.610   3.777   4.950
 1633SOL    HW1 5798   5.702   3.745   4.928
 1633SOL    HW2 5799   5.608   3.877   4.949
 1634SOL     OW 5800   1.413   3.505   5.756
 1634SOL    HW1 5801   1.402   3.416   5.800
 1634SOL    HW2 5802   1.366   3.506   5.668
 1635SOL     OW 5803   2.602   0.266   3.378
 1635SOL    HW1 5804   2.689   0.287   3.421
 1635SOL    HW2 5805   2.618   0.220   3.290
 1636SOL     OW 5806   6.916   5.826   1.538
 1636SOL    HW1 5807   6.849   5.865   1.476
 1636SOL    HW2 5808   6.999   5.882   1.537
 1637SOL     OW 5809   1.224   1.623   2.520
 1637SOL    HW1 5810   1.319   1.653   2.528
 1637SOL    HW2 5811   1.176   1.641   2.606
 1638SOL     OW 5812   5.323   2.613   3.224
 1638SOL    HW1 5813   5.392   2.657   3.282
 1638SOL    HW2 5814   5.237   2.604   3.276
 1639SOL     OW 5815   4.613   2.182   1.843
 1639SOL    HW1 5816   4.597   2.280   1.855
 1639SOL    HW2 5817   4.706   2.168   1.810
 1640SOL     OW 5818   6.042   0.554   6.393
 1640SOL    HW1 5819   6.127   0.513   6.427
 1640SOL    HW2 5820   6.043   0.652   6.409
 1641SOL     OW 5821   5.684   1.171   3.164
 1641SOL    HW1 5822   5.753   1.101   3.185
 1641SOL    HW2 5823   5.602   1.154   3.218
 1642SOL     OW 5824   0.058   3.542   6.164
 1642SOL    HW1 5825   0.067   3.573   6.070
 1642SOL    HW2 5826   0.031   3.446   6.166
 1643SOL     OW 5827   1.945   5.258   3.603
 1643SOL    HW1 5828   1.948   5.180   3.541
 1643SOL    HW2 5829   2.036   5.274   3.641
 1644SOL     OW 5830   6.231   1.359   1.666
 1644SOL    HW1 5831   6.142   1.393   1.696
 1644SOL    HW2 5832   6.226   1.332   1.570
 1645SOL     OW 5833   2.627   0.768   4.875
 1645SOL    HW1 5834   2.553   0.709   4.908
 1645SOL    HW2 5835   2.710   0.713   4.862
 1646SOL     OW 5836   0.308   5.295   1.355
 1646SOL    HW1 5837   0.265   5.372   1.308
 1646SOL    HW2 5838   0.336   5.323   1.447
 1647SOL     OW 5839   6.044   3.243   4.913
 1647SOL    HW1 5840   6.073   3.275   4.823
 1647SOL    HW2 5841   6.096   3.161   4.938
 1648SOL     OW 5842   5.602   5.907   1.491
 1648SOL    HW1 5843   5.508   5.882   1.514
 1648SOL    HW2 5844   5.614   5.906   1.392
 1649SOL     OW 5845   3.754   1.487   2.947
 1649SOL    HW1 5846   3.842   1.518   2.982
 1649SOL    HW2 5847   3.698   1.454   3.023
 1650SOL     OW 5848   2.636   2.548   5.255
 1650SOL    HW1 5849   2.693   2.545   5.173
 1650SOL    HW2 5850   2.621   2.644   5.280
 1651SOL     OW 5851   0.917   1.779   4.119
 1651SOL    HW1 5852   0.990   1.818   4.063
 1651SOL    HW2 5853   0.870   1.853   4.168
 1652SOL     OW 5854   0.387   3.900   1.567
 1652SOL    HW1 5855   0.355   3.840   1.494
 1652SOL    HW2 5856   0.484   3.883   1.583
 1653SOL     OW 5857   6.851   4.263   1.608
 1653SOL    HW1 5858   6.911   4.186   1.630
 1653SOL    HW2 5859   6.784   4.235   1.539
 1654SOL     OW 5860   0.635   3.804   1.574
 1654SOL    HW1 5861   0.730   3.775   1.583
 1654SOL    HW2 5862   0.579   3.726   1.543
 1655SOL     OW 5863   0.021   0.717   5.671
 1655SOL    HW1 5864   0.100   0.751   5.722
 1655SOL    HW2 5865   7.000   0.791   5.616
 1656SOL     OW 5866   2.335   4.262   3.101
 1656SOL    HW1 5867   2.236   4.252   3.112
 1656SOL    HW2 5868   2.357   4.280   3.005
 1657SOL     OW 5869   0.574   0.238   5.881
 1657SOL    HW1 5870   0.493   0.214   5.933
 1657SOL    HW2 5871   0.547   0.279   5.794
 1658SOL     OW 5872   5.461   6.438   6.310
 1658SOL    HW1 5873   5.372   6.392   6.309
 1658SOL    HW2 5874   5.474   6.487   6.224
 1659SOL     OW 5875   3.863   0.065   5.953
 1659SOL    HW1 5876   3.882   7.000   6.006
 1659SOL    HW2 5877   3.772   0.058   5.912
 1660SOL     OW 5878   2.414   0.608   1.868
 1660SOL    HW1 5879   2.389   0.698   1.832
 1660SOL    HW2 5880   2.513   0.602   1.877
 1661SOL     OW 5881   4.905   4.066   3.000
 1661SOL    HW1 5882   4.941   3.992   2.943
 1661SOL    HW2 5883   4.856   4.131   2.942
 1662SOL     OW 5884   0.133   1.777   3.477
 1662SOL    HW1 5885   0.170   1.809   3.389
 1662SOL    HW2 5886   0.058   1.837   3.506
 1663SOL     OW 5887   5.253   3.869   1.262
 1663SOL    HW1 5888   5.344   3.840   1.291
 1663SOL    HW2 5889   5.227   3.952   1.311
 1664SOL     OW 5890   1.095   1.030   6.276
 1664SOL    HW1 5891   1.057   0.939   6.260
 1664SOL    HW2 5892   1.115   1.073   6.188
 1665SOL     OW 5893   2.348   3.723   6.365
 1665SOL    HW1 5894   2.432   3.774   6.347
 1665SOL    HW2 5895   2.269   3.779   6.342
 1666SOL     OW 5896   5.480   6.078   6.377
 1666SOL    HW1 5897   5.571   6.068   6.419
 1666SOL    HW2 5898   5.411   6.083   6.449
 1667SOL     OW 5899   0.026   5.382   0.708
 1667SOL    HW1 5900   0.062   5.306   0.763
 1667SOL    HW2 5901   6.967   5.425   0.756
 1668SOL     OW 5902   5.852   3.036   2.125
 1668SOL    HW1 5903   5.917   3.058   2.051
 1668SOL    HW2 5904   5.825   3.121   2.171
 1669SOL     OW 5905   6.242   2.514   5.519
 1669SOL    HW1 5906   6.186   2.593   5.495
 1669SOL    HW2 5907   6.221   2.438   5.458
 1670SOL     OW 5908   3.265   4.609   5.893
 1670SOL    HW1 5909   3.166   4.618   5.903
 1670SOL    HW2 5910   3.297   4.533   5.948
 1671SOL     OW 5911   5.454   2.120   0.301
 1671SOL    HW1 5912   5.409   2.209   0.293
 1671SOL    HW2 5913   5.476   2.102   0.397
 1672SOL     OW 5914   0.486   2.034   1.347
 1672SOL    HW1 5915   0.425   2.005   1.421
 1672SOL    HW2 5916   0.435   2.086   1.280
 1673SOL     OW 5917   1.509   0.505   4.640
 1673SOL    HW1 5918   1.505   0.436   4.712
 1673SOL    HW2 5919   1.436   0.488   4.573
 1674SOL     OW 5920   4.842   2.313   3.800
 1674SOL    HW1 5921   4.814   2.219   3.781
 1674SOL    HW2 5922   4.941   2.322   3.785
 1675SOL     OW 5923   5.727   0.186   1.811
 1675SOL    HW1 5924   5.776   0.230   1.886
 1675SOL    HW2 5925   5.729   0.245   1.731
 1676SOL     OW 5926   0.755   2.380   3.681
 1676SOL    HW1 5927   0.814   2.317   3.630
 1676SOL    HW2 5928   0.776   2.474   3.654
 1677SOL     OW 5929   2.974   3.585   2.949
 1677SOL    HW1 5930   3.014   3.672   2.921
 1677SOL    HW2 5931   2.958   3.528   2.868
 1678SOL     OW 5932   0.487   6.065   0.220
 1678SOL    HW1 5933   0.504   5.990   0.157
 1678SOL    HW2 5934   0.391   6.065   0.248
 1679SOL     OW 5935   6.127   1.517   0.093
 1679SOL    HW1 5936   6.037   1.560   0.105
 1679SOL    HW2 5937   6.178   1.524   0.179
 1680SOL     OW 5938   6.184   2.912   2.997
 1680SOL    HW1 5939   6.193   2.891   3.094
 1680SOL    HW2 5940   6.104   2.969   2.981
 1681SOL     OW 5941   3.529   6.122   4.685
 1681SOL    HW1 5942   3.625   6.150   4.679
 1681SOL    HW2 5943   3.516   6.037   4.633
 1682SOL     OW 5944   4.444   0.729   4.451
 1682SOL    HW1 5945   4.382   0.659   4.417
 1682SOL    HW2 5946   4.452   0.721   4.550
 1683SOL     OW 5947   0.274   2.586   2.957
 1683SOL    HW1 5948   0.305   2.567   3.050
 1683SOL    HW2 5949   0.259   2.684   2.945
 1684SOL     OW 5950   2.718   5.344   1.109
 1684SOL    HW1 5951   2.655   5.318   1.035
 1684SOL    HW2 5952   2.665   5.359   1.193
 1685SOL     OW 5953   0.012   1.232   5.345
 1685SOL    HW1 5954   6.972   1.209   5.423
 1685SOL    HW2 5955   0.077   1.159   5.328
 1686SOL     OW 5956   3.585   5.270   2.057
 1686SOL    HW1 5957   3.540   5.187   2.023
 1686SOL    HW2 5958   3.663   5.292   2.000
 1687SOL     OW 5959   5.164   3.887   0.939
 1687SOL    HW1 5960   5.141   3.863   1.034
 1687SOL    HW2 5961   5.262   3.873   0.924
 1688SOL     OW 5962   2.719   0.271   2.866
 1688SOL    HW1 5963   2.759   0.320   2.943
 1688SOL    HW2 5964   2.619   0.273   2.874
 1689SOL     OW 5965   3.716   0.621   2.117
 1689SOL    HW1 5966   3.767   0.693   2.162
 1689SOL    HW2 5967   3.618   0.633   2.134
 1690SOL     OW 5968   6.361   4.878   4.121
 1690SOL    HW1 5969   6.361   4.796   4.065
 1690SOL    HW2 5970   6.317   4.953   4.071
 1691SOL     OW 5971   4.093   2.755   5.426
 1691SOL    HW1 5972   4.081   2.851   5.401
 1691SOL    HW2 5973   4.154   2.711   5.359
 1692SOL     OW 5974   5.600   5.045   1.222
 1692SOL    HW1 5975   5.572   4.956   1.185
 1692SOL    HW2 5976   5.533   5.073   1.292
 1693SOL     OW 5977   5.307   6.695   5.954
 1693SOL    HW1 5978   5.374   6.663   6.021
 1693SOL    HW2 5979   5.351   6.760   5.892
 1694SOL     OW 5980   4.651   1.251   6.504
 1694SOL    HW1 5981   4.661   1.298   6.591
 1694SOL    HW2 5982   4.726   1.278   6.443
 1695SOL     OW 5983   3.921   0.439   5.387
 1695SOL    HW1 5984   3.928   0.447   5.486
 1695SOL    HW2 5985   3.932   0.530   5.345
 1696SOL     OW 5986   4.749   0.288   1.033
 1696SOL    HW1 5987   4.692   0.212   1.062
 1696SOL    HW2 5988   4.692   0.363   0.999
 1697SOL     OW 5989   4.574   2.761   1.686
 1697SOL    HW1 5990   4.599   2.858   1.684
 1697SOL    HW2 5991   4.476   2.752   1.666
 1698SOL     OW 5992   4.151   1.512   1.911
 1698SOL    HW1 5993   4.080   1.572   1.948
 1698SOL    HW2 5994   4.216   1.566   1.859
 1699SOL     OW 5995   2.119   0.640   0.537
 1699SOL    HW1 5996   2.033   0.653   0.586
 1699SOL    HW2 5997   2.175   0.722   0.545
 1700SOL     OW 5998   5.392   3.234   2.863
 1700SOL    HW1 5999   5.384   3.138   2.837
 1700SOL    HW2 6000   5.367   3.292   2.785
 1701SOL     OW 6001   1.368   5.933   5.054
 1701SOL    HW1 6002   1.305   6.005   5.025
 1701SOL    HW2 6003   1.442   5.924   4.988
 1702SOL     OW 6004   2.082   2.822   6.612
 1702SOL    HW1 6005   2.090   2.787   6.519
 1702SOL    HW2 6006   2.075   2.745   6.676
 1703SOL     OW 6007   1.156   2.290   2.070
 1703SOL    HW1 6008   1.081   2.323   2.012
 1703SOL    HW2 6009   1.243   2.303   2.023
 1704SOL     OW 6010   2.754   2.864   6.674
 1704SOL    HW1 6011   2.714   2.903   6.757
 1704SOL    HW2 6012   2.852   2.852   6.687
 1705SOL     OW 6013   5.333   3.278   0.844
 1705SOL    HW1 6014   5.341   3.373   0.813
 1705SOL    HW2 6015   5.418   3.229   0.825
 1706SOL     OW 6016   5.782   1.272   6.251
 1706SOL    HW1 6017   5.849   1.312   6.189
 1706SOL    HW2 6018   5.691   1.306   6.228
 1707SOL     OW 6019   3.975   1.097   2.298
 1707SOL    HW1 6020   4.037   1.156   2.246
 1707SOL    HW2 6021   3.987   1.002   2.268
 1708SOL     OW 6022   2.573   4.622   1.953
 1708SOL    HW1 6023   2.672   4.607   1.961
 1708SOL    HW2 6024   2.556   4.718   1.932
 1709SOL     OW 6025   5.246   4.661   1.187
 1709SOL    HW1 6026   5.205   4.574   1.159
 1709SOL    HW2 6027   5.202   4.693   1.271
 1710SOL     OW 6028   4.856   2.884   2.199
 1710SOL    HW1 6029   4.836   2.930   2.112
 1710SOL    HW2 6030   4.851   2.951   2.274
 1711SOL     OW 6031   4.018   5.662   0.199
 1711SOL    HW1 6032   4.044   5.645   0.295
 1711SOL    HW2 6033   3.978   5.579   0.160
 1712SOL     OW 6034   0.215   1.858   1.940
 1712SOL    HW1 6035   0.291   1.921   1.919
 1712SOL    HW2 6036   0.252   1.766   1.954
 1713SOL     OW 6037   2.920   1.807   2.550
 1713SOL    HW1 6038   2.967   1.728   2.511
 1713SOL    HW2 6039   2.940   1.889   2.496
 1714SOL     OW 6040   2.651   4.401   0.601
 1714SOL    HW1 6041   2.584   4.360   0.539
 1714SOL    HW2 6042   2.607   4.427   0.687
 1715SOL     OW 6043   0.916   5.750   0.816
 1715SOL    HW1 6044   1.007   5.789   0.827
 1715SOL    HW2 6045   0.901   5.727   0.720
 1716SOL     OW 6046   5.058   1.806   3.091
 1716SOL    HW1 6047   5.119   1.825   3.168
 1716SOL    HW2 6048   5.102   1.740   3.030
 1717SOL     OW 6049   4.047   6.316   3.667
 1717SOL    HW1 6050   4.075   6.231   3.712
 1717SOL    HW2 6051   3.968   6.299   3.609
 1718SOL     OW 6052   1.687   3.691   1.779
 1718SOL    HW1 6053   1.786   3.692   1.790
 1718SOL    HW2 6054   1.644   3.654   1.861
 1719SOL     OW 6055   1.507   5.741   2.755
 1719SOL    HW1 6056   1.555   5.754   2.842
 1719SOL    HW2 6057   1.432   5.808   2.748
 1720SOL     OW 6058   0.782   2.917   5.513
 1720SOL    HW1 6059   0.856   2.877   5.568
 1720SOL    HW2 6060   0.706   2.853   5.508
 1721SOL     OW 6061   2.315   2.338   0.328
 1721SOL    HW1 6062   2.270   2.258   0.369
 1721SOL    HW2 6063   2.408   2.346   0.365
 1722SOL     OW 6064   2.506   2.495   3.531
 1722SOL    HW1 6065   2.503   2.433   3.452
 1722SOL    HW2 6066   2.567   2.458   3.601
 1723SOL     OW 6067   5.881   4.331   1.324
 1723SOL    HW1 6068   5.938   4.412   1.313
 1723SOL    HW2 6069   5.923   4.254   1.276
 1724SOL     OW 6070   5.855   3.087   0.905
 1724SOL    HW1 6071   5.872   2.991   0.883
 1724SOL    HW2 6072   5.892   3.145   0.832
 1725SOL     OW 6073   2.313   6.643   5.898
 1725SOL    HW1 6074   2.253   6.564   5.888
 1725SOL    HW2 6075   2.297   6.706   5.822
 1726SOL     OW 6076   4.657   4.285   3.455
 1726SOL    HW1 6077   4.616   4.315   3.541
 1726SOL    HW2 6078   4.733   4.223   3.474
 1727SOL     OW 6079   3.358   3.400   3.146
 1727SOL    HW1 6080   3.316   3.318   3.183
 1727SOL    HW2 6081   3.322   3.481   3.193
 1728SOL     OW 6082   5.723   2.207   4.101
 1728SOL    HW1 6083   5.748   2.243   4.191
 1728SOL    HW2 6084   5.635   2.245   4.074
 1729SOL     OW 6085   1.131   2.810   2.929
 1729SOL    HW1 6086   1.033   2.800   2.910
 1729SOL    HW2 6087   1.162   2.734   2.985
 1730SOL     OW 6088   2.515   6.955   4.886
 1730SOL    HW1 6089   2.455   0.017   4.895
 1730SOL    HW2 6090   2.609   6.985   4.872
 1731SOL     OW 6091   4.932   4.443   3.902
 1731SOL    HW1 6092   4.980   4.438   3.989
 1731SOL    HW2 6093   4.898   4.536   3.887
 1732SOL     OW 6094   3.866   3.535   4.828
 1732SOL    HW1 6095   3.857   3.521   4.926
 1732SOL    HW2 6096   3.942   3.598   4.810
 1733SOL     OW 6097   1.656   2.312   6.538
 1733SOL    HW1 6098   1.674   2.409   6.555
 1733SOL    HW2 6099   1.609   2.302   6.451
 1734SOL     OW 6100   0.260   3.895   1.023
 1734SOL    HW1 6101   0.248   3.813   1.079
 1734SOL    HW2 6102   0.357   3.911   1.008
 1735SOL     OW 6103   2.938   5.289   6.078
 1735SOL    HW1 6104   2.991   5.284   6.163
 1735SOL    HW2 6105   2.901   5.199   6.056
 1736SOL     OW 6106   5.118   2.339   6.639
 1736SOL    HW1 6107   5.149   2.355   6.733
 1736SOL    HW2 6108   5.158   2.408   6.578
 1737SOL     OW 6109   2.772   0.806   6.009
 1737SOL    HW1 6110   2.692   0.802   6.068
 1737SOL    HW2 6111   2.836   0.733   6.034
 1738SOL     OW 6112   1.642   4.056   2.135
 1738SOL    HW1 6113   1.696   3.972   2.135
 1738SOL    HW2 6114   1.596   4.065   2.046
 1739SOL     OW 6115   5.190   5.282   2.753
 1739SOL    HW1 6116   5.248   5.288   2.834
 1739SOL    HW2 6117   5.095   5.305   2.777
 1740SOL     OW 6118   6.985   2.657   5.065
 1740SOL    HW1 6119   6.891   2.662   5.099
 1740SOL    HW2 6120   7.011   2.561   5.056
 1741SOL     OW 6121   0.984   2.904   4.718
 1741SOL    HW1 6122   0.892   2.939   4.699
 1741SOL    HW2 6123   1.052   2.966   4.678
 1742SOL     OW 6124   6.077   6.927   0.058
 1742SOL    HW1 6125   6.062   6.958   0.152
 1742SOL    HW2 6126   6.051   6.999   7.012
 1743SOL     OW 6127   1.485   2.498   1.586
 1743SOL    HW1 6128   1.549   2.422   1.595
 1743SOL    HW2 6129   1.535   2.584   1.591
 1744SOL     OW 6130   3.169   2.254   5.418
 1744SOL    HW1 6131   3.075   2.274   5.445
 1744SOL    HW2 6132   3.194   2.309   5.339
 1745SOL     OW 6133   6.608   6.756   0.352
 1745SOL    HW1 6134   6.637   6.849   0.329
 1745SOL    HW2 6135   6.660   6.723   0.430
 1746SOL     OW 6136   2.578   4.976   2.977
 1746SOL    HW1 6137   2.581   5.072   3.004
 1746SOL    HW2 6138   2.489   4.954   2.939
 1747SOL     OW 6139   3.335   0.414   2.335
 1747SOL    HW1 6140   3.410   0.419   2.401
 1747SOL    HW2 6141   3.248   0.403   2.384
 1748SOL     OW 6142   6.842   1.966   3.840
 1748SOL    HW1 6143   6.837   2.066   3.839
 1748SOL    HW2 6144   6.756   1.928   3.806
 1749SOL     OW 6145   6.583   5.259   1.819
 1749SOL    HW1 6146   6.567   5.174   1.868
 1749SOL    HW2 6147   6.496   5.303   1.799
 1750SOL     OW 6148   3.088   1.420   0.717
 1750SOL    HW1 6149   3.085   1.335   0.770
 1750SOL    HW2 6150   3.116   1.400   0.623
 1751SOL     OW 6151   5.804   4.188   5.009
 1751SOL    HW1 6152   5.765   4.277   4.985
 1751SOL    HW2 6153   5.895   4.202   5.050
 1752SOL     OW 6154   6.515   0.575   2.326
 1752SOL    HW1 6155   6.544   0.565   2.231
 1752SOL    HW2 6156   6.501   0.485   2.367
 1753SOL     OW 6157   6.844   1.995   1.894
 1753SOL    HW1 6158   6.875   1.917   1.948
 1753SOL    HW2 6159   6.912   2.068   1.898
 1754SOL     OW 6160   3.034   5.715   3.702
 1754SOL    HW1 6161   2.948   5.666   3.717
 1754SOL    HW2 6162   3.018   5.813   3.711
 1755SOL     OW 6163   6.622   0.181   5.034
 1755SOL    HW1 6164   6.532   0.170   5.075
 1755SOL    HW2 6165   6.639   0.106   4.970
 1756SOL     OW 6166   4.157   6.232   1.465
 1756SOL    HW1 6167   4.164   6.135   1.490
 1756SOL    HW2 6168   4.246   6.277   1.481
 1757SOL     OW 6169   3.111   4.866   4.919
 1757SOL    HW1 6170   3.117   4.865   5.018
 1757SOL    HW2 6171   3.036   4.806   4.889
 1758SOL     OW 6172   1.127   6.054   3.724
 1758SOL    HW1 6173   1.106   6.085   3.632
 1758SOL    HW2 6174   1.224   6.032   3.731
 1759SOL     OW 6175   1.284   5.013   6.779
 1759SOL    HW1 6176   1.326   4.988   6.692
 1759SOL    HW2 6177   1.207   5.074   6.763
 1760SOL     OW 6178   6.094   1.758   4.342
 1760SOL    HW1 6179   5.995   1.776   4.347
 1760SOL    HW2 6180   6.111   1.660   4.354
 1761SOL     OW 6181   5.246   1.876   3.816
 1761SOL    HW1 6182   5.201   1.820   3.746
 1761SOL    HW2 6183   5.339   1.898   3.786
 1762SOL     OW 6184   1.025   1.552   5.623
 1762SOL    HW1 6185   1.021   1.652   5.619
 1762SOL    HW2 6186   0.975   1.513   5.546
 1763SOL     OW 6187   1.658   5.121   3.502
 1763SOL    HW1 6188   1.613   5.155   3.585
 1763SOL    HW2 6189   1.737   5.065   3.526
 1764SOL     OW 6190   1.051   6.108   3.449
 1764SOL    HW1 6191   1.004   6.171   3.388
 1764SOL    HW2 6192   1.142   6.087   3.412
 1765SOL     OW 6193   5.313   4.100   2.344
 1765SOL    HW1 6194   5.237   4.058   2.394
 1765SOL    HW2 6195   5.278   4.143   2.260
 1766SOL     OW 6196   4.686   4.524   4.310
 1766SOL    HW1 6197   4.685   4.530   4.410
 1766SOL    HW2 6198   4.777   4.496   4.279
 1767SOL     OW 6199   0.557   4.593   1.666
 1767SOL    HW1 6200   0.635   4.638   1.623
 1767SOL    HW2 6201   0.553   4.498   1.636
 1768SOL     OW 6202   3.988   4.755   2.455
 1768SOL    HW1 6203   4.032   4.751   2.544
 1768SOL    HW2 6204   3.984   4.663   2.415
 1769SOL     OW 6205   5.156   0.531   1.054
 1769SOL    HW1 6206   5.094   0.594   1.100
 1769SOL    HW2 6207   5.247   0.538   1.096
 1770SOL     OW 6208   1.790   5.206   0.522
 1770SOL    HW1 6209   1.874   5.171   0.480
 1770SOL    HW2 6210   1.798   5.305   0.536
 1771SOL     OW 6211   1.426   2.717   6.293
 1771SOL    HW1 6212   1.491   2.752   6.361
 1771SOL    HW2 6213   1.464   2.731   6.202
 1772SOL     OW 6214   2.154   4.510   3.040
 1772SOL    HW1 6215   2.068   4.460   3.046
 1772SOL    HW2 6216   2.220   4.455   2.988
 1773SOL     OW 6217   2.543   6.393   5.096
 1773SOL    HW1 6218   2.578   6.420   5.186
 1773SOL    HW2 6219   2.591   6.310   5.066
 1774SOL     OW 6220   5.672   5.578   1.575
 1774SOL    HW1 6221   5.657   5.550   1.480
 1774SOL    HW2 6222   5.583   5.599   1.617
 1775SOL     OW 6223   1.171   6.371   0.386
 1775SOL    HW1 6224   1.098   6.398   0.449
 1775SOL    HW2 6225   1.198   6.451   0.331
 1776SOL     OW 6226   4.497   3.599   5.995
 1776SOL    HW1 6227   4.430   3.623   5.924
 1776SOL    HW2 6228   4.482   3.655   6.076
 1777SOL     OW 6229   4.422   6.389   0.189
 1777SOL    HW1 6230   4.504   6.403   0.244
 1777SOL    HW2 6231   4.410   6.467   0.127
 1778SOL     OW 6232   6.602   0.072   3.427
 1778SOL    HW1 6233   6.650   0.053   3.342
 1778SOL    HW2 6234   6.583   7.004   3.475
 1779SOL     OW 6235   5.921   0.340   4.790
 1779SOL    HW1 6236   5.911   0.276   4.713
 1779SOL    HW2 6237   5.912   0.434   4.756
 1780SOL     OW 6238   3.220   6.109   4.860
 1780SOL    HW1 6239   3.307   6.077   4.898
 1780SOL    HW2 6240   3.159   6.031   4.847
 1781SOL     OW 6241   4.413   1.581   5.706
 1781SOL    HW1 6242   4.506   1.564   5.740
 1781SOL    HW2 6243   4.414   1.585   5.606
 1782SOL     OW 6244   5.038   0.563   2.189
 1782SOL    HW1 6245   5.131   0.528   2.193
 1782SOL    HW2 6246   5.013   0.600   2.278
 1783SOL     OW 6247   1.623   3.551   6.423
 1783SOL    HW1 6248   1.612   3.599   6.336
 1783SOL    HW2 6249   1.603   3.613   6.499
 1784SOL     OW 6250   2.327   6.311   1.323
 1784SOL    HW1 6251   2.417   6.356   1.323
 1784SOL    HW2 6252   2.312   6.267   1.234
 1785SOL     OW 6253   1.699   6.207   4.492
 1785SOL    HW1 6254   1.705   6.304   4.515
 1785SOL    HW2 6255   1.613   6.169   4.527
 1786SOL     OW 6256   0.668   6.063   1.665
 1786SOL    HW1 6257   0.660   6.008   1.582
 1786SOL    HW2 6258   0.732   6.138   1.649
 1787SOL     OW 6259   2.055   2.231   5.776
 1787SOL    HW1 6260   2.120   2.167   5.815
 1787SOL    HW2 6261   2.102   2.317   5.752
 1788SOL     OW 6262   3.720   3.800   0.569
 1788SOL    HW1 6263   3.745   3.782   0.664
 1788SOL    HW2 6264   3.803   3.815   0.515
 1789SOL     OW 6265   5.931   2.896   1.581
 1789SOL    HW1 6266   5.931   2.873   1.678
 1789SOL    HW2 6267   5.879   2.981   1.567
 1790SOL     OW 6268   2.343   1.667   4.795
 1790SOL    HW1 6269   2.309   1.757   4.821
 1790SOL    HW2 6270   2.443   1.670   4.787
 1791SOL     OW 6271   5.793   0.338   3.917
 1791SOL    HW1 6272   5.806   0.282   3.835
 1791SOL    HW2 6273   5.859   0.311   3.987
 1792SOL     OW 6274   6.883   2.520   6.361
 1792SOL    HW1 6275   6.880   2.611   6.321
 1792SOL    HW2 6276   6.950   2.517   6.434
 1793SOL     OW 6277   0.264   1.366   4.516
 1793SOL    HW1 6278   0.244   1.395   4.610
 1793SOL    HW2 6279   0.183   1.379   4.459
 1794SOL     OW 6280   0.225   1.595   6.660
 1794SOL    HW1 6281   0.286   1.673   6.674
 1794SOL    HW2 6282   0.146   1.624   6.605
 1795SOL     OW 6283   5.414   4.856   0.634
 1795SOL    HW1 6284   5.353   4.935   0.636
 1795SOL    HW2 6285   5.494   4.876   0.578
 1796SOL     OW 6286   5.884   6.730   0.495
 1796SOL    HW1 6287   5.829   6.769   0.568
 1796SOL    HW2 6288   5.857   6.635   0.479
 1797SOL     OW 6289   2.858   5.940   5.472
 1797SOL    HW1 6290   2.948   5.913   5.438
 1797SOL    HW2 6291   2.788   5.909   5.408
 1798SOL     OW 6292   2.318   3.446   6.040
 1798SOL    HW1 6293   2.402   3.495   6.063
 1798SOL    HW2 6294   2.333   3.348   6.051
 1799SOL     OW 6295   3.537   1.300   1.988
 1799SOL    HW1 6296   3.621   1.289   2.041
 1799SOL    HW2 6297   3.467   1.346   2.043
 1800SOL     OW 6298   6.356   2.696   5.699
 1800SOL    HW1 6299   6.332   2.628   5.629
 1800SOL    HW2 6300   6.451   2.723   5.688
 1801SOL     OW 6301   6.847   1.318   2.584
 1801SOL    HW1 6302   6.826   1.367   2.500
 1801SOL    HW2 6303   6.889   1.230   2.562
 1802SOL     OW 6304   5.870   4.687   4.225
 1802SOL    HW1 6305   5.827   4.739   4.151
 1802SOL    HW2 6306   5.967   4.678   4.206
 1803SOL     OW 6307   0.297   6.562   4.079
 1803SOL    HW1 6308   0.289   6.658   4.054
 1803SOL    HW2 6309   0.318   6.508   3.998
 1804SOL     OW 6310   1.141   2.786   6.540
 1804SOL    HW1 6311   1.233   2.787   6.503
 1804SOL    HW2 6312   1.096   2.873   6.520
 1805SOL     OW 6313   5.833   4.638   6.582
 1805SOL    HW1 6314   5.741   4.619   6.616
 1805SOL    HW2 6315   5.900   4.622   6.655
 1806SOL     OW 6316   0.697   1.978   1.505
 1806SOL    HW1 6317   0.611   1.985   1.453
 1806SOL    HW2 6318   0.747   2.064   1.497
 1807SOL     OW 6319   6.111   2.896   2.230
 1807SOL    HW1 6320   6.206   2.890   2.202
 1807SOL    HW2 6321   6.052   2.885   2.150
 1808SOL     OW 6322   5.635   0.836   6.357
 1808SOL    HW1 6323   5.642   0.835   6.457
 1808SOL    HW2 6324   5.588   0.753   6.326
 1809SOL     OW 6325   5.087   0.447   5.060
 1809SOL    HW1 6326   5.053   0.522   5.003
 1809SOL    HW2 6327   5.056   0.460   5.154
 1810SOL     OW 6328   1.241   0.974   4.506
 1810SOL    HW1 6329   1.164   1.037   4.512
 1810SOL    HW2 6330   1.238   0.910   4.583
 1811SOL     OW 6331   3.016   5.743   2.211
 1811SOL    HW1 6332   3.065   5.687   2.144
 1811SOL    HW2 6333   2.944   5.794   2.165
 1812SOL     OW 6334   4.111   0.563   6.351
 1812SOL    HW1 6335   4.046   0.633   6.321
 1812SOL    HW2 6336   4.203   0.586   6.317
 1813SOL     OW 6337   5.376   3.528   1.947
 1813SOL    HW1 6338   5.397   3.434   1.919
 1813SOL    HW2 6339   5.312   3.568   1.882
 1814SOL     OW 6340   6.626   5.828   0.935
 1814SOL    HW1 6341   6.645   5.796   0.842
 1814SOL    HW2 6342   6.701   5.803   0.995
 1815SOL     OW 6343   5.997   5.282   0.979
 1815SOL    HW1 6344   5.922   5.237   0.931
 1815SOL    HW2 6345   6.018   5.233   1.064
 1816SOL     OW 6346   3.776   5.054   4.251
 1816SOL    HW1 6347   3.692   5.097   4.283
 1816SOL    HW2 6348   3.833   5.122   4.203
 1817SOL     OW 6349   6.801   2.879   3.565
 1817SOL    HW1 6350   6.788   2.780   3.561
 1817SOL    HW2 6351   6.880   2.904   3.508
 1818SOL     OW 6352   2.152   1.566   0.582
 1818SOL    HW1 6353   2.215   1.507   0.633
 1818SOL    HW2 6354   2.189   1.659   0.579
 1819SOL     OW 6355   0.811   3.825   1.232
 1819SOL    HW1 6356   0.833   3.744   1.286
 1819SOL    HW2 6357   0.829   3.808   1.136
 1820SOL     OW 6358   3.988   6.994   5.444
 1820SOL    HW1 6359   3.913   0.002   5.506
 1820SOL    HW2 6360   4.019   6.901   5.464
 1821SOL     OW 6361   4.001   1.543   2.993
 1821SOL    HW1 6362   4.013   1.639   2.966
 1821SOL    HW2 6363   4.087   1.507   3.029
 1822SOL     OW 6364   1.869   3.930   4.190
 1822SOL    HW1 6365   1.807   4.004   4.217
 1822SOL    HW2 6366   1.960   3.967   4.173
 1823SOL     OW 6367   3.663   6.630   3.463
 1823SOL    HW1 6368   3.698   6.544   3.426
 1823SOL    HW2 6369   3.625   6.685   3.389
 1824SOL     OW 6370   4.873   3.032   1.643
 1824SOL    HW1 6371   4.843   3.096   1.573
 1824SOL    HW2 6372   4.810   3.034   1.720
 1825SOL     OW 6373   1.460   3.682   6.952
 1825SOL    HW1 6374   1.400   3.670   6.873
 1825SOL    HW2 6375   1.543   3.629   6.938
 1826SOL     OW 6376   3.513   2.889   0.613
 1826SOL    HW1 6377   3.471   2.904   0.703
 1826SOL    HW2 6378   3.559   2.800   0.613
 1827SOL     OW 6379   4.937   4.455   0.341
 1827SOL    HW1 6380   5.000   4.506   0.283
 1827SOL    HW2 6381   4.922   4.364   0.303
 1828SOL     OW 6382   2.666   4.657   4.767
 1828SOL    HW1 6383   2.714   4.666   4.854
 1828SOL    HW2 6384   2.729   4.681   4.693
 1829SOL     OW 6385   2.301   6.525   1.949
 1829SOL    HW1 6386   2.238   6.603   1.942
 1829SOL    HW2 6387   2.318   6.504   2.045
 1830SOL     OW 6388   4.337   1.416   6.608
 1830SOL    HW1 6389   4.251   1.458   6.637
 1830SOL    HW2 6390   4.386   1.382   6.688
 1831SOL     OW 6391   3.693   4.703   0.422
 1831SOL    HW1 6392   3.784   4.700   0.463
 1831SOL    HW2 6393   3.700   4.691   0.323
 1832SOL     OW 6394   2.011   3.495   5.703
 1832SOL    HW1 6395   2.013   3.595   5.708
 1832SOL    HW2 6396   2.103   3.459   5.721
 1833SOL     OW 6397   5.661   0.996   6.956
 1833SOL    HW1 6398   5.630   1.089   6.934
 1833SOL    HW2 6399   5.760   0.990   6.942
 1834SOL     OW 6400   1.642   3.817   6.222
 1834SOL    HW1 6401   1.721   3.834   6.163
 1834SOL    HW2 6402   1.574   3.889   6.209
 1835SOL     OW 6403   6.402   6.366   0.794
 1835SOL    HW1 6404   6.489   6.389   0.837
 1835SOL    HW2 6405   6.360   6.290   0.843
 1836SOL     OW 6406   6.039   2.298   3.593
 1836SOL    HW1 6407   5.990   2.238   3.656
 1836SOL    HW2 6408   6.109   2.246   3.544
 1837SOL     OW 6409   1.347   1.888   0.271
 1837SOL    HW1 6410   1.426   1.852   0.320
 1837SOL    HW2 6411   1.354   1.864   0.174
 1838SOL     OW 6412   4.920   0.428   0.592
 1838SOL    HW1 6413   4.936   0.462   0.684
 1838SOL    HW2 6414   4.924   0.504   0.527
 1839SOL     OW 6415   6.616   1.015   6.545
 1839SOL    HW1 6416   6.636   1.081   6.473
 1839SOL    HW2 6417   6.609   0.924   6.507
 1840SOL     OW 6418   3.446   0.143   5.214
 1840SOL    HW1 6419   3.501   0.150   5.130
 1840SOL    HW2 6420   3.380   0.218   5.218
 1841SOL     OW 6421   1.962   0.776   1.341
 1841SOL    HW1 6422   2.040   0.826   1.380
 1841SOL    HW2 6423   1.992   0.686   1.311
 1842SOL     OW 6424   6.977   5.174   1.058
 1842SOL    HW1 6425   6.942   5.083   1.031
 1842SOL    HW2 6426   6.908   5.221   1.113
 1843SOL     OW 6427   2.972   1.613   6.871
 1843SOL    HW1 6428   2.882   1.652   6.852
 1843SOL    HW2 6429   3.043   1.665   6.824
 1844SOL     OW 6430   5.324   3.338   0.438
 1844SOL    HW1 6431   5.366   3.403   0.502
 1844SOL    HW2 6432   5.225   3.346   0.443
 1845SOL     OW 6433   1.168   2.651   4.276
 1845SOL    HW1 6434   1.070   2.643   4.295
 1845SOL    HW2 6435   1.212   2.563   4.294
 1846SOL     OW 6436   3.544   1.581   2.268
 1846SOL    HW1 6437   3.584   1.634   2.343
 1846SOL    HW2 6438   3.535   1.640   2.187
 1847SOL     OW 6439   2.259   5.972   0.070
 1847SOL    HW1 6440   2.202   5.892   0.090
 1847SOL    HW2 6441   2.321   5.950   7.011
 1848SOL     OW 6442   4.092   6.535   3.873
 1848SOL    HW1 6443   4.000   6.568   3.893
 1848SOL    HW2 6444   4.089   6.469   3.798
 1849SOL     OW 6445   4.775   2.897   2.614
 1849SOL    HW1 6446   4.784   2.969   2.544
 1849SOL    HW2 6447   4.751   2.939   2.701
 1850SOL     OW 6448   4.437   1.782   0.979
 1850SOL    HW1 6449   4.420   1.705   1.040
 1850SOL    HW2 6450   4.438   1.867   1.031
 1851SOL     OW 6451   0.674   5.268   4.258
 1851SOL    HW1 6452   0.770   5.294   4.247
 1851SOL    HW2 6453   0.618   5.351   4.268
 1852SOL     OW 6454   0.472   6.608   3.770
 1852SOL    HW1 6455   0.553   6.635   3.717
 1852SOL    HW2 6456   0.399   6.675   3.757
 1853SOL     OW 6457   0.952   1.800   5.704
 1853SOL    HW1 6458   1.026   1.856   5.741
 1853SOL    HW2 6459   0.867   1.853   5.703
 1854SOL     OW 6460   0.521   0.096   4.234
 1854SOL    HW1 6461   0.439   0.042   4.256
 1854SOL    HW2 6462   0.528   0.105   4.134
 1855SOL     OW 6463   6.525   1.631   4.758
 1855SOL    HW1 6464   6.513   1.540   4.796
 1855SOL    HW2 6465   6.436   1.673   4.742
 1856SOL     OW 6466   4.927   4.259   6.653
 1856SOL    HW1 6467   4.898   4.267   6.749
 1856SOL    HW2 6468   4.923   4.350   6.610
 1857SOL     OW 6469   4.146   1.037   6.593
 1857SOL    HW1 6470   4.214   1.000   6.530
 1857SOL    HW2 6471   4.123   1.131   6.566
 1858SOL     OW 6472   5.480   1.730   5.117
 1858SOL    HW1 6473   5.498   1.746   5.214
 1858SOL    HW2 6474   5.413   1.656   5.108
 1859SOL     OW 6475   0.029   6.730   2.464
 1859SOL    HW1 6476   0.116   6.756   2.507
 1859SOL    HW2 6477   6.975   6.793   2.493
 1860SOL     OW 6478   2.447   0.906   6.235
 1860SOL    HW1 6479   2.376   0.836   6.234
 1860SOL    HW2 6480   2.531   0.869   6.276
 1861SOL     OW 6481   6.619   6.565   5.259
 1861SOL    HW1 6482   6.662   6.482   5.296
 1861SOL    HW2 6483   6.520   6.553   5.255
 1862SOL     OW 6484   3.467   6.139   6.090
 1862SOL    HW1 6485   3.548   6.158   6.146
 1862SOL    HW2 6486   3.480   6.053   6.040
 1863SOL     OW 6487   6.953   1.499   1.601
 1863SOL    HW1 6488   0.001   1.453   1.541
 1863SOL    HW2 6489   6.866   1.450   1.600
 1864SOL     OW 6490   1.937   6.928   2.189
 1864SOL    HW1 6491   1.967   6.938   2.283
 1864SOL    HW2 6492   1.975   6.844   2.150
 1865SOL     OW 6493   6.521   1.837   6.110
 1865SOL    HW1 6494   6.466   1.816   6.030
 1865SOL    HW2 6495   6.617   1.844   6.084
 1866SOL     OW 6496   6.587   4.633   3.953
 1866SOL    HW1 6497   6.650   4.698   3.997
 1866SOL    HW2 6498   6.640   4.559   3.911
 1867SOL     OW 6499   1.405   0.939   1.577
 1867SOL    HW1 6500   1.471   0.965   1.506
 1867SOL    HW2 6501   1.343   0.870   1.540
 1868SOL     OW 6502   4.777   3.934   5.999
 1868SOL    HW1 6503   4.835   4.010   6.030
 1868SOL    HW2 6504   4.781   3.860   6.065
 1869SOL     OW 6505   5.453   0.823   5.105
 1869SOL    HW1 6506   5.500   0.780   5.182
 1869SOL    HW2 6507   5.481   0.919   5.099
 1870SOL     OW 6508   6.196   0.434   6.103
 1870SOL    HW1 6509   6.107   0.479   6.111
 1870SOL    HW2 6510   6.184   0.339   6.074
 1871SOL     OW 6511   1.437   5.161   6.956
 1871SOL    HW1 6512   1.408   5.074   6.916
 1871SOL    HW2 6513   1.392   5.173   0.027
 1872SOL     OW 6514   2.412   3.027   0.925
 1872SOL    HW1 6515   2.358   3.061   1.002
 1872SOL    HW2 6516   2.488   2.971   0.960
 1873SOL     OW 6517   5.589   1.911   2.422
 1873SOL    HW1 6518   5.520   1.839   2.437
 1873SOL    HW2 6519   5.638   1.893   2.337
 1874SOL     OW 6520   1.622   5.742   6.409
 1874SOL    HW1 6521   1.538   5.713   6.364
 1874SOL    HW2 6522   1.652   5.830   6.371
 1875SOL     OW 6523   0.734   6.321   2.443
 1875SOL    HW1 6524   0.742   6.247   2.509
 1875SOL    HW2 6525   0.783   6.401   2.476
 1876SOL     OW 6526   0.858   4.756   0.235
 1876SOL    HW1 6527   0.891   4.751   0.141
 1876SOL    HW2 6528   0.933   4.782   0.295
 1877SOL     OW 6529   1.105   1.020   3.012
 1877SOL    HW1 6530   1.198   1.054   3.006
 1877SOL    HW2 6531   1.086   0.993   3.107
 1878SOL     OW 6532   5.516   3.800   4.642
 1878SOL    HW1 6533   5.610   3.813   4.611
 1878SOL    HW2 6534   5.512   3.723   4.705
 1879SOL     OW 6535   4.411   6.329   5.353
 1879SOL    HW1 6536   4.420   6.391   5.431
 1879SOL    HW2 6537   4.499   6.323   5.305
 1880SOL     OW 6538   1.284   2.873   4.408
 1880SOL    HW1 6539   1.223   2.807   4.363
 1880SOL    HW2 6540   1.371   2.828   4.430
 1881SOL     OW 6541   2.107   1.191   3.676
 1881SOL    HW1 6542   2.142   1.212   3.768
 1881SOL    HW2 6543   2.045   1.263   3.647
 1882SOL     OW 6544   3.694   5.552   0.840
 1882SOL    HW1 6545   3.595   5.563   0.844
 1882SOL    HW2 6546   3.735   5.633   0.797
 1883SOL     OW 6547   2.044   3.561   2.331
 1883SOL    HW1 6548   1.954   3.576   2.372
 1883SOL    HW2 6549   2.085   3.478   2.370
 1884SOL     OW 6550   4.971   0.614   0.405
 1884SOL    HW1 6551   4.915   0.634   0.324
 1884SOL    HW2 6552   4.989   0.699   0.455
 1885SOL     OW 6553   0.197   1.479   0.517
 1885SOL    HW1 6554   0.098   1.483   0.505
 1885SOL    HW2 6555   0.235   1.571   0.508
 1886SOL     OW 6556   3.346   2.933   5.561
 1886SOL    HW1 6557   3.319   2.970   5.650
 1886SOL    HW2 6558   3.362   3.009   5.498
 1887SOL     OW 6559   0.800   5.850   5.116
 1887SOL    HW1 6560   0.821   5.808   5.028
 1887SOL    HW2 6561   0.868   5.820   5.183
 1888SOL     OW 6562   1.795   1.539   6.264
 1888SOL    HW1 6563   1.822   1.619   6.317
 1888SOL    HW2 6564   1.703   1.511   6.289
 1889SOL     OW 6565   3.603   3.109   6.961
 1889SOL    HW1 6566   3.510   3.081   6.940
 1889SOL    HW2 6567   3.648   3.139   6.877
 1890SOL     OW 6568   6.467   5.840   6.231
 1890SOL    HW1 6569   6.450   5.850   6.133
 1890SOL    HW2 6570   6.550   5.786   6.245
 1891SOL     OW 6571   5.334   3.357   6.912
 1891SOL    HW1 6572   5.342   3.316   7.003
 1891SOL    HW2 6573   5.424   3.360   6.869
 1892SOL     OW 6574   4.398   0.135   3.230
 1892SOL    HW1 6575   4.392   0.120   3.328
 1892SOL    HW2 6576   4.460   0.211   3.211
 1893SOL     OW 6577   2.516   0.992   6.747
 1893SOL    HW1 6578   2.429   1.032   6.778
 1893SOL    HW2 6579   2.498   0.904   6.703
 1894SOL     OW 6580   4.935   3.129   0.552
 1894SOL    HW1 6581   4.986   3.046   0.531
 1894SOL    HW2 6582   4.994   3.209   0.538
 1895SOL     OW 6583   4.782   5.171   3.571
 1895SOL    HW1 6584   4.705   5.230   3.594
 1895SOL    HW2 6585   4.834   5.150   3.654
 1896SOL     OW 6586   6.801   1.645   4.963
 1896SOL    HW1 6587   6.702   1.641   4.951
 1896SOL    HW2 6588   6.846   1.592   4.892
 1897SOL     OW 6589   5.063   4.867   3.549
 1897SOL    HW1 6590   5.147   4.847   3.499
 1897SOL    HW2 6591   5.083   4.874   3.647
 1898SOL     OW 6592   5.678   6.309   6.934
 1898SOL    HW1 6593   5.770   6.346   6.947
 1898SOL    HW2 6594   5.621   6.333   7.012
 1899SOL     OW 6595   2.302   2.925   3.369
 1899SOL    HW1 6596   2.298   2.949   3.272
 1899SOL    HW2 6597   2.225   2.966   3.417
 1900SOL     OW 6598   2.192   5.604   1.774
 1900SOL    HW1 6599   2.143   5.516   1.775
 1900SOL    HW2 6600   2.283   5.590   1.736
 1901SOL     OW 6601   1.724   0.655   5.237
 1901SOL    HW1 6602   1.724   0.743   5.284
 1901SOL    HW2 6603   1.669   0.662   5.154
 1902SOL     OW 6604   0.934   2.948   4.131
 1902SOL    HW1 6605   0.991   3.018   4.175
 1902SOL    HW2 6606   0.917   2.874   4.196
 1903SOL     OW 6607   6.510   4.963   3.819
 1903SOL    HW1 6608   6.568   5.036   3.783
 1903SOL    HW2 6609   6.423   5.002   3.852
 1904SOL     OW 6610   1.221   0.362   3.825
 1904SOL    HW1 6611   1.237   0.292   3.756
 1904SOL    HW2 6612   1.289   0.435   3.815
 1905SOL     OW 6613   6.357   2.781   5.162
 1905SOL    HW1 6614   6.270   2.827   5.177
 1905SOL    HW2 6615   6.428   2.849   5.141
 1906SOL     OW 6616   2.240   6.788   5.424
 1906SOL    HW1 6617   2.153   6.740   5.413
 1906SOL    HW2 6618   2.250   6.817   5.519
 1907SOL     OW 6619   4.283   6.667   2.933
 1907SOL    HW1 6620   4.358   6.733   2.918
 1907SOL    HW2 6621   4.201   6.699   2.885
 1908SOL     OW 6622   4.443   5.797   1.005
 1908SOL    HW1 6623   4.433   5.824   1.100
 1908SOL    HW2 6624   4.535   5.759   0.990
 1909SOL     OW 6625   5.291   5.106   3.557
 1909SOL    HW1 6626   5.325   5.022   3.515
 1909SOL    HW2 6627   5.368   5.163   3.585
 1910SOL     OW 6628   4.933   3.628   4.442
 1910SOL    HW1 6629   5.032   3.615   4.441
 1910SOL    HW2 6630   4.894   3.603   4.353
 1911SOL     OW 6631   0.840   2.501   5.874
 1911SOL    HW1 6632   0.777   2.505   5.952
 1911SOL    HW2 6633   0.917   2.441   5.897
 1912SOL     OW 6634   3.508   6.458   2.866
 1912SOL    HW1 6635   3.499   6.507   2.780
 1912SOL    HW2 6636   3.420   6.458   2.914
 1913SOL     OW 6637   2.673   4.217   5.629
 1913SOL    HW1 6638   2.762   4.237   5.588
 1913SOL    HW2 6639   2.614   4.297   5.621
 1914SOL     OW 6640   4.455   1.555   5.044
 1914SOL    HW1 6641   4.414   1.492   5.110
 1914SOL    HW2 6642   4.453   1.513   4.953
 1915SOL     OW 6643   3.065   6.922   5.549
 1915SOL    HW1 6644   3.028   6.866   5.475
 1915SOL    HW2 6645   3.053   6.875   5.636
 1916SOL     OW 6646   3.338   6.172   2.693
 1916SOL    HW1 6647   3.348   6.106   2.618
 1916SOL    HW2 6648   3.417   6.164   2.754
 1917SOL     OW 6649   3.553   3.748   4.014
 1917SOL    HW1 6650   3.640   3.748   3.965
 1917SOL    HW2 6651   3.505   3.834   3.996
 1918SOL     OW 6652   0.157   6.641   5.088
 1918SOL    HW1 6653   0.141   6.558   5.034
 1918SOL    HW2 6654   0.074   6.666   5.136
 1919SOL     OW 6655   6.256   0.931   2.558
 1919SOL    HW1 6656   6.329   0.959   2.621
 1919SOL    HW2 6657   6.291   0.860   2.497
 1920SOL     OW 6658   6.442   6.321   5.089
 1920SOL    HW1 6659   6.398   6.273   5.164
 1920SOL    HW2 6660   6.375   6.379   5.042
 1921SOL     OW 6661   2.162   6.635   6.747
 1921SOL    HW1 6662   2.106   6.570   6.798
 1921SOL    HW2 6663   2.204   6.590   6.669
 1922SOL     OW 6664   3.534   4.027   0.484
 1922SOL    HW1 6665   3.450   4.007   0.434
 1922SOL    HW2 6666   3.583   3.941   0.503
 1923SOL     OW 6667   1.678   3.027   0.803
 1923SOL    HW1 6668   1.677   3.078   0.888
 1923SOL    HW2 6669   1.727   3.078   0.733
 1924SOL     OW 6670   0.711   3.654   0.993
 1924SOL    HW1 6671   0.802   3.617   1.011
 1924SOL    HW2 6672   0.717   3.724   0.922
 1925SOL     OW 6673   3.307   4.393   0.367
 1925SOL    HW1 6674   3.375   4.321   0.354
 1925SOL    HW2 6675   3.244   4.394   0.290
 1926SOL     OW 6676   0.713   0.732   3.830
 1926SOL    HW1 6677   0.774   0.811   3.816
 1926SOL    HW2 6678   0.722   0.700   3.924
 1927SOL     OW 6679   5.168   3.136   1.477
 1927SOL    HW1 6680   5.137   3.045   1.452
 1927SOL    HW2 6681   5.120   3.166   1.560
 1928SOL     OW 6682   0.291   5.474   4.519
 1928SOL    HW1 6683   0.252   5.482   4.611
 1928SOL    HW2 6684   0.314   5.378   4.502
 1929SOL     OW 6685   0.921   5.607   2.894
 1929SOL    HW1 6686   0.889   5.702   2.894
 1929SOL    HW2 6687   0.922   5.573   2.800
 1930SOL     OW 6688   6.716   5.288   6.038
 1930SOL    HW1 6689   6.777   5.350   6.086
 1930SOL    HW2 6690   6.726   5.196   6.076
 1931SOL     OW 6691   0.983   2.128   4.192
 1931SOL    HW1 6692   1.019   2.166   4.107
 1931SOL    HW2 6693   0.891   2.094   4.177
 1932SOL     OW 6694   6.016   3.578   2.667
 1932SOL    HW1 6695   5.967   3.516   2.727
 1932SOL    HW2 6696   6.052   3.528   2.589
 1933SOL     OW 6697   3.025   5.140   0.274
 1933SOL    HW1 6698   3.074   5.133   0.361
 1933SOL    HW2 6699   3.083   5.106   0.201
 1934SOL     OW 6700   7.009   5.993   2.816
 1934SOL    HW1 6701   6.948   5.944   2.752
 1934SOL    HW2 6702   0.037   5.927   2.875
 1935SOL     OW 6703   1.558   1.205   3.200
 1935SOL    HW1 6704   1.566   1.265   3.120
 1935SOL    HW2 6705   1.620   1.236   3.272
 1936SOL     OW 6706   0.083   6.151   5.076
 1936SOL    HW1 6707   0.156   6.153   5.144
 1936SOL    HW2 6708   7.016   6.186   5.116
 1937SOL     OW 6709   3.928   1.239   3.043
 1937SOL    HW1 6710   4.022   1.224   3.071
 1937SOL    HW2 6711   3.912   1.337   3.028
 1938SOL     OW 6712   5.840   0.232   4.498
 1938SOL    HW1 6713   5.935   0.213   4.475
 1938SOL    HW2 6714   5.780   0.175   4.441
 1939SOL     OW 6715   3.097   0.350   4.465
 1939SOL    HW1 6716   3.128   0.331   4.559
 1939SOL    HW2 6717   3.030   0.280   4.438
 1940SOL     OW 6718   6.370   6.309   6.379
 1940SOL    HW1 6719   6.327   6.228   6.339
 1940SOL    HW2 6720   6.306   6.353   6.442
 1941SOL     OW 6721   4.755   5.133   2.577
 1941SOL    HW1 6722   4.814   5.136   2.497
 1941SOL    HW2 6723   4.804   5.096   2.655
 1942SOL     OW 6724   0.236   3.824   3.158
 1942SOL    HW1 6725   0.212   3.727   3.167
 1942SOL    HW2 6726   0.178   3.878   3.219
 1943SOL     OW 6727   2.842   5.889   3.342
 1943SOL    HW1 6728   2.908   5.914   3.271
 1943SOL    HW2 6729   2.871   5.928   3.429
 1944SOL     OW 6730   0.026   6.351   1.893
 1944SOL    HW1 6731   6.945   6.332   1.890
 1944SOL    HW2 6732   0.074   6.270   1.926
 1945SOL     OW 6733   3.152   4.990   3.248
 1945SOL    HW1 6734   3.072   4.933   3.271
 1945SOL    HW2 6735   3.227   4.968   3.309
 1946SOL     OW 6736   1.179   6.683   6.824
 1946SOL    HW1 6737   1.107   6.698   6.892
 1946SOL    HW2 6738   1.152   6.724   6.737
 1947SOL     OW 6739   4.709   0.040   3.202
 1947SOL    HW1 6740   4.732   0.049   3.105
 1947SOL    HW2 6741   4.761   0.107   3.255
 1948SOL     OW 6742   6.197   3.578   4.977
 1948SOL    HW1 6743   6.214   3.491   5.023
 1948SOL    HW2 6744   6.243   3.652   5.026
 1949SOL     OW 6745   4.267   4.514   6.657
 1949SOL    HW1 6746   4.201   4.468   6.717
 1949SOL    HW2 6747   4.355   4.523   6.703
 1950SOL     OW 6748   3.663   5.259   0.884
 1950SOL    HW1 6749   3.735   5.196   0.913
 1950SOL    HW2 6750   3.694   5.353   0.898
 1951SOL     OW 6751   6.377   2.364   0.472
 1951SOL    HW1 6752   6.289   2.406   0.494
 1951SOL    HW2 6753   6.451   2.424   0.503
 1952SOL     OW 6754   3.228   3.020   4.426
 1952SOL    HW1 6755   3.161   3.053   4.359
 1952SOL    HW2 6756   3.248   2.924   4.408
 1953SOL     OW 6757   0.525   2.915   4.748
 1953SOL    HW1 6758   0.456   2.882   4.683
 1953SOL    HW2 6759   0.482   2.932   4.837
 1954SOL     OW 6760   2.406   1.664   3.959
 1954SOL    HW1 6761   2.476   1.721   4.003
 1954SOL    HW2 6762   2.361   1.607   4.029
 1955SOL     OW 6763   5.936   5.703   1.972
 1955SOL    HW1 6764   5.845   5.734   1.999
 1955SOL    HW2 6765   5.945   5.605   1.989
 1956SOL     OW 6766   4.925   5.907   2.805
 1956SOL    HW1 6767   5.013   5.863   2.788
 1956SOL    HW2 6768   4.930   5.960   2.890
 1957SOL     OW 6769   1.630   6.723   4.632
 1957SOL    HW1 6770   1.620   6.795   4.700
 1957SOL    HW2 6771   1.556   6.729   4.565
 1958SOL     OW 6772   3.936   3.866   5.763
 1958SOL    HW1 6773   3.857   3.824   5.717
 1958SOL    HW2 6774   3.923   3.860   5.862
 1959SOL     OW 6775   2.270   0.867   0.498
 1959SOL    HW1 6776   2.279   0.932   0.421
 1959SOL    HW2 6777   2.356   0.818   0.510
 1960SOL     OW 6778   5.437   5.726   2.879
 1960SOL    HW1 6779   5.427   5.793   2.952
 1960SOL    HW2 6780   5.385   5.644   2.902
 1961SOL     OW 6781   5.841   5.305   5.396
 1961SOL    HW1 6782   5.776   5.230   5.404
 1961SOL    HW2 6783   5.899   5.291   5.316
 1962SOL     OW 6784   0.022   6.591   3.907
 1962SOL    HW1 6785   6.977   6.604   3.984
 1962SOL    HW2 6786   0.047   6.680   3.868
 1963SOL     OW 6787   2.081   0.908   3.761
 1963SOL    HW1 6788   2.052   0.988   3.708
 1963SOL    HW2 6789   2.024   0.899   3.842
 1964SOL     OW 6790   6.019   3.220   2.581
 1964SOL    HW1 6791   6.036   3.197   2.676
 1964SOL    HW2 6792   6.099   3.195   2.526
 1965SOL     OW 6793   1.926   6.524   3.059
 1965SOL    HW1 6794   1.976   6.572   2.987
 1965SOL    HW2 6795   1.909   6.587   3.135
 1966SOL     OW 6796   6.336   0.300   6.749
 1966SOL    HW1 6797   6.288   0.309   6.836
 1966SOL    HW2 6798   6.411   0.234   6.758
 1967SOL     OW 6799   5.217   3.645   5.172
 1967SOL    HW1 6800   5.193   3.550   5.193
 1967SOL    HW2 6801   5.134   3.699   5.163
 1968SOL     OW 6802   3.803   4.977   4.865
 1968SOL    HW1 6803   3.836   4.900   4.811
 1968SOL    HW2 6804   3.745   5.036   4.808
 1969SOL     OW 6805   6.681   1.386   1.612
 1969SOL    HW1 6806   6.621   1.453   1.655
 1969SOL    HW2 6807   6.636   1.296   1.613
 1970SOL     OW 6808   1.760   0.782   3.531
 1970SOL    HW1 6809   1.734   0.744   3.443
 1970SOL    HW2 6810   1.768   0.708   3.598
 1971SOL     OW 6811   0.375   1.166   6.070
 1971SOL    HW1 6812   0.452   1.229   6.073
 1971SOL    HW2 6813   0.308   1.198   6.003
 1972SOL     OW 6814   1.500   0.440   3.477
 1972SOL    HW1 6815   1.578   0.457   3.539
 1972SOL    HW2 6816   1.431   0.386   3.525
 1973SOL     OW 6817   2.637   3.391   0.178
 1973SOL    HW1 6818   2.719   3.339   0.153
 1973SOL    HW2 6819   2.644   3.418   0.274
 1974SOL     OW 6820   5.907   6.795   4.437
 1974SOL    HW1 6821   5.905   6.814   4.535
 1974SOL    HW2 6822   6.000   6.771   4.410
 1975SOL     OW 6823   2.809   0.360   3.134
 1975SOL    HW1 6824   2.769   0.429   3.193
 1975SOL    HW2 6825   2.907   0.352   3.152
 1976SOL     OW 6826   6.402   3.733   6.364
 1976SOL    HW1 6827   6.475   3.769   6.305
 1976SOL    HW2 6828   6.355   3.659   6.316
 1977SOL     OW 6829   3.364   1.938   5.526
 1977SOL    HW1 6830   3.313   1.954   5.441
 1977SOL    HW2 6831   3.300   1.909   5.598
 1978SOL     OW 6832   6.941   2.518   5.425
 1978SOL    HW1 6833   6.877   2.594   5.413
 1978SOL    HW2 6834   0.017   2.549   5.407
 1979SOL     OW 6835   6.120   4.239   2.378
 1979SOL    HW1 6836   6.058   4.301   2.427
 1979SOL    HW2 6837   6.209   4.283   2.367
 1980SOL     OW 6838   2.772   1.308   1.989
 1980SOL    HW1 6839   2.743   1.221   1.951
 1980SOL    HW2 6840   2.692   1.367   2.000
 1981SOL     OW 6841   4.943   3.211   1.966
 1981SOL    HW1 6842   4.862   3.154   1.964
 1981SOL    HW2 6843   5.018   3.162   2.010
 1982SOL     OW 6844   6.932   6.972   5.160
 1982SOL    HW1 6845   6.961   6.890   5.209
 1982SOL    HW2 6846   6.996   6.990   5.085
 1983SOL     OW 6847   0.271   4.461   2.581
 1983SOL    HW1 6848   0.323   4.544   2.556
 1983SOL    HW2 6849   0.244   4.467   2.677
 1984SOL     OW 6850   4.520   0.667   4.763
 1984SOL    HW1 6851   4.470   0.728   4.824
 1984SOL    HW2 6852   4.508   0.573   4.793
 1985SOL     OW 6853   1.472   6.232   0.922
 1985SOL    HW1 6854   1.405   6.282   0.977
 1985SOL    HW2 6855   1.504   6.291   0.847
 1986SOL     OW 6856   0.140   2.811   0.117
 1986SOL    HW1 6857   0.223   2.857   0.087
 1986SOL    HW2 6858   0.084   2.873   0.171
 1987SOL     OW 6859   2.446   4.523   6.570
 1987SOL    HW1 6860   2.483   4.589   6.505
 1987SOL    HW2 6861   2.494   4.436   6.561
 1988SOL     OW 6862   4.666   3.179   0.453
 1988SOL    HW1 6863   4.756   3.180   0.498
 1988SOL    HW2 6864   4.647   3.269   0.414
 1989SOL     OW 6865   2.034   2.217   4.489
 1989SOL    HW1 6866   2.104   2.154   4.456
 1989SOL    HW2 6867   1.944   2.174   4.481
 1990SOL     OW 6868   1.448   0.626   3.034
 1990SOL    HW1 6869   1.515   0.700   3.031
 1990SOL    HW2 6870   1.356   0.664   3.044
 1991SOL     OW 6871   4.697   5.855   2.679
 1991SOL    HW1 6872   4.647   5.793   2.739
 1991SOL    HW2 6873   4.785   5.878   2.721
 1992SOL     OW 6874   2.568   6.132   5.339
 1992SOL    HW1 6875   2.559   6.229   5.357
 1992SOL    HW2 6876   2.541   6.080   5.420
 1993SOL     OW 6877   2.909   3.503   4.096
 1993SOL    HW1 6878   2.933   3.585   4.147
 1993SOL    HW2 6879   2.962   3.425   4.131
 1994SOL     OW 6880   6.324   2.208   2.170
 1994SOL    HW1 6881   6.402   2.264   2.199
 1994SOL    HW2 6882   6.298   2.147   2.245
 1995SOL     OW 6883   3.969   1.962   1.326
 1995SOL    HW1 6884   3.872   1.946   1.310
 1995SOL    HW2 6885   3.987   1.960   1.425
 1996SOL     OW 6886   2.844   4.431   5.377
 1996SOL    HW1 6887   2.777   4.360   5.354
 1996SOL    HW2 6888   2.845   4.501   5.306
 1997SOL     OW 6889   5.537   6.239   3.402
 1997SOL    HW1 6890   5.446   6.199   3.396
 1997SOL    HW2 6891   5.573   6.226   3.494
 1998SOL     OW 6892   3.205   4.996   5.253
 1998SOL    HW1 6893   3.159   4.909   5.234
 1998SOL    HW2 6894   3.249   4.993   5.342
 1999SOL     OW 6895   2.280   1.563   1.807
 1999SOL    HW1 6896   2.207   1.497   1.789
 1999SOL    HW2 6897   2.317   1.547   1.899
 2000SOL     OW 6898   3.477   1.035   4.897
 2000SOL    HW1 6899   3.527   0.949   4.900
 2000SOL    HW2 6900   3.384   1.018   4.864
 2001SOL     OW 6901   2.223   3.333   0.063
 2001SOL    HW1 6902   2.169   3.380   0.134
 2001SOL    HW2 6903   2.316   3.370   0.062
 2002SOL     OW 6904   1.240   5.250   4.926
 2002SOL    HW1 6905   1.273   5.265   4.833
 2002SOL    HW2 6906   1.153   5.298   4.939
 2003SOL     OW 6907   6.618   4.471   3.485
 2003SOL    HW1 6908   6.592   4.442   3.392
 2003SOL    HW2 6909   6.560   4.548   3.513
 2004SOL     OW 6910   3.219   6.892   6.658
 2004SOL    HW1 6911   3.227   6.862   6.563
 2004SOL    HW2 6912   3.175   6.821   6.712
 2005SOL     OW 6913   3.019   6.702   5.350
 2005SOL    HW1 6914   3.114   6.682   5.325
 2005SOL    HW2 6915   2.995   6.653   5.433
 2006SOL     OW 6916   4.940   6.410   3.237
 2006SOL    HW1 6917   4.880   6.342   3.278
 2006SOL    HW2 6918   4.971   6.379   3.148
 2007SOL     OW 6919   6.529   5.662   0.015
 2007SOL    HW1 6920   6.526   5.729   6.958
 2007SOL    HW2 6921   6.532   5.569   6.994
 2008SOL     OW 6922   0.282   6.127   5.322
 2008SOL    HW1 6923   0.360   6.128   5.260
 2008SOL    HW2 6924   0.244   6.034   5.326
 2009SOL     OW 6925   1.121   0.264   6.723
 2009SOL    HW1 6926   1.056   0.193   6.697
 2009SOL    HW2 6927   1.125   0.272   6.822
 2010SOL     OW 6928   1.756   1.024   1.176
 2010SOL    HW1 6929   1.674   1.049   1.227
 2010SOL    HW2 6930   1.731   1.000   1.082
 2011SOL     OW 6931   0.157   2.061   5.056
 2011SOL    HW1 6932   0.125   2.074   5.149
 2011SOL    HW2 6933   0.111   1.983   5.014
 2012SOL     OW 6934   6.671   2.893   0.832
 2012SOL    HW1 6935   6.753   2.870   0.781
 2012SOL    HW2 6936   6.694   2.909   0.928
 2013SOL     OW 6937   4.233   2.167   1.857
 2013SOL    HW1 6938   4.269   2.217   1.935
 2013SOL    HW2 6939   4.134   2.180   1.852
 2014SOL     OW 6940   3.209   6.005   3.504
 2014SOL    HW1 6941   3.174   5.917   3.474
 2014SOL    HW2 6942   3.296   5.992   3.552
 2015SOL     OW 6943   3.270   6.444   0.259
 2015SOL    HW1 6944   3.337   6.393   0.205
 2015SOL    HW2 6945   3.181   6.440   0.213
 2016SOL     OW 6946   6.551   5.901   4.050
 2016SOL    HW1 6947   6.597   5.957   4.119
 2016SOL    HW2 6948   6.571   5.937   3.959
 2017SOL     OW 6949   2.213   4.898   2.073
 2017SOL    HW1 6950   2.292   4.957   2.089
 2017SOL    HW2 6951   2.136   4.928   2.129
 2018SOL     OW 6952   0.525   3.737   6.092
 2018SOL    HW1 6953   0.556   3.800   6.021
 2018SOL    HW2 6954   0.464   3.669   6.051
 2019SOL     OW 6955   5.681   1.593   2.841
 2019SOL    HW1 6956   5.656   1.613   2.746
 2019SOL    HW2 6957   5.670   1.495   2.858
 2020SOL     OW 6958   2.098   5.566   3.080
 2020SOL    HW1 6959   2.033   5.500   3.044
 2020SOL    HW2 6960   2.072   5.658   3.052
 2021SOL     OW 6961   2.110   0.301   1.788
 2021SOL    HW1 6962   2.027   0.355   1.780
 2021SOL    HW2 6963   2.177   0.331   1.720
 2022SOL     OW 6964   2.927   4.928   1.119
 2022SOL    HW1 6965   3.020   4.893   1.127
 2022SOL    HW2 6966   2.893   4.913   1.026
 2023SOL     OW 6967   6.478   1.388   6.246
 2023SOL    HW1 6968   6.397   1.407   6.190
 2023SOL    HW2 6969   6.449   1.350   6.334
 2024SOL     OW 6970   6.087   0.417   2.955
 2024SOL    HW1 6971   6.147   0.339   2.935
 2024SOL    HW2 6972   6.012   0.420   2.889
 2025SOL     OW 6973   6.158   0.679   0.770
 2025SOL    HW1 6974   6.141   0.715   0.862
 2025SOL    HW2 6975   6.184   0.583   0.776
 2026SOL     OW 6976   1.749   1.959   4.954
 2026SOL    HW1 6977   1.725   1.862   4.956
 2026SOL    HW2 6978   1.712   2.003   5.036
 2027SOL     OW 6979   0.373   0.944   2.433
 2027SOL    HW1 6980   0.294   1.000   2.407
 2027SOL    HW2 6981   0.395   0.962   2.529
 2028SOL     OW 6982   3.554   4.265   5.873
 2028SOL    HW1 6983   3.606   4.306   5.798
 2028SOL    HW2 6984   3.467   4.312   5.882
 2029SOL     OW 6985   1.766   0.396   0.455
 2029SOL    HW1 6986   1.729   0.489   0.453
 2029SOL    HW2 6987   1.858   0.396   0.415
 2030SOL     OW 6988   1.756   2.713   3.212
 2030SOL    HW1 6989   1.765   2.632   3.154
 2030SOL    HW2 6990   1.845   2.738   3.248
 2031SOL     OW 6991   5.794   0.043   2.775
 2031SOL    HW1 6992   5.823   6.965   2.766
 2031SOL    HW2 6993   5.859   0.092   2.832
 2032SOL     OW 6994   4.532   6.200   1.796
 2032SOL    HW1 6995   4.502   6.295   1.783
 2032SOL    HW2 6996   4.531   6.178   1.893
 2033SOL     OW 6997   0.035   5.137   6.911
 2033SOL    HW1 6998   0.034   5.157   7.009
 2033SOL    HW2 6999   6.983   5.068   6.890
 2034SOL     OW 7000   2.070   6.240   3.357
 2034SOL    HW1 7001   2.147   6.280   3.308
 2034SOL    HW2 7002   2.092   6.235   3.455
 2035SOL     OW 7003   0.515   2.249   1.976
 2035SOL    HW1 7004   0.453   2.276   1.903
 2035SOL    HW2 7005   0.498   2.306   2.057
 2036SOL     OW 7006   0.475   4.448   0.654
 2036SOL    HW1 7007   0.504   4.535   0.615
 2036SOL    HW2 7008   0.479   4.453   0.754
 2037SOL     OW 7009   0.349   1.883   6.667
 2037SOL    HW1 7010   0.325   1.856   6.573
 2037SOL    HW2 7011   0.295   1.964   6.692
 2038SOL     OW 7012   1.174   0.298   4.766
 2038SOL    HW1 7013   1.123   0.227   4.814
 2038SOL    HW2 7014   1.261   0.260   4.734
 2039SOL     OW 7015   1.206   5.390   1.905
 2039SOL    HW1 7016   1.162   5.388   1.815
 2039SOL    HW2 7017   1.146   5.346   1.972
 2040SOL     OW 7018   3.887   4.000   4.289
 2040SOL    HW1 7019   3.862   4.068   4.220
 2040SOL    HW2 7020   3.819   3.927   4.290
 2041SOL     OW 7021   5.573   2.811   6.989
 2041SOL    HW1 7022   5.645   2.860   0.023
 2041SOL    HW2 7023   5.497   2.873   6.971
 2042SOL     OW 7024   3.298   5.888   0.408
 2042SOL    HW1 7025   3.362   5.866   0.482
 2042SOL    HW2 7026   3.315   5.826   0.331
 2043SOL     OW 7027   4.297   5.010   2.546
 2043SOL    HW1 7028   4.227   5.019   2.474
 2043SOL    HW2 7029   4.381   4.974   2.505
 2044SOL     OW 7030   6.464   0.799   1.719
 2044SOL    HW1 7031   6.370   0.827   1.742
 2044SOL    HW2 7032   6.528   0.845   1.780
 2045SOL     OW 7033   2.768   6.178   6.242
 2045SOL    HW1 7034   2.727   6.092   6.211
 2045SOL    HW2 7035   2.752   6.249   6.174
 2046SOL     OW 7036   6.385   0.241   5.273
 2046SOL    HW1 7037   6.355   0.292   5.353
 2046SOL    HW2 7038   6.485   0.230   5.276
 2047SOL     OW 7039   4.783   2.481   0.257
 2047SOL    HW1 7040   4.745   2.570   0.235
 2047SOL    HW2 7041   4.759   2.457   0.352
 2048SOL     OW 7042   4.920   6.226   5.480
 2048SOL    HW1 7043   4.872   6.184   5.403
 2048SOL    HW2 7044   4.857   6.285   5.531
 2049SOL     OW 7045   5.035   6.174   0.268
 2049SOL    HW1 7046   5.021   6.273   0.279
 2049SOL    HW2 7047   4.950   6.132   0.238
 2050SOL     OW 7048   5.583   0.331   4.108
 2050SOL    HW1 7049   5.665   0.374   4.069
 2050SOL    HW2 7050   5.509   0.398   4.112
 2051SOL     OW 7051   2.904   5.228   0.749
 2051SOL    HW1 7052   2.805   5.211   0.744
 2051SOL    HW2 7053   2.923   5.322   0.723
 2052SOL     OW 7054   1.378   3.077   0.642
 2052SOL    HW1 7055   1.425   3.073   0.730
 2052SOL    HW2 7056   1.342   3.169   0.627
 2053SOL     OW 7057   5.602   1.645   0.681
 2053SOL    HW1 7058   5.511   1.623   0.715
 2053SOL    HW2 7059   5.633   1.731   0.723
 2054SOL     OW 7060   6.969   3.476   1.322
 2054SOL    HW1 7061   0.039   3.454   1.367
 2054SOL    HW2 7062   6.902   3.502   1.392
 2055SOL     OW 7063   6.313   1.950   3.911
 2055SOL    HW1 7064   6.333   1.950   4.009
 2055SOL    HW2 7065   6.360   2.027   3.867
 2056SOL     OW 7066   0.932   0.039   1.820
 2056SOL    HW1 7067   0.884   0.001   1.899
 2056SOL    HW2 7068   0.972   0.127   1.844
 2057SOL     OW 7069   5.758   2.502   4.675
 2057SOL    HW1 7070   5.706   2.549   4.747
 2057SOL    HW2 7071   5.856   2.513   4.692
 2058SOL     OW 7072   0.670   1.774   1.892
 2058SOL    HW1 7073   0.694   1.717   1.813
 2058SOL    HW2 7074   0.753   1.801   1.940
 2059SOL     OW 7075   1.525   0.329   6.470
 2059SOL    HW1 7076   1.606   0.298   6.420
 2059SOL    HW2 7077   1.551   0.404   6.531
 2060SOL     OW 7078   0.089   5.423   2.055
 2060SOL    HW1 7079   0.036   5.432   1.971
 2060SOL    HW2 7080   0.027   5.414   2.134
 2061SOL     OW 7081   0.928   1.286   1.382
 2061SOL    HW1 7082   0.979   1.359   1.427
 2061SOL    HW2 7083   0.961   1.275   1.288
 2062SOL     OW 7084   4.327   0.340   3.818
 2062SOL    HW1 7085   4.328   0.347   3.918
 2062SOL    HW2 7086   4.264   0.268   3.790
 2063SOL     OW 7087   2.113   1.845   0.802
 2063SOL    HW1 7088   2.200   1.857   0.755
 2063SOL    HW2 7089   2.041   1.831   0.735
 2064SOL     OW 7090   1.080   1.940   0.285
 2064SOL    HW1 7091   1.066   2.031   0.246
 2064SOL    HW2 7092   1.178   1.920   0.288
 2065SOL     OW 7093   6.814   3.625   2.577
 2065SOL    HW1 7094   6.797   3.645   2.674
 2065SOL    HW2 7095   6.726   3.615   2.530
 2066SOL     OW 7096   1.314   6.539   3.123
 2066SOL    HW1 7097   1.258   6.595   3.062
 2066SOL    HW2 7098   1.407   6.576   3.126
 2067SOL     OW 7099   6.904   0.011   0.820
 2067SOL    HW1 7100   6.965   6.956   0.853
 2067SOL    HW2 7101   6.878   0.070   0.897
 2068SOL     OW 7102   2.252   1.575   5.180
 2068SOL    HW1 7103   2.255   1.658   5.124
 2068SOL    HW2 7104   2.175   1.581   5.245
 2069SOL     OW 7105   1.373   1.930   1.620
 2069SOL    HW1 7106   1.394   1.982   1.703
 2069SOL    HW2 7107   1.347   1.837   1.645
 2070SOL     OW 7108   0.741   0.903   2.691
 2070SOL    HW1 7109   0.835   0.870   2.689
 2070SOL    HW2 7110   0.726   0.956   2.775
 2071SOL     OW 7111   2.259   5.983   5.104
 2071SOL    HW1 7112   2.224   5.919   5.172
 2071SOL    HW2 7113   2.236   5.950   5.012
 2072SOL     OW 7114   4.868   4.600   2.011
 2072SOL    HW1 7115   4.817   4.685   2.027
 2072SOL    HW2 7116   4.926   4.580   2.090
 2073SOL     OW 7117   3.395   6.528   5.237
 2073SOL    HW1 7118   3.403   6.557   5.142
 2073SOL    HW2 7119   3.354   6.436   5.240
 2074SOL     OW 7120   6.167   2.490   2.555
 2074SOL    HW1 7121   6.149   2.514   2.651
 2074SOL    HW2 7122   6.080   2.475   2.508
 2075SOL     OW 7123   3.487   3.753   5.883
 2075SOL    HW1 7124   3.478   3.714   5.975
 2075SOL    HW2 7125   3.446   3.691   5.817
 2076SOL     OW 7126   5.004   0.338   1.147
 2076SOL    HW1 7127   4.916   0.335   1.100
 2076SOL    HW2 7128   5.067   0.395   1.095
 2077SOL     OW 7129   4.991   1.134   3.473
 2077SOL    HW1 7130   5.077   1.127   3.524
 2077SOL    HW2 7131   4.918   1.091   3.525
 2078SOL     OW 7132   3.861   5.382   4.766
 2078SOL    HW1 7133   3.835   5.388   4.862
 2078SOL    HW2 7134   3.792   5.428   4.710
 2079SOL     OW 7135   5.292   0.527   3.767
 2079SOL    HW1 7136   5.388   0.502   3.779
 2079SOL    HW2 7137   5.245   0.528   3.855
 2080SOL     OW 7138   2.774   1.802   4.104
 2080SOL    HW1 7139   2.851   1.812   4.041
 2080SOL    HW2 7140   2.768   1.708   4.135
 2081SOL     OW 7141   1.512   6.397   4.296
 2081SOL    HW1 7142   1.509   6.307   4.252
 2081SOL    HW2 7143   1.489   6.388   4.393
 2082SOL     OW 7144   4.784   0.881   1.997
 2082SOL    HW1 7145   4.814   0.865   2.092
 2082SOL    HW2 7146   4.706   0.823   1.977
 2083SOL     OW 7147   3.692   4.733   5.922
 2083SOL    HW1 7148   3.662   4.733   5.826
 2083SOL    HW2 7149   3.782   4.690   5.928
 2084SOL     OW 7150   6.847   2.318   2.591
 2084SOL    HW1 7151   6.941   2.309   2.623
 2084SOL    HW2 7152   6.835   2.267   2.506
 2085SOL     OW 7153   5.780   5.903   6.790
 2085SOL    HW1 7154   5.744   5.948   6.708
 2085SOL    HW2 7155   5.863   5.951   6.820
 2086SOL     OW 7156   3.902   5.425   0.070
 2086SOL    HW1 7157   3.804   5.428   0.055
 2086SOL    HW2 7158   3.924   5.348   0.131
 2087SOL     OW 7159   6.315   5.847   3.590
 2087SOL    HW1 7160   6.305   5.924   3.653
 2087SOL    HW2 7161   6.259   5.770   3.623
 2088SOL     OW 7162   2.229   0.427   0.931
 2088SOL    HW1 7163   2.146   0.428   0.987
 2088SOL    HW2 7164   2.204   0.425   0.834
 2089SOL     OW 7165   2.654   0.837   0.211
 2089SOL    HW1 7166   2.752   0.831   0.225
 2089SOL    HW2 7167   2.634   0.913   0.148
 2090SOL     OW 7168   3.052   3.139   3.708
 2090SOL    HW1 7169   3.040   3.229   3.750
 2090SOL    HW2 7170   3.105   3.081   3.770
 2091SOL     OW 7171   2.298   4.977   0.783
 2091SOL    HW1 7172   2.219   5.038   0.780
 2091SOL    HW2 7173   2.291   4.910   0.710
 2092SOL     OW 7174   6.893   6.129   1.248
 2092SOL    HW1 7175   6.949   6.108   1.168
 2092SOL    HW2 7176   6.948   6.175   1.317
 2093SOL     OW 7177   1.245   2.838   1.330
 2093SOL    HW1 7178   1.294   2.847   1.244
 2093SOL    HW2 7179   1.162   2.784   1.316
 2094SOL     OW 7180   6.141   0.600   1.580
 2094SOL    HW1 7181   6.117   0.682   1.631
 2094SOL    HW2 7182   6.108   0.519   1.629
 2095SOL     OW 7183   6.747   4.797   4.699
 2095SOL    HW1 7184   6.729   4.876   4.640
 2095SOL    HW2 7185   6.744   4.826   4.795
 2096SOL     OW 7186   4.844   3.811   3.320
 2096SOL    HW1 7187   4.891   3.755   3.388
 2096SOL    HW2 7188   4.834   3.759   3.235
 2097SOL     OW 7189   6.277   3.713   6.621
 2097SOL    HW1 7190   6.337   3.660   6.681
 2097SOL    HW2 7191   6.316   3.716   6.529
 2098SOL     OW 7192   4.383   6.977   3.788
 2098SOL    HW1 7193   4.315   0.029   3.766
 2098SOL    HW2 7194   4.370   6.897   3.729
 2099SOL     OW 7195   2.840   1.983   2.965
 2099SOL    HW1 7196   2.854   2.065   3.020
 2099SOL    HW2 7197   2.800   1.911   3.022
 2100SOL     OW 7198   3.383   4.845   6.872
 2100SOL    HW1 7199   3.398   4.938   6.839
 2100SOL    HW2 7200   3.330   4.848   6.957
 2101SOL     OW 7201   0.184   0.732   2.161
 2101SOL    HW1 7202   0.192   0.658   2.094
 2101SOL    HW2 7203   0.204   0.697   2.252
 2102SOL     OW 7204   0.224   5.063   1.861
 2102SOL    HW1 7205   0.182   5.045   1.950
 2102SOL    HW2 7206   0.214   4.984   1.802
 2103SOL     OW 7207   2.741   3.293   6.069
 2103SOL    HW1 7208   2.734   3.357   6.145
 2103SOL    HW2 7209   2.830   3.304   6.024
 2104SOL     OW 7210   1.233   3.912   5.484
 2104SOL    HW1 7211   1.170   3.906   5.562
 2104SOL    HW2 7212   1.186   3.880   5.401
 2105SOL     OW 7213   5.961   5.632   1.436
 2105SOL    HW1 7214   5.996   5.722   1.410
 2105SOL    HW2 7215   5.939   5.632   1.534
 2106SOL     OW 7216   6.096   5.392   6.575
 2106SOL    HW1 7217   6.005   5.386   6.534
 2106SOL    HW2 7218   6.093   5.355   6.668
 2107SOL     OW 7219   2.919   4.615   0.253
 2107SOL    HW1 7220   2.859   4.695   0.257
 2107SOL    HW2 7221   2.919   4.568   0.341
 2108SOL     OW 7222   5.570   4.174   6.045
 2108SOL    HW1 7223   5.600   4.269   6.043
 2108SOL    HW2 7224   5.584   4.133   5.955
 2109SOL     OW 7225   5.591   6.198   2.774
 2109SOL    HW1 7226   5.531   6.123   2.746
 2109SOL    HW2 7227   5.686   6.168   2.770
 2110SOL     OW 7228   2.050   4.892   4.706
 2110SOL    HW1 7229   1.969   4.872   4.761
 2110SOL    HW2 7230   2.030   4.877   4.610
 2111SOL     OW 7231   1.949   2.853   0.230
 2111SOL    HW1 7232   1.981   2.846   0.325
 2111SOL    HW2 7233   2.004   2.919   0.180
 2112SOL     OW 7234   5.745   3.406   0.631
 2112SOL    HW1 7235   5.765   3.310   0.647
 2112SOL    HW2 7236   5.646   3.420   0.632
 2113SOL     OW 7237   6.325   1.361   3.100
 2113SOL    HW1 7238   6.287   1.451   3.077
 2113SOL    HW2 7239   6.405   1.343   3.042
 2114SOL     OW 7240   2.025   3.427   0.241
 2114SOL    HW1 7241   1.984   3.372   0.314
 2114SOL    HW2 7242   1.955   3.449   0.173
 2115SOL     OW 7243   2.980   5.744   1.626
 2115SOL    HW1 7244   3.067   5.759   1.579
 2115SOL    HW2 7245   2.932   5.668   1.583
 2116SOL     OW 7246   0.395   4.302   3.515
 2116SOL    HW1 7247   0.366   4.208   3.531
 2116SOL    HW2 7248   0.404   4.317   3.416
 2117SOL     OW 7249   0.288   5.810   6.231
 2117SOL    HW1 7250   0.239   5.893   6.205
 2117SOL    HW2 7251   0.373   5.834   6.277
 2118SOL     OW 7252   0.052   3.406   2.105
 2118SOL    HW1 7253   0.101   3.412   2.192
 2118SOL    HW2 7254   7.006   3.329   2.108
 2119SOL     OW 7255   3.631   6.555   1.123
 2119SOL    HW1 7256   3.617   6.547   1.222
 2119SOL    HW2 7257   3.714   6.506   1.097
 2120SOL     OW 7258   6.467   4.592   2.564
 2120SOL    HW1 7259   6.420   4.517   2.611
 2120SOL    HW2 7260   6.492   4.662   2.631
 2121SOL     OW 7261   0.860   4.077   4.578
 2121SOL    HW1 7262   0.835   4.011   4.506
 2121SOL    HW2 7263   0.824   4.045   4.666
 2122SOL     OW 7264   4.580   4.696   5.494
 2122SOL    HW1 7265   4.526   4.671   5.574
 2122SOL    HW2 7266   4.547   4.645   5.414
 2123SOL     OW 7267   4.392   4.591   3.740
 2123SOL    HW1 7268   4.387   4.583   3.840
 2123SOL    HW2 7269   4.464   4.531   3.706
 2124SOL     OW 7270   3.202   1.840   1.710
 2124SOL    HW1 7271   3.288   1.801   1.745
 2124SOL    HW2 7272   3.187   1.809   1.616
 2125SOL     OW 7273   4.433   6.589   0.431
 2125SOL    HW1 7274   4.335   6.603   0.441
 2125SOL    HW2 7275   4.463   6.518   0.495
 2126SOL     OW 7276   3.089   1.023   2.036
 2126SOL    HW1 7277   2.995   1.051   2.015
 2126SOL    HW2 7278   3.116   1.061   2.124
 2127SOL     OW 7279   5.709   2.946   5.184
 2127SOL    HW1 7280   5.700   3.021   5.249
 2127SOL    HW2 7281   5.710   2.982   5.091
 2128SOL     OW 7282   0.828   4.433   4.218
 2128SOL    HW1 7283   0.822   4.419   4.119
 2128SOL    HW2 7284   0.879   4.358   4.259
 2129SOL     OW 7285   4.167   1.917   5.942
 2129SOL    HW1 7286   4.182   1.989   5.874
 2129SOL    HW2 7287   4.188   1.828   5.902
 2130SOL     OW 7288   5.057   0.903   3.212
 2130SOL    HW1 7289   4.959   0.891   3.228
 2130SOL    HW2 7290   5.089   0.833   3.148
 2131SOL     OW 7291   5.256   1.594   6.608
 2131SOL    HW1 7292   5.281   1.684   6.574
 2131SOL    HW2 7293   5.198   1.548   6.540
 2132SOL     OW 7294   1.660   3.682   0.796
 2132SOL    HW1 7295   1.742   3.733   0.772
 2132SOL    HW2 7296   1.626   3.713   0.884
 2133SOL     OW 7297   2.337   3.776   5.816
 2133SOL    HW1 7298   2.321   3.786   5.718
 2133SOL    HW2 7299   2.434   3.793   5.836
 2134SOL     OW 7300   0.142   6.590   1.258
 2134SOL    HW1 7301   0.086   6.529   1.202
 2134SOL    HW2 7302   0.174   6.540   1.339
 2135SOL     OW 7303   6.807   4.354   5.111
 2135SOL    HW1 7304   6.905   4.371   5.101
 2135SOL    HW2 7305   6.784   4.266   5.068
 2136SOL     OW 7306   0.854   5.283   0.432
 2136SOL    HW1 7307   0.849   5.244   0.340
 2136SOL    HW2 7308   0.767   5.268   0.479
 2137SOL     OW 7309   1.586   6.131   4.236
 2137SOL    HW1 7310   1.630   6.137   4.326
 2137SOL    HW2 7311   1.655   6.134   4.164
 2138SOL     OW 7312   4.858   2.003   2.142
 2138SOL    HW1 7313   4.866   1.977   2.238
 2138SOL    HW2 7314   4.761   2.003   2.116
 2139SOL     OW 7315   2.801   0.016   5.153
 2139SOL    HW1 7316   2.773   0.054   5.241
 2139SOL    HW2 7317   2.828   6.938   5.165
 2140SOL     OW 7318   2.533   1.431   4.321
 2140SOL    HW1 7319   2.502   1.372   4.247
 2140SOL    HW2 7320   2.507   1.390   4.409
 2141SOL     OW 7321   6.594   3.257   3.256
 2141SOL    HW1 7322   6.578   3.252   3.158
 2141SOL    HW2 7323   6.568   3.347   3.290
 2142SOL     OW 7324   1.385   2.564   2.664
 2142SOL    HW1 7325   1.291   2.599   2.664
 2142SOL    HW2 7326   1.426   2.577   2.573
 2143SOL     OW 7327   0.512   5.042   5.909
 2143SOL    HW1 7328   0.453   5.083   5.839
 2143SOL    HW2 7329   0.593   5.004   5.867
 2144SOL     OW 7330   6.491   4.459   3.230
 2144SOL    HW1 7331   6.494   4.396   3.152
 2144SOL    HW2 7332   6.512   4.552   3.198
 2145SOL     OW 7333   4.293   1.342   3.520
 2145SOL    HW1 7334   4.391   1.338   3.497
 2145SOL    HW2 7335   4.283   1.355   3.618
 2146SOL     OW 7336   2.454   2.551   6.598
 2146SOL    HW1 7337   2.551   2.528   6.601
 2146SOL    HW2 7338   2.442   2.648   6.618
 2147SOL     OW 7339   6.000   6.510   4.184
 2147SOL    HW1 7340   5.902   6.514   4.168
 2147SOL    HW2 7341   6.026   6.415   4.204
 2148SOL     OW 7342   0.364   2.808   5.580
 2148SOL    HW1 7343   0.401   2.756   5.656
 2148SOL    HW2 7344   0.435   2.821   5.511
 2149SOL     OW 7345   0.745   6.815   0.071
 2149SOL    HW1 7346   0.715   6.785   6.997
 2149SOL    HW2 7347   0.669   6.805   0.135
 2150SOL     OW 7348   1.727   3.436   0.887
 2150SOL    HW1 7349   1.687   3.440   0.979
 2150SOL    HW2 7350   1.699   3.517   0.835
 2151SOL     OW 7351   0.917   4.763   6.987
 2151SOL    HW1 7352   1.008   4.735   6.958
 2151SOL    HW2 7353   0.904   4.861   6.970
 2152SOL     OW 7354   5.340   6.072   4.016
 2152SOL    HW1 7355   5.438   6.094   4.021
 2152SOL    HW2 7356   5.287   6.155   4.031
 2153SOL     OW 7357   5.179   6.867   4.343
 2153SOL    HW1 7358   5.220   6.956   4.364
 2153SOL    HW2 7359   5.105   6.848   4.406
 2154SOL     OW 7360   2.408   0.211   2.485
 2154SOL    HW1 7361   2.434   0.291   2.431
 2154SOL    HW2 7362   2.401   0.131   2.425
 2155SOL     OW 7363   4.197   0.450   0.994
 2155SOL    HW1 7364   4.131   0.376   0.984
 2155SOL    HW2 7365   4.151   0.529   1.035
 2156SOL     OW 7366   5.509   2.049   4.841
 2156SOL    HW1 7367   5.521   1.996   4.925
 2156SOL    HW2 7368   5.599   2.071   4.802
 2157SOL     OW 7369   3.895   6.508   4.511
 2157SOL    HW1 7370   3.919   6.428   4.567
 2157SOL    HW2 7371   3.886   6.588   4.570
 2158SOL     OW 7372   2.934   6.773   0.300
 2158SOL    HW1 7373   2.866   6.715   0.345
 2158SOL    HW2 7374   2.913   6.779   0.202
 2159SOL     OW 7375   0.530   1.095   5.499
 2159SOL    HW1 7376   0.517   1.070   5.403
 2159SOL    HW2 7377   0.560   1.191   5.504
 2160SOL     OW 7378   5.529   0.185   0.186
 2160SOL    HW1 7379   5.501   0.226   0.272
 2160SOL    HW2 7380   5.577   0.253   0.130
 2161SOL     OW 7381   1.688   3.412   0.369
 2161SOL    HW1 7382   1.741   3.496   0.357
 2161SOL    HW2 7383   1.751   3.336   0.388
 2162SOL     OW 7384   1.575   0.498   1.532
 2162SOL    HW1 7385   1.551   0.570   1.598
 2162SOL    HW2 7386   1.505   0.427   1.533
 2163SOL     OW 7387   1.794   3.637   3.215
 2163SOL    HW1 7388   1.757   3.548   3.190
 2163SOL    HW2 7389   1.893   3.637   3.203
 2164SOL     OW 7390   2.127   3.713   2.098
 2164SOL    HW1 7391   2.171   3.642   2.042
 2164SOL    HW2 7392   2.099   3.673   2.185
 2165SOL     OW 7393   6.367   1.226   4.532
 2165SOL    HW1 7394   6.460   1.260   4.547
 2165SOL    HW2 7395   6.305   1.268   4.599
 2166SOL     OW 7396   6.891   3.145   1.993
 2166SOL    HW1 7397   6.803   3.108   1.962
 2166SOL    HW2 7398   6.958   3.138   1.920
 2167SOL     OW 7399   1.930   1.975   3.073
 2167SOL    HW1 7400   1.974   1.967   2.984
 2167SOL    HW2 7401   1.833   1.952   3.065
 2168SOL     OW 7402   1.918   1.753   3.484
 2168SOL    HW1 7403   1.909   1.835   3.541
 2168SOL    HW2 7404   2.009   1.713   3.498
 2169SOL     OW 7405   6.650   6.759   1.324
 2169SOL    HW1 7406   6.565   6.798   1.360
 2169SOL    HW2 7407   6.693   6.825   1.262
 2170SOL     OW 7408   1.468   3.715   5.961
 2170SOL    HW1 7409   1.447   3.652   5.885
 2170SOL    HW2 7410   1.489   3.661   6.043
 2171SOL     OW 7411   6.686   6.093   0.896
 2171SOL    HW1 7412   6.655   6.178   0.940
 2171SOL    HW2 7413   6.630   6.017   0.928
 2172SOL     OW 7414   2.508   1.675   5.454
 2172SOL    HW1 7415   2.429   1.621   5.424
 2172SOL    HW2 7416   2.509   1.762   5.404
 2173SOL     OW 7417   5.114   0.361   4.701
 2173SOL    HW1 7418   5.194   0.404   4.743
 2173SOL    HW2 7419   5.102   0.269   4.739
 2174SOL     OW 7420   5.709   0.381   5.871
 2174SOL    HW1 7421   5.727   0.479   5.871
 2174SOL    HW2 7422   5.615   0.365   5.901
 2175SOL     OW 7423   2.935   3.581   5.370
 2175SOL    HW1 7424   2.882   3.624   5.443
 2175SOL    HW2 7425   2.967   3.651   5.306
 2176SOL     OW 7426   5.640   2.111   3.113
 2176SOL    HW1 7427   5.625   2.033   3.053
 2176SOL    HW2 7428   5.637   2.196   3.060
 2177SOL     OW 7429   1.082   1.185   4.939
 2177SOL    HW1 7430   1.056   1.157   4.846
 2177SOL    HW2 7431   1.178   1.212   4.940
 2178SOL     OW 7432   1.375   2.445   2.905
 2178SOL    HW1 7433   1.361   2.346   2.905
 2178SOL    HW2 7434   1.378   2.478   2.811
 2179SOL     OW 7435   1.635   3.786   6.644
 2179SOL    HW1 7436   1.638   3.853   6.570
 2179SOL    HW2 7437   1.727   3.771   6.680
 2180SOL     OW 7438   0.659   5.776   2.828
 2180SOL    HW1 7439   0.624   5.703   2.887
 2180SOL    HW2 7440   0.696   5.737   2.744
 2181SOL     OW 7441   4.012   4.860   4.719
 2181SOL    HW1 7442   4.069   4.804   4.659
 2181SOL    HW2 7443   4.041   4.848   4.814
 2182SOL     OW 7444   0.196   6.510   1.507
 2182SOL    HW1 7445   0.291   6.501   1.535
 2182SOL    HW2 7446   0.141   6.541   1.585
 2183SOL     OW 7447   3.306   3.055   6.558
 2183SOL    HW1 7448   3.226   3.056   6.498
 2183SOL    HW2 7449   3.378   3.000   6.516
 2184SOL     OW 7450   6.514   1.211   0.718
 2184SOL    HW1 7451   6.578   1.262   0.775
 2184SOL    HW2 7452   6.421   1.246   0.733
 2185SOL     OW 7453   0.768   0.943   5.960
 2185SOL    HW1 7454   0.789   0.847   5.980
 2185SOL    HW2 7455   0.767   0.956   5.861
 2186SOL     OW 7456   6.666   6.330   5.357
 2186SOL    HW1 7457   6.644   6.349   5.453
 2186SOL    HW2 7458   6.605   6.259   5.323
 2187SOL     OW 7459   5.889   5.407   1.667
 2187SOL    HW1 7460   5.811   5.359   1.627
 2187SOL    HW2 7461   5.858   5.464   1.743
 2188SOL     OW 7462   2.605   0.892   0.785
 2188SOL    HW1 7463   2.694   0.937   0.776
 2188SOL    HW2 7464   2.612   0.797   0.755
 2189SOL     OW 7465   1.830   1.017   1.792
 2189SOL    HW1 7466   1.787   0.947   1.735
 2189SOL    HW2 7467   1.847   1.099   1.737
 2190SOL     OW 7468   6.755   4.498   1.713
 2190SOL    HW1 7469   6.804   4.415   1.688
 2190SOL    HW2 7470   6.657   4.480   1.717
 2191SOL     OW 7471   3.506   0.390   6.763
 2191SOL    HW1 7472   3.513   0.295   6.795
 2191SOL    HW2 7473   3.534   0.452   6.835
 2192SOL     OW 7474   4.795   1.652   2.255
 2192SOL    HW1 7475   4.790   1.683   2.160
 2192SOL    HW2 7476   4.758   1.559   2.261
 2193SOL     OW 7477   2.380   0.183   5.025
 2193SOL    HW1 7478   2.361   0.195   5.122
 2193SOL    HW2 7479   2.432   0.261   4.991
 2194SOL     OW 7480   0.560   3.872   6.427
 2194SOL    HW1 7481   0.572   3.929   6.346
 2194SOL    HW2 7482   0.462   3.852   6.439
 2195SOL     OW 7483   0.130   3.953   4.653
 2195SOL    HW1 7484   0.226   3.930   4.668
 2195SOL    HW2 7485   0.125   4.043   4.610
 2196SOL     OW 7486   3.606   0.965   6.938
 2196SOL    HW1 7487   3.529   0.956   7.000
 2196SOL    HW2 7488   3.573   0.976   6.844
 2197SOL     OW 7489   3.479   5.879   5.979
 2197SOL    HW1 7490   3.443   5.827   6.056
 2197SOL    HW2 7491   3.516   5.816   5.910
 2198SOL     OW 7492   1.036   1.027   6.679
 2198SOL    HW1 7493   0.984   1.104   6.715
 2198SOL    HW2 7494   1.106   1.060   6.616
 2199SOL     OW 7495   4.045   6.754   3.669
 2199SOL    HW1 7496   3.965   6.813   3.687
 2199SOL    HW2 7497   4.084   6.724   3.757
 2200SOL     OW 7498   2.589   2.183   3.880
 2200SOL    HW1 7499   2.513   2.131   3.839
 2200SOL    HW2 7500   2.646   2.221   3.807
 2201SOL     OW 7501   5.584   3.681   5.417
 2201SOL    HW1 7502   5.680   3.656   5.404
 2201SOL    HW2 7503   5.553   3.736   5.340
 2202SOL     OW 7504   3.433   7.012   3.316
 2202SOL    HW1 7505   3.352   0.021   3.369
 2202SOL    HW2 7506   3.513   7.010   3.377
 2203SOL     OW 7507   1.586   5.138   1.334
 2203SOL    HW1 7508   1.522   5.174   1.401
 2203SOL    HW2 7509   1.627   5.053   1.368
 2204SOL     OW 7510   5.965   2.350   1.127
 2204SOL    HW1 7511   6.017   2.416   1.182
 2204SOL    HW2 7512   5.919   2.285   1.187
 2205SOL     OW 7513   6.665   5.544   1.273
 2205SOL    HW1 7514   6.704   5.604   1.203
 2205SOL    HW2 7515   6.581   5.503   1.238
 2206SOL     OW 7516   3.514   2.592   5.786
 2206SOL    HW1 7517   3.533   2.607   5.689
 2206SOL    HW2 7518   3.499   2.494   5.802
 2207SOL     OW 7519   4.551   5.740   1.656
 2207SOL    HW1 7520   4.573   5.673   1.727
 2207SOL    HW2 7521   4.622   5.811   1.654
 2208SOL     OW 7522   6.888   6.747   3.327
 2208SOL    HW1 7523   6.964   6.705   3.277
 2208SOL    HW2 7524   6.836   6.676   3.374
 2209SOL     OW 7525   3.186   5.715   3.927
 2209SOL    HW1 7526   3.146   5.792   3.977
 2209SOL    HW2 7527   3.155   5.716   3.832
 2210SOL     OW 7528   5.133   0.333   1.683
 2210SOL    HW1 7529   5.145   0.402   1.611
 2210SOL    HW2 7530   5.059   0.361   1.743
 2211SOL     OW 7531   1.669   1.861   1.049
 2211SOL    HW1 7532   1.713   1.878   0.960
 2211SOL    HW2 7533   1.642   1.948   1.090
 2212SOL     OW 7534   2.878   5.571   6.302
 2212SOL    HW1 7535   2.923   5.558   6.213
 2212SOL    HW2 7536   2.786   5.609   6.287
 2213SOL     OW 7537   3.485   1.917   5.271
 2213SOL    HW1 7538   3.581   1.936   5.290
 2213SOL    HW2 7539   3.434   2.003   5.266
 2214SOL     OW 7540   4.019   4.304   6.539
 2214SOL    HW1 7541   4.042   4.315   6.442
 2214SOL    HW2 7542   4.034   4.391   6.586
 2215SOL     OW 7543   5.003   6.389   0.688
 2215SOL    HW1 7544   5.018   6.373   0.786
 2215SOL    HW2 7545   4.966   6.481   0.675
 2216SOL     OW 7546   0.552   6.242   6.761
 2216SOL    HW1 7547   0.617   6.264   6.688
 2216SOL    HW2 7548   0.509   6.325   6.794
 2217SOL     OW 7549   4.326   1.349   3.792
 2217SOL    HW1 7550   4.288   1.312   3.877
 2217SOL    HW2 7551   4.422   1.373   3.805
 2218SOL     OW 7552   6.673   5.302   5.371
 2218SOL    HW1 7553   6.608   5.231   5.398
 2218SOL    HW2 7554   6.736   5.320   5.447
 2219SOL     OW 7555   5.517   1.430   0.940
 2219SOL    HW1 7556   5.492   1.460   1.032
 2219SOL    HW2 7557   5.606   1.468   0.916
 2220SOL     OW 7558   6.982   6.157   4.363
 2220SOL    HW1 7559   7.007   6.117   4.451
 2220SOL    HW2 7560   6.956   6.084   4.299
 2221SOL     OW 7561   5.972   1.280   4.503
 2221SOL    HW1 7562   5.874   1.261   4.515
 2221SOL    HW2 7563   6.005   1.230   4.423
 2222SOL     OW 7564   4.458   0.100   2.933
 2222SOL    HW1 7565   4.466   0.146   3.021
 2222SOL    HW2 7566   4.495   0.160   2.861
 2223SOL     OW 7567   0.875   6.883   5.363
 2223SOL    HW1 7568   0.927   6.889   5.449
 2223SOL    HW2 7569   0.787   6.928   5.374
 2224SOL     OW 7570   4.957   4.171   0.244
 2224SOL    HW1 7571   4.928   4.094   0.185
 2224SOL    HW2 7572   5.057   4.171   0.252
 2225SOL     OW 7573   6.818   6.557   1.376
 2225SOL    HW1 7574   6.764   6.637   1.351
 2225SOL    HW2 7575   6.813   6.544   1.475
 2226SOL     OW 7576   2.276   4.319   6.959
 2226SOL    HW1 7577   2.212   4.280   0.008
 2226SOL    HW2 7578   2.369   4.290   6.981
 2227SOL     OW 7579   3.996   2.083   2.292
 2227SOL    HW1 7580   3.965   1.996   2.330
 2227SOL    HW2 7581   3.977   2.085   2.194
 2228SOL     OW 7582   5.625   5.416   6.695
 2228SOL    HW1 7583   5.694   5.414   6.623
 2228SOL    HW2 7584   5.578   5.504   6.695
 2229SOL     OW 7585   3.012   3.419   3.860
 2229SOL    HW1 7586   2.947   3.446   3.789
 2229SOL    HW2 7587   2.983   3.458   3.948
 2230SOL     OW 7588   6.163   0.791   6.400
 2230SOL    HW1 7589   6.135   0.841   6.481
 2230SOL    HW2 7590   6.171   0.854   6.323
 2231SOL     OW 7591   1.797   0.167   6.031
 2231SOL    HW1 7592   1.893   0.152   6.009
 2231SOL    HW2 7593   1.740   0.098   5.986
 2232SOL     OW 7594   1.731   0.455   5.834
 2232SOL    HW1 7595   1.657   0.500   5.884
 2232SOL    HW2 7596   1.819   0.485   5.871
 2233SOL     OW 7597   3.261   4.965   0.983
 2233SOL    HW1 7598   3.291   4.914   1.064
 2233SOL    HW2 7599   3.338   4.976   0.920
 2234SOL     OW 7600   4.956   2.255   1.578
 2234SOL    HW1 7601   5.033   2.312   1.548
 2234SOL    HW2 7602   4.874   2.281   1.528
 2235SOL     OW 7603   0.638   1.752   2.928
 2235SOL    HW1 7604   0.635   1.822   2.857
 2235SOL    HW2 7605   0.561   1.689   2.916
 2236SOL     OW 7606   2.695   5.084   5.612
 2236SOL    HW1 7607   2.732   5.010   5.669
 2236SOL    HW2 7608   2.699   5.170   5.662
 2237SOL     OW 7609   6.086   6.204   5.865
 2237SOL    HW1 7610   5.988   6.223   5.871
 2237SOL    HW2 7611   6.115   6.212   5.770
 2238SOL     OW 7612   6.043   3.582   2.244
 2238SOL    HW1 7613   5.996   3.570   2.331
 2238SOL    HW2 7614   5.996   3.529   2.173
 2239SOL     OW 7615   4.548   6.486   3.047
 2239SOL    HW1 7616   4.468   6.526   3.092
 2239SOL    HW2 7617   4.632   6.527   3.084
 2240SOL     OW 7618   5.120   5.130   2.115
 2240SOL    HW1 7619   5.045   5.122   2.181
 2240SOL    HW2 7620   5.142   5.226   2.101
 2241SOL     OW 7621   0.196   1.624   2.886
 2241SOL    HW1 7622   0.165   1.618   2.791
 2241SOL    HW2 7623   0.296   1.622   2.888
 2242SOL     OW 7624   5.348   2.229   4.472
 2242SOL    HW1 7625   5.437   2.274   4.471
 2242SOL    HW2 7626   5.351   2.149   4.532
 2243SOL     OW 7627   2.303   6.699   0.611
 2243SOL    HW1 7628   2.301   6.778   0.673
 2243SOL    HW2 7629   2.210   6.669   0.592
 2244SOL     OW 7630   1.930   1.588   0.865
 2244SOL    HW1 7631   2.024   1.604   0.894
 2244SOL    HW2 7632   1.916   1.628   0.775
 2245SOL     OW 7633   0.233   0.815   0.293
 2245SOL    HW1 7634   0.327   0.814   0.259
 2245SOL    HW2 7635   0.229   0.771   0.382
 2246SOL     OW 7636   3.926   1.932   5.156
 2246SOL    HW1 7637   4.025   1.942   5.147
 2246SOL    HW2 7638   3.899   1.951   5.251
 2247SOL     OW 7639   2.974   3.284   1.871
 2247SOL    HW1 7640   2.904   3.232   1.823
 2247SOL    HW2 7641   2.934   3.328   1.951
 2248SOL     OW 7642   4.747   4.102   5.081
 2248SOL    HW1 7643   4.783   4.066   5.167
 2248SOL    HW2 7644   4.738   4.028   5.015
 2249SOL     OW 7645   2.322   6.739   2.897
 2249SOL    HW1 7646   2.354   6.831   2.873
 2249SOL    HW2 7647   2.395   6.672   2.879
 2250SOL     OW 7648   4.521   6.136   6.440
 2250SOL    HW1 7649   4.543   6.210   6.375
 2250SOL    HW2 7650   4.426   6.109   6.427
 2251SOL     OW 7651   4.778   6.368   4.667
 2251SOL    HW1 7652   4.842   6.444   4.681
 2251SOL    HW2 7653   4.796   6.325   4.578
 2252SOL     OW 7654   3.885   0.948   2.595
 2252SOL    HW1 7655   3.825   0.916   2.668
 2252SOL    HW2 7656   3.860   0.904   2.509
 2253SOL     OW 7657   0.147   3.099   1.433
 2253SOL    HW1 7658   0.232   3.127   1.387
 2253SOL    HW2 7659   0.166   3.023   1.494
 2254SOL     OW 7660   4.133   3.330   2.708
 2254SOL    HW1 7661   4.176   3.372   2.788
 2254SOL    HW2 7662   4.104   3.237   2.731
 2255SOL     OW 7663   1.752   2.820   6.394
 2255SOL    HW1 7664   1.778   2.776   6.308
 2255SOL    HW2 7665   1.754   2.919   6.383
 2256SOL     OW 7666   5.599   0.267   1.296
 2256SOL    HW1 7667   5.643   0.200   1.237
 2256SOL    HW2 7668   5.558   0.220   1.374
 2257SOL     OW 7669   6.661   0.335   5.358
 2257SOL    HW1 7670   6.746   0.282   5.367
 2257SOL    HW2 7671   6.662   0.410   5.424
 2258SOL     OW 7672   2.375   6.679   3.955
 2258SOL    HW1 7673   2.370   6.580   3.941
 2258SOL    HW2 7674   2.291   6.711   3.997
 2259SOL     OW 7675   6.124   2.025   4.884
 2259SOL    HW1 7676   6.137   2.075   4.970
 2259SOL    HW2 7677   6.143   2.086   4.807
 2260SOL     OW 7678   0.950   3.513   1.334
 2260SOL    HW1 7679   0.946   3.464   1.421
 2260SOL    HW2 7680   1.041   3.553   1.322
 2261SOL     OW 7681   5.411   3.989   0.066
 2261SOL    HW1 7682   5.335   3.997   0.001
 2261SOL    HW2 7683   5.389   4.041   0.149
 2262SOL     OW 7684   6.461   6.918   4.702
 2262SOL    HW1 7685   6.405   6.999   4.719
 2262SOL    HW2 7686   6.444   6.885   4.609
 2263SOL     OW 7687   2.320   4.198   6.386
 2263SOL    HW1 7688   2.291   4.110   6.349
 2263SOL    HW2 7689   2.307   4.199   6.485
 2264SOL     OW 7690   2.480   0.283   5.769
 2264SOL    HW1 7691   2.484   0.184   5.760
 2264SOL    HW2 7692   2.429   0.308   5.851
 2265SOL     OW 7693   6.956   6.421   4.336
 2265SOL    HW1 7694   6.908   6.437   4.423
 2265SOL    HW2 7695   6.968   6.323   4.323
 2266SOL     OW 7696   4.014   2.758   6.774
 2266SOL    HW1 7697   4.064   2.814   6.839
 2266SOL    HW2 7698   3.990   2.671   6.817
 2267SOL     OW 7699   5.524   3.112   4.541
 2267SOL    HW1 7700   5.594   3.183   4.542
 2267SOL    HW2 7701   5.524   3.063   4.628
 2268SOL     OW 7702   1.561   6.241   4.783
 2268SOL    HW1 7703   1.656   6.239   4.811
 2268SOL    HW2 7704   1.540   6.330   4.740
 2269SOL     OW 7705   1.690   2.206   5.445
 2269SOL    HW1 7706   1.607   2.260   5.430
 2269SOL    HW2 7707   1.766   2.267   5.468
 2270SOL     OW 7708   4.720   1.130   6.147
 2270SOL    HW1 7709   4.712   1.038   6.185
 2270SOL    HW2 7710   4.653   1.143   6.075
 2271SOL     OW 7711   4.521   5.551   5.250
 2271SOL    HW1 7712   4.467   5.577   5.171
 2271SOL    HW2 7713   4.506   5.617   5.324
 2272SOL     OW 7714   5.298   1.297   5.793
 2272SOL    HW1 7715   5.396   1.279   5.785
 2272SOL    HW2 7716   5.277   1.327   5.886
 2273SOL     OW 7717   0.958   2.807   3.439
 2273SOL    HW1 7718   1.056   2.826   3.437
 2273SOL    HW2 7719   0.908   2.889   3.467
 2274SOL     OW 7720   1.256   1.514   6.938
 2274SOL    HW1 7721   1.168   1.546   6.973
 2274SOL    HW2 7722   1.243   1.427   6.890
 2275SOL     OW 7723   5.590   4.114   2.738
 2275SOL    HW1 7724   5.581   4.015   2.733
 2275SOL    HW2 7725   5.517   4.157   2.684
 2276SOL     OW 7726   2.150   1.875   1.061
 2276SOL    HW1 7727   2.063   1.892   1.109
 2276SOL    HW2 7728   2.134   1.881   0.962
 2277SOL     OW 7729   3.747   2.972   3.700
 2277SOL    HW1 7730   3.673   3.039   3.693
 2277SOL    HW2 7731   3.709   2.879   3.701
 2278SOL     OW 7732   0.208   2.832   4.115
 2278SOL    HW1 7733   0.294   2.850   4.066
 2278SOL    HW2 7734   0.171   2.743   4.087
 2279SOL     OW 7735   1.013   5.863   5.694
 2279SOL    HW1 7736   1.045   5.782   5.646
 2279SOL    HW2 7737   1.033   5.944   5.640
 2280SOL     OW 7738   4.984   1.705   5.809
 2280SOL    HW1 7739   5.002   1.797   5.773
 2280SOL    HW2 7740   4.894   1.674   5.778
 2281SOL     OW 7741   5.795   6.610   2.513
 2281SOL    HW1 7742   5.729   6.606   2.438
 2281SOL    HW2 7743   5.850   6.693   2.505
 2282SOL     OW 7744   3.817   6.421   6.003
 2282SOL    HW1 7745   3.764   6.489   5.952
 2282SOL    HW2 7746   3.811   6.333   5.956
 2283SOL     OW 7747   0.077   1.112   4.446
 2283SOL    HW1 7748   0.022   1.195   4.452
 2283SOL    HW2 7749   0.172   1.136   4.426
 2284SOL     OW 7750   1.407   2.641   6.767
 2284SOL    HW1 7751   1.373   2.734   6.771
 2284SOL    HW2 7752   1.336   2.580   6.733
 2285SOL     OW 7753   1.666   4.432   6.539
 2285SOL    HW1 7754   1.582   4.433   6.485
 2285SOL    HW2 7755   1.644   4.425   6.636
 2286SOL     OW 7756   4.766   4.867   3.197
 2286SOL    HW1 7757   4.712   4.812   3.260
 2286SOL    HW2 7758   4.831   4.922   3.248
 2287SOL     OW 7759   1.158   1.458   3.579
 2287SOL    HW1 7760   1.180   1.394   3.653
 2287SOL    HW2 7761   1.195   1.423   3.493
 2288SOL     OW 7762   0.221   5.410   2.690
 2288SOL    HW1 7763   0.251   5.342   2.758
 2288SOL    HW2 7764   0.123   5.426   2.700
 2289SOL     OW 7765   0.279   5.766   1.022
 2289SOL    HW1 7766   0.251   5.744   0.928
 2289SOL    HW2 7767   0.345   5.697   1.053
 2290SOL     OW 7768   1.164   5.404   0.056
 2290SOL    HW1 7769   1.197   5.330   0.114
 2290SOL    HW2 7770   1.066   5.418   0.071
 2291SOL     OW 7771   2.193   1.430   6.869
 2291SOL    HW1 7772   2.160   1.512   6.823
 2291SOL    HW2 7773   2.116   1.371   6.893
 2292SOL     OW 7774   2.506   1.403   4.629
 2292SOL    HW1 7775   2.462   1.444   4.709
 2292SOL    HW2 7776   2.606   1.409   4.639
 2293SOL     OW 7777   5.477   3.738   2.555
 2293SOL    HW1 7778   5.441   3.782   2.637
 2293SOL    HW2 7779   5.509   3.807   2.491
 2294SOL     OW 7780   3.724   6.112   0.038
 2294SOL    HW1 7781   3.813   6.083   0.002
 2294SOL    HW2 7782   3.715   6.211   0.030
 2295SOL     OW 7783   0.414   2.010   1.616
 2295SOL    HW1 7784   0.442   1.987   1.709
 2295SOL    HW2 7785   0.412   2.109   1.605
 2296SOL     OW 7786   3.440   0.043   0.789
 2296SOL    HW1 7787   3.435   6.971   0.835
 2296SOL    HW2 7788   3.365   0.101   0.820
 2297SOL     OW 7789   4.582   6.552   6.770
 2297SOL    HW1 7790   4.596   6.615   6.846
 2297SOL    HW2 7791   4.499   6.498   6.786
 2298SOL     OW 7792   4.359   3.108   6.075
 2298SOL    HW1 7793   4.362   3.081   6.172
 2298SOL    HW2 7794   4.378   3.028   6.018
 2299SOL     OW 7795   4.327   6.934   0.138
 2299SOL    HW1 7796   4.407   6.994   0.139
 2299SOL    HW2 7797   4.353   6.845   0.101
 2300SOL     OW 7798   1.042   4.352   1.175
 2300SOL    HW1 7799   0.951   4.350   1.218
 2300SOL    HW2 7800   1.031   4.371   1.077
 2301SOL     OW 7801   4.163   3.355   1.829
 2301SOL    HW1 7802   4.179   3.276   1.889
 2301SOL    HW2 7803   4.066   3.379   1.831
 2302SOL     OW 7804   2.595   5.702   3.002
 2302SOL    HW1 7805   2.564   5.775   3.063
 2302SOL    HW2 7806   2.693   5.688   3.014
 2303SOL     OW 7807   0.305   3.426   4.914
 2303SOL    HW1 7808   0.208   3.418   4.937
 2303SOL    HW2 7809   0.352   3.475   4.988
 2304SOL     OW 7810   2.409   0.862   4.479
 2304SOL    HW1 7811   2.324   0.816   4.453
 2304SOL    HW2 7812   2.486   0.802   4.460
 2305SOL     OW 7813   4.155   4.896   1.852
 2305SOL    HW1 7814   4.178   4.875   1.756
 2305SOL    HW2 7815   4.059   4.876   1.869
 2306SOL     OW 7816   0.117   4.264   0.480
 2306SOL    HW1 7817   0.160   4.286   0.568
 2306SOL    HW2 7818   0.080   4.172   0.483
 2307SOL     OW 7819   0.046   1.525   3.086
 2307SOL    HW1 7820   0.103   1.572   3.019
 2307SOL    HW2 7821   6.970   1.562   3.083
 2308SOL     OW 7822   0.196   6.821   0.358
 2308SOL    HW1 7823   0.247   6.829   0.443
 2308SOL    HW2 7824   0.214   6.731   0.317
 2309SOL     OW 7825   3.246   5.236   6.099
 2309SOL    HW1 7826   3.328   5.218   6.153
 2309SOL    HW2 7827   3.271   5.246   6.003
 2310SOL     OW 7828   5.797   1.863   2.818
 2310SOL    HW1 7829   5.853   1.910   2.886
 2310SOL    HW2 7830   5.767   1.775   2.853
 2311SOL     OW 7831   2.865   0.697   2.968
 2311SOL    HW1 7832   2.855   0.647   2.882
 2311SOL    HW2 7833   2.853   0.795   2.951
 2312SOL     OW 7834   2.646   1.068   2.704
 2312SOL    HW1 7835   2.663   1.057   2.606
 2312SOL    HW2 7836   2.563   1.122   2.718
 2313SOL     OW 7837   4.974   3.931   1.533
 2313SOL    HW1 7838   4.939   3.838   1.521
 2313SOL    HW2 7839   5.071   3.928   1.557
 2314SOL     OW 7840   6.633   6.605   3.308
 2314SOL    HW1 7841   6.656   6.604   3.211
 2314SOL    HW2 7842   6.539   6.572   3.320
 2315SOL     OW 7843   4.108   6.042   4.930
 2315SOL    HW1 7844   4.197   6.034   4.973
 2315SOL    HW2 7845   4.055   5.959   4.946
 2316SOL     OW 7846   2.785   1.924   6.038
 2316SOL    HW1 7847   2.756   1.968   6.123
 2316SOL    HW2 7848   2.842   1.845   6.058
 2317SOL     OW 7849   6.627   5.616   3.323
 2317SOL    HW1 7850   6.716   5.590   3.361
 2317SOL    HW2 7851   6.638   5.694   3.262
 2318SOL     OW 7852   1.630   4.481   5.506
 2318SOL    HW1 7853   1.531   4.491   5.521
 2318SOL    HW2 7854   1.670   4.428   5.580
 2319SOL     OW 7855   2.174   5.110   3.449
 2319SOL    HW1 7856   2.242   5.037   3.455
 2319SOL    HW2 7857   2.183   5.156   3.360
 2320SOL     OW 7858   1.056   1.977   5.250
 2320SOL    HW1 7859   1.112   1.987   5.332
 2320SOL    HW2 7860   1.078   2.051   5.186
 2321SOL     OW 7861   2.498   4.875   5.808
 2321SOL    HW1 7862   2.492   4.974   5.812
 2321SOL    HW2 7863   2.416   4.835   5.848
 2322SOL     OW 7864   1.849   4.017   1.573
 2322SOL    HW1 7865   1.935   3.966   1.577
 2322SOL    HW2 7866   1.861   4.098   1.516
 2323SOL     OW 7867   2.281   5.312   1.417
 2323SOL    HW1 7868   2.338   5.267   1.348
 2323SOL    HW2 7869   2.190   5.269   1.418
 2324SOL     OW 7870   6.746   5.266   2.648
 2324SOL    HW1 7871   6.771   5.203   2.722
 2324SOL    HW2 7872   6.656   5.304   2.666
 2325SOL     OW 7873   6.750   5.302   1.595
 2325SOL    HW1 7874   6.711   5.263   1.679
 2325SOL    HW2 7875   6.739   5.401   1.596
 2326SOL     OW 7876   1.762   0.696   6.932
 2326SOL    HW1 7877   1.664   0.675   6.928
 2326SOL    HW2 7878   1.778   0.770   6.997
 2327SOL     OW 7879   0.284   0.267   2.574
 2327SOL    HW1 7880   0.331   0.216   2.502
 2327SOL    HW2 7881   0.207   0.213   2.608
 2328SOL     OW 7882   1.910   3.151   3.061
 2328SOL    HW1 7883   1.983   3.218   3.074
 2328SOL    HW2 7884   1.834   3.194   3.012
 2329SOL     OW 7885   0.526   5.170   2.902
 2329SOL    HW1 7886   0.572   5.087   2.870
 2329SOL    HW2 7887   0.560   5.248   2.850
 2330SOL     OW 7888   6.362   3.035   0.500
 2330SOL    HW1 7889   6.285   2.995   0.451
 2330SOL    HW2 7890   6.386   3.122   0.458
 2331SOL     OW 7891   4.546   5.974   1.270
 2331SOL    HW1 7892   4.646   5.969   1.261
 2331SOL    HW2 7893   4.515   6.065   1.244
 2332SOL     OW 7894   5.710   6.721   5.875
 2332SOL    HW1 7895   5.756   6.805   5.902
 2332SOL    HW2 7896   5.651   6.739   5.796
 2333SOL     OW 7897   0.094   4.443   2.372
 2333SOL    HW1 7898   0.041   4.359   2.362
 2333SOL    HW2 7899   0.167   4.428   2.438
 2334SOL     OW 7900   3.057   1.607   6.428
 2334SOL    HW1 7901   3.075   1.692   6.379
 2334SOL    HW2 7902   2.960   1.586   6.422
 2335SOL     OW 7903   6.201   1.311   3.333
 2335SOL    HW1 7904   6.254   1.333   3.250
 2335SOL    HW2 7905   6.264   1.291   3.408
 2336SOL     OW 7906   1.698   1.895   2.811
 2336SOL    HW1 7907   1.792   1.864   2.826
 2336SOL    HW2 7908   1.699   1.991   2.784
 2337SOL     OW 7909   4.679   1.713   1.667
 2337SOL    HW1 7910   4.646   1.790   1.720
 2337SOL    HW2 7911   4.637   1.629   1.700
 2338SOL     OW 7912   6.882   3.860   3.457
 2338SOL    HW1 7913   6.871   3.932   3.525
 2338SOL    HW2 7914   6.844   3.774   3.492
 2339SOL     OW 7915   3.698   2.926   2.939
 2339SOL    HW1 7916   3.712   2.982   2.858
 2339SOL    HW2 7917   3.606   2.887   2.938
 2340SOL     OW 7918   2.052   5.149   6.700
 2340SOL    HW1 7919   2.097   5.237   6.687
 2340SOL    HW2 7920   2.109   5.091   6.758
 2341SOL     OW 7921   2.465   4.502   3.204
 2341SOL    HW1 7922   2.516   4.530   3.123
 2341SOL    HW2 7923   2.426   4.411   3.189
 2342SOL     OW 7924   3.238   0.473   3.989
 2342SOL    HW1 7925   3.293   0.528   3.927
 2342SOL    HW2 7926   3.209   0.389   3.942
 2343SOL     OW 7927   1.022   0.302   1.887
 2343SOL    HW1 7928   1.009   0.325   1.984
 2343SOL    HW2 7929   1.112   0.334   1.857
 2344SOL     OW 7930   5.657   3.715   0.610
 2344SOL    HW1 7931   5.753   3.699   0.585
 2344SOL    HW2 7932   5.651   3.795   0.669
 2345SOL     OW 7933   2.901   5.171   4.700
 2345SOL    HW1 7934   2.923   5.173   4.798
 2345SOL    HW2 7935   2.844   5.250   4.677
 2346SOL     OW 7936   3.965   4.040   6.542
 2346SOL    HW1 7937   3.940   4.001   6.454
 2346SOL    HW2 7938   4.000   4.133   6.529
 2347SOL     OW 7939   1.046   2.053   2.172
 2347SOL    HW1 7940   1.098   2.136   2.155
 2347SOL    HW2 7941   1.095   1.996   2.239
 2348SOL     OW 7942   7.009   4.948   2.671
 2348SOL    HW1 7943   0.022   4.870   2.727
 2348SOL    HW2 7944   6.971   5.019   2.730
 2349SOL     OW 7945   0.573   4.105   6.010
 2349SOL    HW1 7946   0.493   4.162   5.996
 2349SOL    HW2 7947   0.651   4.162   6.037
 2350SOL     OW 7948   5.999   3.392   6.973
 2350SOL    HW1 7949   6.011   3.457   6.897
 2350SOL    HW2 7950   5.983   3.443   0.040
 2351SOL     OW 7951   2.983   5.264   2.568
 2351SOL    HW1 7952   2.964   5.178   2.614
 2351SOL    HW2 7953   3.075   5.261   2.528
 2352SOL     OW 7954   0.036   2.955   3.449
 2352SOL    HW1 7955   0.103   2.883   3.435
 2352SOL    HW2 7956   0.033   2.981   3.545
 2353SOL     OW 7957   3.564   5.774   4.727
 2353SOL    HW1 7958   3.660   5.796   4.739
 2353SOL    HW2 7959   3.543   5.688   4.773
 2354SOL     OW 7960   2.123   2.426   3.708
 2354SOL    HW1 7961   2.210   2.430   3.757
 2354SOL    HW2 7962   2.109   2.512   3.658
 2355SOL     OW 7963   2.443   5.783   5.229
 2355SOL    HW1 7964   2.428   5.737   5.142
 2355SOL    HW2 7965   2.453   5.882   5.214
 2356SOL     OW 7966   6.707   3.320   6.967
 2356SOL    HW1 7967   6.653   3.236   6.972
 2356SOL    HW2 7968   6.645   3.399   6.967
 2357SOL     OW 7969   2.455   6.647   2.249
 2357SOL    HW1 7970   2.447   6.739   2.288
 2357SOL    HW2 7971   2.550   6.616   2.257
 2358SOL     OW 7972   3.670   4.908   6.781
 2358SOL    HW1 7973   3.638   4.892   6.688
 2358SOL    HW2 7974   3.636   4.997   6.813
 2359SOL     OW 7975   1.561   6.966   4.775
 2359SOL    HW1 7976   1.484   6.925   4.823
 2359SOL    HW2 7977   1.623   7.009   4.841
 2360SOL     OW 7978   6.525   3.509   0.435
 2360SOL    HW1 7979   6.499   3.600   0.406
 2360SOL    HW2 7980   6.624   3.505   0.448
 2361SOL     OW 7981   3.302   1.127   6.532
 2361SOL    HW1 7982   3.358   1.111   6.451
 2361SOL    HW2 7983   3.259   1.217   6.525
 2362SOL     OW 7984   3.618   5.602   3.168
 2362SOL    HW1 7985   3.675   5.643   3.096
 2362SOL    HW2 7986   3.527   5.643   3.166
 2363SOL     OW 7987   3.996   0.892   4.543
 2363SOL    HW1 7988   4.070   0.939   4.592
 2363SOL    HW2 7989   4.010   0.793   4.551
 2364SOL     OW 7990   1.376   3.013   0.984
 2364SOL    HW1 7991   1.298   3.016   0.921
 2364SOL    HW2 7992   1.418   3.104   0.987
 2365SOL     OW 7993   5.681   2.033   6.514
 2365SOL    HW1 7994   5.624   2.046   6.433
 2365SOL    HW2 7995   5.634   1.971   6.577
 2366SOL     OW 7996   4.051   5.275   0.510
 2366SOL    HW1 7997   3.952   5.263   0.512
 2366SOL    HW2 7998   4.076   5.350   0.571
 2367SOL     OW 7999   2.784   3.086   6.267
 2367SOL    HW1 8000   2.776   3.134   6.180
 2367SOL    HW2 8001   2.760   2.989   6.254
 2368SOL     OW 8002   6.823   5.876   2.658
 2368SOL    HW1 8003   6.778   5.795   2.621
 2368SOL    HW2 8004   6.869   5.926   2.584
 2369SOL     OW 8005   1.974   0.865   3.260
 2369SOL    HW1 8006   2.009   0.949   3.301
 2369SOL    HW2 8007   2.025   0.787   3.295
 2370SOL     OW 8008   6.083   1.857   6.830
 2370SOL    HW1 8009   6.160   1.823   6.884
 2370SOL    HW2 8010   6.069   1.798   6.751
 2371SOL     OW 8011   2.581   6.402   1.347
 2371SOL    HW1 8012   2.551   6.475   1.285
 2371SOL    HW2 8013   2.669   6.427   1.387
 2372SOL     OW 8014   6.626   3.553   2.883
 2372SOL    HW1 8015   6.643   3.651   2.872
 2372SOL    HW2 8016   6.548   3.526   2.825
 2373SOL     OW 8017   2.114   2.977   6.276
 2373SOL    HW1 8018   2.052   3.005   6.349
 2373SOL    HW2 8019   2.128   2.878   6.280
 2374SOL     OW 8020   5.720   3.050   4.941
 2374SOL    HW1 8021   5.666   3.133   4.931
 2374SOL    HW2 8022   5.814   3.067   4.910
 2375SOL     OW 8023   3.360   6.111   5.287
 2375SOL    HW1 8024   3.368   6.172   5.208
 2375SOL    HW2 8025   3.326   6.022   5.258
 2376SOL     OW 8026   6.571   3.206   4.868
 2376SOL    HW1 8027   6.668   3.201   4.892
 2376SOL    HW2 8028   6.543   3.302   4.864
 2377SOL     OW 8029   3.556   3.465   3.882
 2377SOL    HW1 8030   3.581   3.488   3.788
 2377SOL    HW2 8031   3.535   3.549   3.932
 2378SOL     OW 8032   5.254   2.697   6.738
 2378SOL    HW1 8033   5.271   2.781   6.686
 2378SOL    HW2 8034   5.341   2.656   6.765
 2379SOL     OW 8035   6.581   0.059   0.412
 2379SOL    HW1 8036   6.537   0.149   0.414
 2379SOL    HW2 8037   6.593   0.030   0.317
 2380SOL     OW 8038   5.902   1.516   2.329
 2380SOL    HW1 8039   5.942   1.437   2.375
 2380SOL    HW2 8040   5.971   1.587   2.316
 2381SOL     OW 8041   1.737   6.543   3.328
 2381SOL    HW1 8042   1.796   6.602   3.384
 2381SOL    HW2 8043   1.675   6.492   3.387
 2382SOL     OW 8044   1.858   3.763   4.964
 2382SOL    HW1 8045   1.947   3.808   4.969
 2382SOL    HW2 8046   1.870   3.664   4.972
 2383SOL     OW 8047   6.155   5.826   1.336
 2383SOL    HW1 8048   6.150   5.873   1.424
 2383SOL    HW2 8049   6.139   5.892   1.262
 2384SOL     OW 8050   4.581   1.910   1.823
 2384SOL    HW1 8051   4.591   1.903   1.922
 2384SOL    HW2 8052   4.558   2.004   1.798
 2385SOL     OW 8053   0.867   2.178   5.997
 2385SOL    HW1 8054   0.775   2.141   6.011
 2385SOL    HW2 8055   0.886   2.247   6.066
 2386SOL     OW 8056   4.947   5.542   4.202
 2386SOL    HW1 8057   4.963   5.639   4.221
 2386SOL    HW2 8058   4.999   5.486   4.267
 2387SOL     OW 8059   1.970   1.419   3.563
 2387SOL    HW1 8060   2.032   1.482   3.517
 2387SOL    HW2 8061   1.973   1.436   3.662
 2388SOL     OW 8062   6.202   1.887   4.539
 2388SOL    HW1 8063   6.302   1.889   4.531
 2388SOL    HW2 8064   6.164   1.833   4.465
 2389SOL     OW 8065   4.353   5.713   2.962
 2389SOL    HW1 8066   4.441   5.690   2.919
 2389SOL    HW2 8067   4.315   5.630   3.004
 2390SOL     OW 8068   3.156   4.263   1.551
 2390SOL    HW1 8069   3.134   4.202   1.475
 2390SOL    HW2 8070   3.255   4.276   1.556
 2391SOL     OW 8071   3.896   5.211   5.494
 2391SOL    HW1 8072   3.894   5.131   5.434
 2391SOL    HW2 8073   3.978   5.206   5.553
 2392SOL     OW 8074   3.593   1.406   6.753
 2392SOL    HW1 8075   3.519   1.441   6.695
 2392SOL    HW2 8076   3.564   1.320   6.795
 2393SOL     OW 8077   4.130   5.225   5.641
 2393SOL    HW1 8078   4.167   5.318   5.650
 2393SOL    HW2 8079   4.203   5.163   5.611
 2394SOL     OW 8080   0.562   4.398   5.185
 2394SOL    HW1 8081   0.616   4.445   5.115
 2394SOL    HW2 8082   0.466   4.424   5.176
 2395SOL     OW 8083   4.202   0.267   6.103
 2395SOL    HW1 8084   4.143   0.281   6.024
 2395SOL    HW2 8085   4.155   0.300   6.185
 2396SOL     OW 8086   4.010   4.343   0.759
 2396SOL    HW1 8087   4.089   4.363   0.700
 2396SOL    HW2 8088   3.936   4.307   0.703
 2397SOL     OW 8089   6.973   3.958   4.309
 2397SOL    HW1 8090   0.035   3.955   4.370
 2397SOL    HW2 8091   6.982   3.887   4.239
 2398SOL     OW 8092   3.988   4.948   5.707
 2398SOL    HW1 8093   3.986   4.868   5.647
 2398SOL    HW2 8094   4.049   5.017   5.669
 2399SOL     OW 8095   4.143   1.888   1.810
 2399SOL    HW1 8096   4.125   1.855   1.903
 2399SOL    HW2 8097   4.191   1.976   1.815
 2400SOL     OW 8098   2.335   5.215   1.684
 2400SOL    HW1 8099   2.256   5.179   1.735
 2400SOL    HW2 8100   2.303   5.267   1.605
 2401SOL     OW 8101   0.007   6.322   5.885
 2401SOL    HW1 8102   7.011   6.350   5.981
 2401SOL    HW2 8103   0.104   6.328   5.862
 2402SOL     OW 8104   6.975   6.654   4.595
 2402SOL    HW1 8105   6.961   6.707   4.679
 2402SOL    HW2 8106   6.918   6.572   4.598
 2403SOL     OW 8107   0.566   1.732   5.032
 2403SOL    HW1 8108   0.657   1.765   5.008
 2403SOL    HW2 8109   0.503   1.809   5.039
 2404SOL     OW 8110   0.952   0.221   0.323
 2404SOL    HW1 8111   0.909   0.219   0.413
 2404SOL    HW2 8112   0.927   0.140   0.271
 2405SOL     OW 8113   2.787   4.090   1.690
 2405SOL    HW1 8114   2.766   4.188   1.686
 2405SOL    HW2 8115   2.868   4.076   1.747
 2406SOL     OW 8116   5.039   1.094   1.498
 2406SOL    HW1 8117   4.952   1.111   1.452
 2406SOL    HW2 8118   5.112   1.142   1.449
 2407SOL     OW 8119   4.910   0.803   3.687
 2407SOL    HW1 8120   4.861   0.874   3.636
 2407SOL    HW2 8121   4.933   0.728   3.626
 2408SOL     OW 8122   4.559   4.436   2.273
 2408SOL    HW1 8123   4.568   4.530   2.240
 2408SOL    HW2 8124   4.523   4.378   2.199
 2409SOL     OW 8125   1.371   4.203   0.711
 2409SOL    HW1 8126   1.349   4.201   0.613
 2409SOL    HW2 8127   1.409   4.114   0.738
 2410SOL     OW 8128   3.368   2.884   2.671
 2410SOL    HW1 8129   3.449   2.906   2.616
 2410SOL    HW2 8130   3.376   2.792   2.707
 2411SOL     OW 8131   4.909   6.621   4.319
 2411SOL    HW1 8132   4.863   6.704   4.347
 2411SOL    HW2 8133   4.924   6.623   4.220
 2412SOL     OW 8134   4.457   3.339   1.081
 2412SOL    HW1 8135   4.423   3.417   1.029
 2412SOL    HW2 8136   4.494   3.271   1.017
 2413SOL     OW 8137   4.839   6.972   2.339
 2413SOL    HW1 8138   4.789   0.005   2.268
 2413SOL    HW2 8139   4.790   6.888   2.361
 2414SOL     OW 8140   5.630   3.837   4.328
 2414SOL    HW1 8141   5.705   3.882   4.377
 2414SOL    HW2 8142   5.549   3.833   4.386
 2415SOL     OW 8143   4.389   1.109   3.306
 2415SOL    HW1 8144   4.326   1.064   3.369
 2415SOL    HW2 8145   4.452   1.167   3.358
 2416SOL     OW 8146   5.254   1.765   5.905
 2416SOL    HW1 8147   5.167   1.727   5.875
 2416SOL    HW2 8148   5.242   1.810   5.994
 2417SOL     OW 8149   3.347   4.173   4.147
 2417SOL    HW1 8150   3.325   4.271   4.154
 2417SOL    HW2 8151   3.425   4.152   4.207
 2418SOL     OW 8152   3.450   2.997   3.113
 2418SOL    HW1 8153   3.374   3.038   3.163
 2418SOL    HW2 8154   3.518   2.962   3.178
 2419SOL     OW 8155   6.999   6.949   2.994
 2419SOL    HW1 8156   6.936   6.958   2.917
 2419SOL    HW2 8157   6.958   6.989   3.076
 2420SOL     OW 8158   1.922   0.177   2.141
 2420SOL    HW1 8159   1.845   0.202   2.083
 2420SOL    HW2 8160   1.917   0.080   2.164
 2421SOL     OW 8161   3.257   2.154   3.771
 2421SOL    HW1 8162   3.325   2.226   3.784
 2421SOL    HW2 8163   3.257   2.125   3.676
 2422SOL     OW 8164   5.066   1.445   0.880
 2422SOL    HW1 8165   5.012   1.362   0.894
 2422SOL    HW2 8166   5.152   1.421   0.836
 2423SOL     OW 8167   2.016   4.961   2.242
 2423SOL    HW1 8168   2.038   4.885   2.303
 2423SOL    HW2 8169   2.011   5.046   2.294
 2424SOL     OW 8170   6.304   0.167   1.314
 2424SOL    HW1 8171   6.274   0.255   1.275
 2424SOL    HW2 8172   6.403   0.166   1.323
 2425SOL     OW 8173   0.020   6.867   4.359
 2425SOL    HW1 8174   0.020   6.798   4.432
 2425SOL    HW2 8175   6.947   6.869   4.316
 2426SOL     OW 8176   2.639   4.701   3.737
 2426SOL    HW1 8177   2.601   4.772   3.678
 2426SOL    HW2 8178   2.570   4.632   3.754
 2427SOL     OW 8179   6.089   0.083   5.778
 2427SOL    HW1 8180   6.001   0.042   5.801
 2427SOL    HW2 8181   6.125   0.041   5.695
 2428SOL     OW 8182   6.335   0.695   0.577
 2428SOL    HW1 8183   6.380   0.785   0.581
 2428SOL    HW2 8184   6.257   0.694   0.639
 2429SOL     OW 8185   5.136   5.395   2.022
 2429SOL    HW1 8186   5.049   5.405   1.975
 2429SOL    HW2 8187   5.192   5.477   2.010
 2430SOL     OW 8188   5.133   0.307   2.549
 2430SOL    HW1 8189   5.057   0.261   2.504
 2430SOL    HW2 8190   5.188   0.356   2.481
 2431SOL     OW 8191   4.420   0.317   2.193
 2431SOL    HW1 8192   4.426   0.272   2.282
 2431SOL    HW2 8193   4.482   0.272   2.129
 2432SOL     OW 8194   2.420   6.332   2.364
 2432SOL    HW1 8195   2.498   6.393   2.375
 2432SOL    HW2 8196   2.448   6.238   2.382
 2433SOL     OW 8197   4.127   0.229   0.646
 2433SOL    HW1 8198   4.093   0.157   0.585
 2433SOL    HW2 8199   4.201   0.278   0.601
 2434SOL     OW 8200   3.887   3.231   5.391
 2434SOL    HW1 8201   3.986   3.236   5.405
 2434SOL    HW2 8202   3.867   3.169   5.316
 2435SOL     OW 8203   6.253   5.739   5.513
 2435SOL    HW1 8204   6.352   5.737   5.527
 2435SOL    HW2 8205   6.209   5.673   5.574
 2436SOL     OW 8206   3.174   5.213   0.792
 2436SOL    HW1 8207   3.077   5.194   0.807
 2436SOL    HW2 8208   3.210   5.150   0.723
 2437SOL     OW 8209   0.047   0.528   6.006
 2437SOL    HW1 8210   6.984   0.474   5.979
 2437SOL    HW2 8211   0.125   0.467   6.018
 2438SOL     OW 8212   2.905   3.155   0.944
 2438SOL    HW1 8213   2.977   3.093   0.912
 2438SOL    HW2 8214   2.879   3.217   0.870
 2439SOL     OW 8215   5.659   4.027   5.838
 2439SOL    HW1 8216   5.697   3.947   5.886
 2439SOL    HW2 8217   5.673   4.016   5.740
 2440SOL     OW 8218   6.013   4.989   5.811
 2440SOL    HW1 8219   5.914   5.001   5.817
 2440SOL    HW2 8220   6.059   5.064   5.858
 2441SOL     OW 8221   6.591   1.882   1.031
 2441SOL    HW1 8222   6.624   1.853   0.941
 2441SOL    HW2 8223   6.646   1.957   1.065
 2442SOL     OW 8224   0.090   2.291   5.667
 2442SOL    HW1 8225   0.032   2.270   5.746
 2442SOL    HW2 8226   0.048   2.254   5.584
 2443SOL     OW 8227   2.713   4.749   5.272
 2443SOL    HW1 8228   2.762   4.702   5.199
 2443SOL    HW2 8229   2.775   4.815   5.316
 2444SOL     OW 8230   3.332   2.721   5.400
 2444SOL    HW1 8231   3.240   2.698   5.368
 2444SOL    HW2 8232   3.326   2.791   5.472
 2445SOL     OW 8233   0.646   0.140   0.850
 2445SOL    HW1 8234   0.675   0.235   0.840
 2445SOL    HW2 8235   0.559   0.136   0.899
 2446SOL     OW 8236   5.296   3.326   6.305
 2446SOL    HW1 8237   5.273   3.387   6.228
 2446SOL    HW2 8238   5.384   3.281   6.286
 2447SOL     OW 8239   0.407   2.940   6.350
 2447SOL    HW1 8240   0.426   2.938   6.252
 2447SOL    HW2 8241   0.480   2.893   6.400
 2448SOL     OW 8242   0.267   6.875   4.278
 2448SOL    HW1 8243   0.295   6.818   4.355
 2448SOL    HW2 8244   0.171   6.899   4.287
 2449SOL     OW 8245   0.682   3.217   4.898
 2449SOL    HW1 8246   0.600   3.197   4.843
 2449SOL    HW2 8247   0.702   3.315   4.893
 2450SOL     OW 8248   2.288   2.990   1.713
 2450SOL    HW1 8249   2.214   3.041   1.759
 2450SOL    HW2 8250   2.248   2.930   1.643
 2451SOL     OW 8251   2.458   6.449   4.320
 2451SOL    HW1 8252   2.427   6.361   4.287
 2451SOL    HW2 8253   2.391   6.520   4.297
 2452SOL     OW 8254   2.434   2.317   4.198
 2452SOL    HW1 8255   2.373   2.288   4.125
 2452SOL    HW2 8256   2.524   2.275   4.186
 2453SOL     OW 8257   0.303   3.387   1.343
 2453SOL    HW1 8258   0.399   3.409   1.322
 2453SOL    HW2 8259   0.296   3.356   1.438
 2454SOL     OW 8260   2.190   0.313   1.487
 2454SOL    HW1 8261   2.150   0.229   1.451
 2454SOL    HW2 8262   2.168   0.389   1.426
 2455SOL     OW 8263   5.493   3.272   1.436
 2455SOL    HW1 8264   5.577   3.268   1.382
 2455SOL    HW2 8265   5.512   3.241   1.529
 2456SOL     OW 8266   2.378   7.006   1.096
 2456SOL    HW1 8267   2.431   6.920   1.101
 2456SOL    HW2 8268   2.288   6.987   1.058
 2457SOL     OW 8269   5.991   6.238   1.223
 2457SOL    HW1 8270   5.941   6.321   1.198
 2457SOL    HW2 8271   5.947   6.196   1.302
 2458SOL     OW 8272   0.279   5.901   1.961
 2458SOL    HW1 8273   0.347   5.845   2.008
 2458SOL    HW2 8274   0.320   5.942   1.880
 2459SOL     OW 8275   0.971   1.534   0.446
 2459SOL    HW1 8276   1.003   1.489   0.362
 2459SOL    HW2 8277   0.947   1.629   0.426
 2460SOL     OW 8278   2.999   4.705   1.394
 2460SOL    HW1 8279   3.013   4.665   1.485
 2460SOL    HW2 8280   2.903   4.695   1.368
 2461SOL     OW 8281   4.991   1.088   2.967
 2461SOL    HW1 8282   4.956   1.109   3.058
 2461SOL    HW2 8283   4.933   1.019   2.924
 2462SOL     OW 8284   2.564   3.601   6.074
 2462SOL    HW1 8285   2.565   3.690   6.120
 2462SOL    HW2 8286   2.631   3.541   6.118
 2463SOL     OW 8287   0.916   2.494   5.160
 2463SOL    HW1 8288   0.992   2.560   5.160
 2463SOL    HW2 8289   0.859   2.509   5.240
 2464SOL     OW 8290   1.387   3.765   0.468
 2464SOL    HW1 8291   1.311   3.751   0.405
 2464SOL    HW2 8292   1.404   3.681   0.519
 2465SOL     OW 8293   5.795   5.356   2.145
 2465SOL    HW1 8294   5.723   5.340   2.078
 2465SOL    HW2 8295   5.755   5.369   2.235
 2466SOL     OW 8296   3.896   1.423   1.686
 2466SOL    HW1 8297   3.977   1.393   1.636
 2466SOL    HW2 8298   3.854   1.501   1.639
 2467SOL     OW 8299   0.285   1.215   4.958
 2467SOL    HW1 8300   0.217   1.170   5.017
 2467SOL    HW2 8301   0.354   1.259   5.015
 2468SOL     OW 8302   6.265   4.638   6.910
 2468SOL    HW1 8303   6.345   4.697   6.897
 2468SOL    HW2 8304   6.216   4.666   6.992
 2469SOL     OW 8305   3.445   2.846   5.847
 2469SOL    HW1 8306   3.454   2.753   5.812
 2469SOL    HW2 8307   3.349   2.874   5.845
 2470SOL     OW 8308   5.375   2.725   0.941
 2470SOL    HW1 8309   5.311   2.664   0.895
 2470SOL    HW2 8310   5.432   2.671   1.003
 2471SOL     OW 8311   0.220   1.282   3.008
 2471SOL    HW1 8312   0.152   1.354   3.020
 2471SOL    HW2 8313   0.178   1.203   2.963
 2472SOL     OW 8314   5.618   1.407   3.664
 2472SOL    HW1 8315   5.579   1.347   3.734
 2472SOL    HW2 8316   5.570   1.394   3.578
 2473SOL     OW 8317   0.593   6.166   5.293
 2473SOL    HW1 8318   0.596   6.166   5.393
 2473SOL    HW2 8319   0.644   6.245   5.258
 2474SOL     OW 8320   6.300   6.836   4.466
 2474SOL    HW1 8321   6.233   6.899   4.505
 2474SOL    HW2 8322   6.256   6.777   4.399
 2475SOL     OW 8323   4.351   2.018   6.383
 2475SOL    HW1 8324   4.392   2.041   6.472
 2475SOL    HW2 8325   4.256   2.050   6.381
 2476SOL     OW 8326   0.695   1.306   3.661
 2476SOL    HW1 8327   0.620   1.309   3.728
 2476SOL    HW2 8328   0.707   1.212   3.629
 2477SOL     OW 8329   4.478   4.916   2.339
 2477SOL    HW1 8330   4.506   4.820   2.338
 2477SOL    HW2 8331   4.555   4.973   2.312
 2478SOL     OW 8332   0.321   6.830   2.571
 2478SOL    HW1 8333   0.327   6.730   2.572
 2478SOL    HW2 8334   0.364   6.865   2.488
 2479SOL     OW 8335   0.707   2.377   6.987
 2479SOL    HW1 8336   0.687   2.472   7.012
 2479SOL    HW2 8337   0.776   2.376   6.916
 2480SOL     OW 8338   6.647   4.992   1.731
 2480SOL    HW1 8339   6.572   5.048   1.697
 2480SOL    HW2 8340   6.726   5.000   1.671
 2481SOL     OW 8341   3.823   5.096   2.351
 2481SOL    HW1 8342   3.809   5.191   2.323
 2481SOL    HW2 8343   3.807   5.035   2.273
 2482SOL     OW 8344   5.034   2.415   5.141
 2482SOL    HW1 8345   5.120   2.444   5.098
 2482SOL    HW2 8346   4.977   2.368   5.073
 2483SOL     OW 8347   0.573   2.919   6.979
 2483SOL    HW1 8348   0.524   2.970   0.032
 2483SOL    HW2 8349   0.591   2.826   7.010
 2484SOL     OW 8350   3.906   4.332   5.825
 2484SOL    HW1 8351   3.941   4.355   5.734
 2484SOL    HW2 8352   3.841   4.401   5.854
 2485SOL     OW 8353   0.638   5.865   6.697
 2485SOL    HW1 8354   0.654   5.796   6.626
 2485SOL    HW2 8355   0.541   5.890   6.697
 2486SOL     OW 8356   0.692   5.566   3.752
 2486SOL    HW1 8357   0.626   5.499   3.718
 2486SOL    HW2 8358   0.747   5.525   3.825
 2487SOL     OW 8359   3.736   1.602   1.571
 2487SOL    HW1 8360   3.710   1.695   1.597
 2487SOL    HW2 8361   3.755   1.598   1.473
 2488SOL     OW 8362   3.260   6.072   6.290
 2488SOL    HW1 8363   3.304   6.112   6.370
 2488SOL    HW2 8364   3.329   6.054   6.219
 2489SOL     OW 8365   0.211   6.172   4.154
 2489SOL    HW1 8366   0.137   6.210   4.097
 2489SOL    HW2 8367   0.174   6.147   4.243
 2490SOL     OW 8368   5.803   2.639   1.538
 2490SOL    HW1 8369   5.869   2.714   1.546
 2490SOL    HW2 8370   5.781   2.605   1.630
 2491SOL     OW 8371   0.302   4.487   3.271
 2491SOL    HW1 8372   0.229   4.457   3.211
 2491SOL    HW2 8373   0.382   4.428   3.260
 2492SOL     OW 8374   4.472   1.532   6.188
 2492SOL    HW1 8375   4.466   1.457   6.254
 2492SOL    HW2 8376   4.386   1.583   6.187
 2493SOL     OW 8377   6.732   0.859   4.756
 2493SOL    HW1 8378   6.732   0.780   4.818
 2493SOL    HW2 8379   6.819   0.864   4.708
 2494SOL     OW 8380   4.391   5.255   1.089
 2494SOL    HW1 8381   4.375   5.157   1.072
 2494SOL    HW2 8382   4.411   5.300   1.002
 2495SOL     OW 8383   6.843   0.928   2.820
 2495SOL    HW1 8384   6.781   0.959   2.748
 2495SOL    HW2 8385   6.885   0.842   2.793
 2496SOL     OW 8386   1.617   5.458   0.254
 2496SOL    HW1 8387   1.546   5.495   0.194
 2496SOL    HW2 8388   1.647   5.369   0.219
 2497SOL     OW 8389   5.656   0.445   6.632
 2497SOL    HW1 8390   5.713   0.409   6.557
 2497SOL    HW2 8391   5.608   0.370   6.676
 2498SOL     OW 8392   0.913   3.230   4.641
 2498SOL    HW1 8393   0.871   3.305   4.691
 2498SOL    HW2 8394   0.852   3.151   4.641
 2499SOL     OW 8395   5.334   1.131   0.526
 2499SOL    HW1 8396   5.259   1.121   0.462
 2499SOL    HW2 8397   5.421   1.137   0.476
 2500SOL     OW 8398   4.430   3.715   6.578
 2500SOL    HW1 8399   4.487   3.715   6.496
 2500SOL    HW2 8400   4.417   3.809   6.610
 2501SOL     OW 8401   6.746   5.142   0.810
 2501SOL    HW1 8402   6.652   5.130   0.842
 2501SOL    HW2 8403   6.766   5.239   0.797
 2502SOL     OW 8404   0.520   0.570   3.733
 2502SOL    HW1 8405   0.477   0.519   3.808
 2502SOL    HW2 8406   0.596   0.624   3.769
 2503SOL     OW 8407   5.385   6.354   4.107
 2503SOL    HW1 8408   5.484   6.341   4.109
 2503SOL    HW2 8409   5.349   6.356   4.201
 2504SOL     OW 8410   2.369   4.379   2.866
 2504SOL    HW1 8411   2.302   4.331   2.809
 2504SOL    HW2 8412   2.432   4.431   2.808
 2505SOL     OW 8413   4.940   4.422   5.028
 2505SOL    HW1 8414   4.887   4.340   5.005
 2505SOL    HW2 8415   4.994   4.450   4.949
 2506SOL     OW 8416   0.882   1.224   0.383
 2506SOL    HW1 8417   0.932   1.208   0.467
 2506SOL    HW2 8418   0.785   1.238   0.403
 2507SOL     OW 8419   6.162   6.770   6.775
 2507SOL    HW1 8420   6.122   6.745   6.862
 2507SOL    HW2 8421   6.199   6.863   6.781
 2508SOL     OW 8422   1.756   2.368   1.697
 2508SOL    HW1 8423   1.735   2.366   1.795
 2508SOL    HW2 8424   1.761   2.462   1.665
 2509SOL     OW 8425   5.813   1.007   3.495
 2509SOL    HW1 8426   5.827   1.040   3.402
 2509SOL    HW2 8427   5.715   1.011   3.518
 2510SOL     OW 8428   4.115   5.870   2.697
 2510SOL    HW1 8429   4.071   5.925   2.626
 2510SOL    HW2 8430   4.203   5.911   2.721
 2511SOL     OW 8431   0.953   6.762   3.692
 2511SOL    HW1 8432   0.891   6.838   3.673
 2511SOL    HW2 8433   0.964   6.752   3.791
 2512SOL     OW 8434   6.056   3.860   4.522
 2512SOL    HW1 8435   6.060   3.798   4.600
 2512SOL    HW2 8436   6.087   3.951   4.551
 2513SOL     OW 8437   0.233   4.627   1.053
 2513SOL    HW1 8438   0.166   4.567   1.009
 2513SOL    HW2 8439   0.242   4.602   1.149
 2514SOL     OW 8440   0.030   2.398   3.505
 2514SOL    HW1 8441   0.055   2.446   3.588
 2514SOL    HW2 8442   0.052   2.301   3.514
 2515SOL     OW 8443   0.861   4.684   6.711
 2515SOL    HW1 8444   0.950   4.708   6.673
 2515SOL    HW2 8445   0.863   4.695   6.811
 2516SOL     OW 8446   5.245   6.396   3.678
 2516SOL    HW1 8447   5.277   6.484   3.644
 2516SOL    HW2 8448   5.185   6.353   3.611
 2517SOL     OW 8449   1.801   5.249   0.881
 2517SOL    HW1 8450   1.826   5.344   0.863
 2517SOL    HW2 8451   1.762   5.242   0.973
 2518SOL     OW 8452   2.078   2.598   6.778
 2518SOL    HW1 8453   2.102   2.600   6.875
 2518SOL    HW2 8454   2.060   2.504   6.751
 2519SOL     OW 8455   5.745   4.045   5.266
 2519SOL    HW1 8456   5.784   3.957   5.240
 2519SOL    HW2 8457   5.724   4.097   5.184
 2520SOL     OW 8458   3.533   5.809   1.404
 2520SOL    HW1 8459   3.598   5.885   1.408
 2520SOL    HW2 8460   3.571   5.735   1.349
 2521SOL     OW 8461   5.845   6.331   5.629
 2521SOL    HW1 8462   5.859   6.232   5.629
 2521SOL    HW2 8463   5.904   6.373   5.561
 2522SOL     OW 8464   2.058   5.321   4.479
 2522SOL    HW1 8465   2.047   5.259   4.557
 2522SOL    HW2 8466   2.102   5.272   4.404
 2523SOL     OW 8467   1.217   1.814   5.487
 2523SOL    HW1 8468   1.188   1.908   5.508
 2523SOL    HW2 8469   1.314   1.813   5.464
 2524SOL     OW 8470   1.644   6.889   4.301
 2524SOL    HW1 8471   1.701   6.825   4.352
 2524SOL    HW2 8472   1.700   6.935   4.232
 2525SOL     OW 8473   2.562   4.653   2.330
 2525SOL    HW1 8474   2.647   4.686   2.288
 2525SOL    HW2 8475   2.519   4.587   2.269
 2526SOL     OW 8476   1.405   2.282   4.571
 2526SOL    HW1 8477   1.461   2.207   4.534
 2526SOL    HW2 8478   1.447   2.370   4.548
 2527SOL     OW 8479   6.646   0.154   3.972
 2527SOL    HW1 8480   6.562   0.208   3.965
 2527SOL    HW2 8481   6.677   0.152   4.067
 2528SOL     OW 8482   5.288   5.774   0.374
 2528SOL    HW1 8483   5.348   5.831   0.317
 2528SOL    HW2 8484   5.323   5.681   0.376
 2529SOL     OW 8485   4.815   4.025   5.351
 2529SOL    HW1 8486   4.834   4.047   5.447
 2529SOL    HW2 8487   4.788   3.929   5.344
 2530SOL     OW 8488   0.936   6.300   3.296
 2530SOL    HW1 8489   0.913   6.286   3.200
 2530SOL    HW2 8490   1.011   6.367   3.302
 2531SOL     OW 8491   5.355   1.347   6.658
 2531SOL    HW1 8492   5.278   1.288   6.682
 2531SOL    HW2 8493   5.322   1.427   6.608
 2532SOL     OW 8494   1.042   4.931   5.585
 2532SOL    HW1 8495   1.007   4.848   5.541
 2532SOL    HW2 8496   1.067   4.998   5.515
 2533SOL     OW 8497   5.732   0.225   5.440
 2533SOL    HW1 8498   5.772   0.267   5.521
 2533SOL    HW2 8499   5.804   0.197   5.377
 2534SOL     OW 8500   6.255   1.610   3.511
 2534SOL    HW1 8501   6.253   1.638   3.607
 2534SOL    HW2 8502   6.242   1.510   3.506
 2535SOL     OW 8503   2.992   1.589   2.436
 2535SOL    HW1 8504   3.050   1.525   2.486
 2535SOL    HW2 8505   3.012   1.584   2.339
 2536SOL     OW 8506   7.010   0.560   4.279
 2536SOL    HW1 8507   6.924   0.591   4.320
 2536SOL    HW2 8508   6.993   0.530   4.185
 2537SOL     OW 8509   3.341   6.386   2.434
 2537SOL    HW1 8510   3.350   6.323   2.512
 2537SOL    HW2 8511   3.254   6.371   2.389
 2538SOL     OW 8512   0.614   4.925   5.360
 2538SOL    HW1 8513   0.583   4.997   5.422
 2538SOL    HW2 8514   0.699   4.954   5.315
 2539SOL     OW 8515   2.079   0.527   5.637
 2539SOL    HW1 8516   2.171   0.488   5.640
 2539SOL    HW2 8517   2.044   0.538   5.730
 2540SOL     OW 8518   4.928   2.312   2.404
 2540SOL    HW1 8519   4.911   2.216   2.428
 2540SOL    HW2 8520   4.862   2.342   2.336
 2541SOL     OW 8521   0.907   1.546   6.469
 2541SOL    HW1 8522   0.975   1.545   6.542
 2541SOL    HW2 8523   0.894   1.453   6.435
 2542SOL     OW 8524   3.878   1.682   3.920
 2542SOL    HW1 8525   3.914   1.775   3.932
 2542SOL    HW2 8526   3.868   1.662   3.822
 2543SOL     OW 8527   6.076   0.673   5.213
 2543SOL    HW1 8528   6.065   0.614   5.293
 2543SOL    HW2 8529   6.068   0.618   5.130
 2544SOL     OW 8530   6.976   6.829   1.441
 2544SOL    HW1 8531   6.980   6.796   1.346
 2544SOL    HW2 8532   6.947   6.925   1.442
 2545SOL     OW 8533   6.943   1.491   0.478
 2545SOL    HW1 8534   6.876   1.479   0.551
 2545SOL    HW2 8535   6.919   1.431   0.401
 2546SOL     OW 8536   6.160   3.479   2.459
 2546SOL    HW1 8537   6.231   3.413   2.437
 2546SOL    HW2 8538   6.149   3.543   2.382
 2547SOL     OW 8539   5.624   3.401   1.053
 2547SOL    HW1 8540   5.567   3.350   0.988
 2547SOL    HW2 8541   5.673   3.474   1.005
 2548SOL     OW 8542   6.613   0.505   5.131
 2548SOL    HW1 8543   6.626   0.421   5.183
 2548SOL    HW2 8544   6.572   0.574   5.191
 2549SOL     OW 8545   2.670   5.105   0.661
 2549SOL    HW1 8546   2.725   5.073   0.583
 2549SOL    HW2 8547   2.573   5.101   0.637
 2550SOL     OW 8548   3.543   6.888   1.426
 2550SOL    HW1 8549   3.460   6.868   1.374
 2550SOL    HW2 8550   3.558   6.987   1.427
 2551SOL     OW 8551   3.379   4.592   1.455
 2551SOL    HW1 8552   3.476   4.581   1.434
 2551SOL    HW2 8553   3.361   4.687   1.478
 2552SOL     OW 8554   2.357   4.618   1.334
 2552SOL    HW1 8555   2.295   4.573   1.399
 2552SOL    HW2 8556   2.401   4.549   1.276
 2553SOL     OW 8557   4.993   1.311   0.195
 2553SOL    HW1 8558   4.984   1.364   0.280
 2553SOL    HW2 8559   4.977   1.372   0.117
 2554SOL     OW 8560   0.586   5.203   1.309
 2554SOL    HW1 8561   0.584   5.145   1.390
 2554SOL    HW2 8562   0.493   5.234   1.288
 2555SOL     OW 8563   0.862   6.826   5.092
 2555SOL    HW1 8564   0.818   6.912   5.064
 2555SOL    HW2 8565   0.872   6.825   5.191
 2556SOL     OW 8566   4.630   0.141   1.217
 2556SOL    HW1 8567   4.707   0.158   1.278
 2556SOL    HW2 8568   4.637   0.049   1.179
 2557SOL     OW 8569   2.553   1.335   6.971
 2557SOL    HW1 8570   2.649   1.308   6.979
 2557SOL    HW2 8571   2.527   1.337   6.875
 2558SOL     OW 8572   5.381   1.991   1.402
 2558SOL    HW1 8573   5.350   2.068   1.347
 2558SOL    HW2 8574   5.471   1.960   1.369
 2559SOL     OW 8575   6.141   5.212   3.696
 2559SOL    HW1 8576   6.107   5.200   3.602
 2559SOL    HW2 8577   6.224   5.158   3.708
 2560SOL     OW 8578   4.509   2.455   2.061
 2560SOL    HW1 8579   4.511   2.489   1.967
 2560SOL    HW2 8580   4.549   2.524   2.122
 2561SOL     OW 8581   3.426   7.014   4.829
 2561SOL    HW1 8582   3.368   0.066   4.873
 2561SOL    HW2 8583   3.383   6.984   4.744
 2562SOL     OW 8584   1.951   6.851   5.068
 2562SOL    HW1 8585   1.892   6.859   5.149
 2562SOL    HW2 8586   1.911   6.787   5.003
 2563SOL     OW 8587   3.914   2.527   6.418
 2563SOL    HW1 8588   3.968   2.609   6.439
 2563SOL    HW2 8589   3.875   2.535   6.327
 2564SOL     OW 8590   1.282   1.227   0.377
 2564SOL    HW1 8591   1.215   1.267   0.314
 2564SOL    HW2 8592   1.311   1.296   0.443
 2565SOL     OW 8593   0.617   0.923   0.531
 2565SOL    HW1 8594   0.546   0.967   0.586
 2565SOL    HW2 8595   0.685   0.882   0.591
 2566SOL     OW 8596   3.150   1.190   0.895
 2566SOL    HW1 8597   3.124   1.167   0.988
 2566SOL    HW2 8598   3.191   1.110   0.851
 2567SOL     OW 8599   1.852   0.757   6.484
 2567SOL    HW1 8600   1.864   0.801   6.395
 2567SOL    HW2 8601   1.872   0.660   6.476
 2568SOL     OW 8602   1.651   5.290   1.110
 2568SOL    HW1 8603   1.664   5.388   1.122
 2568SOL    HW2 8604   1.630   5.248   1.199
 2569SOL     OW 8605   1.826   6.450   6.719
 2569SOL    HW1 8606   1.843   6.513   6.644
 2569SOL    HW2 8607   1.729   6.426   6.721
 2570SOL     OW 8608   0.512   6.774   3.983
 2570SOL    HW1 8609   0.536   6.693   3.931
 2570SOL    HW2 8610   0.556   6.771   4.073
 2571SOL     OW 8611   3.748   3.573   2.840
 2571SOL    HW1 8612   3.839   3.609   2.819
 2571SOL    HW2 8613   3.679   3.641   2.817
 2572SOL     OW 8614   2.181   6.246   2.553
 2572SOL    HW1 8615   2.132   6.226   2.468
 2572SOL    HW2 8616   2.274   6.275   2.531
 2573SOL     OW 8617   6.964   1.093   3.226
 2573SOL    HW1 8618   6.946   1.120   3.132
 2573SOL    HW2 8619   0.042   1.062   3.234
 2574SOL     OW 8620   0.249   3.370   1.911
 2574SOL    HW1 8621   0.334   3.419   1.931
 2574SOL    HW2 8622   0.184   3.383   1.987
 2575SOL     OW 8623   4.549   3.895   5.423
 2575SOL    HW1 8624   4.519   3.982   5.382
 2575SOL    HW2 8625   4.512   3.888   5.516
 2576SOL     OW 8626   1.166   0.111   3.070
 2576SOL    HW1 8627   1.162   0.025   3.121
 2576SOL    HW2 8628   1.102   0.107   2.993
 2577SOL     OW 8629   1.560   4.363   1.586
 2577SOL    HW1 8630   1.618   4.356   1.668
 2577SOL    HW2 8631   1.559   4.458   1.555
 2578SOL     OW 8632   4.585   2.672   5.094
 2578SOL    HW1 8633   4.647   2.610   5.141
 2578SOL    HW2 8634   4.620   2.766   5.099
 2579SOL     OW 8635   0.277   1.184   6.731
 2579SOL    HW1 8636   0.192   1.228   6.758
 2579SOL    HW2 8637   0.336   1.173   6.811
 2580SOL     OW 8638   1.833   1.983   5.427
 2580SOL    HW1 8639   1.771   2.061   5.440
 2580SOL    HW2 8640   1.806   1.933   5.344
 2581SOL     OW 8641   5.989   6.256   4.512
 2581SOL    HW1 8642   5.932   6.268   4.431
 2581SOL    HW2 8643   5.940   6.288   4.593
 2582SOL     OW 8644   6.980   4.664   3.269
 2582SOL    HW1 8645   6.930   4.582   3.297
 2582SOL    HW2 8646   6.915   4.734   3.238
 2583SOL     OW 8647   2.614   1.068   0.075
 2583SOL    HW1 8648   2.552   1.137   0.112
 2583SOL    HW2 8649   2.708   1.101   0.081
 2584SOL     OW 8650   4.180   1.070   3.472
 2584SOL    HW1 8651   4.178   1.169   3.457
 2584SOL    HW2 8652   4.095   1.030   3.438
 2585SOL     OW 8653   3.908   0.516   1.953
 2585SOL    HW1 8654   3.835   0.553   2.011
 2585SOL    HW2 8655   3.984   0.485   2.009
 2586SOL     OW 8656   0.492   1.628   4.136
 2586SOL    HW1 8657   0.415   1.564   4.139
 2586SOL    HW2 8658   0.505   1.669   4.226
 2587SOL     OW 8659   6.849   5.120   2.844
 2587SOL    HW1 8660   6.771   5.111   2.906
 2587SOL    HW2 8661   6.913   5.188   2.880
 2588SOL     OW 8662   3.834   6.822   2.681
 2588SOL    HW1 8663   3.916   6.857   2.727
 2588SOL    HW2 8664   3.857   6.741   2.627
 2589SOL     OW 8665   4.365   6.398   1.496
 2589SOL    HW1 8666   4.446   6.366   1.446
 2589SOL    HW2 8667   4.393   6.433   1.585
 2590SOL     OW 8668   3.724   5.969   3.874
 2590SOL    HW1 8669   3.758   5.978   3.780
 2590SOL    HW2 8670   3.651   6.036   3.890
 2591SOL     OW 8671   6.044   0.396   0.420
 2591SOL    HW1 8672   6.134   0.438   0.425
 2591SOL    HW2 8673   6.050   0.299   0.443
 2592SOL     OW 8674   2.740   4.752   1.716
 2592SOL    HW1 8675   2.665   4.753   1.650
 2592SOL    HW2 8676   2.750   4.660   1.753
 2593SOL     OW 8677   3.230   0.009   3.526
 2593SOL    HW1 8678   3.247   6.930   3.506
 2593SOL    HW2 8679   3.286   0.038   3.604
 2594SOL     OW 8680   1.595   5.368   6.804
 2594SOL    HW1 8681   1.586   5.457   6.847
 2594SOL    HW2 8682   1.545   5.300   6.857
 2595SOL     OW 8683   7.016   3.054   4.377
 2595SOL    HW1 8684   6.983   2.960   4.388
 2595SOL    HW2 8685   0.095   3.053   4.351
 2596SOL     OW 8686   4.063   1.568   0.906
 2596SOL    HW1 8687   4.113   1.645   0.945
 2596SOL    HW2 8688   4.059   1.493   0.972
 2597SOL     OW 8689   2.075   2.471   5.957
 2597SOL    HW1 8690   2.060   2.373   5.966
 2597SOL    HW2 8691   2.117   2.490   5.868
 2598SOL     OW 8692   6.975   0.699   2.771
 2598SOL    HW1 8693   0.049   0.689   2.732
 2598SOL    HW2 8694   6.974   0.659   2.863
 2599SOL     OW 8695   5.037   5.672   6.343
 2599SOL    HW1 8696   5.040   5.665   6.443
 2599SOL    HW2 8697   5.094   5.601   6.303
 2600SOL     OW 8698   0.654   2.353   4.714
 2600SOL    HW1 8699   0.728   2.370   4.780
 2600SOL    HW2 8700   0.626   2.440   4.673
 2601SOL     OW 8701   4.155   3.631   5.118
 2601SOL    HW1 8702   4.247   3.669   5.127
 2601SOL    HW2 8703   4.119   3.655   5.028
 2602SOL     OW 8704   6.063   6.568   6.351
 2602SOL    HW1 8705   6.067   6.570   6.451
 2602SOL    HW2 8706   6.156   6.569   6.314
 2603SOL     OW 8707   1.391   2.039   6.484
 2603SOL    HW1 8708   1.441   1.981   6.420
 2603SOL    HW2 8709   1.295   2.010   6.487
 2604SOL     OW 8710   5.810   1.828   0.885
 2604SOL    HW1 8711   5.864   1.877   0.953
 2604SOL    HW2 8712   5.720   1.871   0.876
 2605SOL     OW 8713   5.940   3.146   4.587
 2605SOL    HW1 8714   6.009   3.195   4.639
 2605SOL    HW2 8715   5.942   3.049   4.612
 2606SOL     OW 8716   6.523   4.414   1.351
 2606SOL    HW1 8717   6.554   4.505   1.376
 2606SOL    HW2 8718   6.595   4.366   1.301
 2607SOL     OW 8719   1.157   1.198   4.087
 2607SOL    HW1 8720   1.084   1.148   4.040
 2607SOL    HW2 8721   1.157   1.293   4.057
 2608SOL     OW 8722   5.134   0.151   0.334
 2608SOL    HW1 8723   5.051   0.166   0.388
 2608SOL    HW2 8724   5.210   0.202   0.374
 2609SOL     OW 8725   0.676   2.938   3.235
 2609SOL    HW1 8726   0.603   3.004   3.217
 2609SOL    HW2 8727   0.750   2.951   3.170
 2610SOL     OW 8728   5.273   5.912   4.547
 2610SOL    HW1 8729   5.286   5.901   4.449
 2610SOL    HW2 8730   5.283   6.009   4.571
 2611SOL     OW 8731   2.704   5.654   2.093
 2611SOL    HW1 8732   2.760   5.690   2.018
 2611SOL    HW2 8733   2.617   5.620   2.056
 2612SOL     OW 8734   0.453   0.051   5.596
 2612SOL    HW1 8735   0.471   6.992   5.534
 2612SOL    HW2 8736   0.526   0.119   5.587
 2613SOL     OW 8737   3.587   1.133   0.773
 2613SOL    HW1 8738   3.608   1.225   0.742
 2613SOL    HW2 8739   3.673   1.085   0.795
 2614SOL     OW 8740   6.589   6.077   6.427
 2614SOL    HW1 8741   6.673   6.130   6.416
 2614SOL    HW2 8742   6.510   6.137   6.423
 2615SOL     OW 8743   6.008   4.115   1.536
 2615SOL    HW1 8744   6.031   4.080   1.627
 2615SOL    HW2 8745   5.956   4.200   1.546
 2616SOL     OW 8746   4.185   3.220   2.111
 2616SOL    HW1 8747   4.257   3.195   2.175
 2616SOL    HW2 8748   4.170   3.319   2.115
 2617SOL     OW 8749   2.195   6.624   1.002
 2617SOL    HW1 8750   2.167   6.574   1.083
 2617SOL    HW2 8751   2.159   6.578   0.920
 2618SOL     OW 8752   1.247   6.599   0.266
 2618SOL    HW1 8753   1.267   6.679   0.322
 2618SOL    HW2 8754   1.280   6.614   0.173
 2619SOL     OW 8755   6.047   1.280   1.347
 2619SOL    HW1 8756   6.032   1.358   1.286
 2619SOL    HW2 8757   6.139   1.243   1.332
 2620SOL     OW 8758   1.256   5.865   4.041
 2620SOL    HW1 8759   1.270   5.882   3.944
 2620SOL    HW2 8760   1.170   5.815   4.055
 2621SOL     OW 8761   0.712   5.479   4.496
 2621SOL    HW1 8762   0.635   5.519   4.446
 2621SOL    HW2 8763   0.796   5.530   4.475
 2622SOL     OW 8764   2.509   2.322   5.357
 2622SOL    HW1 8765   2.558   2.398   5.314
 2622SOL    HW2 8766   2.563   2.239   5.349
 2623SOL     OW 8767   3.315   0.225   6.291
 2623SOL    HW1 8768   3.373   0.194   6.216
 2623SOL    HW2 8769   3.372   0.260   6.365
 2624SOL     OW 8770   6.059   2.264   4.242
 2624SOL    HW1 8771   6.045   2.179   4.191
 2624SOL    HW2 8772   5.983   2.279   4.304
 2625SOL     OW 8773   3.157   0.264   6.032
 2625SOL    HW1 8774   3.063   0.232   6.025
 2625SOL    HW2 8775   3.165   0.327   6.110
 2626SOL     OW 8776   1.851   0.106   2.857
 2626SOL    HW1 8777   1.865   0.032   2.923
 2626SOL    HW2 8778   1.869   0.194   2.901
 2627SOL     OW 8779   0.674   0.081   5.292
 2627SOL    HW1 8780   0.743   0.099   5.362
 2627SOL    HW2 8781   0.627   7.013   5.313
 2628SOL     OW 8782   3.876   6.098   0.293
 2628SOL    HW1 8783   3.826   6.109   0.207
 2628SOL    HW2 8784   3.811   6.099   0.369
 2629SOL     OW 8785   3.069   3.660   1.898
 2629SOL    HW1 8786   3.144   3.705   1.849
 2629SOL    HW2 8787   3.097   3.641   1.992
 2630SOL     OW 8788   2.629   2.276   2.624
 2630SOL    HW1 8789   2.594   2.369   2.612
 2630SOL    HW2 8790   2.692   2.275   2.702
 2631SOL     OW 8791   4.051   5.734   4.629
 2631SOL    HW1 8792   4.106   5.655   4.659
 2631SOL    HW2 8793   4.110   5.814   4.620
 2632SOL     OW 8794   4.898   1.508   1.153
 2632SOL    HW1 8795   4.933   1.440   1.216
 2632SOL    HW2 8796   4.809   1.478   1.117
 2633SOL     OW 8797   6.760   2.703   6.629
 2633SOL    HW1 8798   6.846   2.654   6.617
 2633SOL    HW2 8799   6.779   2.800   6.646
 2634SOL     OW 8800   3.473   4.952   0.822
 2634SOL    HW1 8801   3.551   4.889   0.827
 2634SOL    HW2 8802   3.478   5.004   0.737
 2635SOL     OW 8803   6.216   4.798   3.422
 2635SOL    HW1 8804   6.134   4.821   3.475
 2635SOL    HW2 8805   6.289   4.863   3.445
 2636SOL     OW 8806   6.058   5.800   5.332
 2636SOL    HW1 8807   6.126   5.753   5.389
 2636SOL    HW2 8808   6.017   5.735   5.269
 2637SOL     OW 8809   5.225   6.654   2.528
 2637SOL    HW1 8810   5.265   6.588   2.590
 2637SOL    HW2 8811   5.127   6.637   2.517
 2638SOL     OW 8812   4.865   6.057   1.002
 2638SOL    HW1 8813   4.809   6.096   0.929
 2638SOL    HW2 8814   4.947   6.016   0.963
 2639SOL     OW 8815   0.002   6.195   6.675
 2639SOL    HW1 8816   0.058   6.118   6.646
 2639SOL    HW2 8817   0.057   6.279   6.674
 2640SOL     OW 8818   6.370   0.114   6.196
 2640SOL    HW1 8819   6.379   0.214   6.201
 2640SOL    HW2 8820   6.319   0.090   6.114
 2641SOL     OW 8821   6.698   5.974   0.405
 2641SOL    HW1 8822   6.746   5.918   0.337
 2641SOL    HW2 8823   6.619   5.923   0.440
 2642SOL     OW 8824   6.427   0.821   3.893
 2642SOL    HW1 8825   6.407   0.723   3.895
 2642SOL    HW2 8826   6.362   0.870   3.950
 2643SOL     OW 8827   2.319   0.373   1.956
 2643SOL    HW1 8828   2.251   0.337   1.893
 2643SOL    HW2 8829   2.368   0.449   1.912
 2644SOL     OW 8830   6.987   5.789   5.113
 2644SOL    HW1 8831   6.991   5.746   5.023
 2644SOL    HW2 8832   6.906   5.757   5.162
 2645SOL     OW 8833   5.812   6.033   6.131
 2645SOL    HW1 8834   5.849   6.055   6.221
 2645SOL    HW2 8835   5.801   5.934   6.122
 2646SOL     OW 8836   6.022   6.034   6.869
 2646SOL    HW1 8837   6.067   5.993   6.948
 2646SOL    HW2 8838   6.088   6.041   6.794
 2647SOL     OW 8839   2.997   3.468   6.999
 2647SOL    HW1 8840   3.003   3.558   0.025
 2647SOL    HW2 8841   3.089   3.439   6.971
 2648SOL     OW 8842   4.023   1.317   3.922
 2648SOL    HW1 8843   4.069   1.280   4.002
 2648SOL    HW2 8844   4.082   1.386   3.878
 2649SOL     OW 8845   2.721   3.402   5.244
 2649SOL    HW1 8846   2.798   3.430   5.301
 2649SOL    HW2 8847   2.745   3.414   5.148
 2650SOL     OW 8848   0.228   6.574   2.866
 2650SOL    HW1 8849   0.305   6.608   2.920
 2650SOL    HW2 8850   0.256   6.566   2.770
 2651SOL     OW 8851   0.913   0.263   3.279
 2651SOL    HW1 8852   0.984   0.296   3.217
 2651SOL    HW2 8853   0.955   0.213   3.355
 2652SOL     OW 8854   2.974   3.380   2.739
 2652SOL    HW1 8855   3.074   3.378   2.752
 2652SOL    HW2 8856   2.948   3.309   2.674
 2653SOL     OW 8857   6.936   6.317   0.224
 2653SOL    HW1 8858   6.982   6.330   0.313
 2653SOL    HW2 8859   6.842   6.286   0.240
 2654SOL     OW 8860   6.709   1.565   5.982
 2654SOL    HW1 8861   6.785   1.524   5.932
 2654SOL    HW2 8862   6.722   1.664   5.988
 2655SOL     OW 8863   5.398   5.296   4.966
 2655SOL    HW1 8864   5.411   5.376   5.024
 2655SOL    HW2 8865   5.486   5.254   4.946
 2656SOL     OW 8866   5.751   3.433   5.260
 2656SOL    HW1 8867   5.681   3.367   5.286
 2656SOL    HW2 8868   5.788   3.477   5.342
 2657SOL     OW 8869   3.627   1.897   6.277
 2657SOL    HW1 8870   3.557   1.840   6.322
 2657SOL    HW2 8871   3.688   1.838   6.224
 2658SOL     OW 8872   5.934   4.176   5.436
 2658SOL    HW1 8873   5.858   4.126   5.393
 2658SOL    HW2 8874   6.021   4.135   5.409
 2659SOL     OW 8875   6.528   1.541   3.769
 2659SOL    HW1 8876   6.527   1.453   3.816
 2659SOL    HW2 8877   6.614   1.550   3.719
 2660SOL     OW 8878   0.173   2.265   3.169
 2660SOL    HW1 8879   0.188   2.360   3.142
 2660SOL    HW2 8880   0.080   2.237   3.143
 2661SOL     OW 8881   3.641   0.097   2.942
 2661SOL    HW1 8882   3.628   0.071   2.846
 2661SOL    HW2 8883   3.557   0.139   2.976
 2662SOL     OW 8884   3.361   1.118   3.930
 2662SOL    HW1 8885   3.355   1.024   3.961
 2662SOL    HW2 8886   3.367   1.179   4.009
 2663SOL     OW 8887   0.443   4.566   2.981
 2663SOL    HW1 8888   0.466   4.630   3.054
 2663SOL    HW2 8889   0.524   4.513   2.956
 2664SOL     OW 8890   4.089   4.067   1.685
 2664SOL    HW1 8891   4.139   4.130   1.627
 2664SOL    HW2 8892   4.002   4.108   1.712
 2665SOL     OW 8893   4.476   0.094   4.895
 2665SOL    HW1 8894   4.521   0.047   4.972
 2665SOL    HW2 8895   4.387   0.129   4.926
 2666SOL     OW 8896   4.788   6.250   1.701
 2666SOL    HW1 8897   4.830   6.229   1.613
 2666SOL    HW2 8898   4.706   6.194   1.714
 2667SOL     OW 8899   1.874   5.397   3.025
 2667SOL    HW1 8900   1.851   5.366   3.117
 2667SOL    HW2 8901   1.793   5.436   2.982
 2668SOL     OW 8902   6.468   2.208   5.584
 2668SOL    HW1 8903   6.406   2.280   5.554
 2668SOL    HW2 8904   6.562   2.243   5.585
 2669SOL     OW 8905   3.974   5.790   5.036
 2669SOL    HW1 8906   3.967   5.691   5.043
 2669SOL    HW2 8907   4.022   5.826   5.116
 2670SOL     OW 8908   2.819   6.892   4.304
 2670SOL    HW1 8909   2.915   6.867   4.301
 2670SOL    HW2 8910   2.771   6.851   4.226
 2671SOL     OW 8911   3.131   4.163   6.334
 2671SOL    HW1 8912   3.077   4.215   6.268
 2671SOL    HW2 8913   3.194   4.225   6.382
 2672SOL     OW 8914   0.979   4.347   6.937
 2672SOL    HW1 8915   1.045   4.386   6.873
 2672SOL    HW2 8916   0.911   4.293   6.887
 2673SOL     OW 8917   3.812   2.122   3.541
 2673SOL    HW1 8918   3.866   2.121   3.625
 2673SOL    HW2 8919   3.860   2.174   3.471
 2674SOL     OW 8920   6.537   5.598   5.210
 2674SOL    HW1 8921   6.540   5.499   5.197
 2674SOL    HW2 8922   6.452   5.634   5.171
 2675SOL     OW 8923   0.478   4.422   5.539
 2675SOL    HW1 8924   0.479   4.340   5.595
 2675SOL    HW2 8925   0.386   4.462   5.538
 2676SOL     OW 8926   4.530   0.156   1.956
 2676SOL    HW1 8927   4.476   0.072   1.954
 2676SOL    HW2 8928   4.513   0.209   1.874
 2677SOL     OW 8929   2.441   4.476   2.128
 2677SOL    HW1 8930   2.346   4.507   2.138
 2677SOL    HW2 8931   2.490   4.538   2.068
 2678SOL     OW 8932   7.016   6.341   6.187
 2678SOL    HW1 8933   0.090   6.323   6.225
 2678SOL    HW2 8934   6.946   6.310   6.252
 2679SOL     OW 8935   2.616   5.180   1.655
 2679SOL    HW1 8936   2.631   5.150   1.561
 2679SOL    HW2 8937   2.522   5.213   1.665
 2680SOL     OW 8938   1.472   2.510   1.303
 2680SOL    HW1 8939   1.498   2.512   1.399
 2680SOL    HW2 8940   1.385   2.463   1.293
 2681SOL     OW 8941   1.714   1.843   2.063
 2681SOL    HW1 8942   1.775   1.850   2.142
 2681SOL    HW2 8943   1.754   1.891   1.985
 2682SOL     OW 8944   6.381   2.744   4.275
 2682SOL    HW1 8945   6.311   2.734   4.204
 2682SOL    HW2 8946   6.464   2.697   4.246
 2683SOL     OW 8947   1.228   6.914   0.153
 2683SOL    HW1 8948   1.216   6.996   0.097
 2683SOL    HW2 8949   1.283   6.847   0.104
 2684SOL     OW 8950   2.650   5.658   2.568
 2684SOL    HW1 8951   2.597   5.643   2.484
 2684SOL    HW2 8952   2.589   5.688   2.641
 2685SOL     OW 8953   5.374   5.705   5.352
 2685SOL    HW1 8954   5.354   5.759   5.434
 2685SOL    HW2 8955   5.369   5.763   5.271
 2686SOL     OW 8956   1.491   2.992   4.644
 2686SOL    HW1 8957   1.578   3.042   4.641
 2686SOL    HW2 8958   1.416   3.058   4.648
 2687SOL     OW 8959   4.636   4.650   3.362
 2687SOL    HW1 8960   4.585   4.573   3.322
 2687SOL    HW2 8961   4.573   4.706   3.416
 2688SOL     OW 8962   3.950   4.624   5.920
 2688SOL    HW1 8963   3.992   4.606   5.831
 2688SOL    HW2 8964   4.021   4.638   5.988
 2689SOL     OW 8965   6.443   3.033   4.723
 2689SOL    HW1 8966   6.496   3.103   4.770
 2689SOL    HW2 8967   6.441   3.052   4.625
 2690SOL     OW 8968   2.972   3.338   3.225
 2690SOL    HW1 8969   2.975   3.320   3.127
 2690SOL    HW2 8970   2.944   3.433   3.241
 2691SOL     OW 8971   1.211   6.463   1.823
 2691SOL    HW1 8972   1.262   6.486   1.906
 2691SOL    HW2 8973   1.273   6.462   1.745
 2692SOL     OW 8974   6.930   5.170   3.190
 2692SOL    HW1 8975   6.855   5.219   3.145
 2692SOL    HW2 8976   6.928   5.192   3.288
 2693SOL     OW 8977   1.580   3.658   2.846
 2693SOL    HW1 8978   1.672   3.623   2.829
 2693SOL    HW2 8979   1.571   3.683   2.942
 2694SOL     OW 8980   1.952   1.595   2.690
 2694SOL    HW1 8981   1.982   1.596   2.785
 2694SOL    HW2 8982   2.010   1.655   2.635
 2695SOL     OW 8983   4.091   2.230   2.871
 2695SOL    HW1 8984   4.030   2.161   2.910
 2695SOL    HW2 8985   4.056   2.258   2.781
 2696SOL     OW 8986   4.232   3.911   5.421
 2696SOL    HW1 8987   4.253   3.955   5.334
 2696SOL    HW2 8988   4.158   3.844   5.407
 2697SOL     OW 8989   2.695   0.941   5.071
 2697SOL    HW1 8990   2.616   0.996   5.097
 2697SOL    HW2 8991   2.685   0.912   4.976
 2698SOL     OW 8992   2.083   2.686   6.355
 2698SOL    HW1 8993   2.131   2.604   6.324
 2698SOL    HW2 8994   1.989   2.684   6.322
 2699SOL     OW 8995   1.777   6.023   2.633
 2699SOL    HW1 8996   1.841   5.959   2.675
 2699SOL    HW2 8997   1.747   6.090   2.701
 2700SOL     OW 8998   1.887   4.434   3.092
 2700SOL    HW1 8999   1.899   4.360   3.157
 2700SOL    HW2 9000   1.813   4.412   3.029
 2701SOL     OW 9001   3.531   0.308   5.759
 2701SOL    HW1 9002   3.486   0.332   5.673
 2701SOL    HW2 9003   3.630   0.309   5.747
 2702SOL     OW 9004   6.933   6.251   2.782
 2702SOL    HW1 9005   6.923   6.152   2.793
 2702SOL    HW2 9006   6.925   6.295   2.871
 2703SOL     OW 9007   1.463   2.072   3.378
 2703SOL    HW1 9008   1.439   2.080   3.281
 2703SOL    HW2 9009   1.382   2.046   3.430
 2704SOL     OW 9010   1.503   5.952   0.727
 2704SOL    HW1 9011   1.509   6.000   0.814
 2704SOL    HW2 9012   1.414   5.969   0.686
 2705SOL     OW 9013   0.402   4.240   2.921
 2705SOL    HW1 9014   0.352   4.323   2.893
 2705SOL    HW2 9015   0.339   4.163   2.923
 2706SOL     OW 9016   6.332   2.371   3.088
 2706SOL    HW1 9017   6.378   2.390   3.002
 2706SOL    HW2 9018   6.328   2.272   3.102
 2707SOL     OW 9019   2.935   1.219   6.126
 2707SOL    HW1 9020   2.972   1.136   6.166
 2707SOL    HW2 9021   2.956   1.221   6.028
 2708SOL     OW 9022   1.329   4.476   0.676
 2708SOL    HW1 9023   1.374   4.387   0.678
 2708SOL    HW2 9024   1.398   4.548   0.664
 2709SOL     OW 9025   4.596   6.613   1.527
 2709SOL    HW1 9026   4.682   6.663   1.540
 2709SOL    HW2 9027   4.617   6.518   1.501
 2710SOL     OW 9028   6.585   3.921   2.738
 2710SOL    HW1 9029   6.653   3.880   2.799
 2710SOL    HW2 9030   6.628   3.943   2.651
 2711SOL     OW 9031   1.330   6.858   2.493
 2711SOL    HW1 9032   1.242   6.818   2.465
 2711SOL    HW2 9033   1.326   6.883   2.590
 2712SOL     OW 9034   3.566   5.461   2.728
 2712SOL    HW1 9035   3.467   5.466   2.716
 2712SOL    HW2 9036   3.611   5.479   2.641
 2713SOL     OW 9037   2.090   2.530   5.283
 2713SOL    HW1 9038   2.134   2.567   5.202
 2713SOL    HW2 9039   2.160   2.499   5.348
 2714SOL     OW 9040   5.533   6.915   6.120
 2714SOL    HW1 9041   5.444   6.878   6.148
 2714SOL    HW2 9042   5.598   6.908   6.196
 2715SOL     OW 9043   6.206   0.317   7.008
 2715SOL    HW1 9044   6.227   0.414   6.995
 2715SOL    HW2 9045   6.107   0.303   7.001
 2716SOL     OW 9046   6.792   6.784   2.758
 2716SOL    HW1 9047   6.773   6.845   2.681
 2716SOL    HW2 9048   6.882   6.743   2.746
 2717SOL     OW 9049   0.837   6.977   3.327
 2717SOL    HW1 9050   0.926   6.935   3.341
 2717SOL    HW2 9051   0.847   0.059   3.323
 2718SOL     OW 9052   0.663   4.059   3.651
 2718SOL    HW1 9053   0.631   3.967   3.630
 2718SOL    HW2 9054   0.723   4.092   3.578
 2719SOL     OW 9055   4.427   4.849   2.782
 2719SOL    HW1 9056   4.413   4.941   2.818
 2719SOL    HW2 9057   4.519   4.842   2.744
 2720SOL     OW 9058   1.260   6.252   3.885
 2720SOL    HW1 9059   1.219   6.343   3.874
 2720SOL    HW2 9060   1.203   6.184   3.839
 2721SOL     OW 9061   4.944   6.244   3.853
 2721SOL    HW1 9062   5.019   6.289   3.903
 2721SOL    HW2 9063   4.895   6.183   3.915
 2722SOL     OW 9064   1.446   6.343   1.235
 2722SOL    HW1 9065   1.437   6.257   1.285
 2722SOL    HW2 9066   1.540   6.378   1.246
 2723SOL     OW 9067   2.096   1.783   4.639
 2723SOL    HW1 9068   2.061   1.840   4.713
 2723SOL    HW2 9069   2.144   1.704   4.677
 2724SOL     OW 9070   4.140   6.238   6.095
 2724SOL    HW1 9071   4.207   6.307   6.124
 2724SOL    HW2 9072   4.160   6.152   6.141
 2725SOL     OW 9073   2.769   5.111   3.829
 2725SOL    HW1 9074   2.817   5.159   3.902
 2725SOL    HW2 9075   2.830   5.102   3.749
 2726SOL     OW 9076   4.710   6.723   2.371
 2726SOL    HW1 9077   4.638   6.666   2.330
 2726SOL    HW2 9078   4.733   6.688   2.461
 2727SOL     OW 9079   2.167   5.909   3.365
 2727SOL    HW1 9080   2.166   5.819   3.409
 2727SOL    HW2 9081   2.074   5.942   3.355
 2728SOL     OW 9082   3.339   6.877   5.103
 2728SOL    HW1 9083   3.412   6.810   5.087
 2728SOL    HW2 9084   3.378   6.969   5.105
 2729SOL     OW 9085   0.012   4.739   2.868
 2729SOL    HW1 9086   6.953   4.680   2.842
 2729SOL    HW2 9087   7.003   4.794   2.947
 2730SOL     OW 9088   1.125   4.648   1.520
 2730SOL    HW1 9089   1.161   4.636   1.428
 2730SOL    HW2 9090   1.063   4.572   1.542
 2731SOL     OW 9091   2.941   3.736   0.815
 2731SOL    HW1 9092   2.905   3.818   0.861
 2731SOL    HW2 9093   2.990   3.680   0.881
 2732SOL     OW 9094   5.058   3.316   4.758
 2732SOL    HW1 9095   4.989   3.350   4.695
 2732SOL    HW2 9096   5.051   3.365   4.845
 2733SOL     OW 9097   2.347   0.622   6.222
 2733SOL    HW1 9098   2.425   0.577   6.180
 2733SOL    HW2 9099   2.335   0.589   6.316
 2734SOL     OW 9100   2.523   0.104   3.857
 2734SOL    HW1 9101   2.462   0.078   3.931
 2734SOL    HW2 9102   2.618   0.093   3.886
 2735SOL     OW 9103   1.437   5.220   1.547
 2735SOL    HW1 9104   1.400   5.313   1.548
 2735SOL    HW2 9105   1.410   5.172   1.631
 2736SOL     OW 9106   3.637   6.809   6.504
 2736SOL    HW1 9107   3.578   6.753   6.447
 2736SOL    HW2 9108   3.582   6.860   6.571
 2737SOL     OW 9109   4.277   3.274   5.635
 2737SOL    HW1 9110   4.243   3.343   5.571
 2737SOL    HW2 9111   4.201   3.221   5.672
 2738SOL     OW 9112   5.791   4.091   4.352
 2738SOL    HW1 9113   5.882   4.133   4.358
 2738SOL    HW2 9114   5.757   4.099   4.259
 2739SOL     OW 9115   4.701   4.348   0.501
 2739SOL    HW1 9116   4.609   4.382   0.482
 2739SOL    HW2 9117   4.768   4.416   0.472
 2740SOL     OW 9118   6.120   2.456   3.814
 2740SOL    HW1 9119   6.092   2.438   3.719
 2740SOL    HW2 9120   6.040   2.448   3.874
 2741SOL     OW 9121   2.146   3.306   4.602
 2741SOL    HW1 9122   2.206   3.375   4.642
 2741SOL    HW2 9123   2.052   3.339   4.605
 2742SOL     OW 9124   2.478   6.184   5.742
 2742SOL    HW1 9125   2.490   6.122   5.664
 2742SOL    HW2 9126   2.494   6.134   5.827
 2743SOL     OW 9127   6.159   4.651   0.128
 2743SOL    HW1 9128   6.209   4.568   0.104
 2743SOL    HW2 9129   6.171   4.670   0.226
 2744SOL     OW 9130   4.678   0.275   0.722
 2744SOL    HW1 9131   4.723   0.336   0.656
 2744SOL    HW2 9132   4.640   0.328   0.797
 2745SOL     OW 9133   2.454   5.821   1.636
 2745SOL    HW1 9134   2.537   5.855   1.592
 2745SOL    HW2 9135   2.375   5.873   1.604
 2746SOL     OW 9136   1.047   1.994   6.131
 2746SOL    HW1 9137   1.120   2.051   6.169
 2746SOL    HW2 9138   0.976   2.053   6.091
 2747SOL     OW 9139   5.544   5.709   3.686
 2747SOL    HW1 9140   5.566   5.660   3.602
 2747SOL    HW2 9141   5.596   5.794   3.689
 2748SOL     OW 9142   4.931   0.583   4.837
 2748SOL    HW1 9143   4.910   0.639   4.757
 2748SOL    HW2 9144   4.958   0.491   4.807
 2749SOL     OW 9145   5.107   4.587   3.718
 2749SOL    HW1 9146   5.160   4.539   3.787
 2749SOL    HW2 9147   5.111   4.536   3.632
 2750SOL     OW 9148   0.444   6.445   0.123
 2750SOL    HW1 9149   0.482   6.536   0.107
 2750SOL    HW2 9150   0.492   6.378   0.067
 2751SOL     OW 9151   1.788   0.266   6.789
 2751SOL    HW1 9152   1.732   0.184   6.775
 2751SOL    HW2 9153   1.884   0.241   6.782
 2752SOL     OW 9154   0.121   6.621   6.074
 2752SOL    HW1 9155   0.077   6.545   6.122
 2752SOL    HW2 9156   0.112   6.705   6.129
 2753SOL     OW 9157   3.633   5.258   5.275
 2753SOL    HW1 9158   3.707   5.302   5.324
 2753SOL    HW2 9159   3.588   5.191   5.334
 2754SOL     OW 9160   1.029   6.007   4.288
 2754SOL    HW1 9161   0.989   6.080   4.232
 2754SOL    HW2 9162   1.122   6.031   4.315
 2755SOL     OW 9163   4.817   5.716   2.416
 2755SOL    HW1 9164   4.896   5.778   2.415
 2755SOL    HW2 9165   4.740   5.760   2.460
 2756SOL     OW 9166   0.518   2.848   5.383
 2756SOL    HW1 9167   0.459   2.919   5.344
 2756SOL    HW2 9168   0.600   2.838   5.327
 2757SOL     OW 9169   4.942   4.021   6.318
 2757SOL    HW1 9170   5.012   4.074   6.367
 2757SOL    HW2 9171   4.884   3.974   6.385
 2758SOL     OW 9172   6.969   6.860   1.974
 2758SOL    HW1 9173   6.995   6.843   1.879
 2758SOL    HW2 9174   7.015   6.793   2.033
 2759SOL     OW 9175   3.465   3.575   5.048
 2759SOL    HW1 9176   3.415   3.489   5.039
 2759SOL    HW2 9177   3.441   3.635   4.971
 2760SOL     OW 9178   5.756   5.652   2.754
 2760SOL    HW1 9179   5.709   5.565   2.741
 2760SOL    HW2 9180   5.717   5.700   2.832
 2761SOL     OW 9181   1.411   3.180   3.896
 2761SOL    HW1 9182   1.364   3.162   3.809
 2761SOL    HW2 9183   1.486   3.244   3.881
 2762SOL     OW 9184   4.107   1.401   1.499
 2762SOL    HW1 9185   4.132   1.389   1.403
 2762SOL    HW2 9186   4.180   1.366   1.557
 2763SOL     OW 9187   5.886   1.271   3.782
 2763SOL    HW1 9188   5.849   1.217   3.857
 2763SOL    HW2 9189   5.823   1.345   3.759
 2764SOL     OW 9190   0.250   2.759   3.426
 2764SOL    HW1 9191   0.321   2.689   3.430
 2764SOL    HW2 9192   0.261   2.813   3.343
 2765SOL     OW 9193   6.555   6.387   5.672
 2765SOL    HW1 9194   6.504   6.382   5.758
 2765SOL    HW2 9195   6.643   6.343   5.683
 2766SOL     OW 9196   4.622   0.229   0.300
 2766SOL    HW1 9197   4.594   0.134   0.287
 2766SOL    HW2 9198   4.562   0.288   0.246
 2767SOL     OW 9199   0.455   5.560   5.945
 2767SOL    HW1 9200   0.425   5.484   6.002
 2767SOL    HW2 9201   0.516   5.527   5.873
 2768SOL     OW 9202   3.213   5.974   1.742
 2768SOL    HW1 9203   3.280   5.990   1.670
 2768SOL    HW2 9204   3.258   5.981   1.831
 2769SOL     OW 9205   0.705   4.800   5.695
 2769SOL    HW1 9206   0.716   4.888   5.649
 2769SOL    HW2 9207   0.686   4.729   5.628
 2770SOL     OW 9208   2.087   6.812   0.333
 2770SOL    HW1 9209   2.034   6.877   0.388
 2770SOL    HW2 9210   2.096   6.726   0.383
 2771SOL     OW 9211   4.110   6.741   5.360
 2771SOL    HW1 9212   4.070   6.674   5.423
 2771SOL    HW2 9213   4.187   6.786   5.405
 2772SOL     OW 9214   5.113   1.699   3.632
 2772SOL    HW1 9215   5.028   1.721   3.584
 2772SOL    HW2 9216   5.141   1.606   3.610
 2773SOL     OW 9217   5.672   2.468   6.178
 2773SOL    HW1 9218   5.716   2.432   6.260
 2773SOL    HW2 9219   5.654   2.393   6.114
 2774SOL     OW 9220   6.413   0.527   3.835
 2774SOL    HW1 9221   6.386   0.438   3.797
 2774SOL    HW2 9222   6.510   0.542   3.819
 2775SOL     OW 9223   0.236   2.563   4.656
 2775SOL    HW1 9224   0.245   2.565   4.556
 2775SOL    HW2 9225   0.201   2.650   4.689
 2776SOL     OW 9226   4.666   4.165   6.231
 2776SOL    HW1 9227   4.649   4.142   6.326
 2776SOL    HW2 9228   4.712   4.254   6.225
 2777SOL     OW 9229   2.168   2.435   0.085
 2777SOL    HW1 9230   2.196   2.399   0.174
 2777SOL    HW2 9231   2.093   2.501   0.097
 2778SOL     OW 9232   3.412   0.156   5.985
 2778SOL    HW1 9233   3.431   0.213   5.905
 2778SOL    HW2 9234   3.328   0.188   6.029
 2779SOL     OW 9235   5.479   0.825   2.429
 2779SOL    HW1 9236   5.514   0.895   2.366
 2779SOL    HW2 9237   5.533   0.825   2.513
 2780SOL     OW 9238   0.107   1.215   4.770
 2780SOL    HW1 9239   0.131   1.138   4.712
 2780SOL    HW2 9240   0.181   1.232   4.835
 2781SOL     OW 9241   0.125   0.509   3.003
 2781SOL    HW1 9242   0.208   0.543   2.959
 2781SOL    HW2 9243   0.082   0.583   3.055
 2782SOL     OW 9244   5.515   0.002   5.483
 2782SOL    HW1 9245   5.546   6.946   5.543
 2782SOL    HW2 9246   5.584   0.075   5.481
 2783SOL     OW 9247   5.551   2.666   1.408
 2783SOL    HW1 9248   5.637   2.643   1.454
 2783SOL    HW2 9249   5.537   2.765   1.411
 2784SOL     OW 9250   0.034   2.761   1.686
 2784SOL    HW1 9251   7.003   2.773   1.599
 2784SOL    HW2 9252   6.993   2.792   1.761
 2785SOL     OW 9253   4.868   3.648   3.037
 2785SOL    HW1 9254   4.963   3.679   3.033
 2785SOL    HW2 9255   4.865   3.548   3.034
 2786SOL     OW 9256   0.620   5.826   0.584
 2786SOL    HW1 9257   0.604   5.728   0.591
 2786SOL    HW2 9258   0.667   5.847   0.498
 2787SOL     OW 9259   0.641   6.171   5.558
 2787SOL    HW1 9260   0.556   6.129   5.589
 2787SOL    HW2 9261   0.656   6.256   5.608
 2788SOL     OW 9262   3.157   6.679   0.693
 2788SOL    HW1 9263   3.075   6.706   0.641
 2788SOL    HW2 9264   3.228   6.650   0.630
 2789SOL     OW 9265   1.887   2.162   4.037
 2789SOL    HW1 9266   1.838   2.078   4.012
 2789SOL    HW2 9267   1.821   2.235   4.057
 2790SOL     OW 9268   0.062   5.261   1.718
 2790SOL    HW1 9269   0.003   5.310   1.782
 2790SOL    HW2 9270   0.111   5.188   1.766
 2791SOL     OW 9271   0.791   3.468   4.842
 2791SOL    HW1 9272   0.856   3.508   4.907
 2791SOL    HW2 9273   0.761   3.538   4.778
 2792SOL     OW 9274   2.996   1.735   6.105
 2792SOL    HW1 9275   3.057   1.766   6.177
 2792SOL    HW2 9276   3.040   1.662   6.052
 2793SOL     OW 9277   4.006   3.512   6.475
 2793SOL    HW1 9278   3.940   3.559   6.417
 2793SOL    HW2 9279   4.085   3.483   6.420
 2794SOL     OW 9280   2.030   2.174   0.088
 2794SOL    HW1 9281   1.967   2.147   0.161
 2794SOL    HW2 9282   2.056   2.270   0.100
 2795SOL     OW 9283   1.387   6.755   0.827
 2795SOL    HW1 9284   1.367   6.685   0.896
 2795SOL    HW2 9285   1.332   6.837   0.846
 2796SOL     OW 9286   2.472   5.980   6.927
 2796SOL    HW1 9287   2.502   5.886   6.942
 2796SOL    HW2 9288   2.541   6.043   6.962
 2797SOL     OW 9289   5.074   3.649   4.024
 2797SOL    HW1 9290   5.171   3.622   4.030
 2797SOL    HW2 9291   5.064   3.743   4.056
 2798SOL     OW 9292   5.111   1.906   2.077
 2798SOL    HW1 9293   5.178   1.980   2.071
 2798SOL    HW2 9294   5.019   1.944   2.068
 2799SOL     OW 9295   3.523   6.257   5.475
 2799SOL    HW1 9296   3.562   6.328   5.416
 2799SOL    HW2 9297   3.472   6.192   5.419
 2800SOL     OW 9298   4.750   1.034   6.821
 2800SOL    HW1 9299   4.798   1.078   6.897
 2800SOL    HW2 9300   4.653   1.029   6.842
 2801SOL     OW 9301   0.534   4.638   4.040
 2801SOL    HW1 9302   0.525   4.606   4.134
 2801SOL    HW2 9303   0.444   4.648   3.999
 2802SOL     OW 9304   1.347   5.295   4.675
 2802SOL    HW1 9305   1.305   5.295   4.585
 2802SOL    HW2 9306   1.411   5.219   4.682
 2803SOL     OW 9307   3.556   2.406   6.278
 2803SOL    HW1 9308   3.571   2.479   6.211
 2803SOL    HW2 9309   3.497   2.336   6.238
 2804SOL     OW 9310   6.337   2.894   3.882
 2804SOL    HW1 9311   6.356   2.980   3.929
 2804SOL    HW2 9312   6.293   2.912   3.794
 2805SOL     OW 9313   4.234   4.409   0.624
 2805SOL    HW1 9314   4.230   4.412   0.524
 2805SOL    HW2 9315   4.327   4.388   0.653
 2806SOL     OW 9316   0.430   3.537   5.151
 2806SOL    HW1 9317   0.401   3.459   5.207
 2806SOL    HW2 9318   0.530   3.539   5.147
 2807SOL     OW 9319   4.601   1.522   3.788
 2807SOL    HW1 9320   4.678   1.463   3.768
 2807SOL    HW2 9321   4.601   1.546   3.885
 2808SOL     OW 9322   1.446   6.006   5.790
 2808SOL    HW1 9323   1.367   5.950   5.817
 2808SOL    HW2 9324   1.462   5.996   5.692
 2809SOL     OW 9325   0.563   5.758   1.309
 2809SOL    HW1 9326   0.551   5.679   1.248
 2809SOL    HW2 9327   0.658   5.789   1.305
 2810SOL     OW 9328   0.483   6.231   2.956
 2810SOL    HW1 9329   0.475   6.143   3.004
 2810SOL    HW2 9330   0.411   6.238   2.887
 2811SOL     OW 9331   0.602   1.235   0.468
 2811SOL    HW1 9332   0.530   1.295   0.434
 2811SOL    HW2 9333   0.562   1.149   0.499
 2812SOL     OW 9334   1.935   1.303   0.903
 2812SOL    HW1 9335   1.979   1.298   0.992
 2812SOL    HW2 9336   1.930   1.398   0.873
 2813SOL     OW 9337   6.845   2.378   0.619
 2813SOL    HW1 9338   6.859   2.420   0.709
 2813SOL    HW2 9339   6.821   2.282   0.630
 2814SOL     OW 9340   2.587   4.286   6.559
 2814SOL    HW1 9341   2.672   4.311   6.607
 2814SOL    HW2 9342   2.610   4.257   6.466
 2815SOL     OW 9343   0.194   5.482   4.771
 2815SOL    HW1 9344   0.117   5.425   4.741
 2815SOL    HW2 9345   0.245   5.434   4.842
 2816SOL     OW 9346   1.109   4.921   4.984
 2816SOL    HW1 9347   1.070   5.006   4.950
 2816SOL    HW2 9348   1.191   4.941   5.037
 2817SOL     OW 9349   2.994   0.853   2.308
 2817SOL    HW1 9350   3.002   0.947   2.342
 2817SOL    HW2 9351   2.954   0.795   2.378
 2818SOL     OW 9352   1.191   0.960   0.433
 2818SOL    HW1 9353   1.093   0.976   0.439
 2818SOL    HW2 9354   1.240   1.047   0.449
 2819SOL     OW 9355   0.346   0.199   6.585
 2819SOL    HW1 9356   0.397   0.272   6.540
 2819SOL    HW2 9357   0.293   0.238   6.661
 2820SOL     OW 9358   2.342   1.863   0.028
 2820SOL    HW1 9359   2.400   1.921   0.087
 2820SOL    HW2 9360   2.268   1.919   7.007
 2821SOL     OW 9361   3.333   2.383   6.036
 2821SOL    HW1 9362   3.327   2.453   6.108
 2821SOL    HW2 9363   3.245   2.374   5.991
 2822SOL     OW 9364   4.249   3.175   0.728
 2822SOL    HW1 9365   4.238   3.183   0.628
 2822SOL    HW2 9366   4.346   3.183   0.751
 2823SOL     OW 9367   5.757   3.902   1.982
 2823SOL    HW1 9368   5.719   3.841   2.052
 2823SOL    HW2 9369   5.700   3.896   1.899
 2824SOL     OW 9370   0.645   4.622   5.517
 2824SOL    HW1 9371   0.582   4.546   5.530
 2824SOL    HW2 9372   0.722   4.592   5.460
 2825SOL     OW 9373   5.325   2.248   6.046
 2825SOL    HW1 9374   5.265   2.214   5.974
 2825SOL    HW2 9375   5.412   2.200   6.042
 2826SOL     OW 9376   2.698   3.644   6.802
 2826SOL    HW1 9377   2.784   3.683   6.834
 2826SOL    HW2 9378   2.637   3.630   6.880
 2827SOL     OW 9379   6.331   1.568   6.583
 2827SOL    HW1 9380   6.401   1.616   6.530
 2827SOL    HW2 9381   6.346   1.583   6.681
 2828SOL     OW 9382   1.574   4.037   0.884
 2828SOL    HW1 9383   1.622   3.993   0.960
 2828SOL    HW2 9384   1.500   3.977   0.852
 2829SOL     OW 9385   3.550   3.897   1.947
 2829SOL    HW1 9386   3.562   3.798   1.952
 2829SOL    HW2 9387   3.458   3.917   1.915
 2830SOL     OW 9388   3.466   5.901   4.517
 2830SOL    HW1 9389   3.478   5.853   4.429
 2830SOL    HW2 9390   3.500   5.843   4.591
 2831SOL     OW 9391   6.582   1.478   1.919
 2831SOL    HW1 9392   6.531   1.510   1.839
 2831SOL    HW2 9393   6.613   1.557   1.972
 2832SOL     OW 9394   1.235   3.651   1.944
 2832SOL    HW1 9395   1.325   3.688   1.968
 2832SOL    HW2 9396   1.189   3.714   1.881
 2833SOL     OW 9397   6.592   3.025   3.419
 2833SOL    HW1 9398   6.583   3.106   3.361
 2833SOL    HW2 9399   6.685   2.989   3.411
 2834SOL     OW 9400   3.484   0.661   4.554
 2834SOL    HW1 9401   3.397   0.711   4.544
 2834SOL    HW2 9402   3.549   0.717   4.604
 2835SOL     OW 9403   6.713   0.962   0.034
 2835SOL    HW1 9404   6.729   0.980   0.132
 2835SOL    HW2 9405   6.799   0.942   7.007
 2836SOL     OW 9406   2.843   5.777   1.860
 2836SOL    HW1 9407   2.896   5.839   1.918
 2836SOL    HW2 9408   2.885   5.774   1.769
 2837SOL     OW 9409   5.598   3.653   1.866
 2837SOL    HW1 9410   5.682   3.617   1.909
 2837SOL    HW2 9411   5.519   3.606   1.905
 2838SOL     OW 9412   6.505   3.752   5.879
 2838SOL    HW1 9413   6.568   3.690   5.833
 2838SOL    HW2 9414   6.520   3.749   5.978
 2839SOL     OW 9415   6.035   2.885   5.977
 2839SOL    HW1 9416   6.004   2.952   5.910
 2839SOL    HW2 9417   6.125   2.849   5.950
 2840SOL     OW 9418   5.462   6.268   5.044
 2840SOL    HW1 9419   5.428   6.211   5.118
 2840SOL    HW2 9420   5.466   6.364   5.074
 2841SOL     OW 9421   5.398   3.876   2.793
 2841SOL    HW1 9422   5.306   3.916   2.796
 2841SOL    HW2 9423   5.393   3.779   2.817
 2842SOL     OW 9424   0.468   6.882   3.680
 2842SOL    HW1 9425   0.511   6.863   3.768
 2842SOL    HW2 9426   0.508   6.966   3.641
 2843SOL     OW 9427   1.974   2.904   4.573
 2843SOL    HW1 9428   1.895   2.965   4.578
 2843SOL    HW2 9429   2.056   2.957   4.550
 2844SOL     OW 9430   4.963   3.702   0.539
 2844SOL    HW1 9431   4.997   3.649   0.617
 2844SOL    HW2 9432   4.917   3.784   0.572
 2845SOL     OW 9433   3.409   1.618   1.523
 2845SOL    HW1 9434   3.452   1.528   1.531
 2845SOL    HW2 9435   3.422   1.669   1.608
 2846SOL     OW 9436   5.006   6.728   6.680
 2846SOL    HW1 9437   5.022   6.781   6.763
 2846SOL    HW2 9438   4.937   6.657   6.697
 2847SOL     OW 9439   5.299   4.706   1.778
 2847SOL    HW1 9440   5.293   4.764   1.697
 2847SOL    HW2 9441   5.391   4.713   1.817
 2848SOL     OW 9442   0.319   3.813   0.036
 2848SOL    HW1 9443   0.331   3.892   0.096
 2848SOL    HW2 9444   0.228   3.774   0.049
 2849SOL     OW 9445   5.399   0.417   1.600
 2849SOL    HW1 9446   5.421   0.340   1.541
 2849SOL    HW2 9447   5.360   0.384   1.686
 2850SOL     OW 9448   0.656   1.318   1.300
 2850SOL    HW1 9449   0.600   1.261   1.360
 2850SOL    HW2 9450   0.752   1.291   1.308
 2851SOL     OW 9451   3.642   3.445   1.732
 2851SOL    HW1 9452   3.547   3.471   1.713
 2851SOL    HW2 9453   3.696   3.452   1.648
 2852SOL     OW 9454   0.272   5.531   5.288
 2852SOL    HW1 9455   0.294   5.598   5.217
 2852SOL    HW2 9456   0.173   5.532   5.305
 2853SOL     OW 9457   0.564   4.294   4.844
 2853SOL    HW1 9458   0.620   4.287   4.927
 2853SOL    HW2 9459   0.526   4.387   4.838
 2854SOL     OW 9460   3.180   0.377   6.620
 2854SOL    HW1 9461   3.253   0.395   6.685
 2854SOL    HW2 9462   3.141   0.286   6.637
 2855SOL     OW 9463   2.260   1.808   4.423
 2855SOL    HW1 9464   2.204   1.820   4.341
 2855SOL    HW2 9465   2.208   1.838   4.503
 2856SOL     OW 9466   1.559   5.950   4.878
 2856SOL    HW1 9467   1.524   6.037   4.844
 2856SOL    HW2 9468   1.657   5.958   4.897
 2857SOL     OW 9469   0.029   4.161   0.832
 2857SOL    HW1 9470   6.966   4.204   0.791
 2857SOL    HW2 9471   0.108   4.176   0.774
 2858SOL     OW 9472   5.581   4.655   3.371
 2858SOL    HW1 9473   5.591   4.558   3.391
 2858SOL    HW2 9474   5.544   4.667   3.279
 2859SOL     OW 9475   6.030   4.958   1.386
 2859SOL    HW1 9476   5.966   4.887   1.357
 2859SOL    HW2 9477   6.080   4.927   1.466
 2860SOL     OW 9478   1.302   6.720   3.564
 2860SOL    HW1 9479   1.334   6.646   3.623
 2860SOL    HW2 9480   1.230   6.685   3.504
 2861SOL     OW 9481   5.295   4.045   5.370
 2861SOL    HW1 9482   5.204   4.071   5.339
 2861SOL    HW2 9483   5.343   3.998   5.295
 2862SOL     OW 9484   4.361   1.044   0.361
 2862SOL    HW1 9485   4.298   1.005   0.429
 2862SOL    HW2 9486   4.378   1.140   0.383
 2863SOL     OW 9487   5.605   2.184   6.019
 2863SOL    HW1 9488   5.629   2.098   6.065
 2863SOL    HW2 9489   5.602   2.169   5.921
 2864SOL     OW 9490   4.222   4.111   1.249
 2864SOL    HW1 9491   4.196   4.104   1.153
 2864SOL    HW2 9492   4.241   4.020   1.285
 2865SOL     OW 9493   5.804   4.922   6.094
 2865SOL    HW1 9494   5.899   4.940   6.118
 2865SOL    HW2 9495   5.760   5.008   6.066
 2866SOL     OW 9496   3.858   5.077   0.959
 2866SOL    HW1 9497   3.821   5.006   0.900
 2866SOL    HW2 9498   3.954   5.093   0.937
 2867SOL     OW 9499   6.987   6.057   2.485
 2867SOL    HW1 9500   0.017   6.074   2.399
 2867SOL    HW2 9501   7.015   6.124   2.553
 2868SOL     OW 9502   7.013   6.897   5.512
 2868SOL    HW1 9503   7.005   6.812   5.459
 2868SOL    HW2 9504   0.062   6.884   5.585
 2869SOL     OW 9505   5.814   4.805   5.488
 2869SOL    HW1 9506   5.759   4.767   5.413
 2869SOL    HW2 9507   5.867   4.731   5.530
 2870SOL     OW 9508   0.702   1.557   1.445
 2870SOL    HW1 9509   0.678   1.479   1.387
 2870SOL    HW2 9510   0.790   1.539   1.490
 2871SOL     OW 9511   4.940   1.611   3.259
 2871SOL    HW1 9512   5.000   1.533   3.242
 2871SOL    HW2 9513   4.983   1.694   3.224
 2872SOL     OW 9514   3.233   1.829   2.476
 2872SOL    HW1 9515   3.161   1.889   2.441
 2872SOL    HW2 9516   3.219   1.737   2.440
 2873SOL     OW 9517   0.869   6.733   2.932
 2873SOL    HW1 9518   0.910   6.822   2.913
 2873SOL    HW2 9519   0.799   6.713   2.864
 2874SOL     OW 9520   2.085   1.333   3.275
 2874SOL    HW1 9521   2.125   1.411   3.323
 2874SOL    HW2 9522   2.073   1.356   3.178
 2875SOL     OW 9523   2.455   0.224   2.865
 2875SOL    HW1 9524   2.437   0.209   2.963
 2875SOL    HW2 9525   2.389   0.290   2.829
 2876SOL     OW 9526   0.815   6.553   0.760
 2876SOL    HW1 9527   0.818   6.467   0.812
 2876SOL    HW2 9528   0.731   6.557   0.706
 2877SOL     OW 9529   1.607   3.068   5.355
 2877SOL    HW1 9530   1.649   2.987   5.396
 2877SOL    HW2 9531   1.673   3.116   5.299
 2878SOL     OW 9532   3.056   3.218   4.667
 2878SOL    HW1 9533   2.987   3.161   4.713
 2878SOL    HW2 9534   3.144   3.170   4.666
 2879SOL     OW 9535   5.170   5.219   0.315
 2879SOL    HW1 9536   5.073   5.232   0.336
 2879SOL    HW2 9537   5.203   5.295   0.260
 2880SOL     OW 9538   1.103   2.110   3.063
 2880SOL    HW1 9539   1.192   2.064   3.059
 2880SOL    HW2 9540   1.031   2.042   3.050
 2881SOL     OW 9541   5.087   4.970   0.734
 2881SOL    HW1 9542   5.064   4.892   0.791
 2881SOL    HW2 9543   5.143   5.034   0.786
 2882SOL     OW 9544   4.166   6.650   6.858
 2882SOL    HW1 9545   4.191   6.697   6.774
 2882SOL    HW2 9546   4.066   6.639   6.861
 2883SOL     OW 9547   5.662   5.957   3.639
 2883SOL    HW1 9548   5.605   5.964   3.557
 2883SOL    HW2 9549   5.661   6.045   3.687
 2884SOL     OW 9550   6.316   5.505   3.609
 2884SOL    HW1 9551   6.227   5.486   3.651
 2884SOL    HW2 9552   6.313   5.482   3.512
 2885SOL     OW 9553   0.198   3.279   3.588
 2885SOL    HW1 9554   0.298   3.276   3.588
 2885SOL    HW2 9555   0.162   3.186   3.588
 2886SOL     OW 9556   2.317   4.342   4.833
 2886SOL    HW1 9557   2.324   4.417   4.768
 2886SOL    HW2 9558   2.239   4.284   4.809
 2887SOL     OW 9559   6.953   5.482   2.671
 2887SOL    HW1 9560   6.891   5.407   2.695
 2887SOL    HW2 9561   6.930   5.517   2.581
 2888SOL     OW 9562   4.746   6.361   0.012
 2888SOL    HW1 9563   4.692   6.277   0.005
 2888SOL    HW2 9564   4.684   6.440   0.015
 2889SOL     OW 9565   4.183   6.181   4.640
 2889SOL    HW1 9566   4.169   6.131   4.555
 2889SOL    HW2 9567   4.103   6.236   4.660
 2890SOL     OW 9568   1.554   2.324   0.100
 2890SOL    HW1 9569   1.462   2.332   0.063
 2890SOL    HW2 9570   1.550   2.326   0.200
 2891SOL     OW 9571   1.271   1.282   5.199
 2891SOL    HW1 9572   1.204   1.329   5.142
 2891SOL    HW2 9573   1.232   1.264   5.289
 2892SOL     OW 9574   5.506   4.618   2.178
 2892SOL    HW1 9575   5.501   4.565   2.263
 2892SOL    HW2 9576   5.563   4.569   2.112
 2893SOL     OW 9577   6.835   4.967   4.909
 2893SOL    HW1 9578   6.771   5.042   4.898
 2893SOL    HW2 9579   6.915   4.982   4.850
 2894SOL     OW 9580   1.314   5.567   0.914
 2894SOL    HW1 9581   1.249   5.497   0.945
 2894SOL    HW2 9582   1.264   5.641   0.869
 2895SOL     OW 9583   4.862   6.725   5.981
 2895SOL    HW1 9584   4.867   6.713   6.080
 2895SOL    HW2 9585   4.769   6.749   5.955
 2896SOL     OW 9586   6.459   0.432   4.883
 2896SOL    HW1 9587   6.394   0.507   4.897
 2896SOL    HW2 9588   6.486   0.394   4.971
 2897SOL     OW 9589   3.652   5.945   3.180
 2897SOL    HW1 9590   3.568   5.930   3.128
 2897SOL    HW2 9591   3.723   5.983   3.119
 2898SOL     OW 9592   5.280   3.004   3.584
 2898SOL    HW1 9593   5.312   3.014   3.489
 2898SOL    HW2 9594   5.234   2.916   3.594
 2899SOL     OW 9595   6.551   2.639   0.800
 2899SOL    HW1 9596   6.562   2.648   0.701
 2899SOL    HW2 9597   6.571   2.727   0.844
 2900SOL     OW 9598   2.677   2.704   5.595
 2900SOL    HW1 9599   2.710   2.746   5.510
 2900SOL    HW2 9600   2.677   2.604   5.585
 2901SOL     OW 9601   1.496   4.090   1.891
 2901SOL    HW1 9602   1.401   4.069   1.914
 2901SOL    HW2 9603   1.520   4.048   1.803
 2902SOL     OW 9604   5.910   6.063   3.559
 2902SOL    HW1 9605   5.827   6.013   3.584
 2902SOL    HW2 9606   5.938   6.037   3.467
 2903SOL     OW 9607   0.391   5.207   0.665
 2903SOL    HW1 9608   0.295   5.234   0.677
 2903SOL    HW2 9609   0.395   5.115   0.628
 2904SOL     OW 9610   2.727   4.892   4.974
 2904SOL    HW1 9611   2.733   4.915   4.877
 2904SOL    HW2 9612   2.766   4.801   4.990
 2905SOL     OW 9613   0.939   5.153   1.510
 2905SOL    HW1 9614   1.001   5.180   1.435
 2905SOL    HW2 9615   0.940   5.054   1.519
 2906SOL     OW 9616   0.224   5.995   5.825
 2906SOL    HW1 9617   0.278   5.947   5.895
 2906SOL    HW2 9618   0.127   5.990   5.848
 2907SOL     OW 9619   0.059   0.767   5.209
 2907SOL    HW1 9620   0.121   0.765   5.287
 2907SOL    HW2 9621   0.085   0.697   5.143
 2908SOL     OW 9622   4.390   6.720   3.725
 2908SOL    HW1 9623   4.330   6.642   3.707
 2908SOL    HW2 9624   4.459   6.695   3.793
 2909SOL     OW 9625   6.973   0.223   1.564
 2909SOL    HW1 9626   6.916   0.182   1.493
 2909SOL    HW2 9627   7.006   0.152   1.626
 2910SOL     OW 9628   1.285   0.926   4.086
 2910SOL    HW1 9629   1.267   0.827   4.086
 2910SOL    HW2 9630   1.252   0.966   4.000
 2911SOL     OW 9631   6.974   3.759   4.691
 2911SOL    HW1 9632   6.895   3.810   4.724
 2911SOL    HW2 9633   0.025   3.822   4.653
 2912SOL     OW 9634   0.535   1.621   2.068
 2912SOL    HW1 9635   0.582   1.609   2.155
 2912SOL    HW2 9636   0.593   1.673   2.006
 2913SOL     OW 9637   0.805   7.015   3.658
 2913SOL    HW1 9638   0.724   0.035   3.612
 2913SOL    HW2 9639   0.887   0.031   3.611
 2914SOL     OW 9640   3.747   4.393   1.232
 2914SOL    HW1 9641   3.798   4.356   1.309
 2914SOL    HW2 9642   3.697   4.319   1.186
 2915SOL     OW 9643   1.952   0.919   4.057
 2915SOL    HW1 9644   2.002   0.990   4.107
 2915SOL    HW2 9645   1.921   0.849   4.121
 2916SOL     OW 9646   0.894   5.159   6.297
 2916SOL    HW1 9647   0.933   5.247   6.324
 2916SOL    HW2 9648   0.832   5.127   6.369
 2917SOL     OW 9649   2.092   0.546   3.244
 2917SOL    HW1 9650   2.093   0.573   3.340
 2917SOL    HW2 9651   2.007   0.575   3.201
 2918SOL     OW 9652   5.165   2.350   1.247
 2918SOL    HW1 9653   5.247   2.379   1.296
 2918SOL    HW2 9654   5.089   2.411   1.269
 2919SOL     OW 9655   0.789   6.239   4.758
 2919SOL    HW1 9656   0.811   6.296   4.837
 2919SOL    HW2 9657   0.845   6.267   4.680
 2920SOL     OW 9658   2.802   2.655   1.703
 2920SOL    HW1 9659   2.845   2.745   1.714
 2920SOL    HW2 9660   2.856   2.586   1.750
 2921SOL     OW 9661   0.699   6.202   3.409
 2921SOL    HW1 9662   0.720   6.118   3.459
 2921SOL    HW2 9663   0.781   6.235   3.362
 2922SOL     OW 9664   3.682   5.309   3.525
 2922SOL    HW1 9665   3.587   5.303   3.496
 2922SOL    HW2 9666   3.694   5.387   3.587
 2923SOL     OW 9667   1.408   5.721   4.349
 2923SOL    HW1 9668   1.386   5.752   4.442
 2923SOL    HW2 9669   1.420   5.800   4.289
 2924SOL     OW 9670   5.504   1.198   6.479
 2924SOL    HW1 9671   5.463   1.267   6.539
 2924SOL    HW2 9672   5.541   1.124   6.535
 2925SOL     OW 9673   5.598   6.513   4.710
 2925SOL    HW1 9674   5.511   6.510   4.759
 2925SOL    HW2 9675   5.592   6.580   4.636
 2926SOL     OW 9676   6.309   2.798   4.735
 2926SOL    HW1 9677   6.368   2.875   4.760
 2926SOL    HW2 9678   6.361   2.712   4.744
 2927SOL     OW 9679   1.207   1.939   2.633
 2927SOL    HW1 9680   1.112   1.949   2.662
 2927SOL    HW2 9681   1.264   1.920   2.713
 2928SOL     OW 9682   5.251   4.047   0.559
 2928SOL    HW1 9683   5.216   4.004   0.643
 2928SOL    HW2 9684   5.206   4.135   0.546
 2929SOL     OW 9685   2.181   1.615   3.469
 2929SOL    HW1 9686   2.278   1.591   3.478
 2929SOL    HW2 9687   2.167   1.666   3.384
 2930SOL     OW 9688   0.599   3.540   4.350
 2930SOL    HW1 9689   0.686   3.529   4.302
 2930SOL    HW2 9690   0.528   3.566   4.284
 2931SOL     OW 9691   6.075   4.518   6.197
 2931SOL    HW1 9692   6.055   4.614   6.219
 2931SOL    HW2 9693   5.998   4.461   6.225
 2932SOL     OW 9694   6.408   5.694   1.000
 2932SOL    HW1 9695   6.486   5.744   0.964
 2932SOL    HW2 9696   6.400   5.711   1.099
 2933SOL     OW 9697   0.775   0.117   6.913
 2933SOL    HW1 9698   0.836   0.086   6.840
 2933SOL    HW2 9699   0.825   0.118   6.999
 2934SOL     OW 9700   5.439   5.140   1.415
 2934SOL    HW1 9701   5.483   5.186   1.492
 2934SOL    HW2 9702   5.340   5.145   1.425
 2935SOL     OW 9703   0.785   3.604   5.545
 2935SOL    HW1 9704   0.788   3.605   5.645
 2935SOL    HW2 9705   0.725   3.530   5.515
 2936SOL     OW 9706   4.143   6.531   2.052
 2936SOL    HW1 9707   4.094   6.605   2.008
 2936SOL    HW2 9708   4.089   6.496   2.129
 2937SOL     OW 9709   5.996   3.693   3.375
 2937SOL    HW1 9710   5.963   3.787   3.386
 2937SOL    HW2 9711   5.990   3.667   3.279
 2938SOL     OW 9712   0.540   5.153   0.027
 2938SOL    HW1 9713   0.593   5.086   0.080
 2938SOL    HW2 9714   0.476   5.105   6.984
 2939SOL     OW 9715   6.760   6.331   1.862
 2939SOL    HW1 9716   6.762   6.299   1.957
 2939SOL    HW2 9717   6.665   6.339   1.832
 2940SOL     OW 9718   4.460   6.549   4.110
 2940SOL    HW1 9719   4.509   6.579   4.029
 2940SOL    HW2 9720   4.520   6.556   4.190
 2941SOL     OW 9721   2.860   4.760   2.959
 2941SOL    HW1 9722   2.841   4.821   3.036
 2941SOL    HW2 9723   2.946   4.787   2.916
 2942SOL     OW 9724   3.445   2.246   1.729
 2942SOL    HW1 9725   3.405   2.321   1.676
 2942SOL    HW2 9726   3.529   2.278   1.773
 2943SOL     OW 9727   0.287   4.063   3.550
 2943SOL    HW1 9728   0.340   4.001   3.607
 2943SOL    HW2 9729   0.249   4.012   3.473
 2944SOL     OW 9730   1.443   6.069   3.060
 2944SOL    HW1 9731   1.367   6.047   3.121
 2944SOL    HW2 9732   1.517   6.109   3.114
 2945SOL     OW 9733   5.997   3.341   1.090
 2945SOL    HW1 9734   5.921   3.396   1.126
 2945SOL    HW2 9735   6.019   3.371   0.997
 2946SOL     OW 9736   3.634   3.199   4.352
 2946SOL    HW1 9737   3.646   3.222   4.255
 2946SOL    HW2 9738   3.596   3.278   4.400
 2947SOL     OW 9739   6.368   5.403   0.239
 2947SOL    HW1 9740   6.361   5.460   0.321
 2947SOL    HW2 9741   6.414   5.317   0.263
 2948SOL     OW 9742   6.714   4.229   1.239
 2948SOL    HW1 9743   6.645   4.178   1.188
 2948SOL    HW2 9744   6.745   4.174   1.317
 2949SOL     OW 9745   1.376   6.236   0.532
 2949SOL    HW1 9746   1.360   6.139   0.550
 2949SOL    HW2 9747   1.295   6.275   0.488
 2950SOL     OW 9748   6.005   5.453   2.720
 2950SOL    HW1 9749   5.970   5.374   2.669
 2950SOL    HW2 9750   5.940   5.528   2.714
 2951SOL     OW 9751   0.799   2.545   1.052
 2951SOL    HW1 9752   0.836   2.591   1.132
 2951SOL    HW2 9753   0.776   2.612   0.982
 2952SOL     OW 9754   6.967   1.559   3.945
 2952SOL    HW1 9755   0.024   1.615   3.981
 2952SOL    HW2 9756   6.996   1.463   3.943
 2953SOL     OW 9757   1.656   6.113   2.869
 2953SOL    HW1 9758   1.689   6.205   2.888
 2953SOL    HW2 9759   1.591   6.086   2.940
 2954SOL     OW 9760   0.786   4.184   6.423
 2954SOL    HW1 9761   0.814   4.232   6.340
 2954SOL    HW2 9762   0.830   4.094   6.426
 2955SOL     OW 9763   1.832   4.666   6.770
 2955SOL    HW1 9764   1.800   4.572   6.786
 2955SOL    HW2 9765   1.754   4.727   6.762
 2956SOL     OW 9766   5.420   4.053   4.743
 2956SOL    HW1 9767   5.324   4.029   4.733
 2956SOL    HW2 9768   5.477   3.987   4.693
 2957SOL     OW 9769   1.556   5.641   2.323
 2957SOL    HW1 9770   1.550   5.741   2.316
 2957SOL    HW2 9771   1.579   5.616   2.417
 2958SOL     OW 9772   1.569   4.741   2.040
 2958SOL    HW1 9773   1.636   4.793   1.988
 2958SOL    HW2 9774   1.528   4.671   1.981
 2959SOL     OW 9775   6.804   4.427   3.861
 2959SOL    HW1 9776   6.718   4.376   3.855
 2959SOL    HW2 9777   6.837   4.446   3.768
 2960SOL     OW 9778   4.654   6.587   1.156
 2960SOL    HW1 9779   4.556   6.577   1.172
 2960SOL    HW2 9780   4.703   6.581   1.243
 2961SOL     OW 9781   5.718   2.509   1.760
 2961SOL    HW1 9782   5.653   2.450   1.713
 2961SOL    HW2 9783   5.761   2.459   1.834
 2962SOL     OW 9784   0.209   0.210   3.737
 2962SOL    HW1 9785   0.255   0.241   3.654
 2962SOL    HW2 9786   0.278   0.185   3.806
 2963SOL     OW 9787   1.824   0.775   5.598
 2963SOL    HW1 9788   1.726   0.758   5.613
 2963SOL    HW2 9789   1.871   0.782   5.685
 2964SOL     OW 9790   1.652   7.013   6.497
 2964SOL    HW1 9791   1.651   0.075   6.436
 2964SOL    HW2 9792   1.650   0.027   6.592
 2965SOL     OW 9793   5.966   0.582   6.133
 2965SOL    HW1 9794   5.995   0.581   6.228
 2965SOL    HW2 9795   5.866   0.588   6.129
 2966SOL     OW 9796   3.786   5.418   2.863
 2966SOL    HW1 9797   3.815   5.507   2.898
 2966SOL    HW2 9798   3.695   5.425   2.823
 2967SOL     OW 9799   5.404   6.817   4.874
 2967SOL    HW1 9800   5.383   6.766   4.790
 2967SOL    HW2 9801   5.348   6.782   4.949
 2968SOL     OW 9802   1.371   4.271   1.420
 2968SOL    HW1 9803   1.433   4.209   1.373
 2968SOL    HW2 9804   1.421   4.322   1.490
 2969SOL     OW 9805   4.698   2.784   4.535
 2969SOL    HW1 9806   4.636   2.722   4.486
 2969SOL    HW2 9807   4.683   2.775   4.633
 2970SOL     OW 9808   2.704   2.793   5.894
 2970SOL    HW1 9809   2.743   2.745   5.815
 2970SOL    HW2 9810   2.646   2.868   5.861
 2971SOL     OW 9811   4.716   3.856   6.493
 2971SOL    HW1 9812   4.774   3.788   6.540
 2971SOL    HW2 9813   4.656   3.809   6.429
 2972SOL     OW 9814   0.192   5.711   6.744
 2972SOL    HW1 9815   0.282   5.722   6.701
 2972SOL    HW2 9816   0.142   5.797   6.739
 2973SOL     OW 9817   5.392   0.545   4.064
 2973SOL    HW1 9818   5.300   0.519   4.034
 2973SOL    HW2 9819   5.409   0.640   4.040
 2974SOL     OW 9820   5.741   6.077   2.065
 2974SOL    HW1 9821   5.752   6.165   2.112
 2974SOL    HW2 9822   5.798   6.008   2.111
 2975SOL     OW 9823   6.785   3.133   5.010
 2975SOL    HW1 9824   6.785   3.158   5.106
 2975SOL    HW2 9825   6.868   3.167   4.966
 2976SOL     OW 9826   3.681   0.830   1.526
 2976SOL    HW1 9827   3.649   0.801   1.616
 2976SOL    HW2 9828   3.612   0.809   1.457
 2977SOL     OW 9829   1.738   1.432   1.889
 2977SOL    HW1 9830   1.795   1.393   1.962
 2977SOL    HW2 9831   1.664   1.484   1.929
 2978SOL     OW 9832   3.531   5.826   0.585
 2978SOL    HW1 9833   3.517   5.890   0.661
 2978SOL    HW2 9834   3.616   5.775   0.600
 2979SOL     OW 9835   2.847   0.873   5.525
 2979SOL    HW1 9836   2.853   0.965   5.488
 2979SOL    HW2 9837   2.844   0.877   5.625
 2980SOL     OW 9838   3.412   2.940   4.104
 2980SOL    HW1 9839   3.383   2.892   4.187
 2980SOL    HW2 9840   3.510   2.961   4.111
 2981SOL     OW 9841   3.217   2.111   1.718
 2981SOL    HW1 9842   3.216   2.011   1.724
 2981SOL    HW2 9843   3.307   2.146   1.746
 2982SOL     OW 9844   1.473   0.778   0.885
 2982SOL    HW1 9845   1.392   0.825   0.849
 2982SOL    HW2 9846   1.513   0.720   0.813
 2983SOL     OW 9847   6.406   2.676   6.437
 2983SOL    HW1 9848   6.406   2.627   6.350
 2983SOL    HW2 9849   6.461   2.627   6.504
 2984SOL     OW 9850   0.487   6.007   1.210
 2984SOL    HW1 9851   0.511   5.910   1.214
 2984SOL    HW2 9852   0.391   6.018   1.237
 2985SOL     OW 9853   6.511   0.694   5.307
 2985SOL    HW1 9854   6.599   0.675   5.351
 2985SOL    HW2 9855   6.444   0.720   5.377
 2986SOL     OW 9856   3.169   3.370   2.393
 2986SOL    HW1 9857   3.240   3.301   2.379
 2986SOL    HW2 9858   3.084   3.340   2.350
 2987SOL     OW 9859   2.434   5.716   4.660
 2987SOL    HW1 9860   2.348   5.679   4.623
 2987SOL    HW2 9861   2.434   5.816   4.650
 2988SOL     OW 9862   0.027   2.094   6.271
 2988SOL    HW1 9863   0.102   2.108   6.335
 2988SOL    HW2 9864   0.002   2.182   6.230
 2989SOL     OW 9865   5.860   3.535   5.506
 2989SOL    HW1 9866   5.865   3.631   5.531
 2989SOL    HW2 9867   5.947   3.490   5.527
 2990SOL     OW 9868   5.432   1.011   5.490
 2990SOL    HW1 9869   5.431   0.940   5.560
 2990SOL    HW2 9870   5.338   1.032   5.463
 2991SOL     OW 9871   6.926   3.347   6.825
 2991SOL    HW1 9872   6.834   3.327   6.858
 2991SOL    HW2 9873   6.923   3.365   6.726
 2992SOL     OW 9874   0.882   3.836   5.452
 2992SOL    HW1 9875   0.851   3.743   5.474
 2992SOL    HW2 9876   0.904   3.840   5.354
 2993SOL     OW 9877   3.377   5.236   0.409
 2993SOL    HW1 9878   3.463   5.209   0.453
 2993SOL    HW2 9879   3.376   5.335   0.395
 2994SOL     OW 9880   2.475   5.042   5.102
 2994SOL    HW1 9881   2.459   5.135   5.069
 2994SOL    HW2 9882   2.515   4.986   5.029
 2995SOL     OW 9883   4.919   0.416   1.823
 2995SOL    HW1 9884   4.831   0.434   1.779
 2995SOL    HW2 9885   4.904   0.392   1.919
 2996SOL     OW 9886   6.606   1.041   3.960
 2996SOL    HW1 9887   6.667   1.039   3.881
 2996SOL    HW2 9888   6.532   0.975   3.947
 2997SOL     OW 9889   4.633   5.491   4.364
 2997SOL    HW1 9890   4.581   5.409   4.385
 2997SOL    HW2 9891   4.725   5.485   4.405
 2998SOL     OW 9892   2.667   0.562   1.919
 2998SOL    HW1 9893   2.696   0.636   1.980
 2998SOL    HW2 9894   2.686   0.474   1.963
 2999SOL     OW 9895   1.200   4.516   0.437
 2999SOL    HW1 9896   1.121   4.568   0.469
 2999SOL    HW2 9897   1.262   4.499   0.514
 3000SOL     OW 9898   2.359   3.725   5.296
 3000SOL    HW1 9899   2.288   3.695   5.232
 3000SOL    HW2 9900   2.391   3.816   5.269
 3001SOL     OW 9901   4.351   0.659   6.266
 3001SOL    HW1 9902   4.325   0.707   6.183
 3001SOL    HW2 9903   4.430   0.600   6.248
 3002SOL     OW 9904   0.990   2.256   2.519
 3002SOL    HW1 9905   1.065   2.221   2.574
 3002SOL    HW2 9906   1.026   2.315   2.446
 3003SOL     OW 9907   0.916   5.731   0.518
 3003SOL    HW1 9908   0.926   5.634   0.541
 3003SOL    HW2 9909   0.846   5.741   0.447
 3004SOL     OW 9910   3.253   6.960   3.809
 3004SOL    HW1 9911   3.331   7.008   3.767
 3004SOL    HW2 9912   3.205   0.005   3.870
 3005SOL     OW 9913   2.829   2.249   0.997
 3005SOL    HW1 9914   2.832   2.229   1.095
 3005SOL    HW2 9915   2.798   2.343   0.982
 3006SOL     OW 9916   5.800   1.197   5.547
 3006SOL    HW1 9917   5.799   1.159   5.639
 3006SOL    HW2 9918   5.761   1.130   5.483
 3007SOL     OW 9919   6.473   5.661   5.779
 3007SOL    HW1 9920   6.405   5.589   5.766
 3007SOL    HW2 9921   6.533   5.664   5.700
 3008SOL     OW 9922   4.918   4.032   5.628
 3008SOL    HW1 9923   4.964   3.945   5.647
 3008SOL    HW2 9924   4.825   4.029   5.667
 3009SOL     OW 9925   5.561   3.113   1.999
 3009SOL    HW1 9926   5.591   3.191   1.944
 3009SOL    HW2 9927   5.583   3.028   1.951
 3010SOL     OW 9928   4.723   5.148   1.888
 3010SOL    HW1 9929   4.660   5.187   1.821
 3010SOL    HW2 9930   4.744   5.053   1.863
 3011SOL     OW 9931   5.684   6.979   0.168
 3011SOL    HW1 9932   5.748   7.004   0.095
 3011SOL    HW2 9933   5.612   0.031   0.174
 3012SOL     OW 9934   2.372   1.227   4.860
 3012SOL    HW1 9935   2.466   1.231   4.893
 3012SOL    HW2 9936   2.360   1.145   4.804
 3013SOL     OW 9937   1.089   5.058   5.344
 3013SOL    HW1 9938   1.109   5.149   5.379
 3013SOL    HW2 9939   1.160   5.031   5.279
 3014SOL     OW 9940   3.881   0.284   0.231
 3014SOL    HW1 9941   3.914   0.357   0.172
 3014SOL    HW2 9942   3.917   0.196   0.199
 3015SOL     OW 9943   2.235   6.831   5.698
 3015SOL    HW1 9944   2.138   6.849   5.681
 3015SOL    HW2 9945   2.284   6.918   5.704
 3016SOL     OW 9946   2.876   0.814   3.897
 3016SOL    HW1 9947   2.922   0.899   3.921
 3016SOL    HW2 9948   2.781   0.834   3.870
 3017SOL     OW 9949   0.735   6.015   6.928
 3017SOL    HW1 9950   0.684   5.966   6.858
 3017SOL    HW2 9951   0.827   6.035   6.894
 3018SOL     OW 9952   2.978   2.368   1.425
 3018SOL    HW1 9953   3.014   2.325   1.508
 3018SOL    HW2 9954   2.901   2.427   1.449
 3019SOL     OW 9955   1.343   0.644   5.199
 3019SOL    HW1 9956   1.371   0.573   5.263
 3019SOL    HW2 9957   1.406   0.646   5.122
 3020SOL     OW 9958   4.679   4.810   0.243
 3020SOL    HW1 9959   4.658   4.792   0.147
 3020SOL    HW2 9960   4.777   4.828   0.252
 3021SOL     OW 9961   4.831   6.285   4.417
 3021SOL    HW1 9962   4.848   6.342   4.337
 3021SOL    HW2 9963   4.770   6.210   4.393
 3022SOL     OW 9964   4.636   6.822   4.114
 3022SOL    HW1 9965   4.688   6.897   4.073
 3022SOL    HW2 9966   4.651   6.739   4.061
 3023SOL     OW 9967   5.372   4.633   5.194
 3023SOL    HW1 9968   5.288   4.642   5.247
 3023SOL    HW2 9969   5.360   4.563   5.124
 3024SOL     OW 9970   6.678   1.096   0.528
 3024SOL    HW1 9971   6.768   1.094   0.570
 3024SOL    HW2 9972   6.616   1.153   0.582
 3025SOL     OW 9973   4.123   5.456   0.700
 3025SOL    HW1 9974   4.079   5.515   0.768
 3025SOL    HW2 9975   4.180   5.388   0.745
 3026SOL     OW 9976   0.247   0.281   2.185
 3026SOL    HW1 9977   0.312   0.235   2.245
 3026SOL    HW2 9978   0.179   0.216   2.152
 3027SOL     OW 9979   3.937   6.669   1.200
 3027SOL    HW1 9980   4.018   6.724   1.181
 3027SOL    HW2 9981   3.922   6.604   1.125
 3028SOL     OW 9982   3.619   3.207   4.682
 3028SOL    HW1 9983   3.637   3.116   4.644
 3028SOL    HW2 9984   3.553   3.200   4.756
 3029SOL     OW 9985   0.438   2.673   5.102
 3029SOL    HW1 9986   0.428   2.626   5.015
 3029SOL    HW2 9987   0.390   2.621   5.174
 3030SOL     OW 9988   1.063   2.676   6.183
 3030SOL    HW1 9989   1.072   2.653   6.086
 3030SOL    HW2 9990   1.016   2.764   6.191
 3031SOL     OW 9991   0.860   5.051   6.905
 3031SOL    HW1 9992   0.767   5.020   6.889
 3031SOL    HW2 9993   0.864   5.100   6.993
 3032SOL     OW 9994   3.643   6.787   3.752
 3032SOL    HW1 9995   3.710   6.853   3.717
 3032SOL    HW2 9996   3.604   6.736   3.676
 3033SOL     OW 9997   1.935   1.325   6.595
 3033SOL    HW1 9998   1.945   1.326   6.495
 3033SOL    HW2 9999   1.967   1.411   6.633
 3034SOL     OW10000   5.430   3.482   3.514
 3034SOL    HW110001   5.492   3.421   3.562
 3034SOL    HW210002   5.336   3.463   3.542
 3035SOL     OW10003   0.070   3.701   0.096
 3035SOL    HW110004   7.009   3.717   0.155
 3035SOL    HW210005   0.039   3.687   0.001
 3036SOL     OW10006   3.516   2.143   6.114
 3036SOL    HW110007   3.538   2.082   6.191
 3036SOL    HW210008   3.593   2.144   6.050
 3037SOL     OW10009   0.447   4.907   6.347
 3037SOL    HW110010   0.546   4.904   6.332
 3037SOL    HW210011   0.406   4.971   6.281
 3038SOL     OW10012   6.128   4.697   5.301
 3038SOL    HW110013   6.172   4.610   5.279
 3038SOL    HW210014   6.159   4.728   5.391
 3039SOL     OW10015   5.505   3.047   6.297
 3039SOL    HW110016   5.446   2.970   6.322
 3039SOL    HW210017   5.599   3.015   6.289
 3040SOL     OW10018   3.970   6.536   6.491
 3040SOL    HW110019   3.888   6.531   6.548
 3040SOL    HW210020   3.949   6.508   6.398
 3041SOL     OW10021   2.257   5.439   6.956
 3041SOL    HW110022   2.203   5.500   6.897
 3041SOL    HW210023   2.340   5.486   6.986
 3042SOL     OW10024   6.783   5.000   4.305
 3042SOL    HW110025   6.882   4.992   4.309
 3042SOL    HW210026   6.741   4.910   4.319
 3043SOL     OW10027   3.123   4.098   1.341
 3043SOL    HW110028   3.094   4.177   1.286
 3043SOL    HW210029   3.109   4.014   1.288
 3044SOL     OW10030   3.909   3.236   4.919
 3044SOL    HW110031   3.973   3.287   4.977
 3044SOL    HW210032   3.928   3.257   4.823
 3045SOL     OW10033   5.403   0.524   2.893
 3045SOL    HW110034   5.387   0.461   2.969
 3045SOL    HW210035   5.321   0.530   2.837
 3046SOL     OW10036   5.871   5.548   0.940
 3046SOL    HW110037   5.933   5.496   0.998
 3046SOL    HW210038   5.899   5.537   0.844
 3047SOL     OW10039   6.055   1.703   4.010
 3047SOL    HW110040   6.132   1.692   4.072
 3047SOL    HW210041   5.971   1.718   4.063
 3048SOL     OW10042   4.338   4.622   1.639
 3048SOL    HW110043   4.355   4.606   1.542
 3048SOL    HW210044   4.245   4.657   1.652
 3049SOL     OW10045   0.204   1.469   2.394
 3049SOL    HW110046   0.144   1.480   2.314
 3049SOL    HW210047   0.150   1.481   2.478
 3050SOL     OW10048   3.647   2.197   6.423
 3050SOL    HW110049   3.704   2.233   6.497
 3050SOL    HW210050   3.641   2.265   6.350
 3051SOL     OW10051   2.448   5.384   6.020
 3051SOL    HW110052   2.537   5.424   6.045
 3051SOL    HW210053   2.387   5.456   5.989
 3052SOL     OW10054   5.941   6.339   3.651
 3052SOL    HW110055   5.926   6.418   3.592
 3052SOL    HW210056   6.001   6.274   3.604
 3053SOL     OW10057   0.688   4.782   6.239
 3053SOL    HW110058   0.720   4.692   6.269
 3053SOL    HW210059   0.720   4.800   6.146
 3054SOL     OW10060   5.990   6.886   3.025
 3054SOL    HW110061   5.967   6.976   3.061
 3054SOL    HW210062   5.932   6.866   2.946
 3055SOL     OW10063   4.971   6.786   0.284
 3055SOL    HW110064   4.909   6.737   0.222
 3055SOL    HW210065   4.922   6.862   0.327
 3056SOL     OW10066   4.567   2.036   1.064
 3056SOL    HW110067   4.595   2.056   0.970
 3056SOL    HW210068   4.645   1.997   1.114
 3057SOL     OW10069   6.626   3.451   3.531
 3057SOL    HW110070   6.578   3.443   3.619
 3057SOL    HW210071   6.720   3.483   3.548
 3058SOL     OW10072   7.002   4.790   5.956
 3058SOL    HW110073   0.021   4.865   6.011
 3058SOL    HW210074   6.932   4.741   6.008
 3059SOL     OW10075   1.202   2.603   3.111
 3059SOL    HW110076   1.263   2.663   3.164
 3059SOL    HW210077   1.258   2.541   3.056
 3060SOL     OW10078   5.567   3.825   3.390
 3060SOL    HW110079   5.621   3.780   3.460
 3060SOL    HW210080   5.612   3.817   3.302
 3061SOL     OW10081   5.912   6.368   2.672
 3061SOL    HW110082   5.848   6.434   2.632
 3061SOL    HW210083   5.893   6.357   2.769
 3062SOL     OW10084   3.935   5.253   1.209
 3062SOL    HW110085   3.899   5.199   1.133
 3062SOL    HW210086   3.954   5.346   1.177
 3063SOL     OW10087   6.829   4.757   0.375
 3063SOL    HW110088   6.736   4.724   0.358
 3063SOL    HW210089   6.871   4.700   0.447
 3064SOL     OW10090   4.761   1.810   6.327
 3064SOL    HW110091   4.811   1.755   6.261
 3064SOL    HW210092   4.662   1.798   6.313
 3065SOL     OW10093   5.437   1.028   6.289
 3065SOL    HW110094   5.431   1.108   6.348
 3065SOL    HW210095   5.515   0.972   6.316
 3066SOL     OW10096   5.422   0.361   5.949
 3066SOL    HW110097   5.414   0.269   5.987
 3066SOL    HW210098   5.346   0.417   5.981
 3067SOL     OW10099   1.741   1.599   4.653
 3067SOL    HW110100   1.750   1.653   4.569
 3067SOL    HW210101   1.647   1.606   4.686
 3068SOL     OW10102   6.043   0.075   1.084
 3068SOL    HW110103   6.084   0.155   1.041
 3068SOL    HW210104   6.092   0.052   1.167
 3069SOL     OW10105   5.641   6.139   4.068
 3069SOL    HW110106   5.690   6.076   4.129
 3069SOL    HW210107   5.701   6.168   3.994
 3070SOL     OW10108   2.780   1.226   0.873
 3070SOL    HW110109   2.807   1.150   0.814
 3070SOL    HW210110   2.841   1.230   0.952
 3071SOL     OW10111   5.685   4.658   5.292
 3071SOL    HW110112   5.663   4.570   5.335
 3071SOL    HW210113   5.601   4.702   5.260
 3072SOL     OW10114   1.387   6.741   5.002
 3072SOL    HW110115   1.478   6.767   5.034
 3072SOL    HW210116   1.394   6.691   4.916
 3073SOL     OW10117   6.813   5.570   2.413
 3073SOL    HW110118   6.758   5.614   2.483
 3073SOL    HW210119   6.821   5.630   2.333
 3074SOL     OW10120   3.316   2.847   1.875
 3074SOL    HW110121   3.232   2.897   1.896
 3074SOL    HW210122   3.395   2.908   1.886
 3075SOL     OW10123   3.831   4.934   1.417
 3075SOL    HW110124   3.798   4.987   1.496
 3075SOL    HW210125   3.788   4.969   1.334
 3076SOL     OW10126   1.963   1.702   4.231
 3076SOL    HW110127   2.003   1.784   4.190
 3076SOL    HW210128   1.924   1.725   4.320
 3077SOL     OW10129   0.194   3.660   1.711
 3077SOL    HW110130   0.231   3.744   1.670
 3077SOL    HW210131   0.243   3.581   1.674
 3078SOL     OW10132   6.797   4.042   1.411
 3078SOL    HW110133   6.783   3.998   1.500
 3078SOL    HW210134   6.846   3.979   1.350
 3079SOL     OW10135   1.270   3.884   3.944
 3079SOL    HW110136   1.183   3.869   3.898
 3079SOL    HW210137   1.306   3.974   3.919
 3080SOL     OW10138   3.783   4.658   1.637
 3080SOL    HW110139   3.742   4.677   1.547
 3080SOL    HW210140   3.712   4.660   1.707
 3081SOL     OW10141   2.310   2.772   6.077
 3081SOL    HW110142   2.341   2.831   6.151
 3081SOL    HW210143   2.281   2.828   5.999
 3082SOL     OW10144   5.465   3.879   5.226
 3082SOL    HW110145   5.413   3.833   5.154
 3082SOL    HW210146   5.516   3.956   5.186
 3083SOL     OW10147   4.139   5.772   1.134
 3083SOL    HW110148   4.180   5.853   1.178
 3083SOL    HW210149   4.202   5.696   1.139
 3084SOL     OW10150   6.722   5.248   4.185
 3084SOL    HW110151   6.734   5.251   4.086
 3084SOL    HW210152   6.758   5.161   4.221
 3085SOL     OW10153   6.522   5.886   6.881
 3085SOL    HW110154   6.457   5.911   6.809
 3085SOL    HW210155   6.567   5.968   6.915
 3086SOL     OW10156   5.998   6.614   6.626
 3086SOL    HW110157   5.910   6.637   6.668
 3086SOL    HW210158   6.070   6.670   6.666
 3087SOL     OW10159   3.056   0.179   1.982
 3087SOL    HW110160   3.082   0.258   2.038
 3087SOL    HW210161   2.957   0.165   1.989
 3088SOL     OW10162   2.471   3.466   5.400
 3088SOL    HW110163   2.436   3.557   5.379
 3088SOL    HW210164   2.553   3.449   5.345
 3089SOL     OW10165   4.181   6.376   6.574
 3089SOL    HW110166   4.114   6.311   6.610
 3089SOL    HW210167   4.134   6.460   6.545
 3090SOL     OW10168   1.544   2.808   2.408
 3090SOL    HW110169   1.520   2.711   2.414
 3090SOL    HW210170   1.643   2.818   2.413
 3091SOL     OW10171   1.317   2.476   6.994
 3091SOL    HW110172   1.274   2.404   6.939
 3091SOL    HW210173   1.365   2.540   6.934
 3092SOL     OW10174   5.548   0.970   3.004
 3092SOL    HW110175   5.517   0.904   3.073
 3092SOL    HW210176   5.636   1.008   3.031
 3093SOL     OW10177   6.560   5.170   6.535
 3093SOL    HW110178   6.583   5.256   6.490
 3093SOL    HW210179   6.636   5.142   6.594
 3094SOL     OW10180   2.141   1.650   6.168
 3094SOL    HW110181   2.207   1.584   6.134
 3094SOL    HW210182   2.056   1.642   6.115
 3095SOL     OW10183   1.593   3.753   5.001
 3095SOL    HW110184   1.688   3.779   4.983
 3095SOL    HW210185   1.534   3.797   4.932
 3096SOL     OW10186   1.626   2.782   4.070
 3096SOL    HW110187   1.527   2.771   4.068
 3096SOL    HW210188   1.652   2.840   4.147
 3097SOL     OW10189   5.263   2.752   5.757
 3097SOL    HW110190   5.183   2.697   5.780
 3097SOL    HW210191   5.306   2.716   5.674
 3098SOL     OW10192   1.498   3.267   2.294
 3098SOL    HW110193   1.493   3.167   2.294
 3098SOL    HW210194   1.516   3.300   2.386
 3099SOL     OW10195   1.036   6.667   5.401
 3099SOL    HW110196   1.113   6.695   5.344
 3099SOL    HW210197   0.971   6.742   5.408
 3100SOL     OW10198   6.318   4.521   2.359
 3100SOL    HW110199   6.364   4.535   2.447
 3100SOL    HW210200   6.298   4.610   2.318
 3101SOL     OW10201   4.680   0.060   4.560
 3101SOL    HW110202   4.588   0.079   4.594
 3101SOL    HW210203   4.746   0.115   4.610
 3102SOL     OW10204   5.516   4.430   2.513
 3102SOL    HW110205   5.599   4.421   2.569
 3102SOL    HW210206   5.451   4.358   2.538
 3103SOL     OW10207   1.346   2.288   2.402
 3103SOL    HW110208   1.342   2.188   2.401
 3103SOL    HW210209   1.253   2.325   2.409
 3104SOL     OW10210   5.655   2.156   5.744
 3104SOL    HW110211   5.637   2.137   5.648
 3104SOL    HW210212   5.731   2.099   5.775
 3105SOL     OW10213   5.531   4.135   0.575
 3105SOL    HW110214   5.435   4.118   0.600
 3105SOL    HW210215   5.554   4.082   0.495
 3106SOL     OW10216   5.176   1.901   6.145
 3106SOL    HW110217   5.228   1.903   6.230
 3106SOL    HW210218   5.123   1.985   6.136
 3107SOL     OW10219   4.028   2.187   4.573
 3107SOL    HW110220   3.931   2.171   4.591
 3107SOL    HW210221   4.072   2.223   4.655
 3108SOL     OW10222   1.857   4.390   3.548
 3108SOL    HW110223   1.956   4.394   3.529
 3108SOL    HW210224   1.839   4.425   3.640
 3109SOL     OW10225   6.691   5.861   3.149
 3109SOL    HW110226   6.683   5.955   3.115
 3109SOL    HW210227   6.727   5.802   3.076
 3110SOL     OW10228   0.891   5.979   4.522
 3110SOL    HW110229   0.878   6.077   4.535
 3110SOL    HW210230   0.914   5.960   4.427
 3111SOL     OW10231   6.519   3.989   3.557
 3111SOL    HW110232   6.580   4.068   3.567
 3111SOL    HW210233   6.524   3.933   3.639
 3112SOL     OW10234   4.455   0.590   0.116
 3112SOL    HW110235   4.393   0.627   0.047
 3112SOL    HW210236   4.446   0.490   0.118
 3113SOL     OW10237   1.469   0.121   3.394
 3113SOL    HW110238   1.399   0.066   3.347
 3113SOL    HW210239   1.555   0.115   3.344
 3114SOL     OW10240   4.528   5.981   5.340
 3114SOL    HW110241   4.479   6.016   5.260
 3114SOL    HW210242   4.615   6.030   5.349
 3115SOL     OW10243   4.523   5.263   4.457
 3115SOL    HW110244   4.524   5.163   4.463
 3115SOL    HW210245   4.433   5.296   4.485
 3116SOL     OW10246   1.126   1.712   6.189
 3116SOL    HW110247   1.070   1.642   6.147
 3116SOL    HW210248   1.101   1.802   6.153
 3117SOL     OW10249   3.752   6.928   1.150
 3117SOL    HW110250   3.703   6.842   1.162
 3117SOL    HW210251   3.823   6.936   1.220
 3118SOL     OW10252   0.569   1.946   3.407
 3118SOL    HW110253   0.615   2.027   3.371
 3118SOL    HW210254   0.535   1.891   3.332
 3119SOL     OW10255   4.647   6.116   3.721
 3119SOL    HW110256   4.725   6.084   3.668
 3119SOL    HW210257   4.679   6.171   3.799
 3120SOL     OW10258   3.027   5.879   0.185
 3120SOL    HW110259   3.122   5.848   0.174
 3120SOL    HW210260   3.002   5.875   0.281
 3121SOL     OW10261   3.993   2.043   3.741
 3121SOL    HW110262   4.070   2.060   3.804
 3121SOL    HW210263   3.998   1.949   3.708
 3122SOL     OW10264   5.944   4.073   6.238
 3122SOL    HW110265   5.885   4.012   6.291
 3122SOL    HW210266   5.919   4.066   6.141
 3123SOL     OW10267   2.003   2.582   2.600
 3123SOL    HW110268   2.095   2.622   2.604
 3123SOL    HW210269   1.937   2.655   2.581
 3124SOL     OW10270   4.858   6.749   5.253
 3124SOL    HW110271   4.897   6.750   5.345
 3124SOL    HW210272   4.864   6.841   5.213
 3125SOL     OW10273   1.776   1.453   5.261
 3125SOL    HW110274   1.842   1.382   5.235
 3125SOL    HW210275   1.712   1.416   5.327
 3126SOL     OW10276   4.629   4.515   5.823
 3126SOL    HW110277   4.585   4.598   5.858
 3126SOL    HW210278   4.592   4.494   5.732
 3127SOL     OW10279   6.691   1.764   5.664
 3127SOL    HW110280   6.789   1.770   5.683
 3127SOL    HW210281   6.639   1.794   5.743
 3128SOL     OW10282   3.622   0.726   0.984
 3128SOL    HW110283   3.635   0.814   1.030
 3128SOL    HW210284   3.708   0.675   0.986
 3129SOL     OW10285   4.101   4.125   0.459
 3129SOL    HW110286   4.121   4.055   0.528
 3129SOL    HW210287   4.186   4.171   0.434
 3130SOL     OW10288   0.019   6.005   1.807
 3130SOL    HW110289   6.947   5.986   1.846
 3130SOL    HW210290   0.089   5.998   1.879
 3131SOL     OW10291   0.035   2.955   2.733
 3131SOL    HW110292   0.019   3.044   2.775
 3131SOL    HW210293   0.023   2.963   2.634
 3132SOL     OW10294   4.702   4.422   0.016
 3132SOL    HW110295   4.780   4.369   6.999
 3132SOL    HW210296   4.626   4.360   0.035
 3133SOL     OW10297   5.268   6.189   3.337
 3133SOL    HW110298   5.267   6.209   3.239
 3133SOL    HW210299   5.188   6.231   3.379
 3134SOL     OW10300   5.383   4.405   3.110
 3134SOL    HW110301   5.293   4.379   3.076
 3134SOL    HW210302   5.400   4.361   3.198
 3135SOL     OW10303   3.482   0.329   6.502
 3135SOL    HW110304   3.452   0.363   6.591
 3135SOL    HW210305   3.568   0.280   6.512
 3136SOL     OW10306   6.524   6.765   2.795
 3136SOL    HW110307   6.623   6.778   2.797
 3136SOL    HW210308   6.486   6.815   2.717
 3137SOL     OW10309   4.320   5.409   0.047
 3137SOL    HW110310   4.353   5.408   0.142
 3137SOL    HW210311   4.257   5.332   0.034
 3138SOL     OW10312   6.934   6.718   4.859
 3138SOL    HW110313   6.856   6.719   4.921
 3138SOL    HW210314   6.970   6.811   4.849
 3139SOL     OW10315   1.676   5.337   1.968
 3139SOL    HW110316   1.702   5.395   1.891
 3139SOL    HW210317   1.755   5.282   1.996
 3140SOL     OW10318   5.555   6.077   6.917
 3140SOL    HW110319   5.621   6.010   6.883
 3140SOL    HW210320   5.593   6.169   6.907
 3141SOL     OW10321   5.753   1.361   6.508
 3141SOL    HW110322   5.794   1.302   6.577
 3141SOL    HW210323   5.747   1.312   6.421
 3142SOL     OW10324   4.831   1.160   3.977
 3142SOL    HW110325   4.782   1.108   4.047
 3142SOL    HW210326   4.795   1.254   3.974
 3143SOL     OW10327   0.125   1.310   0.878
 3143SOL    HW110328   0.188   1.260   0.937
 3143SOL    HW210329   0.168   1.395   0.847
 3144SOL     OW10330   3.776   4.731   0.173
 3144SOL    HW110331   3.800   4.825   0.148
 3144SOL    HW210332   3.830   4.667   0.118
 3145SOL     OW10333   1.053   5.616   6.302
 3145SOL    HW110334   1.006   5.537   6.342
 3145SOL    HW210335   1.115   5.585   6.230
 3146SOL     OW10336   6.190   2.222   4.681
 3146SOL    HW110337   6.270   2.182   4.727
 3146SOL    HW210338   6.202   2.321   4.675
 3147SOL     OW10339   4.628   0.012   0.739
 3147SOL    HW110340   4.663   6.993   0.826
 3147SOL    HW210341   4.640   0.112   0.738
 3148SOL     OW10342   6.523   5.006   0.539
 3148SOL    HW110343   6.454   5.062   0.493
 3148SOL    HW210344   6.540   4.923   0.486
 3149SOL     OW10345   4.203   3.015   0.429
 3149SOL    HW110346   4.197   3.077   0.351
 3149SOL    HW210347   4.299   3.005   0.456
 3150SOL     OW10348   0.154   0.028   5.336
 3150SOL    HW110349   0.102   0.106   5.301
 3150SOL    HW210350   0.106   7.006   5.415
 3151SOL     OW10351   6.765   0.700   5.759
 3151SOL    HW110352   6.864   0.703   5.772
 3151SOL    HW210353   6.726   0.788   5.786
 3152SOL     OW10354   2.303   2.010   5.801
 3152SOL    HW110355   2.305   1.950   5.721
 3152SOL    HW210356   2.395   2.014   5.841
 3153SOL     OW10357   5.679   5.743   1.997
 3153SOL    HW110358   5.627   5.658   2.005
 3153SOL    HW210359   5.623   5.812   1.952
 3154SOL     OW10360   3.782   1.987   0.894
 3154SOL    HW110361   3.686   1.995   0.865
 3154SOL    HW210362   3.818   1.898   0.865
 3155SOL     OW10363   0.084   5.224   6.655
 3155SOL    HW110364   0.047   5.169   6.580
 3155SOL    HW210365   0.052   5.189   6.742
 3156SOL     OW10366   3.811   4.479   0.938
 3156SOL    HW110367   3.872   4.415   0.891
 3156SOL    HW210368   3.798   4.449   1.033
 3157SOL     OW10369   1.421   1.216   3.979
 3157SOL    HW110370   1.337   1.178   4.020
 3157SOL    HW210371   1.457   1.288   4.039
 3158SOL     OW10372   2.566   0.487   6.121
 3158SOL    HW110373   2.646   0.477   6.062
 3158SOL    HW210374   2.583   0.440   6.208
 3159SOL     OW10375   5.035   6.966   1.497
 3159SOL    HW110376   5.006   6.919   1.413
 3159SOL    HW210377   4.954   6.996   1.547
 3160SOL     OW10378   2.010   0.951   4.733
 3160SOL    HW110379   2.002   0.853   4.750
 3160SOL    HW210380   1.936   0.999   4.780
 3161SOL     OW10381   1.636   2.677   2.108
 3161SOL    HW110382   1.676   2.689   2.017
 3161SOL    HW210383   1.545   2.637   2.100
 3162SOL     OW10384   1.178   5.924   1.391
 3162SOL    HW110385   1.194   5.849   1.327
 3162SOL    HW210386   1.130   5.889   1.472
 3163SOL     OW10387   4.768   4.196   0.929
 3163SOL    HW110388   4.671   4.197   0.907
 3163SOL    HW210389   4.784   4.245   1.014
 3164SOL     OW10390   2.323   6.684   4.306
 3164SOL    HW110391   2.360   6.744   4.377
 3164SOL    HW210392   2.387   6.680   4.230
 3165SOL     OW10393   0.743   6.255   6.521
 3165SOL    HW110394   0.820   6.296   6.472
 3165SOL    HW210395   0.762   6.158   6.538
 3166SOL     OW10396   4.262   2.007   4.626
 3166SOL    HW110397   4.217   1.951   4.696
 3166SOL    HW210398   4.215   2.095   4.618
 3167SOL     OW10399   6.143   3.028   1.449
 3167SOL    HW110400   6.047   3.008   1.467
 3167SOL    HW210401   6.193   3.031   1.536
 3168SOL     OW10402   5.853   1.415   0.877
 3168SOL    HW110403   5.832   1.318   0.866
 3168SOL    HW210404   5.880   1.454   0.789
 3169SOL     OW10405   1.242   4.071   2.030
 3169SOL    HW110406   1.164   4.111   1.981
 3169SOL    HW210407   1.210   3.995   2.087
 3170SOL     OW10408   2.252   4.171   3.353
 3170SOL    HW110409   2.333   4.158   3.296
 3170SOL    HW210410   2.270   4.242   3.421
 3171SOL     OW10411   5.393   1.141   4.766
 3171SOL    HW110412   5.431   1.204   4.834
 3171SOL    HW210413   5.300   1.170   4.741
 3172SOL     OW10414   5.775   4.113   1.100
 3172SOL    HW110415   5.718   4.117   1.182
 3172SOL    HW210416   5.863   4.157   1.118
 3173SOL     OW10417   5.595   3.102   0.283
 3173SOL    HW110418   5.496   3.083   0.279
 3173SOL    HW210419   5.635   3.052   0.360
 3174SOL     OW10420   3.830   2.338   6.576
 3174SOL    HW110421   3.848   2.416   6.516
 3174SOL    HW210422   3.902   2.330   6.644
 3175SOL     OW10423   6.177   6.413   5.222
 3175SOL    HW110424   6.242   6.473   5.267
 3175SOL    HW210425   6.099   6.397   5.282
 3176SOL     OW10426   0.350   4.833   4.240
 3176SOL    HW110427   0.413   4.788   4.303
 3176SOL    HW210428   0.401   4.901   4.187
 3177SOL     OW10429   4.879   3.070   3.082
 3177SOL    HW110430   4.965   3.021   3.093
 3177SOL    HW210431   4.803   3.010   3.107
 3178SOL     OW10432   0.960   0.198   2.871
 3178SOL    HW110433   0.969   0.232   2.777
 3178SOL    HW210434   0.898   0.257   2.922
 3179SOL     OW10435   0.677   3.263   2.330
 3179SOL    HW110436   0.740   3.207   2.276
 3179SOL    HW210437   0.586   3.222   2.327
 3180SOL     OW10438   6.566   6.853   6.757
 3180SOL    HW110439   6.536   6.855   6.662
 3180SOL    HW210440   6.610   6.939   6.781
 3181SOL     OW10441   0.680   6.041   4.909
 3181SOL    HW110442   0.748   5.970   4.928
 3181SOL    HW210443   0.724   6.118   4.863
 3182SOL     OW10444   0.995   6.745   1.324
 3182SOL    HW110445   0.935   6.796   1.262
 3182SOL    HW210446   1.039   6.808   1.387
 3183SOL     OW10447   4.099   3.467   1.006
 3183SOL    HW110448   4.085   3.481   1.104
 3183SOL    HW210449   4.195   3.486   0.984
 3184SOL     OW10450   6.271   1.506   4.179
 3184SOL    HW110451   6.363   1.467   4.171
 3184SOL    HW210452   6.210   1.461   4.113
 3185SOL     OW10453   0.809   6.432   5.950
 3185SOL    HW110454   0.879   6.501   5.934
 3185SOL    HW210455   0.833   6.378   6.031
 3186SOL     OW10456   0.532   2.782   5.907
 3186SOL    HW110457   0.613   2.835   5.932
 3186SOL    HW210458   0.462   2.844   5.871
 3187SOL     OW10459   5.255   6.882   3.014
 3187SOL    HW110460   5.170   6.924   3.047
 3187SOL    HW210461   5.314   6.953   2.975
 3188SOL     OW10462   1.618   6.641   0.742
 3188SOL    HW110463   1.647   6.582   0.817
 3188SOL    HW210464   1.541   6.697   0.771
 3189SOL     OW10465   2.747   1.612   6.433
 3189SOL    HW110466   2.703   1.645   6.517
 3189SOL    HW210467   2.686   1.625   6.356
 3190SOL     OW10468   5.886   6.197   3.950
 3190SOL    HW110469   5.963   6.136   3.969
 3190SOL    HW210470   5.904   6.247   3.865
 3191SOL     OW10471   3.691   5.106   1.623
 3191SOL    HW110472   3.646   5.025   1.662
 3191SOL    HW210473   3.622   5.174   1.599
 3192SOL     OW10474   5.221   0.770   2.630
 3192SOL    HW110475   5.218   0.826   2.712
 3192SOL    HW210476   5.310   0.778   2.587
 3193SOL     OW10477   3.156   5.554   5.357
 3193SOL    HW110478   3.239   5.571   5.411
 3193SOL    HW210479   3.170   5.584   5.263
 3194SOL     OW10480   1.997   6.650   5.398
 3194SOL    HW110481   2.014   6.584   5.325
 3194SOL    HW210482   1.905   6.686   5.390
 3195SOL     OW10483   0.721   0.058   0.596
 3195SOL    HW110484   0.790   0.130   0.589
 3195SOL    HW210485   0.681   0.058   0.688
 3196SOL     OW10486   6.290   6.946   2.856
 3196SOL    HW110487   6.223   6.872   2.861
 3196SOL    HW210488   6.382   6.907   2.856
 3197SOL     OW10489   2.930   0.393   0.083
 3197SOL    HW110490   2.842   0.440   0.095
 3197SOL    HW210491   2.962   0.406   7.007
 3198SOL     OW10492   5.185   2.910   4.224
 3198SOL    HW110493   5.243   2.891   4.303
 3198SOL    HW210494   5.242   2.941   4.147
 3199SOL     OW10495   4.995   4.035   3.243
 3199SOL    HW110496   4.944   3.958   3.282
 3199SOL    HW210497   4.949   4.066   3.160
 3200SOL     OW10498   5.862   3.880   4.835
 3200SOL    HW110499   5.909   3.967   4.849
 3200SOL    HW210500   5.919   3.805   4.868
 3201SOL     OW10501   6.381   4.184   2.101
 3201SOL    HW110502   6.397   4.086   2.095
 3201SOL    HW210503   6.388   4.213   2.196
 3202SOL     OW10504   2.695   2.729   6.308
 3202SOL    HW110505   2.628   2.654   6.313
 3202SOL    HW210506   2.775   2.705   6.362
 3203SOL     OW10507   3.145   6.720   1.577
 3203SOL    HW110508   3.227   6.763   1.615
 3203SOL    HW210509   3.064   6.757   1.620
 3204SOL     OW10510   4.226   0.600   3.748
 3204SOL    HW110511   4.215   0.642   3.838
 3204SOL    HW210512   4.244   0.502   3.759
 3205SOL     OW10513   4.480   2.839   5.966
 3205SOL    HW110514   4.466   2.914   5.902
 3205SOL    HW210515   4.407   2.772   5.955
 3206SOL     OW10516   3.011   4.240   0.939
 3206SOL    HW110517   3.075   4.301   0.893
 3206SOL    HW210518   2.947   4.202   0.873
 3207SOL     OW10519   2.651   6.118   3.885
 3207SOL    HW110520   2.667   6.134   3.982
 3207SOL    HW210521   2.682   6.026   3.860
 3208SOL     OW10522   6.734   4.763   6.237
 3208SOL    HW110523   6.769   4.687   6.293
 3208SOL    HW210524   6.657   4.805   6.284
 3209SOL     OW10525   5.307   6.800   6.242
 3209SOL    HW110526   5.315   6.780   6.340
 3209SOL    HW210527   5.257   6.727   6.196
 3210SOL     OW10528   4.818   5.361   1.609
 3210SOL    HW110529   4.722   5.361   1.634
 3210SOL    HW210530   4.852   5.267   1.604
 3211SOL     OW10531   2.080   6.484   6.355
 3211SOL    HW110532   2.093   6.492   6.256
 3211SOL    HW210533   1.982   6.490   6.376
 3212SOL     OW10534   3.427   6.770   3.934
 3212SOL    HW110535   3.512   6.771   3.883
 3212SOL    HW210536   3.360   6.829   3.890
 3213SOL     OW10537   1.340   0.430   5.737
 3213SOL    HW110538   1.260   0.474   5.697
 3213SOL    HW210539   1.390   0.380   5.666
 3214SOL     OW10540   3.537   0.609   2.904
 3214SOL    HW110541   3.610   0.590   2.970
 3214SOL    HW210542   3.486   0.689   2.933
 3215SOL     OW10543   2.041   3.050   1.841
 3215SOL    HW110544   2.066   3.127   1.900
 3215SOL    HW210545   1.950   3.066   1.802
 3216SOL     OW10546   6.315   5.539   0.449
 3216SOL    HW110547   6.248   5.605   0.414
 3216SOL    HW210548   6.294   5.517   0.544
 3217SOL     OW10549   6.775   5.328   3.922
 3217SOL    HW110550   6.700   5.393   3.911
 3217SOL    HW210551   6.862   5.375   3.904
 3218SOL     OW10552   5.649   1.300   2.913
 3218SOL    HW110553   5.662   1.251   2.999
 3218SOL    HW210554   5.671   1.239   2.836
 3219SOL     OW10555   5.888   1.710   5.043
 3219SOL    HW110556   5.890   1.798   4.996
 3219SOL    HW210557   5.841   1.719   5.130
 3220SOL     OW10558   0.350   3.910   5.718
 3220SOL    HW110559   0.432   3.877   5.765
 3220SOL    HW210560   0.374   3.937   5.624
 3221SOL     OW10561   4.122   1.619   2.340
 3221SOL    HW110562   4.130   1.595   2.244
 3221SOL    HW210563   4.149   1.541   2.397
 3222SOL     OW10564   3.563   1.487   3.406
 3222SOL    HW110565   3.529   1.567   3.356
 3222SOL    HW210566   3.651   1.509   3.447
 3223SOL     OW10567   1.659   5.764   0.597
 3223SOL    HW110568   1.749   5.804   0.584
 3223SOL    HW210569   1.603   5.826   0.651
 3224SOL     OW10570   4.601   2.645   4.780
 3224SOL    HW110571   4.511   2.606   4.797
 3224SOL    HW210572   4.625   2.707   4.855
 3225SOL     OW10573   4.764   1.157   5.012
 3225SOL    HW110574   4.795   1.153   5.107
 3225SOL    HW210575   4.813   1.229   4.963
 3226SOL     OW10576   6.407   0.972   0.693
 3226SOL    HW110577   6.331   0.970   0.758
 3226SOL    HW210578   6.458   1.058   0.704
 3227SOL     OW10579   6.289   4.315   5.750
 3227SOL    HW110580   6.306   4.374   5.671
 3227SOL    HW210581   6.317   4.362   5.834
 3228SOL     OW10582   2.213   4.173   0.142
 3228SOL    HW110583   2.298   4.123   0.159
 3228SOL    HW210584   2.135   4.117   0.169
 3229SOL     OW10585   1.693   1.605   0.628
 3229SOL    HW110586   1.742   1.530   0.583
 3229SOL    HW210587   1.757   1.678   0.650
 3230SOL     OW10588   2.880   6.161   5.221
 3230SOL    HW110589   2.822   6.199   5.150
 3230SOL    HW210590   2.838   6.175   5.311
 3231SOL     OW10591   1.926   3.016   2.452
 3231SOL    HW110592   1.980   3.034   2.534
 3231SOL    HW210593   1.902   3.104   2.410
 3232SOL     OW10594   2.826   4.937   3.154
 3232SOL    HW110595   2.726   4.942   3.143
 3232SOL    HW210596   2.848   4.908   3.247
 3233SOL     OW10597   2.169   6.948   6.971
 3233SOL    HW110598   2.127   0.014   7.006
 3233SOL    HW210599   2.119   6.868   7.004
 3234SOL     OW10600   3.164   3.340   0.875
 3234SOL    HW110601   3.177   3.291   0.788
 3234SOL    HW210602   3.253   3.357   0.916
 3235SOL     OW10603   6.772   1.370   2.831
 3235SOL    HW110604   6.797   1.301   2.898
 3235SOL    HW210605   6.796   1.338   2.739
 3236SOL     OW10606   5.117   0.228   0.678
 3236SOL    HW110607   5.210   0.230   0.642
 3236SOL    HW210608   5.067   0.307   0.645
 3237SOL     OW10609   5.788   1.263   4.982
 3237SOL    HW110610   5.819   1.242   5.075
 3237SOL    HW210611   5.836   1.344   4.948
 3238SOL     OW10612   6.138   4.558   1.509
 3238SOL    HW110613   6.191   4.636   1.543
 3238SOL    HW210614   6.182   4.522   1.427
 3239SOL     OW10615   5.907   0.743   4.903
 3239SOL    HW110616   5.942   0.661   4.947
 3239SOL    HW210617   5.807   0.738   4.896
 3240SOL     OW10618   0.598   1.595   0.351
 3240SOL    HW110619   0.692   1.580   0.382
 3240SOL    HW210620   0.595   1.672   0.287
 3241SOL     OW10621   6.974   3.132   5.331
 3241SOL    HW110622   7.002   3.059   5.269
 3241SOL    HW210623   0.015   3.130   5.413
 3242SOL     OW10624   6.813   4.115   4.964
 3242SOL    HW110625   6.825   4.132   4.867
 3242SOL    HW210626   6.877   4.044   4.994
 3243SOL     OW10627   5.762   5.385   3.927
 3243SOL    HW110628   5.831   5.320   3.894
 3243SOL    HW210629   5.780   5.475   3.887
 3244SOL     OW10630   4.593   6.999   0.176
 3244SOL    HW110631   4.676   7.013   0.122
 3244SOL    HW210632   4.593   6.907   0.214
 3245SOL     OW10633   3.535   6.588   4.094
 3245SOL    HW110634   3.618   6.622   4.137
 3245SOL    HW210635   3.501   6.655   4.028
 3246SOL     OW10636   6.415   5.789   3.053
 3246SOL    HW110637   6.479   5.825   3.121
 3246SOL    HW210638   6.398   5.859   2.983
 3247SOL     OW10639   2.097   4.678   3.885
 3247SOL    HW110640   2.190   4.658   3.854
 3247SOL    HW210641   2.086   4.645   3.979
 3248SOL     OW10642   5.645   2.766   3.089
 3248SOL    HW110643   5.599   2.728   3.170
 3248SOL    HW210644   5.617   2.861   3.078
 3249SOL     OW10645   3.298   4.067   3.567
 3249SOL    HW110646   3.281   4.084   3.470
 3249SOL    HW210647   3.310   3.969   3.581
 3250SOL     OW10648   4.936   5.717   3.525
 3250SOL    HW110649   4.877   5.743   3.448
 3250SOL    HW210650   4.885   5.726   3.611
 3251SOL     OW10651   2.788   2.209   2.425
 3251SOL    HW110652   2.735   2.140   2.377
 3251SOL    HW210653   2.743   2.231   2.512
 3252SOL     OW10654   1.991   2.040   3.312
 3252SOL    HW110655   2.000   1.949   3.351
 3252SOL    HW210656   1.969   2.033   3.215
 3253SOL     OW10657   6.589   3.913   0.048
 3253SOL    HW110658   6.607   4.008   0.070
 3253SOL    HW210659   6.507   3.907   7.008
 3254SOL     OW10660   6.022   6.636   0.794
 3254SOL    HW110661   6.002   6.727   0.828
 3254SOL    HW210662   6.119   6.630   0.768
 3255SOL     OW10663   3.585   5.830   2.006
 3255SOL    HW110664   3.655   5.781   1.953
 3255SOL    HW210665   3.576   5.789   2.096
 3256SOL     OW10666   5.475   2.583   1.124
 3256SOL    HW110667   5.482   2.484   1.115
 3256SOL    HW210668   5.544   2.616   1.188
 3257SOL     OW10669   3.450   1.370   3.107
 3257SOL    HW110670   3.491   1.361   3.197
 3257SOL    HW210671   3.375   1.436   3.111
 3258SOL     OW10672   1.883   5.584   3.362
 3258SOL    HW110673   1.975   5.594   3.324
 3258SOL    HW210674   1.852   5.490   3.351
 3259SOL     OW10675   5.377   4.434   4.572
 3259SOL    HW110676   5.305   4.365   4.571
 3259SOL    HW210677   5.466   4.390   4.558
 3260SOL     OW10678   1.593   4.778   2.883
 3260SOL    HW110679   1.579   4.860   2.827
 3260SOL    HW210680   1.691   4.764   2.897
 3261SOL     OW10681   6.103   0.251   4.449
 3261SOL    HW110682   6.101   0.313   4.370
 3261SOL    HW210683   6.197   0.246   4.484
 3262SOL     OW10684   3.164   1.638   3.559
 3262SOL    HW110685   3.163   1.727   3.604
 3262SOL    HW210686   3.258   1.604   3.555
 3263SOL     OW10687   6.488   0.797   0.979
 3263SOL    HW110688   6.550   0.843   0.916
 3263SOL    HW210689   6.435   0.865   1.030
 3264SOL     OW10690   1.645   4.452   6.833
 3264SOL    HW110691   1.559   4.504   6.838
 3264SOL    HW210692   1.654   4.394   6.914
 3265SOL     OW10693   0.165   5.669   6.425
 3265SOL    HW110694   0.137   5.578   6.393
 3265SOL    HW210695   0.182   5.728   6.346
 3266SOL     OW10696   3.683   4.716   6.208
 3266SOL    HW110697   3.774   4.757   6.213
 3266SOL    HW210698   3.656   4.706   6.112
 3267SOL     OW10699   3.372   6.854   0.977
 3267SOL    HW110700   3.357   6.850   1.076
 3267SOL    HW210701   3.432   6.778   0.950
 3268SOL     OW10702   5.609   5.199   1.678
 3268SOL    HW110703   5.690   5.151   1.645
 3268SOL    HW210704   5.549   5.134   1.725
 3269SOL     OW10705   2.018   5.175   1.446
 3269SOL    HW110706   2.045   5.087   1.408
 3269SOL    HW210707   1.980   5.162   1.537
 3270SOL     OW10708   1.541   2.765   6.003
 3270SOL    HW110709   1.609   2.720   6.061
 3270SOL    HW210710   1.585   2.839   5.952
 3271SOL     OW10711   1.142   3.735   1.304
 3271SOL    HW110712   1.100   3.818   1.269
 3271SOL    HW210713   1.200   3.694   1.233
 3272SOL     OW10714   4.109   6.496   1.650
 3272SOL    HW110715   4.082   6.505   1.554
 3272SOL    HW210716   4.155   6.409   1.664
 3273SOL     OW10717   3.706   4.115   6.455
 3273SOL    HW110718   3.759   4.164   6.524
 3273SOL    HW210719   3.646   4.180   6.407
 3274SOL     OW10720   5.021   6.664   1.846
 3274SOL    HW110721   5.005   6.757   1.878
 3274SOL    HW210722   5.079   6.616   1.912
 3275SOL     OW10723   5.002   0.698   1.208
 3275SOL    HW110724   4.978   0.656   1.295
 3275SOL    HW210725   5.087   0.751   1.218
 3276SOL     OW10726   6.142   5.879   0.080
 3276SOL    HW110727   6.215   5.838   0.134
 3276SOL    HW210728   6.062   5.894   0.139
 3277SOL     OW10729   3.012   2.021   2.392
 3277SOL    HW110730   2.977   2.114   2.403
 3277SOL    HW210731   2.980   1.983   2.306
 3278SOL     OW10732   4.956   0.919   6.309
 3278SOL    HW110733   4.954   1.019   6.305
 3278SOL    HW210734   5.049   0.888   6.328
 3279SOL     OW10735   3.678   0.133   2.459
 3279SOL    HW110736   3.652   0.071   2.533
 3279SOL    HW210737   3.707   0.081   2.379
 3280SOL     OW10738   0.083   3.037   3.707
 3280SOL    HW110739   0.044   3.028   3.799
 3280SOL    HW210740   0.182   3.020   3.710
 3281SOL     OW10741   5.653   1.762   1.912
 3281SOL    HW110742   5.558   1.776   1.939
 3281SOL    HW210743   5.664   1.671   1.873
 3282SOL     OW10744   0.139   4.869   5.200
 3282SOL    HW110745   0.101   4.814   5.126
 3282SOL    HW210746   0.069   4.933   5.233
 3283SOL     OW10747   2.875   1.933   0.172
 3283SOL    HW110748   2.868   2.027   0.205
 3283SOL    HW210749   2.942   1.930   0.098
 3284SOL     OW10750   2.017   0.162   4.755
 3284SOL    HW110751   2.104   0.117   4.774
 3284SOL    HW210752   2.009   0.180   4.657
 3285SOL     OW10753   4.055   2.100   4.279
 3285SOL    HW110754   4.039   2.124   4.374
 3285SOL    HW210755   3.987   2.032   4.250
 3286SOL     OW10756   1.658   3.404   3.155
 3286SOL    HW110757   1.628   3.328   3.212
 3286SOL    HW210758   1.676   3.371   3.062
 3287SOL     OW10759   2.561   1.010   1.001
 3287SOL    HW110760   2.614   1.095   0.995
 3287SOL    HW210761   2.571   0.958   0.916
 3288SOL     OW10762   2.689   6.068   2.216
 3288SOL    HW110763   2.658   6.085   2.123
 3288SOL    HW210764   2.613   6.034   2.271
 3289SOL     OW10765   4.226   0.694   6.963
 3289SOL    HW110766   4.170   0.726   6.887
 3289SOL    HW210767   4.231   0.766   0.016
 3290SOL     OW10768   0.687   5.372   6.954
 3290SOL    HW110769   0.605   5.325   6.985
 3290SOL    HW210770   0.675   5.471   6.962
 3291SOL     OW10771   4.967   6.569   4.755
 3291SOL    HW110772   4.931   6.660   4.737
 3291SOL    HW210773   4.978   6.555   4.853
 3292SOL     OW10774   0.142   2.544   0.124
 3292SOL    HW110775   0.052   2.515   0.092
 3292SOL    HW210776   0.149   2.644   0.118
 3293SOL     OW10777   6.808   4.916   3.180
 3293SOL    HW110778   6.768   5.002   3.148
 3293SOL    HW210779   6.867   4.935   3.259
 3294SOL     OW10780   3.825   3.185   5.654
 3294SOL    HW110781   3.819   3.200   5.555
 3294SOL    HW210782   3.863   3.267   5.697
 3295SOL     OW10783   1.375   2.793   3.243
 3295SOL    HW110784   1.440   2.718   3.232
 3295SOL    HW210785   1.394   2.864   3.175
 3296SOL     OW10786   2.327   0.748   6.524
 3296SOL    HW110787   2.297   0.760   6.619
 3296SOL    HW210788   2.277   0.811   6.465
 3297SOL     OW10789   4.181   1.164   5.180
 3297SOL    HW110790   4.126   1.137   5.259
 3297SOL    HW210791   4.223   1.084   5.138
 3298SOL     OW10792   3.326   4.615   5.628
 3298SOL    HW110793   3.291   4.625   5.721
 3298SOL    HW210794   3.253   4.635   5.563
 3299SOL     OW10795   2.728   6.601   4.031
 3299SOL    HW110796   2.714   6.574   3.936
 3299SOL    HW210797   2.648   6.651   4.063
 3300SOL     OW10798   1.806   1.075   3.553
 3300SOL    HW110799   1.806   0.975   3.544
 3300SOL    HW210800   1.815   1.100   3.649
 3301SOL     OW10801   1.166   1.388   2.934
 3301SOL    HW110802   1.216   1.384   2.847
 3301SOL    HW210803   1.189   1.309   2.990
 3302SOL     OW10804   1.149   5.275   5.468
 3302SOL    HW110805   1.204   5.323   5.537
 3302SOL    HW210806   1.081   5.218   5.514
 3303SOL     OW10807   3.689   3.870   6.989
 3303SOL    HW110808   3.728   3.908   0.055
 3303SOL    HW210809   3.711   3.928   6.911
 3304SOL     OW10810   2.056   4.122   0.407
 3304SOL    HW110811   1.971   4.115   0.459
 3304SOL    HW210812   2.101   4.209   0.427
 3305SOL     OW10813   2.921   2.868   0.188
 3305SOL    HW110814   2.839   2.812   0.185
 3305SOL    HW210815   2.904   2.955   0.142
 3306SOL     OW10816   2.582   6.956   0.100
 3306SOL    HW110817   2.672   6.912   0.098
 3306SOL    HW210818   2.522   6.906   0.163
 3307SOL     OW10819   1.824   5.879   4.207
 3307SOL    HW110820   1.853   5.783   4.215
 3307SOL    HW210821   1.739   5.884   4.154
 3308SOL     OW10822   4.231   5.201   1.469
 3308SOL    HW110823   4.251   5.123   1.527
 3308SOL    HW210824   4.222   5.171   1.374
 3309SOL     OW10825   5.351   3.693   3.143
 3309SOL    HW110826   5.343   3.594   3.160
 3309SOL    HW210827   5.442   3.724   3.169
 3310SOL     OW10828   6.508   4.255   6.112
 3310SOL    HW110829   6.471   4.209   6.193
 3310SOL    HW210830   6.584   4.202   6.076
 3311SOL     OW10831   2.076   3.208   0.412
 3311SOL    HW110832   2.113   3.137   0.351
 3311SOL    HW210833   2.111   3.194   0.504
 3312SOL     OW10834   4.759   2.801   6.909
 3312SOL    HW110835   4.743   2.734   6.836
 3312SOL    HW210836   4.746   2.893   6.873
 3313SOL     OW10837   0.427   6.930   4.557
 3313SOL    HW110838   0.370   6.976   4.489
 3313SOL    HW210839   0.370   6.875   4.617
 3314SOL     OW10840   3.623   6.007   2.418
 3314SOL    HW110841   3.622   5.933   2.350
 3314SOL    HW210842   3.535   6.010   2.465
 3315SOL     OW10843   1.772   6.140   4.020
 3315SOL    HW110844   1.694   6.184   3.975
 3315SOL    HW210845   1.832   6.100   3.950
 3316SOL     OW10846   3.832   2.783   0.166
 3316SOL    HW110847   3.781   2.744   0.089
 3316SOL    HW210848   3.781   2.860   0.204
 3317SOL     OW10849   5.530   2.347   1.644
 3317SOL    HW110850   5.606   2.295   1.605
 3317SOL    HW210851   5.471   2.381   1.571
 3318SOL     OW10852   3.574   3.002   0.890
 3318SOL    HW110853   3.655   3.037   0.841
 3318SOL    HW210854   3.549   3.066   0.962
 3319SOL     OW10855   6.478   6.468   4.427
 3319SOL    HW110856   6.409   6.432   4.491
 3319SOL    HW210857   6.435   6.481   4.337
 3320SOL     OW10858   6.469   0.385   2.029
 3320SOL    HW110859   6.376   0.388   2.064
 3320SOL    HW210860   6.509   0.477   2.031
 3321SOL     OW10861   4.880   1.786   0.262
 3321SOL    HW110862   4.905   1.852   0.192
 3321SOL    HW210863   4.862   1.833   0.348
 3322SOL     OW10864   6.263   2.598   0.801
 3322SOL    HW110865   6.229   2.604   0.707
 3322SOL    HW210866   6.362   2.587   0.800
 3323SOL     OW10867   1.721   1.571   1.571
 3323SOL    HW110868   1.746   1.668   1.569
 3323SOL    HW210869   1.643   1.558   1.634
 3324SOL     OW10870   5.867   5.440   5.873
 3324SOL    HW110871   5.850   5.450   5.775
 3324SOL    HW210872   5.805   5.500   5.923
 3325SOL     OW10873   2.801   5.058   5.201
 3325SOL    HW110874   2.778   5.008   5.118
 3325SOL    HW210875   2.717   5.085   5.248
 3326SOL     OW10876   3.472   2.080   2.161
 3326SOL    HW110877   3.378   2.079   2.125
 3326SOL    HW210878   3.529   2.136   2.102
 3327SOL     OW10879   1.451   5.491   5.967
 3327SOL    HW110880   1.524   5.486   6.035
 3327SOL    HW210881   1.365   5.458   6.006
 3328SOL     OW10882   4.908   2.690   5.131
 3328SOL    HW110883   4.999   2.695   5.172
 3328SOL    HW210884   4.916   2.667   5.034
 3329SOL     OW10885   0.024   6.229   5.527
 3329SOL    HW110886   0.050   6.132   5.527
 3329SOL    HW210887   0.020   6.262   5.433
 3330SOL     OW10888   6.850   3.500   3.045
 3330SOL    HW110889   6.829   3.418   3.099
 3330SOL    HW210890   6.771   3.523   2.987
 3331SOL     OW10891   2.209   3.084   0.640
 3331SOL    HW110892   2.260   3.148   0.697
 3331SOL    HW210893   2.143   3.034   0.697
 3332SOL     OW10894   6.687   3.817   1.126
 3332SOL    HW110895   6.741   3.896   1.097
 3332SOL    HW210896   6.748   3.746   1.161
 3333SOL     OW10897   2.820   5.672   5.817
 3333SOL    HW110898   2.892   5.632   5.759
 3333SOL    HW210899   2.772   5.743   5.765
 3334SOL     OW10900   1.538   3.614   1.552
 3334SOL    HW110901   1.456   3.668   1.535
 3334SOL    HW210902   1.588   3.652   1.630
 3335SOL     OW10903   5.717   4.477   4.974
 3335SOL    HW110904   5.668   4.548   4.923
 3335SOL    HW210905   5.657   4.438   5.044
 3336SOL     OW10906   2.944   6.112   5.868
 3336SOL    HW110907   2.957   6.158   5.956
 3336SOL    HW210908   3.032   6.100   5.823
 3337SOL     OW10909   3.451   1.821   0.759
 3337SOL    HW110910   3.443   1.897   0.824
 3337SOL    HW210911   3.401   1.742   0.795
 3338SOL     OW10912   0.150   4.653   0.272
 3338SOL    HW110913   0.137   4.630   0.368
 3338SOL    HW210914   0.224   4.598   0.233
 3339SOL     OW10915   1.216   5.410   6.150
 3339SOL    HW110916   1.157   5.344   6.104
 3339SOL    HW210917   1.295   5.363   6.190
 3340SOL     OW10918   3.949   0.390   2.285
 3340SOL    HW110919   4.034   0.369   2.236
 3340SOL    HW210920   3.872   0.344   2.241
 3341SOL     OW10921   0.444   6.827   0.935
 3341SOL    HW110922   0.374   6.767   0.895
 3341SOL    HW210923   0.530   6.777   0.941
 3342SOL     OW10924   3.002   0.214   5.331
 3342SOL    HW110925   3.064   0.213   5.409
 3342SOL    HW210926   2.907   0.208   5.363
 3343SOL     OW10927   0.508   2.411   1.271
 3343SOL    HW110928   0.580   2.434   1.336
 3343SOL    HW210929   0.549   2.381   1.185
 3344SOL     OW10930   0.337   2.366   6.039
 3344SOL    HW110931   0.241   2.391   6.042
 3344SOL    HW210932   0.373   2.383   5.948
 3345SOL     OW10933   1.891   3.387   5.455
 3345SOL    HW110934   1.800   3.358   5.486
 3345SOL    HW210935   1.953   3.390   5.534
 3346SOL     OW10936   1.588   6.029   2.168
 3346SOL    HW110937   1.499   6.027   2.213
 3346SOL    HW210938   1.656   5.988   2.227
 3347SOL     OW10939   5.840   3.748   3.921
 3347SOL    HW110940   5.826   3.693   4.004
 3347SOL    HW210941   5.841   3.845   3.946
 3348SOL     OW10942   3.713   3.439   3.102
 3348SOL    HW110943   3.725   3.510   3.032
 3348SOL    HW210944   3.656   3.365   3.064
 3349SOL     OW10945   5.637   3.266   6.536
 3349SOL    HW110946   5.586   3.314   6.608
 3349SOL    HW210947   5.582   3.188   6.503
 3350SOL     OW10948   1.382   2.369   0.943
 3350SOL    HW110949   1.303   2.386   1.003
 3350SOL    HW210950   1.423   2.457   0.916
 3351SOL     OW10951   5.225   2.693   0.450
 3351SOL    HW110952   5.266   2.648   0.530
 3351SOL    HW210953   5.284   2.680   0.371
 3352SOL     OW10954   0.499   3.372   6.902
 3352SOL    HW110955   0.403   3.369   6.874
 3352SOL    HW210956   0.512   3.439   6.974
 3353SOL     OW10957   1.742   6.444   5.932
 3353SOL    HW110958   1.735   6.510   6.007
 3353SOL    HW210959   1.661   6.453   5.873
 3354SOL     OW10960   1.140   0.978   1.742
 3354SOL    HW110961   1.078   1.054   1.721
 3354SOL    HW210962   1.227   0.993   1.696
 3355SOL     OW10963   6.292   0.871   2.873
 3355SOL    HW110964   6.319   0.805   2.804
 3355SOL    HW210965   6.312   0.835   2.964
 3356SOL     OW10966   1.515   3.604   5.341
 3356SOL    HW110967   1.534   3.529   5.405
 3356SOL    HW210968   1.597   3.623   5.287
 3357SOL     OW10969   2.567   5.312   2.190
 3357SOL    HW110970   2.484   5.336   2.240
 3357SOL    HW210971   2.641   5.294   2.255
 3358SOL     OW10972   6.782   4.716   3.500
 3358SOL    HW110973   6.826   4.801   3.472
 3358SOL    HW210974   6.745   4.669   3.420
 3359SOL     OW10975   1.996   1.542   2.013
 3359SOL    HW110976   1.947   1.478   2.073
 3359SOL    HW210977   2.016   1.497   1.926
 3360SOL     OW10978   2.513   0.528   6.559
 3360SOL    HW110979   2.485   0.623   6.541
 3360SOL    HW210980   2.464   0.495   6.640
 3361SOL     OW10981   3.498   0.907   3.266
 3361SOL    HW110982   3.544   0.956   3.192
 3361SOL    HW210983   3.515   0.954   3.352
 3362SOL     OW10984   2.749   1.670   4.555
 3362SOL    HW110985   2.828   1.731   4.564
 3362SOL    HW210986   2.667   1.724   4.535
 3363SOL     OW10987   6.903   0.764   6.418
 3363SOL    HW110988   6.919   0.701   6.342
 3363SOL    HW210989   6.928   0.857   6.390
 3364SOL     OW10990   2.218   4.703   6.192
 3364SOL    HW110991   2.165   4.634   6.241
 3364SOL    HW210992   2.283   4.659   6.131
 3365SOL     OW10993   6.299   2.065   5.943
 3365SOL    HW110994   6.392   2.102   5.954
 3365SOL    HW210995   6.284   2.041   5.847
 3366SOL     OW10996   5.353   0.925   6.769
 3366SOL    HW110997   5.320   0.860   6.837
 3366SOL    HW210998   5.292   1.004   6.765
 3367SOL     OW10999   1.556   0.239   2.194
 3367SOL    HW111000   1.614   0.198   2.124
 3367SOL    HW211001   1.575   0.338   2.199
 3368SOL     OW11002   6.795   1.520   5.560
 3368SOL    HW111003   6.740   1.599   5.588
 3368SOL    HW211004   6.736   1.451   5.518
 3369SOL     OW11005   3.627   6.182   6.413
 3369SOL    HW111006   3.669   6.266   6.379
 3369SOL    HW211007   3.535   6.202   6.448
 3370SOL     OW11008   5.595   6.792   5.627
 3370SOL    HW111009   5.624   6.703   5.593
 3370SOL    HW211010   5.508   6.783   5.676
 3371SOL     OW11011   6.690   5.064   1.214
 3371SOL    HW111012   6.781   5.027   1.194
 3371SOL    HW211013   6.690   5.162   1.196
 3372SOL     OW11014   0.391   2.108   2.817
 3372SOL    HW111015   0.299   2.109   2.776
 3372SOL    HW211016   0.386   2.070   2.909
 3373SOL     OW11017   0.732   2.293   6.593
 3373SOL    HW111018   0.727   2.345   6.508
 3373SOL    HW211019   0.657   2.227   6.597
 3374SOL     OW11020   4.009   5.872   5.501
 3374SOL    HW111021   3.977   5.837   5.589
 3374SOL    HW211022   3.967   5.960   5.483
 3375SOL     OW11023   3.929   3.989   4.829
 3375SOL    HW111024   3.858   4.060   4.833
 3375SOL    HW211025   3.960   3.978   4.735
 3376SOL     OW11026   2.738   3.143   1.807
 3376SOL    HW111027   2.695   3.233   1.808
 3376SOL    HW211028   2.670   3.074   1.783
 3377SOL     OW11029   2.628   5.185   5.383
 3377SOL    HW111030   2.529   5.186   5.372
 3377SOL    HW211031   2.652   5.131   5.464
 3378SOL     OW11032   0.264   1.219   0.559
 3378SOL    HW111033   0.232   1.312   0.540
 3378SOL    HW211034   0.227   1.157   0.489
 3379SOL     OW11035   6.409   5.052   5.685
 3379SOL    HW111036   6.439   5.145   5.663
 3379SOL    HW211037   6.311   5.043   5.668
 3380SOL     OW11038   0.913   3.832   5.172
 3380SOL    HW111039   0.933   3.769   5.097
 3380SOL    HW211040   0.922   3.926   5.139
 3381SOL     OW11041   3.505   2.792   1.659
 3381SOL    HW111042   3.555   2.714   1.622
 3381SOL    HW211043   3.432   2.760   1.719
 3382SOL     OW11044   6.779   6.325   6.740
 3382SOL    HW111045   6.798   6.414   6.780
 3382SOL    HW211046   6.865   6.274   6.729
 3383SOL     OW11047   0.364   4.173   2.264
 3383SOL    HW111048   0.401   4.244   2.204
 3383SOL    HW211049   0.282   4.133   2.223
 3384SOL     OW11050   3.092   3.457   4.515
 3384SOL    HW111051   3.007   3.510   4.515
 3384SOL    HW211052   3.077   3.369   4.560
 3385SOL     OW11053   6.880   4.488   3.614
 3385SOL    HW111054   6.957   4.447   3.565
 3385SOL    HW211055   6.841   4.561   3.558
 3386SOL     OW11056   5.846   3.791   5.222
 3386SOL    HW111057   5.903   3.801   5.303
 3386SOL    HW211058   5.877   3.712   5.169
 3387SOL     OW11059   3.290   2.084   2.724
 3387SOL    HW111060   3.331   2.078   2.633
 3387SOL    HW211061   3.195   2.053   2.720
 3388SOL     OW11062   5.527   2.503   1.945
 3388SOL    HW111063   5.602   2.519   1.881
 3388SOL    HW211064   5.523   2.578   2.011
 3389SOL     OW11065   4.057   5.060   3.052
 3389SOL    HW111066   4.132   5.079   2.989
 3389SOL    HW211067   4.064   4.965   3.085
 3390SOL     OW11068   4.784   2.711   5.801
 3390SOL    HW111069   4.695   2.673   5.775
 3390SOL    HW211070   4.785   2.810   5.783
 3391SOL     OW11071   3.697   1.990   4.193
 3391SOL    HW111072   3.767   1.939   4.243
 3391SOL    HW211073   3.736   2.025   4.107
 3392SOL     OW11074   5.108   5.964   3.192
 3392SOL    HW111075   5.041   5.991   3.122
 3392SOL    HW211076   5.078   5.997   3.281
 3393SOL     OW11077   6.893   0.404   0.033
 3393SOL    HW111078   6.805   0.401   0.080
 3393SOL    HW211079   6.897   0.485   6.992
 3394SOL     OW11080   5.449   1.679   2.431
 3394SOL    HW111081   5.355   1.645   2.434
 3394SOL    HW211082   5.511   1.608   2.466
 3395SOL     OW11083   1.377   3.837   5.152
 3395SOL    HW111084   1.470   3.814   5.122
 3395SOL    HW211085   1.344   3.765   5.213
 3396SOL     OW11086   6.428   3.186   4.493
 3396SOL    HW111087   6.467   3.276   4.513
 3396SOL    HW211088   6.408   3.180   4.395
 3397SOL     OW11089   3.041   6.190   6.138
 3397SOL    HW111090   3.130   6.155   6.167
 3397SOL    HW211091   2.982   6.204   6.218
 3398SOL     OW11092   0.884   0.542   3.392
 3398SOL    HW111093   0.896   0.481   3.314
 3398SOL    HW211094   0.815   0.503   3.454
 3399SOL     OW11095   4.131   5.397   4.861
 3399SOL    HW111096   4.187   5.462   4.811
 3399SOL    HW211097   4.045   5.382   4.812
 3400SOL     OW11098   5.074   2.316   6.942
 3400SOL    HW111099   5.054   2.413   6.932
 3400SOL    HW211100   5.158   2.304   6.996
 3401SOL     OW11101   6.789   4.511   6.928
 3401SOL    HW111102   6.860   4.505   6.998
 3401SOL    HW211103   6.756   4.606   6.923
 3402SOL     OW11104   5.413   5.162   2.028
 3402SOL    HW111105   5.396   5.106   1.947
 3402SOL    HW211106   5.387   5.111   2.110
 3403SOL     OW11107   3.111   2.015   5.075
 3403SOL    HW111108   3.109   2.115   5.075
 3403SOL    HW211109   3.017   1.980   5.085
 3404SOL     OW11110   4.405   0.303   1.339
 3404SOL    HW111111   4.472   0.265   1.276
 3404SOL    HW211112   4.433   0.396   1.366
 3405SOL     OW11113   6.199   3.543   0.510
 3405SOL    HW111114   6.154   3.482   0.444
 3405SOL    HW211115   6.285   3.577   0.471
 3406SOL     OW11116   0.888   4.472   1.568
 3406SOL    HW111117   0.816   4.539   1.551
 3406SOL    HW211118   0.886   4.402   1.497
 3407SOL     OW11119   1.472   5.295   2.819
 3407SOL    HW111120   1.447   5.353   2.896
 3407SOL    HW211121   1.395   5.286   2.757
 3408SOL     OW11122   5.157   4.003   2.748
 3408SOL    HW111123   5.136   4.094   2.785
 3408SOL    HW211124   5.116   3.994   2.658
 3409SOL     OW11125   3.038   0.649   5.492
 3409SOL    HW111126   3.101   0.677   5.420
 3409SOL    HW211127   2.967   0.718   5.504
 3410SOL     OW11128   0.175   1.059   0.386
 3410SOL    HW111129   0.218   1.120   0.319
 3410SOL    HW211130   0.172   0.966   0.349
 3411SOL     OW11131   4.540   2.427   2.433
 3411SOL    HW111132   4.550   2.524   2.456
 3411SOL    HW211133   4.610   2.401   2.367
 3412SOL     OW11134   3.952   5.364   6.830
 3412SOL    HW111135   3.938   5.412   6.916
 3412SOL    HW211136   3.977   5.429   6.759
 3413SOL     OW11137   4.482   1.490   2.419
 3413SOL    HW111138   4.441   1.581   2.420
 3413SOL    HW211139   4.412   1.421   2.433
 3414SOL     OW11140   3.385   1.198   5.121
 3414SOL    HW111141   3.426   1.131   5.060
 3414SOL    HW211142   3.390   1.165   5.215
 3415SOL     OW11143   0.933   5.619   4.395
 3415SOL    HW111144   0.888   5.678   4.328
 3415SOL    HW211145   1.015   5.579   4.354
 3416SOL     OW11146   2.559   4.736   6.109
 3416SOL    HW111147   2.633   4.686   6.063
 3416SOL    HW211148   2.472   4.695   6.084
 3417SOL     OW11149   5.799   0.753   1.422
 3417SOL    HW111150   5.886   0.754   1.374
 3417SOL    HW211151   5.737   0.687   1.378
 3418SOL     OW11152   3.246   2.116   6.143
 3418SOL    HW111153   3.340   2.142   6.119
 3418SOL    HW211154   3.220   2.163   6.227
 3419SOL     OW11155   4.512   3.659   0.364
 3419SOL    HW111156   4.564   3.737   0.398
 3419SOL    HW211157   4.422   3.657   0.409
 3420SOL     OW11158   4.324   1.643   3.794
 3420SOL    HW111159   4.306   1.660   3.891
 3420SOL    HW211160   4.291   1.552   3.769
 3421SOL     OW11161   0.206   6.787   3.551
 3421SOL    HW111162   0.283   6.812   3.610
 3421SOL    HW211163   0.240   6.746   3.467
 3422SOL     OW11164   3.050   2.218   2.763
 3422SOL    HW111165   3.063   2.142   2.827
 3422SOL    HW211166   3.134   2.232   2.711
 3423SOL     OW11167   2.813   0.783   2.087
 3423SOL    HW111168   2.818   0.832   2.000
 3423SOL    HW211169   2.899   0.796   2.136
 3424SOL     OW11170   4.200   0.677   2.102
 3424SOL    HW111171   4.218   0.695   2.006
 3424SOL    HW211172   4.204   0.579   2.120
 3425SOL     OW11173   4.880   4.187   1.913
 3425SOL    HW111174   4.882   4.282   1.881
 3425SOL    HW211175   4.832   4.182   2.000
 3426SOL     OW11176   4.375   3.466   0.694
 3426SOL    HW111177   4.357   3.386   0.637
 3426SOL    HW211178   4.472   3.486   0.693
 3427SOL     OW11179   0.879   1.419   0.675
 3427SOL    HW111180   0.911   1.483   0.745
 3427SOL    HW211181   0.904   1.454   0.585
 3428SOL     OW11182   4.334   4.679   3.307
 3428SOL    HW111183   4.299   4.705   3.397
 3428SOL    HW211184   4.363   4.583   3.309
 3429SOL     OW11185   0.199   3.146   0.355
 3429SOL    HW111186   0.216   3.234   0.398
 3429SOL    HW211187   0.127   3.097   0.405
 3430SOL     OW11188   1.339   5.607   6.637
 3430SOL    HW111189   1.396   5.685   6.662
 3430SOL    HW211190   1.329   5.546   6.716
 3431SOL     OW11191   1.563   6.244   6.592
 3431SOL    HW111192   1.520   6.329   6.623
 3431SOL    HW211193   1.590   6.253   6.496
 3432SOL     OW11194   2.466   2.279   0.071
 3432SOL    HW111195   2.437   2.312   6.998
 3432SOL    HW211196   2.405   2.315   0.141
 3433SOL     OW11197   4.844   0.710   4.117
 3433SOL    HW111198   4.820   0.666   4.031
 3433SOL    HW211199   4.779   0.683   4.188
 3434SOL     OW11200   4.614   2.064   3.596
 3434SOL    HW111201   4.710   2.076   3.624
 3434SOL    HW211202   4.588   1.968   3.609
 3435SOL     OW11203   0.492   1.127   6.891
 3435SOL    HW111204   0.537   1.039   6.905
 3435SOL    HW211205   0.555   1.201   6.914
 3436SOL     OW11206   4.654   6.769   3.235
 3436SOL    HW111207   4.619   6.747   3.326
 3436SOL    HW211208   4.649   6.868   3.220
 3437SOL     OW11209   4.837   0.739   6.471
 3437SOL    HW111210   4.878   0.824   6.503
 3437SOL    HW211211   4.877   0.713   6.384
 3438SOL     OW11212   1.361   4.714   6.531
 3438SOL    HW111213   1.389   4.808   6.508
 3438SOL    HW211214   1.367   4.657   6.449
 3439SOL     OW11215   2.564   6.906   3.287
 3439SOL    HW111216   2.663   6.914   3.283
 3439SOL    HW211217   2.537   6.814   3.258
 3440SOL     OW11218   3.566   2.179   0.618
 3440SOL    HW111219   3.652   2.134   0.593
 3440SOL    HW211220   3.489   2.131   0.576
 3441SOL     OW11221   4.224   0.521   4.684
 3441SOL    HW111222   4.238   0.605   4.738
 3441SOL    HW211223   4.299   0.457   4.702
 3442SOL     OW11224   0.851   4.769   3.312
 3442SOL    HW111225   0.826   4.681   3.351
 3442SOL    HW211226   0.921   4.812   3.368
 3443SOL     OW11227   5.979   6.923   4.076
 3443SOL    HW111228   5.917   7.001   4.087
 3443SOL    HW211229   5.936   6.855   4.017
 3444SOL     OW11230   4.440   5.170   0.338
 3444SOL    HW111231   4.500   5.127   0.271
 3444SOL    HW211232   4.447   5.121   0.425
 3445SOL     OW11233   5.831   5.130   4.983
 3445SOL    HW111234   5.855   5.146   5.079
 3445SOL    HW211235   5.865   5.041   4.954
 3446SOL     OW11236   3.041   6.356   3.035
 3446SOL    HW111237   3.026   6.444   3.079
 3446SOL    HW211238   3.108   6.366   2.962
 3447SOL     OW11239   6.439   5.014   5.946
 3447SOL    HW111240   6.422   4.925   5.987
 3447SOL    HW211241   6.449   5.005   5.847
 3448SOL     OW11242   3.607   2.252   1.034
 3448SOL    HW111243   3.626   2.307   0.952
 3448SOL    HW211244   3.676   2.273   1.104
 3449SOL     OW11245   5.897   6.120   2.832
 3449SOL    HW111246   5.877   6.103   2.928
 3449SOL    HW211247   5.902   6.034   2.782
 3450SOL     OW11248   0.819   2.295   1.466
 3450SOL    HW111249   0.843   2.378   1.417
 3450SOL    HW211250   0.902   2.243   1.487
 3451SOL     OW11251   1.406   5.265   4.000
 3451SOL    HW111252   1.466   5.295   3.926
 3451SOL    HW211253   1.411   5.166   4.010
 3452SOL     OW11254   6.705   2.265   0.246
 3452SOL    HW111255   6.793   2.305   0.273
 3452SOL    HW211256   6.697   2.173   0.284
 3453SOL     OW11257   5.850   6.433   5.892
 3453SOL    HW111258   5.803   6.521   5.905
 3453SOL    HW211259   5.860   6.415   5.795
 3454SOL     OW11260   1.098   1.089   0.112
 3454SOL    HW111261   1.094   1.173   0.166
 3454SOL    HW211262   1.005   1.062   0.086
 3455SOL     OW11263   2.428   2.695   4.188
 3455SOL    HW111264   2.482   2.636   4.248
 3455SOL    HW211265   2.366   2.751   4.243
 3456SOL     OW11266   6.457   0.044   1.036
 3456SOL    HW111267   6.429   6.978   0.989
 3456SOL    HW211268   6.385   0.072   1.100
 3457SOL     OW11269   2.680   6.511   3.785
 3457SOL    HW111270   2.632   6.430   3.752
 3457SOL    HW211271   2.759   6.529   3.726
 3458SOL     OW11272   4.980   5.418   0.631
 3458SOL    HW111273   5.016   5.362   0.706
 3458SOL    HW211274   4.945   5.358   0.559
 3459SOL     OW11275   6.889   6.470   3.489
 3459SOL    HW111276   6.795   6.483   3.521
 3459SOL    HW211277   6.888   6.427   3.399
 3460SOL     OW11278   3.617   3.128   5.815
 3460SOL    HW111279   3.683   3.155   5.745
 3460SOL    HW211280   3.589   3.034   5.799
 3461SOL     OW11281   2.636   5.967   2.770
 3461SOL    HW111282   2.698   5.895   2.800
 3461SOL    HW211283   2.585   6.002   2.848
 3462SOL     OW11284   5.153   3.318   3.059
 3462SOL    HW111285   5.249   3.339   3.040
 3462SOL    HW211286   5.126   3.362   3.145
 3463SOL     OW11287   2.065   2.876   1.131
 3463SOL    HW111288   2.002   2.804   1.160
 3463SOL    HW211289   2.138   2.886   1.200
 3464SOL     OW11290   4.765   2.206   5.909
 3464SOL    HW111291   4.687   2.180   5.966
 3464SOL    HW211292   4.850   2.171   5.950
 3465SOL     OW11293   1.990   4.546   1.612
 3465SOL    HW111294   2.079   4.500   1.620
 3465SOL    HW211295   1.943   4.542   1.700
 3466SOL     OW11296   6.474   4.379   4.145
 3466SOL    HW111297   6.522   4.437   4.210
 3466SOL    HW211298   6.510   4.394   4.053
 3467SOL     OW11299   3.048   3.085   1.198
 3467SOL    HW111300   3.000   3.141   1.130
 3467SOL    HW211301   2.981   3.038   1.255
 3468SOL     OW11302   3.652   1.733   0.592
 3468SOL    HW111303   3.634   1.661   0.525
 3468SOL    HW211304   3.570   1.750   0.647
 3469SOL     OW11305   4.023   6.165   5.855
 3469SOL    HW111306   3.986   6.074   5.871
 3469SOL    HW211307   4.047   6.206   5.943
 3470SOL     OW11308   1.370   3.130   1.710
 3470SOL    HW111309   1.344   3.113   1.805
 3470SOL    HW211310   1.426   3.212   1.704
 3471SOL     OW11311   4.816   3.177   5.208
 3471SOL    HW111312   4.795   3.274   5.218
 3471SOL    HW211313   4.868   3.162   5.124
 3472SOL     OW11314   4.560   1.840   3.202
 3472SOL    HW111315   4.574   1.905   3.276
 3472SOL    HW211316   4.464   1.839   3.176
 3473SOL     OW11317   6.173   4.801   1.882
 3473SOL    HW111318   6.149   4.712   1.922
 3473SOL    HW211319   6.108   4.869   1.915
 3474SOL     OW11320   5.176   4.636   4.338
 3474SOL    HW111321   5.146   4.670   4.249
 3474SOL    HW211322   5.274   4.614   4.334
 3475SOL     OW11323   6.822   4.731   4.194
 3475SOL    HW111324   6.890   4.743   4.122
 3475SOL    HW211325   6.810   4.633   4.212
 3476SOL     OW11326   1.579   1.736   3.215
 3476SOL    HW111327   1.483   1.763   3.227
 3476SOL    HW211328   1.610   1.687   3.297
 3477SOL     OW11329   1.009   4.154   1.907
 3477SOL    HW111330   0.925   4.107   1.931
 3477SOL    HW211331   0.989   4.250   1.888
 3478SOL     OW11332   2.189   0.918   1.426
 3478SOL    HW111333   2.234   0.979   1.491
 3478SOL    HW211334   2.219   0.939   1.333
 3479SOL     OW11335   1.491   5.085   4.498
 3479SOL    HW111336   1.526   4.994   4.522
 3479SOL    HW211337   1.566   5.151   4.498
 3480SOL     OW11338   1.145   4.712   6.862
 3480SOL    HW111339   1.223   4.654   6.884
 3480SOL    HW211340   1.163   4.761   6.776
 3481SOL     OW11341   5.947   0.932   4.715
 3481SOL    HW111342   5.937   0.870   4.793
 3481SOL    HW211343   5.860   0.942   4.668
 3482SOL     OW11344   5.852   3.237   6.279
 3482SOL    HW111345   5.806   3.149   6.266
 3482SOL    HW211346   5.820   3.278   6.365
 3483SOL     OW11347   5.497   2.940   5.751
 3483SOL    HW111348   5.523   3.006   5.822
 3483SOL    HW211349   5.430   2.875   5.787
 3484SOL     OW11350   1.269   4.087   5.238
 3484SOL    HW111351   1.336   4.161   5.239
 3484SOL    HW211352   1.310   4.007   5.194
 3485SOL     OW11353   6.851   2.956   6.651
 3485SOL    HW111354   6.796   3.005   6.583
 3485SOL    HW211355   6.918   3.018   6.692
 3486SOL     OW11356   2.264   6.190   5.364
 3486SOL    HW111357   2.271   6.270   5.424
 3486SOL    HW211358   2.330   6.199   5.289
 3487SOL     OW11359   4.489   1.378   6.825
 3487SOL    HW111360   4.416   1.389   6.891
 3487SOL    HW211361   4.572   1.423   6.859
 3488SOL     OW11362   5.527   0.219   4.906
 3488SOL    HW111363   5.545   0.233   4.808
 3488SOL    HW211364   5.463   0.289   4.938
 3489SOL     OW11365   2.772   6.290   1.024
 3489SOL    HW111366   2.771   6.282   1.124
 3489SOL    HW211367   2.755   6.385   0.998
 3490SOL     OW11368   3.607   6.783   0.445
 3490SOL    HW111369   3.675   6.720   0.408
 3490SOL    HW211370   3.561   6.830   0.370
 3491SOL     OW11371   4.078   4.930   5.986
 3491SOL    HW111372   4.062   4.933   5.887
 3491SOL    HW211373   4.098   4.836   6.013
 3492SOL     OW11374   6.180   4.069   2.620
 3492SOL    HW111375   6.122   4.001   2.664
 3492SOL    HW211376   6.143   4.091   2.529
 3493SOL     OW11377   6.810   2.909   5.708
 3493SOL    HW111378   6.749   2.829   5.709
 3493SOL    HW211379   6.878   2.898   5.636
 3494SOL     OW11380   4.074   1.792   2.927
 3494SOL    HW111381   4.048   1.811   2.832
 3494SOL    HW211382   4.080   1.877   2.978
 3495SOL     OW11383   0.852   3.165   2.806
 3495SOL    HW111384   0.941   3.128   2.829
 3495SOL    HW211385   0.863   3.243   2.744
 3496SOL     OW11386   5.662   5.161   0.687
 3496SOL    HW111387   5.640   5.094   0.617
 3496SOL    HW211388   5.616   5.137   0.772
 3497SOL     OW11389   3.132   0.040   2.391
 3497SOL    HW111390   3.078   7.004   2.326
 3497SOL    HW211391   3.218   7.010   2.409
 3498SOL     OW11392   2.190   2.451   1.412
 3498SOL    HW111393   2.260   2.474   1.480
 3498SOL    HW211394   2.103   2.494   1.438
 3499SOL     OW11395   6.479   6.170   4.747
 3499SOL    HW111396   6.385   6.181   4.780
 3499SOL    HW211397   6.527   6.257   4.755
 3500SOL     OW11398   2.181   2.438   4.562
 3500SOL    HW111399   2.115   2.364   4.573
 3500SOL    HW211400   2.134   2.522   4.537
 3501SOL     OW11401   1.503   0.114   5.159
 3501SOL    HW111402   1.412   0.129   5.120
 3501SOL    HW211403   1.557   0.198   5.152
 3502SOL     OW11404   4.651   2.659   2.202
 3502SOL    HW111405   4.708   2.715   2.143
 3502SOL    HW211406   4.651   2.696   2.294
 3503SOL     OW11407   6.549   6.469   6.658
 3503SOL    HW111408   6.642   6.436   6.671
 3503SOL    HW211409   6.494   6.448   6.738
 3504SOL     OW11410   1.646   0.372   0.168
 3504SOL    HW111411   1.702   0.337   0.243
 3504SOL    HW211412   1.599   0.455   0.197
 3505SOL     OW11413   4.797   4.407   6.208
 3505SOL    HW111414   4.825   4.455   6.292
 3505SOL    HW211415   4.856   4.435   6.133
 3506SOL     OW11416   4.557   5.096   4.701
 3506SOL    HW111417   4.514   5.167   4.756
 3506SOL    HW211418   4.655   5.094   4.719
 3507SOL     OW11419   2.895   0.938   0.818
 3507SOL    HW111420   2.937   0.899   0.899
 3507SOL    HW211421   2.952   0.918   0.738
 3508SOL     OW11422   3.366   1.669   5.279
 3508SOL    HW111423   3.287   1.682   5.340
 3508SOL    HW211424   3.419   1.753   5.276
 3509SOL     OW11425   3.412   5.741   6.223
 3509SOL    HW111426   3.506   5.707   6.222
 3509SOL    HW211427   3.373   5.730   6.314
 3510SOL     OW11428   2.552   1.462   0.481
 3510SOL    HW111429   2.622   1.422   0.539
 3510SOL    HW211430   2.463   1.457   0.527
 3511SOL     OW11431   3.071   4.564   1.620
 3511SOL    HW111432   2.994   4.550   1.682
 3511SOL    HW211433   3.108   4.476   1.591
 3512SOL     OW11434   0.325   5.457   5.550
 3512SOL    HW111435   0.332   5.509   5.465
 3512SOL    HW211436   0.235   5.471   5.591
 3513SOL     OW11437   6.278   1.888   0.393
 3513SOL    HW111438   6.321   1.978   0.383
 3513SOL    HW211439   6.191   1.887   0.344
 3514SOL     OW11440   3.549   1.488   1.782
 3514SOL    HW111441   3.635   1.498   1.733
 3514SOL    HW211442   3.566   1.447   1.871
 3515SOL     OW11443   0.334   5.201   4.376
 3515SOL    HW111444   0.411   5.138   4.361
 3515SOL    HW211445   0.340   5.276   4.310
 3516SOL     OW11446   4.863   0.208   1.360
 3516SOL    HW111447   4.916   0.135   1.404
 3516SOL    HW211448   4.909   0.237   1.276
 3517SOL     OW11449   5.787   0.399   1.602
 3517SOL    HW111450   5.806   0.444   1.515
 3517SOL    HW211451   5.763   0.468   1.670
 3518SOL     OW11452   5.182   0.736   5.015
 3518SOL    HW111453   5.281   0.742   5.028
 3518SOL    HW211454   5.158   0.767   4.923
 3519SOL     OW11455   3.112   0.603   1.226
 3519SOL    HW111456   3.121   0.663   1.147
 3519SOL    HW211457   3.200   0.561   1.246
 3520SOL     OW11458   2.631   6.147   5.078
 3520SOL    HW111459   2.679   6.069   5.039
 3520SOL    HW211460   2.595   6.123   5.168
 3521SOL     OW11461   2.550   2.973   6.560
 3521SOL    HW111462   2.580   3.048   6.501
 3521SOL    HW211463   2.630   2.918   6.586
 3522SOL     OW11464   0.572   5.632   6.215
 3522SOL    HW111465   0.527   5.586   6.138
 3522SOL    HW211466   0.667   5.651   6.191
 3523SOL     OW11467   2.143   5.694   0.083
 3523SOL    HW111468   2.165   5.599   0.062
 3523SOL    HW211469   2.058   5.720   0.037
 3524SOL     OW11470   5.087   1.403   3.850
 3524SOL    HW111471   5.132   1.454   3.923
 3524SOL    HW211472   5.011   1.456   3.813
 3525SOL     OW11473   0.025   3.222   2.839
 3525SOL    HW111474   6.944   3.205   2.843
 3525SOL    HW211475   0.061   3.229   2.932
 3526SOL     OW11476   0.279   6.531   2.587
 3526SOL    HW111477   0.197   6.476   2.597
 3526SOL    HW211478   0.356   6.472   2.562
 3527SOL     OW11479   0.456   2.240   6.292
 3527SOL    HW111480   0.518   2.168   6.261
 3527SOL    HW211481   0.442   2.305   6.217
 3528SOL     OW11482   2.469   5.983   4.695
 3528SOL    HW111483   2.542   6.015   4.634
 3528SOL    HW211484   2.440   6.059   4.753
 3529SOL     OW11485   4.317   5.675   0.796
 3529SOL    HW111486   4.362   5.634   0.717
 3529SOL    HW211487   4.386   5.705   0.862
 3530SOL     OW11488   6.175   6.583   1.100
 3530SOL    HW111489   6.120   6.571   1.017
 3530SOL    HW211490   6.271   6.596   1.074
 3531SOL     OW11491   4.805   2.227   0.551
 3531SOL    HW111492   4.846   2.213   0.641
 3531SOL    HW211493   4.825   2.320   0.519
 3532SOL     OW11494   1.810   1.341   2.158
 3532SOL    HW111495   1.763   1.257   2.132
 3532SOL    HW211496   1.752   1.394   2.220
 3533SOL     OW11497   1.098   1.732   2.965
 3533SOL    HW111498   1.041   1.746   3.047
 3533SOL    HW211499   1.187   1.696   2.992
 3534SOL     OW11500   0.302   1.159   1.019
 3534SOL    HW111501   0.342   1.229   1.078
 3534SOL    HW211502   0.322   1.068   1.056
 3535SOL     OW11503   2.820   5.600   4.308
 3535SOL    HW111504   2.898   5.646   4.266
 3535SOL    HW211505   2.773   5.663   4.370
 3536SOL     OW11506   3.698   1.993   2.741
 3536SOL    HW111507   3.720   1.896   2.731
 3536SOL    HW211508   3.724   2.042   2.658
 3537SOL     OW11509   2.176   0.113   3.010
 3537SOL    HW111510   2.168   0.025   3.056
 3537SOL    HW211511   2.154   0.102   2.913
 3538SOL     OW11512   3.215   5.497   3.309
 3538SOL    HW111513   3.240   5.417   3.254
 3538SOL    HW211514   3.225   5.580   3.253
 3539SOL     OW11515   3.869   3.522   4.409
 3539SOL    HW111516   3.815   3.486   4.484
 3539SOL    HW211517   3.816   3.518   4.324
 3540SOL     OW11518   1.607   2.378   3.372
 3540SOL    HW111519   1.576   2.291   3.334
 3540SOL    HW211520   1.609   2.371   3.472
 3541SOL     OW11521   3.788   4.128   4.071
 3541SOL    HW111522   3.804   4.227   4.076
 3541SOL    HW211523   3.776   4.102   3.975
 3542SOL     OW11524   6.820   5.043   1.529
 3542SOL    HW111525   6.768   5.127   1.515
 3542SOL    HW211526   6.873   5.023   1.446
 3543SOL     OW11527   6.070   2.872   5.243
 3543SOL    HW111528   6.002   2.842   5.310
 3543SOL    HW211529   6.029   2.877   5.152
 3544SOL     OW11530   1.740   5.844   0.241
 3544SOL    HW111531   1.805   5.913   0.274
 3544SOL    HW211532   1.773   5.753   0.268
 3545SOL     OW11533   3.196   5.075   0.528
 3545SOL    HW111534   3.237   4.985   0.514
 3545SOL    HW211535   3.261   5.146   0.500
 3546SOL     OW11536   6.443   4.798   2.755
 3546SOL    HW111537   6.469   4.893   2.737
 3546SOL    HW211538   6.486   4.767   2.839
 3547SOL     OW11539   5.039   4.408   4.420
 3547SOL    HW111540   5.111   4.466   4.380
 3547SOL    HW211541   5.075   4.315   4.433
 3548SOL     OW11542   4.803   3.390   5.558
 3548SOL    HW111543   4.835   3.434   5.642
 3548SOL    HW211544   4.717   3.342   5.576
 3549SOL     OW11545   5.846   3.599   2.428
 3549SOL    HW111546   5.879   3.584   2.522
 3549SOL    HW211547   5.746   3.589   2.426
 3550SOL     OW11548   5.823   1.988   2.554
 3550SOL    HW111549   5.725   1.974   2.537
 3550SOL    HW211550   5.849   1.943   2.639
 3551SOL     OW11551   2.439   6.790   2.566
 3551SOL    HW111552   2.450   6.823   2.472
 3551SOL    HW211553   2.419   6.867   2.626
 3552SOL     OW11554   0.185   4.880   3.269
 3552SOL    HW111555   0.097   4.831   3.265
 3552SOL    HW211556   0.245   4.835   3.334
 3553SOL     OW11557   5.553   2.196   3.369
 3553SOL    HW111558   5.552   2.169   3.273
 3553SOL    HW211559   5.647   2.208   3.400
 3554SOL     OW11560   4.059   5.696   6.614
 3554SOL    HW111561   4.017   5.753   6.543
 3554SOL    HW211562   4.022   5.722   6.703
 3555SOL     OW11563   0.266   2.775   3.709
 3555SOL    HW111564   0.320   2.851   3.744
 3555SOL    HW211565   0.239   2.794   3.615
 3556SOL     OW11566   4.485   1.041   6.612
 3556SOL    HW111567   4.516   1.114   6.552
 3556SOL    HW211568   4.512   0.953   6.574
 3557SOL     OW11569   0.424   0.411   4.320
 3557SOL    HW111570   0.449   0.314   4.316
 3557SOL    HW211571   0.432   0.443   4.414
 3558SOL     OW11572   6.903   5.432   1.858
 3558SOL    HW111573   6.826   5.419   1.922
 3558SOL    HW211574   6.871   5.480   1.777
 3559SOL     OW11575   1.138   0.638   5.635
 3559SOL    HW111576   1.081   0.664   5.714
 3559SOL    HW211577   1.079   0.605   5.561
 3560SOL     OW11578   6.558   6.450   2.161
 3560SOL    HW111579   6.625   6.426   2.231
 3560SOL    HW211580   6.493   6.375   2.150
 3561SOL     OW11581   4.674   4.321   3.946
 3561SOL    HW111582   4.763   4.364   3.931
 3561SOL    HW211583   4.685   4.222   3.946
 3562SOL     OW11584   4.370   2.309   3.317
 3562SOL    HW111585   4.319   2.283   3.234
 3562SOL    HW211586   4.428   2.387   3.297
 3563SOL     OW11587   4.658   0.473   1.385
 3563SOL    HW111588   4.695   0.384   1.412
 3563SOL    HW211589   4.729   0.543   1.395
 3564SOL     OW11590   0.050   4.452   3.095
 3564SOL    HW111591   0.012   4.524   3.154
 3564SOL    HW211592   0.103   4.493   3.022
 3565SOL     OW11593   1.598   0.377   5.141
 3565SOL    HW111594   1.578   0.460   5.193
 3565SOL    HW211595   1.697   0.370   5.127
 3566SOL     OW11596   0.718   4.475   6.616
 3566SOL    HW111597   0.705   4.510   6.523
 3566SOL    HW211598   0.767   4.543   6.671
 3567SOL     OW11599   0.272   2.697   0.973
 3567SOL    HW111600   0.174   2.712   0.975
 3567SOL    HW211601   0.302   2.662   1.063
 3568SOL     OW11602   5.451   3.785   3.839
 3568SOL    HW111603   5.475   3.823   3.929
 3568SOL    HW211604   5.440   3.860   3.774
 3569SOL     OW11605   3.682   2.878   4.078
 3569SOL    HW111606   3.676   2.790   4.032
 3569SOL    HW211607   3.759   2.930   4.040
 3570SOL     OW11608   0.703   1.735   5.419
 3570SOL    HW111609   0.690   1.789   5.501
 3570SOL    HW211610   0.796   1.747   5.384
 3571SOL     OW11611   2.462   6.842   4.496
 3571SOL    HW111612   2.418   6.911   4.552
 3571SOL    HW211613   2.555   6.826   4.529
 3572SOL     OW11614   5.376   4.158   1.971
 3572SOL    HW111615   5.331   4.068   1.971
 3572SOL    HW211616   5.388   4.189   1.877
 3573SOL     OW11617   0.588   4.873   3.634
 3573SOL    HW111618   0.566   4.944   3.567
 3573SOL    HW211619   0.536   4.791   3.614
 3574SOL     OW11620   2.048   1.869   5.772
 3574SOL    HW111621   2.127   1.929   5.786
 3574SOL    HW211622   2.061   1.817   5.688
 3575SOL     OW11623   5.064   0.158   7.013
 3575SOL    HW111624   5.121   0.211   6.949
 3575SOL    HW211625   5.008   0.220   0.050
 3576SOL     OW11626   1.819   2.596   0.579
 3576SOL    HW111627   1.742   2.653   0.550
 3576SOL    HW211628   1.882   2.652   0.634
 3577SOL     OW11629   1.533   2.682   4.967
 3577SOL    HW111630   1.621   2.729   4.967
 3577SOL    HW211631   1.463   2.743   4.928
 3578SOL     OW11632   3.599   2.594   6.065
 3578SOL    HW111633   3.537   2.662   6.104
 3578SOL    HW211634   3.576   2.578   5.969
 3579SOL     OW11635   0.931   3.718   1.574
 3579SOL    HW111636   1.000   3.788   1.557
 3579SOL    HW211637   0.964   3.629   1.542
 3580SOL     OW11638   6.870   4.261   1.916
 3580SOL    HW111639   6.953   4.304   1.953
 3580SOL    HW211640   6.884   4.240   1.819
 3581SOL     OW11641   1.543   0.642   2.418
 3581SOL    HW111642   1.594   0.728   2.419
 3581SOL    HW211643   1.520   0.616   2.512
 3582SOL     OW11644   4.284   5.477   6.360
 3582SOL    HW111645   4.381   5.472   6.335
 3582SOL    HW211646   4.259   5.572   6.376
 3583SOL     OW11647   1.332   5.047   1.235
 3583SOL    HW111648   1.425   5.060   1.270
 3583SOL    HW211649   1.312   4.950   1.227
 3584SOL     OW11650   5.846   4.872   4.909
 3584SOL    HW111651   5.880   4.836   4.996
 3584SOL    HW211652   5.906   4.842   4.835
 3585SOL     OW11653   3.228   1.849   4.094
 3585SOL    HW111654   3.280   1.932   4.074
 3585SOL    HW211655   3.257   1.812   4.182
 3586SOL     OW11656   0.030   1.844   4.938
 3586SOL    HW111657   6.959   1.801   4.919
 3586SOL    HW211658   0.099   1.773   4.954
 3587SOL     OW11659   3.176   0.458   6.267
 3587SOL    HW111660   3.243   0.492   6.201
 3587SOL    HW211661   3.209   0.373   6.307
 3588SOL     OW11662   5.614   4.664   4.799
 3588SOL    HW111663   5.595   4.749   4.848
 3588SOL    HW211664   5.697   4.676   4.744
 3589SOL     OW11665   0.706   6.840   6.213
 3589SOL    HW111666   0.772   6.776   6.174
 3589SOL    HW211667   0.616   6.823   6.173
 3590SOL     OW11668   0.140   5.059   5.792
 3590SOL    HW111669   0.165   5.052   5.889
 3590SOL    HW211670   0.079   5.138   5.780
 3591SOL     OW11671   5.714   1.510   0.136
 3591SOL    HW111672   5.674   1.567   0.208
 3591SOL    HW211673   5.647   1.496   0.064
 3592SOL     OW11674   1.657   6.533   1.031
 3592SOL    HW111675   1.559   6.548   1.021
 3592SOL    HW211676   1.674   6.476   1.112
 3593SOL     OW11677   4.088   3.005   5.311
 3593SOL    HW111678   4.020   3.016   5.238
 3593SOL    HW211679   4.148   3.085   5.312
 3594SOL     OW11680   4.780   4.776   5.293
 3594SOL    HW111681   4.872   4.739   5.281
 3594SOL    HW211682   4.739   4.735   5.375
 3595SOL     OW11683   5.665   6.040   4.512
 3595SOL    HW111684   5.617   6.125   4.532
 3595SOL    HW211685   5.723   6.015   4.590
 3596SOL     OW11686   4.114   1.649   3.281
 3596SOL    HW111687   4.108   1.560   3.234
 3596SOL    HW211688   4.200   1.694   3.256
 3597SOL     OW11689   3.381   3.897   5.284
 3597SOL    HW111690   3.344   3.975   5.232
 3597SOL    HW211691   3.322   3.878   5.362
 3598SOL     OW11692   0.314   5.321   4.940
 3598SOL    HW111693   0.390   5.366   4.987
 3598SOL    HW211694   0.255   5.278   5.008
 3599SOL     OW11695   2.842   1.140   5.435
 3599SOL    HW111696   2.909   1.178   5.373
 3599SOL    HW211697   2.753   1.183   5.420
 3600SOL     OW11698   2.672   3.877   6.648
 3600SOL    HW111699   2.661   3.787   6.691
 3600SOL    HW211700   2.723   3.866   6.562
 3601SOL     OW11701   4.835   1.107   5.492
 3601SOL    HW111702   4.882   1.023   5.462
 3601SOL    HW211703   4.895   1.159   5.552
 3602SOL     OW11704   1.601   2.106   1.145
 3602SOL    HW111705   1.640   2.197   1.133
 3602SOL    HW211706   1.582   2.090   1.242
 3603SOL     OW11707   2.351   0.417   5.576
 3603SOL    HW111708   2.398   0.499   5.543
 3603SOL    HW211709   2.400   0.380   5.655
 3604SOL     OW11710   6.953   0.834   3.386
 3604SOL    HW111711   6.883   0.881   3.332
 3604SOL    HW211712   6.910   0.782   3.460
 3605SOL     OW11713   1.088   6.788   4.953
 3605SOL    HW111714   1.171   6.803   5.007
 3605SOL    HW211715   1.008   6.804   5.010
 3606SOL     OW11716   1.959   0.477   2.271
 3606SOL    HW111717   1.951   0.383   2.237
 3606SOL    HW211718   1.999   0.535   2.200
 3607SOL     OW11719   6.022   1.523   3.280
 3607SOL    HW111720   5.953   1.534   3.351
 3607SOL    HW211721   6.083   1.447   3.303
 3608SOL     OW11722   3.193   1.817   5.738
 3608SOL    HW111723   3.232   1.882   5.803
 3608SOL    HW211724   3.099   1.843   5.717
 3609SOL     OW11725   3.796   0.393   5.681
 3609SOL    HW111726   3.780   0.485   5.718
 3609SOL    HW211727   3.756   0.386   5.589
 3610SOL     OW11728   1.530   0.688   5.651
 3610SOL    HW111729   1.487   0.776   5.631
 3610SOL    HW211730   1.531   0.673   5.750
 3611SOL     OW11731   5.556   4.471   2.874
 3611SOL    HW111732   5.596   4.448   2.785
 3611SOL    HW211733   5.468   4.426   2.884
 3612SOL     OW11734   4.896   1.615   0.670
 3612SOL    HW111735   4.915   1.526   0.710
 3612SOL    HW211736   4.797   1.631   0.671
 3613SOL     OW11737   3.590   6.820   2.950
 3613SOL    HW111738   3.501   6.823   2.903
 3613SOL    HW211739   3.636   6.908   2.940
 3614SOL     OW11740   3.586   5.702   6.836
 3614SOL    HW111741   3.537   5.619   6.809
 3614SOL    HW211742   3.564   5.723   6.932
 3615SOL     OW11743   5.013   2.916   5.543
 3615SOL    HW111744   5.009   2.979   5.465
 3615SOL    HW211745   5.091   2.941   5.600
 3616SOL     OW11746   1.674   2.498   0.334
 3616SOL    HW111747   1.763   2.470   0.370
 3616SOL    HW211748   1.659   2.595   0.353
 3617SOL     OW11749   4.125   5.583   5.723
 3617SOL    HW111750   4.194   5.641   5.765
 3617SOL    HW211751   4.147   5.568   5.626
 3618SOL     OW11752   1.185   5.538   4.292
 3618SOL    HW111753   1.262   5.597   4.315
 3618SOL    HW211754   1.199   5.500   4.201
 3619SOL     OW11755   5.840   2.555   2.060
 3619SOL    HW111756   5.904   2.570   2.135
 3619SOL    HW211757   5.750   2.591   2.086
 3620SOL     OW11758   5.336   5.901   5.148
 3620SOL    HW111759   5.349   5.988   5.195
 3620SOL    HW211760   5.348   5.915   5.049
 3621SOL     OW11761   3.384   2.926   3.678
 3621SOL    HW111762   3.442   3.006   3.693
 3621SOL    HW211763   3.321   2.915   3.755
 3622SOL     OW11764   1.732   5.493   6.432
 3622SOL    HW111765   1.657   5.440   6.472
 3622SOL    HW211766   1.713   5.591   6.443
 3623SOL     OW11767   1.509   5.744   6.075
 3623SOL    HW111768   1.463   5.721   6.160
 3623SOL    HW211769   1.476   5.684   6.002
 3624SOL     OW11770   2.260   2.325   2.343
 3624SOL    HW111771   2.171   2.351   2.379
 3624SOL    HW211772   2.311   2.407   2.318
 3625SOL     OW11773   6.230   2.226   1.293
 3625SOL    HW111774   6.307   2.162   1.301
 3625SOL    HW211775   6.262   2.312   1.254
 3626SOL     OW11776   1.723   2.807   5.753
 3626SOL    HW111777   1.816   2.802   5.715
 3626SOL    HW211778   1.721   2.876   5.825
 3627SOL     OW11779   3.696   1.755   2.433
 3627SOL    HW111780   3.698   1.751   2.533
 3627SOL    HW211781   3.615   1.806   2.404
 3628SOL     OW11782   6.473   1.553   1.694
 3628SOL    HW111783   6.479   1.652   1.682
 3628SOL    HW211784   6.376   1.526   1.699
 3629SOL     OW11785   1.771   1.343   4.243
 3629SOL    HW111786   1.806   1.416   4.301
 3629SOL    HW211787   1.698   1.294   4.292
 3630SOL     OW11788   6.269   2.011   2.381
 3630SOL    HW111789   6.174   2.012   2.350
 3630SOL    HW211790   6.277   2.062   2.466
 3631SOL     OW11791   1.989   6.185   2.333
 3631SOL    HW111792   1.985   6.099   2.282
 3631SOL    HW211793   1.899   6.204   2.373
 3632SOL     OW11794   4.827   3.082   2.391
 3632SOL    HW111795   4.903   3.097   2.453
 3632SOL    HW211796   4.800   3.170   2.350
 3633SOL     OW11797   3.847   4.172   0.061
 3633SOL    HW111798   3.787   4.217   7.011
 3633SOL    HW211799   3.792   4.113   0.120
 3634SOL     OW11800   2.900   5.298   6.480
 3634SOL    HW111801   2.815   5.304   6.531
 3634SOL    HW211802   2.908   5.377   6.420
 3635SOL     OW11803   1.042   6.407   2.339
 3635SOL    HW111804   1.044   6.503   2.367
 3635SOL    HW211805   1.135   6.369   2.341
 3636SOL     OW11806   0.573   5.520   5.680
 3636SOL    HW111807   0.486   5.500   5.635
 3636SOL    HW211808   0.599   5.615   5.661
 3637SOL     OW11809   6.247   3.238   0.086
 3637SOL    HW111810   6.312   3.263   0.015
 3637SOL    HW211811   6.154   3.262   0.057
 3638SOL     OW11812   0.376   3.372   3.290
 3638SOL    HW111813   0.439   3.363   3.368
 3638SOL    HW211814   0.318   3.452   3.303
 3639SOL     OW11815   4.108   3.455   4.558
 3639SOL    HW111816   4.104   3.356   4.566
 3639SOL    HW211817   4.031   3.488   4.504
 3640SOL     OW11818   4.242   1.920   2.255
 3640SOL    HW111819   4.167   1.985   2.269
 3640SOL    HW211820   4.320   1.967   2.214
 3641SOL     OW11821   6.402   3.918   2.093
 3641SOL    HW111822   6.308   3.901   2.123
 3641SOL    HW211823   6.443   3.832   2.062
 3642SOL     OW11824   5.040   3.943   6.735
 3642SOL    HW111825   5.055   3.969   6.640
 3642SOL    HW211826   5.048   3.844   6.745
 3643SOL     OW11827   3.829   5.848   4.805
 3643SOL    HW111828   3.893   5.816   4.875
 3643SOL    HW211829   3.873   5.847   4.716
 3644SOL     OW11830   2.824   0.882   1.826
 3644SOL    HW111831   2.831   0.825   1.744
 3644SOL    HW211832   2.771   0.964   1.806
 3645SOL     OW11833   1.562   4.494   3.500
 3645SOL    HW111834   1.636   4.524   3.440
 3645SOL    HW211835   1.594   4.492   3.594
 3646SOL     OW11836   1.875   5.301   5.706
 3646SOL    HW111837   1.962   5.265   5.741
 3646SOL    HW211838   1.806   5.229   5.711
 3647SOL     OW11839   3.645   6.657   0.107
 3647SOL    HW111840   3.665   6.730   0.042
 3647SOL    HW211841   3.596   6.583   0.060
 3648SOL     OW11842   5.103   4.761   3.078
 3648SOL    HW111843   5.191   4.757   3.126
 3648SOL    HW211844   5.039   4.698   3.120
 3649SOL     OW11845   5.324   2.400   0.257
 3649SOL    HW111846   5.228   2.417   0.281
 3649SOL    HW211847   5.379   2.480   0.283
 3650SOL     OW11848   5.327   5.933   6.160
 3650SOL    HW111849   5.246   5.917   6.216
 3650SOL    HW211850   5.394   5.985   6.213
 3651SOL     OW11851   0.455   1.975   5.765
 3651SOL    HW111852   0.386   1.913   5.729
 3651SOL    HW211853   0.419   2.023   5.845
 3652SOL     OW11854   4.646   2.662   2.514
 3652SOL    HW111855   4.660   2.760   2.526
 3652SOL    HW211856   4.707   2.612   2.575
 3653SOL     OW11857   1.982   1.225   0.451
 3653SOL    HW111858   2.033   1.194   0.532
 3653SOL    HW211859   2.032   1.199   0.369
 3654SOL     OW11860   4.091   6.973   1.834
 3654SOL    HW111861   4.010   0.009   1.859
 3654SOL    HW211862   4.067   6.877   1.826
 3655SOL     OW11863   1.210   0.656   3.716
 3655SOL    HW111864   1.308   0.633   3.718
 3655SOL    HW211865   1.161   0.587   3.663
 3656SOL     OW11866   0.211   0.072   1.130
 3656SOL    HW111867   0.308   0.096   1.124
 3656SOL    HW211868   0.162   0.145   1.179
 3657SOL     OW11869   5.833   5.123   6.398
 3657SOL    HW111870   5.747   5.165   6.368
 3657SOL    HW211871   5.878   5.079   6.320
 3658SOL     OW11872   1.971   4.666   5.353
 3658SOL    HW111873   2.027   4.703   5.279
 3658SOL    HW211874   1.995   4.570   5.369
 3659SOL     OW11875   0.934   2.625   6.602
 3659SOL    HW111876   1.018   2.663   6.565
 3659SOL    HW211877   0.905   2.678   6.682
 3660SOL     OW11878   3.915   5.409   5.277
 3660SOL    HW111879   4.006   5.424   5.238
 3660SOL    HW211880   3.924   5.378   5.371
 3661SOL     OW11881   0.358   1.151   4.347
 3661SOL    HW111882   0.332   1.223   4.410
 3661SOL    HW211883   0.406   1.191   4.269
 3662SOL     OW11884   3.236   1.537   5.735
 3662SOL    HW111885   3.158   1.501   5.685
 3662SOL    HW211886   3.227   1.636   5.745
 3663SOL     OW11887   2.251   2.394   6.450
 3663SOL    HW111888   2.266   2.414   6.353
 3663SOL    HW211889   2.324   2.436   6.503
 3664SOL     OW11890   3.371   1.751   1.289
 3664SOL    HW111891   3.462   1.775   1.255
 3664SOL    HW211892   3.379   1.680   1.360
 3665SOL     OW11893   0.014   5.269   5.441
 3665SOL    HW111894   0.002   5.338   5.369
 3665SOL    HW211895   0.102   5.223   5.429
 3666SOL     OW11896   2.156   3.676   4.200
 3666SOL    HW111897   2.163   3.766   4.242
 3666SOL    HW211898   2.248   3.641   4.179
 3667SOL     OW11899   1.886   6.744   0.697
 3667SOL    HW111900   1.908   6.822   0.755
 3667SOL    HW211901   1.787   6.741   0.682
 3668SOL     OW11902   6.240   1.305   0.777
 3668SOL    HW111903   6.197   1.292   0.688
 3668SOL    HW211904   6.178   1.277   0.849
 3669SOL     OW11905   6.945   1.048   1.613
 3669SOL    HW111906   6.908   0.964   1.651
 3669SOL    HW211907   6.987   1.102   1.686
 3670SOL     OW11908   1.722   6.888   1.999
 3670SOL    HW111909   1.772   6.935   1.926
 3670SOL    HW211910   1.777   6.888   2.083
 3671SOL     OW11911   0.102   0.893   4.830
 3671SOL    HW111912   0.115   0.796   4.849
 3671SOL    HW211913   0.094   0.943   4.916
 3672SOL     OW11914   4.067   7.008   3.364
 3672SOL    HW111915   4.107   6.964   3.285
 3672SOL    HW211916   4.119   6.983   3.446
 3673SOL     OW11917   3.178   0.810   1.520
 3673SOL    HW111918   3.214   0.839   1.609
 3673SOL    HW211919   3.201   0.714   1.504
 3674SOL     OW11920   0.387   4.285   5.940
 3674SOL    HW111921   0.293   4.313   5.924
 3674SOL    HW211922   0.441   4.364   5.969
 3675SOL     OW11923   6.973   0.907   4.570
 3675SOL    HW111924   0.021   0.911   4.645
 3675SOL    HW211925   6.990   0.982   4.506
 3676SOL     OW11926   3.373   0.922   5.564
 3676SOL    HW111927   3.471   0.909   5.581
 3676SOL    HW211928   3.326   0.940   5.651
 3677SOL     OW11929   1.410   0.880   4.324
 3677SOL    HW111930   1.381   0.916   4.235
 3677SOL    HW211931   1.353   0.920   4.396
 3678SOL     OW11932   2.124   1.085   3.390
 3678SOL    HW111933   2.127   1.116   3.485
 3678SOL    HW211934   2.122   1.165   3.330
 3679SOL     OW11935   3.235   0.521   2.852
 3679SOL    HW111936   3.331   0.511   2.827
 3679SOL    HW211937   3.185   0.563   2.776
 3680SOL     OW11938   3.196   2.057   4.699
 3680SOL    HW111939   3.117   2.113   4.673
 3680SOL    HW211940   3.165   1.976   4.748
 3681SOL     OW11941   1.042   6.777   3.955
 3681SOL    HW111942   1.054   6.761   4.052
 3681SOL    HW211943   1.098   6.854   3.926
 3682SOL     OW11944   5.552   2.316   1.254
 3682SOL    HW111945   5.494   2.332   1.334
 3682SOL    HW211946   5.616   2.241   1.273
 3683SOL     OW11947   6.744   1.646   0.734
 3683SOL    HW111948   6.705   1.604   0.651
 3683SOL    HW211949   6.703   1.736   0.748
 3684SOL     OW11950   2.625   6.097   5.968
 3684SOL    HW111951   2.641   6.194   5.985
 3684SOL    HW211952   2.680   6.067   5.891
 3685SOL     OW11953   2.540   6.260   3.691
 3685SOL    HW111954   2.472   6.203   3.645
 3685SOL    HW211955   2.582   6.208   3.766
 3686SOL     OW11956   0.002   4.295   0.229
 3686SOL    HW111957   0.036   4.291   0.323
 3686SOL    HW211958   7.003   4.202   0.196
 3687SOL     OW11959   6.067   4.404   4.448
 3687SOL    HW111960   6.133   4.462   4.401
 3687SOL    HW211961   6.106   4.313   4.462
 3688SOL     OW11962   0.127   2.723   1.339
 3688SOL    HW111963   0.101   2.647   1.399
 3688SOL    HW211964   0.214   2.703   1.294
 3689SOL     OW11965   1.167   1.206   6.019
 3689SOL    HW111966   1.220   1.266   6.078
 3689SOL    HW211967   1.227   1.134   5.983
 3690SOL     OW11968   5.924   4.832   1.665
 3690SOL    HW111969   6.012   4.786   1.652
 3690SOL    HW211970   5.850   4.770   1.637
 3691SOL     OW11971   1.547   2.586   0.905
 3691SOL    HW111972   1.571   2.648   0.831
 3691SOL    HW211973   1.630   2.539   0.936
 3692SOL     OW11974   1.186   2.872   5.390
 3692SOL    HW111975   1.271   2.872   5.337
 3692SOL    HW211976   1.114   2.917   5.337
 3693SOL     OW11977   0.016   1.521   2.588
 3693SOL    HW111978   6.970   1.453   2.625
 3693SOL    HW211979   6.985   1.607   2.573
 3694SOL     OW11980   6.916   6.444   2.401
 3694SOL    HW111981   6.816   6.443   2.407
 3694SOL    HW211982   6.950   6.536   2.422
 3695SOL     OW11983   6.212   3.892   3.638
 3695SOL    HW111984   6.233   3.932   3.549
 3695SOL    HW211985   6.157   3.956   3.691
 3696SOL     OW11986   4.618   0.354   3.832
 3696SOL    HW111987   4.528   0.368   3.791
 3696SOL    HW211988   4.688   0.392   3.772
 3697SOL     OW11989   6.242   5.389   2.852
 3697SOL    HW111990   6.284   5.350   2.769
 3697SOL    HW211991   6.144   5.402   2.836
 3698SOL     OW11992   1.734   7.013   4.043
 3698SOL    HW111993   1.653   0.052   4.028
 3698SOL    HW211994   1.811   0.054   4.068
 3699SOL     OW11995   2.579   2.459   2.948
 3699SOL    HW111996   2.568   2.524   2.873
 3699SOL    HW211997   2.672   2.421   2.945
 3700SOL     OW11998   0.989   4.939   4.601
 3700SOL    HW111999   1.052   4.861   4.607
 3700SOL    HW212000   0.979   4.981   4.691
 3701SOL     OW12001   0.427   1.105   2.008
 3701SOL    HW112002   0.357   1.077   2.074
 3701SOL    HW212003   0.496   1.034   2.000
 3702SOL     OW12004   6.544   4.718   3.680
 3702SOL    HW112005   6.545   4.772   3.764
 3702SOL    HW212006   6.621   4.746   3.622
 3703SOL     OW12007   1.409   2.152   2.890
 3703SOL    HW112008   1.492   2.202   2.914
 3703SOL    HW212009   1.403   2.068   2.943
 3704SOL     OW12010   6.313   6.857   0.935
 3704SOL    HW112011   6.323   6.901   0.846
 3704SOL    HW212012   6.217   6.855   0.960
 3705SOL     OW12013   6.043   4.156   3.726
 3705SOL    HW112014   5.992   4.239   3.703
 3705SOL    HW212015   6.125   4.180   3.778
 3706SOL     OW12016   1.253   5.027   6.338
 3706SOL    HW112017   1.252   5.118   6.296
 3706SOL    HW212018   1.177   5.020   6.403
 3707SOL     OW12019   0.862   4.847   3.603
 3707SOL    HW112020   0.878   4.910   3.679
 3707SOL    HW212021   0.770   4.861   3.567
 3708SOL     OW12022   1.369   6.101   6.959
 3708SOL    HW112023   1.342   6.196   6.974
 3708SOL    HW212024   1.288   6.047   6.934
 3709SOL     OW12025   0.627   1.596   2.329
 3709SOL    HW112026   0.670   1.680   2.363
 3709SOL    HW212027   0.551   1.571   2.390
 3710SOL     OW12028   1.891   3.807   5.363
 3710SOL    HW112029   1.859   3.732   5.305
 3710SOL    HW212030   1.973   3.847   5.322
 3711SOL     OW12031   2.167   5.080   4.942
 3711SOL    HW112032   2.137   5.005   5.000
 3711SOL    HW212033   2.223   5.043   4.867
 3712SOL     OW12034   3.254   5.256   4.034
 3712SOL    HW112035   3.217   5.241   4.125
 3712SOL    HW212036   3.344   5.299   4.040
 3713SOL     OW12037   6.140   0.319   5.224
 3713SOL    HW112038   6.119   0.376   5.304
 3713SOL    HW212039   6.232   0.281   5.234
 3714SOL     OW12040   0.035   4.688   6.671
 3714SOL    HW112041   0.101   4.729   6.608
 3714SOL    HW212042   0.040   4.589   6.664
 3715SOL     OW12043   6.254   4.546   3.348
 3715SOL    HW112044   6.273   4.633   3.394
 3715SOL    HW212045   6.338   4.492   3.343
 3716SOL     OW12046   5.803   5.824   5.597
 3716SOL    HW112047   5.844   5.913   5.578
 3716SOL    HW212048   5.795   5.772   5.512
 3717SOL     OW12049   4.854   0.743   0.992
 3717SOL    HW112050   4.910   0.721   1.073
 3717SOL    HW212051   4.771   0.789   1.020
 3718SOL     OW12052   5.537   0.011   6.520
 3718SOL    HW112053   5.567   6.958   6.456
 3718SOL    HW212054   5.445   7.007   6.552
 3719SOL     OW12055   2.517   4.549   0.147
 3719SOL    HW112056   2.550   4.486   0.076
 3719SOL    HW212057   2.521   4.643   0.113
 3720SOL     OW12058   7.005   2.704   1.014
 3720SOL    HW112059   6.917   2.683   0.972
 3720SOL    HW212060   6.997   2.695   1.114
 3721SOL     OW12061   6.183   0.355   5.759
 3721SOL    HW112062   6.156   0.259   5.751
 3721SOL    HW212063   6.235   0.369   5.843
 3722SOL     OW12064   5.968   6.469   1.479
 3722SOL    HW112065   6.042   6.432   1.535
 3722SOL    HW212066   5.903   6.518   1.537
 3723SOL     OW12067   4.574   4.387   6.477
 3723SOL    HW112068   4.570   4.293   6.511
 3723SOL    HW212069   4.669   4.414   6.464
 3724SOL     OW12070   6.695   4.298   4.772
 3724SOL    HW112071   6.736   4.243   4.699
 3724SOL    HW212072   6.761   4.365   4.805
 3725SOL     OW12073   0.775   5.799   0.291
 3725SOL    HW112074   0.701   5.754   0.241
 3725SOL    HW212075   0.780   5.896   0.264
 3726SOL     OW12076   6.560   3.400   5.135
 3726SOL    HW112077   6.505   3.450   5.068
 3726SOL    HW212078   6.547   3.301   5.121
 3727SOL     OW12079   6.610   2.203   4.035
 3727SOL    HW112080   6.566   2.149   3.964
 3727SOL    HW212081   6.648   2.286   3.996
 3728SOL     OW12082   1.919   4.250   0.640
 3728SOL    HW112083   2.013   4.250   0.673
 3728SOL    HW212084   1.860   4.297   0.706
 3729SOL     OW12085   0.395   0.143   6.075
 3729SOL    HW112086   0.470   0.118   6.135
 3729SOL    HW212087   0.378   0.069   6.010
 3730SOL     OW12088   5.043   5.011   4.872
 3730SOL    HW112089   5.086   4.965   4.795
 3730SOL    HW212090   5.114   5.047   4.933
 3731SOL     OW12091   0.249   2.011   0.777
 3731SOL    HW112092   0.331   1.952   0.777
 3731SOL    HW212093   0.273   2.101   0.814
 3732SOL     OW12094   3.715   3.155   6.723
 3732SOL    HW112095   3.796   3.213   6.731
 3732SOL    HW212096   3.651   3.196   6.659
 3733SOL     OW12097   1.570   1.426   3.509
 3733SOL    HW112098   1.588   1.508   3.564
 3733SOL    HW212099   1.657   1.389   3.475
 3734SOL     OW12100   3.452   0.292   2.108
 3734SOL    HW112101   3.421   0.205   2.070
 3734SOL    HW212102   3.406   0.309   2.195
 3735SOL     OW12103   4.554   0.909   2.849
 3735SOL    HW112104   4.512   0.836   2.795
 3735SOL    HW212105   4.538   0.997   2.804
 3736SOL     OW12106   0.886   1.769   0.245
 3736SOL    HW112107   0.943   1.851   0.240
 3736SOL    HW212108   0.790   1.794   0.234
 3737SOL     OW12109   5.833   2.294   3.389
 3737SOL    HW112110   5.901   2.322   3.456
 3737SOL    HW212111   5.804   2.375   3.336
 3738SOL     OW12112   0.628   0.994   1.278
 3738SOL    HW112113   0.560   0.927   1.248
 3738SOL    HW212114   0.605   1.084   1.241
 3739SOL     OW12115   2.720   4.482   6.765
 3739SOL    HW112116   2.622   4.487   6.788
 3739SOL    HW212117   2.747   4.567   6.719
 3740SOL     OW12118   5.337   5.975   6.784
 3740SOL    HW112119   5.245   6.014   6.789
 3740SOL    HW212120   5.400   6.032   6.837
 3741SOL     OW12121   5.578   4.059   0.324
 3741SOL    HW112122   5.641   4.119   0.276
 3741SOL    HW212123   5.612   3.965   0.322
 3742SOL     OW12124   4.556   5.275   1.313
 3742SOL    HW112125   4.487   5.264   1.242
 3742SOL    HW212126   4.516   5.320   1.393
 3743SOL     OW12127   2.774   4.072   0.483
 3743SOL    HW112128   2.841   4.023   0.538
 3743SOL    HW212129   2.708   4.118   0.542
 3744SOL     OW12130   6.605   5.674   2.601
 3744SOL    HW112131   6.515   5.645   2.568
 3744SOL    HW212132   6.610   5.660   2.700
 3745SOL     OW12133   4.847   2.609   2.894
 3745SOL    HW112134   4.748   2.612   2.909
 3745SOL    HW212135   4.868   2.645   2.803
 3746SOL     OW12136   4.978   6.946   4.538
 3746SOL    HW112137   4.928   6.885   4.598
 3746SOL    HW212138   4.927   6.958   4.452
 3747SOL     OW12139   2.635   5.465   5.426
 3747SOL    HW112140   2.694   5.526   5.374
 3747SOL    HW212141   2.653   5.370   5.398
 3748SOL     OW12142   5.074   2.623   3.331
 3748SOL    HW112143   5.063   2.686   3.254
 3748SOL    HW212144   4.994   2.562   3.336
 3749SOL     OW12145   6.406   6.633   2.054
 3749SOL    HW112146   6.447   6.711   2.007
 3749SOL    HW212147   6.479   6.575   2.091
 3750SOL     OW12148   5.645   4.319   0.987
 3750SOL    HW112149   5.685   4.240   1.034
 3750SOL    HW212150   5.578   4.287   0.920
 3751SOL     OW12151   1.219   4.150   1.167
 3751SOL    HW112152   1.153   4.224   1.178
 3751SOL    HW212153   1.276   4.143   1.249
 3752SOL     OW12154   1.136   6.244   5.820
 3752SOL    HW112155   1.149   6.145   5.829
 3752SOL    HW212156   1.087   6.263   5.734
 3753SOL     OW12157   0.230   0.614   4.990
 3753SOL    HW112158   0.238   0.536   5.052
 3753SOL    HW212159   0.247   0.583   4.896
 3754SOL     OW12160   6.674   5.977   1.689
 3754SOL    HW112161   6.715   6.057   1.646
 3754SOL    HW212162   6.688   5.897   1.631
 3755SOL     OW12163   4.584   2.603   2.910
 3755SOL    HW112164   4.583   2.505   2.931
 3755SOL    HW212165   4.523   2.621   2.833
 3756SOL     OW12166   3.446   6.940   0.280
 3756SOL    HW112167   3.406   0.008   0.247
 3756SOL    HW212168   3.373   6.874   0.300
 3757SOL     OW12169   3.951   4.914   6.885
 3757SOL    HW112170   3.934   4.818   6.907
 3757SOL    HW212171   3.887   4.944   6.815
 3758SOL     OW12172   6.662   0.759   2.460
 3758SOL    HW112173   6.588   0.725   2.402
 3758SOL    HW212174   6.631   0.760   2.555
 3759SOL     OW12175   4.750   4.644   1.066
 3759SOL    HW112176   4.791   4.633   1.157
 3759SOL    HW212177   4.739   4.741   1.046
 3760SOL     OW12178   1.873   1.743   6.441
 3760SOL    HW112179   1.971   1.759   6.449
 3760SOL    HW212180   1.831   1.744   6.532
 3761SOL     OW12181   6.666   6.065   4.226
 3761SOL    HW112182   6.643   6.120   4.306
 3761SOL    HW212183   6.764   6.045   4.226
 3762SOL     OW12184   0.489   2.791   0.323
 3762SOL    HW112185   0.459   2.867   0.265
 3762SOL    HW212186   0.588   2.792   0.331
 3763SOL     OW12187   0.026   3.626   5.495
 3763SOL    HW112188   6.987   3.553   5.458
 3763SOL    HW212189   0.042   3.695   5.425
 3764SOL     OW12190   2.596   0.053   4.263
 3764SOL    HW112191   2.663   7.002   4.293
 3764SOL    HW212192   2.621   0.143   4.299
 3765SOL     OW12193   5.612   1.636   3.337
 3765SOL    HW112194   5.694   1.617   3.391
 3765SOL    HW212195   5.637   1.663   3.244
 3766SOL     OW12196   1.718   0.893   5.354
 3766SOL    HW112197   1.636   0.936   5.393
 3766SOL    HW212198   1.771   0.852   5.427
 3767SOL     OW12199   0.337   4.911   0.219
 3767SOL    HW112200   0.386   4.826   0.197
 3767SOL    HW212201   0.266   4.927   0.150
 3768SOL     OW12202   4.375   6.567   1.227
 3768SOL    HW112203   4.318   6.649   1.225
 3768SOL    HW212204   4.370   6.526   1.318
 3769SOL     OW12205   4.447   6.712   5.016
 3769SOL    HW112206   4.465   6.669   4.927
 3769SOL    HW212207   4.507   6.671   5.085
 3770SOL     OW12208   2.293   2.540   0.764
 3770SOL    HW112209   2.298   2.626   0.816
 3770SOL    HW212210   2.385   2.500   0.758
 3771SOL     OW12211   4.195   1.645   5.333
 3771SOL    HW112212   4.276   1.608   5.377
 3771SOL    HW212213   4.217   1.671   5.239
 3772SOL     OW12214   4.822   0.583   2.675
 3772SOL    HW112215   4.755   0.538   2.616
 3772SOL    HW212216   4.818   0.543   2.766
 3773SOL     OW12217   6.350   2.234   0.938
 3773SOL    HW112218   6.301   2.270   0.858
 3773SOL    HW212219   6.305   2.266   1.022
 3774SOL     OW12220   0.917   1.919   1.972
 3774SOL    HW112221   0.893   1.976   1.893
 3774SOL    HW212222   0.967   1.975   2.039
 3775SOL     OW12223   5.351   3.101   3.337
 3775SOL    HW112224   5.343   3.196   3.307
 3775SOL    HW212225   5.446   3.081   3.358
 3776SOL     OW12226   3.209   2.395   6.545
 3776SOL    HW112227   3.177   2.372   6.636
 3776SOL    HW212228   3.215   2.495   6.535
 3777SOL     OW12229   0.873   4.344   3.212
 3777SOL    HW112230   0.965   4.378   3.233
 3777SOL    HW212231   0.870   4.315   3.116
 3778SOL     OW12232   2.293   6.931   2.012
 3778SOL    HW112233   2.260   6.865   2.080
 3778SOL    HW212234   2.215   6.971   1.965
 3779SOL     OW12235   1.947   4.449   6.974
 3779SOL    HW112236   1.878   4.508   7.016
 3779SOL    HW212237   1.934   4.449   6.874
 3780SOL     OW12238   2.507   0.353   3.720
 3780SOL    HW112239   2.495   0.328   3.624
 3780SOL    HW212240   2.531   0.272   3.773
 3781SOL     OW12241   2.756   5.408   4.860
 3781SOL    HW112242   2.699   5.490   4.867
 3781SOL    HW212243   2.848   5.428   4.895
 3782SOL     OW12244   3.057   0.983   2.649
 3782SOL    HW112245   3.031   0.999   2.744
 3782SOL    HW212246   3.142   1.032   2.629
 3783SOL     OW12247   5.185   5.687   4.932
 3783SOL    HW112248   5.137   5.613   4.979
 3783SOL    HW212249   5.179   5.673   4.833
 3784SOL     OW12250   5.078   1.932   4.496
 3784SOL    HW112251   4.998   1.978   4.534
 3784SOL    HW212252   5.160   1.967   4.540
 3785SOL     OW12253   1.295   1.165   1.950
 3785SOL    HW112254   1.322   1.261   1.943
 3785SOL    HW212255   1.354   1.109   1.890
 3786SOL     OW12256   3.214   6.422   2.813
 3786SOL    HW112257   3.269   6.341   2.791
 3786SOL    HW212258   3.195   6.473   2.729
 3787SOL     OW12259   4.504   0.922   4.030
 3787SOL    HW112260   4.510   0.838   3.977
 3787SOL    HW212261   4.588   0.933   4.084
 3788SOL     OW12262   6.293   3.323   2.285
 3788SOL    HW112263   6.348   3.240   2.276
 3788SOL    HW212264   6.233   3.332   2.205
 3789SOL     OW12265   1.073   5.321   2.150
 3789SOL    HW112266   0.981   5.293   2.178
 3789SOL    HW212267   1.141   5.261   2.194
 3790SOL     OW12268   2.184   3.168   3.190
 3790SOL    HW112269   2.189   3.187   3.288
 3790SOL    HW212270   2.206   3.251   3.139
 3791SOL     OW12271   6.087   0.663   2.647
 3791SOL    HW112272   6.182   0.632   2.642
 3791SOL    HW212273   6.085   0.763   2.648
 3792SOL     OW12274   0.471   6.566   6.356
 3792SOL    HW112275   0.394   6.518   6.398
 3792SOL    HW212276   0.503   6.515   6.276
 3793SOL     OW12277   0.712   6.046   2.858
 3793SOL    HW112278   0.677   6.084   2.944
 3793SOL    HW212279   0.693   5.947   2.856
 3794SOL     OW12280   4.387   6.418   3.701
 3794SOL    HW112281   4.341   6.343   3.747
 3794SOL    HW212282   4.438   6.383   3.622
 3795SOL     OW12283   5.631   0.492   0.522
 3795SOL    HW112284   5.699   0.535   0.583
 3795SOL    HW212285   5.667   0.405   0.489
 3796SOL     OW12286   1.126   3.276   0.538
 3796SOL    HW112287   1.127   3.297   0.636
 3796SOL    HW212288   1.117   3.361   0.485
 3797SOL     OW12289   6.909   5.171   2.445
 3797SOL    HW112290   6.978   5.103   2.471
 3797SOL    HW212291   6.854   5.196   2.525
 3798SOL     OW12292   0.776   4.199   1.054
 3798SOL    HW112293   0.804   4.114   1.010
 3798SOL    HW212294   0.797   4.194   1.152
 3799SOL     OW12295   1.023   0.484   4.910
 3799SOL    HW112296   0.993   0.455   5.001
 3799SOL    HW212297   1.076   0.410   4.867
 3800SOL     OW12298   5.220   2.477   5.381
 3800SOL    HW112299   5.169   2.425   5.449
 3800SOL    HW212300   5.188   2.572   5.380
 3801SOL     OW12301   6.713   0.256   6.641
 3801SOL    HW112302   6.690   0.206   6.725
 3801SOL    HW212303   6.808   0.238   6.617
 3802SOL     OW12304   1.743   2.803   5.398
 3802SOL    HW112305   1.754   2.757   5.310
 3802SOL    HW212306   1.711   2.738   5.467
 3803SOL     OW12307   4.346   0.754   1.112
 3803SOL    HW112308   4.330   0.815   1.190
 3803SOL    HW212309   4.266   0.695   1.100
 3804SOL     OW12310   5.120   2.931   5.150
 3804SOL    HW112311   5.219   2.915   5.148
 3804SOL    HW212312   5.087   2.946   5.056
 3805SOL     OW12313   1.953   3.674   1.831
 3805SOL    HW112314   1.999   3.597   1.786
 3805SOL    HW212315   1.985   3.682   1.925
 3806SOL     OW12316   3.648   1.361   0.661
 3806SOL    HW112317   3.648   1.391   0.565
 3806SOL    HW212318   3.654   1.441   0.721
 3807SOL     OW12319   1.503   6.930   2.993
 3807SOL    HW112320   1.558   6.894   3.068
 3807SOL    HW212321   1.525   0.010   2.979
 3808SOL     OW12322   3.078   0.436   0.785
 3808SOL    HW112323   3.123   0.352   0.816
 3808SOL    HW212324   3.129   0.516   0.819
 3809SOL     OW12325   4.024   0.166   6.886
 3809SOL    HW112326   4.029   0.265   6.886
 3809SOL    HW212327   4.115   0.128   6.869
 3810SOL     OW12328   2.182   3.536   6.272
 3810SOL    HW112329   2.244   3.480   6.218
 3810SOL    HW212330   2.226   3.623   6.294
 3811SOL     OW12331   0.747   0.147   6.448
 3811SOL    HW112332   0.845   0.129   6.446
 3811SOL    HW212333   0.731   0.246   6.440
 3812SOL     OW12334   5.267   0.698   5.789
 3812SOL    HW112335   5.181   0.716   5.742
 3812SOL    HW212336   5.257   0.618   5.847
 3813SOL     OW12337   3.882   4.796   1.864
 3813SOL    HW112338   3.795   4.772   1.909
 3813SOL    HW212339   3.878   4.769   1.768
 3814SOL     OW12340   2.045   0.935   1.970
 3814SOL    HW112341   1.958   0.960   1.930
 3814SOL    HW212342   2.050   0.836   1.981
 3815SOL     OW12343   5.314   2.093   2.073
 3815SOL    HW112344   5.326   2.187   2.107
 3815SOL    HW212345   5.394   2.068   2.018
 3816SOL     OW12346   0.072   6.460   1.017
 3816SOL    HW112347   0.070   6.473   0.918
 3816SOL    HW212348   7.000   6.427   1.048
 3817SOL     OW12349   4.894   1.526   5.524
 3817SOL    HW112350   4.878   1.608   5.469
 3817SOL    HW212351   4.984   1.489   5.504
 3818SOL     OW12352   4.715   5.408   3.280
 3818SOL    HW112353   4.790   5.356   3.241
 3818SOL    HW212354   4.712   5.394   3.379
 3819SOL     OW12355   6.153   4.044   5.963
 3819SOL    HW112356   6.073   4.104   5.963
 3819SOL    HW212357   6.129   3.956   6.003
 3820SOL     OW12358   4.998   6.034   3.414
 3820SOL    HW112359   4.905   6.058   3.385
 3820SOL    HW212360   4.993   5.982   3.499
 3821SOL     OW12361   0.053   4.401   1.378
 3821SOL    HW112362   0.018   4.434   1.465
 3821SOL    HW212363   7.013   4.437   1.304
 3822SOL     OW12364   0.538   4.337   1.561
 3822SOL    HW112365   0.520   4.377   1.471
 3822SOL    HW212366   0.465   4.274   1.585
 3823SOL     OW12367   2.716   3.322   5.693
 3823SOL    HW112368   2.739   3.314   5.790
 3823SOL    HW212369   2.777   3.264   5.639
 3824SOL     OW12370   6.765   2.276   6.408
 3824SOL    HW112371   6.797   2.370   6.395
 3824SOL    HW212372   6.665   2.276   6.415
 3825SOL     OW12373   6.430   6.671   5.692
 3825SOL    HW112374   6.454   6.575   5.688
 3825SOL    HW212375   6.495   6.724   5.638
 3826SOL     OW12376   7.002   1.800   1.173
 3826SOL    HW112377   0.004   1.820   1.077
 3826SOL    HW212378   0.071   1.783   1.222
 3827SOL     OW12379   5.749   2.212   1.549
 3827SOL    HW112380   5.811   2.253   1.482
 3827SOL    HW212381   5.798   2.195   1.634
 3828SOL     OW12382   4.273   0.895   1.380
 3828SOL    HW112383   4.356   0.865   1.428
 3828SOL    HW212384   4.197   0.835   1.406
 3829SOL     OW12385   0.753   5.189   3.565
 3829SOL    HW112386   0.814   5.157   3.493
 3829SOL    HW212387   0.791   5.165   3.655
 3830SOL     OW12388   3.117   0.523   5.747
 3830SOL    HW112389   3.114   0.562   5.655
 3830SOL    HW212390   3.210   0.528   5.782
 3831SOL     OW12391   4.718   1.552   2.580
 3831SOL    HW112392   4.772   1.596   2.509
 3831SOL    HW212393   4.623   1.543   2.549
 3832SOL     OW12394   5.534   6.799   2.584
 3832SOL    HW112395   5.600   6.824   2.513
 3832SOL    HW212396   5.441   6.814   2.549
 3833SOL     OW12397   1.659   6.378   1.639
 3833SOL    HW112398   1.595   6.351   1.567
 3833SOL    HW212399   1.616   6.447   1.698
 3834SOL     OW12400   2.876   2.781   1.096
 3834SOL    HW112401   2.932   2.785   1.013
 3834SOL    HW212402   2.862   2.685   1.121
 3835SOL     OW12403   3.766   5.782   3.404
 3835SOL    HW112404   3.739   5.831   3.321
 3835SOL    HW212405   3.774   5.684   3.383
 3836SOL     OW12406   1.773   3.195   5.130
 3836SOL    HW112407   1.784   3.130   5.055
 3836SOL    HW212408   1.823   3.279   5.108
 3837SOL     OW12409   3.102   3.829   0.068
 3837SOL    HW112410   3.109   3.835   6.986
 3837SOL    HW212411   3.170   3.763   0.102
 3838SOL     OW12412   5.759   3.138   5.463
 3838SOL    HW112413   5.716   3.222   5.497
 3838SOL    HW212414   5.858   3.145   5.473
 3839SOL     OW12415   0.558   6.433   6.086
 3839SOL    HW112416   0.517   6.506   6.031
 3839SOL    HW212417   0.649   6.413   6.052
 3840SOL     OW12418   2.416   1.332   3.622
 3840SOL    HW112419   2.324   1.298   3.638
 3840SOL    HW212420   2.431   1.345   3.524
 3841SOL     OW12421   0.911   3.927   4.111
 3841SOL    HW112422   0.917   3.836   4.072
 3841SOL    HW212423   0.869   3.921   4.202
 3842SOL     OW12424   1.676   5.210   0.132
 3842SOL    HW112425   1.765   5.167   0.124
 3842SOL    HW212426   1.614   5.173   0.062
 3843SOL     OW12427   5.809   4.305   0.468
 3843SOL    HW112428   5.750   4.284   0.390
 3843SOL    HW212429   5.755   4.352   0.539
 3844SOL     OW12430   2.549   4.448   5.567
 3844SOL    HW112431   2.636   4.489   5.540
 3844SOL    HW212432   2.476   4.485   5.510
 3845SOL     OW12433   3.196   3.775   3.886
 3845SOL    HW112434   3.279   3.808   3.930
 3845SOL    HW212435   3.213   3.685   3.845
 3846SOL     OW12436   6.836   4.464   4.261
 3846SOL    HW112437   6.878   4.473   4.351
 3846SOL    HW212438   6.854   4.372   4.226
 3847SOL     OW12439   0.888   0.057   0.971
 3847SOL    HW112440   0.880   0.035   1.068
 3847SOL    HW212441   0.797   0.055   0.929
 3848SOL     OW12442   2.991   6.109   1.537
 3848SOL    HW112443   3.075   6.065   1.568
 3848SOL    HW212444   2.921   6.102   1.608
 3849SOL     OW12445   2.473   1.192   5.858
 3849SOL    HW112446   2.375   1.204   5.846
 3849SOL    HW212447   2.502   1.235   5.943
 3850SOL     OW12448   2.177   3.831   1.478
 3850SOL    HW112449   2.173   3.873   1.568
 3850SOL    HW212450   2.199   3.901   1.409
 3851SOL     OW12451   2.853   2.510   1.171
 3851SOL    HW112452   2.826   2.534   1.264
 3851SOL    HW212453   2.884   2.415   1.169
 3852SOL     OW12454   4.384   1.242   5.512
 3852SOL    HW112455   4.446   1.171   5.480
 3852SOL    HW212456   4.309   1.254   5.448
 3853SOL     OW12457   0.792   3.526   1.717
 3853SOL    HW112458   0.806   3.603   1.655
 3853SOL    HW212459   0.840   3.544   1.804
 3854SOL     OW12460   1.746   3.263   4.054
 3854SOL    HW112461   1.811   3.195   4.020
 3854SOL    HW212462   1.690   3.296   3.979
 3855SOL     OW12463   6.674   1.851   4.674
 3855SOL    HW112464   6.760   1.831   4.628
 3855SOL    HW212465   6.631   1.766   4.705
 3856SOL     OW12466   1.550   6.151   5.973
 3856SOL    HW112467   1.650   6.149   5.968
 3856SOL    HW212468   1.513   6.078   5.914
 3857SOL     OW12469   0.734   0.423   6.013
 3857SOL    HW112470   0.826   0.401   5.980
 3857SOL    HW212471   0.667   0.370   5.961
 3858SOL     OW12472   3.019   4.736   6.784
 3858SOL    HW112473   2.977   4.758   6.696
 3858SOL    HW212474   3.011   4.814   6.845
 3859SOL     OW12475   6.100   2.609   2.206
 3859SOL    HW112476   6.084   2.700   2.244
 3859SOL    HW212477   6.180   2.611   2.147
 3860SOL     OW12478   2.379   6.190   4.877
 3860SOL    HW112479   2.352   6.284   4.900
 3860SOL    HW212480   2.376   6.134   4.960
 3861SOL     OW12481   3.472   4.211   0.273
 3861SOL    HW112482   3.510   4.139   0.330
 3861SOL    HW212483   3.544   4.275   0.248
 3862SOL     OW12484   0.764   5.888   5.503
 3862SOL    HW112485   0.739   5.984   5.522
 3862SOL    HW212486   0.832   5.885   5.430
 3863SOL     OW12487   2.859   3.521   0.602
 3863SOL    HW112488   2.941   3.479   0.565
 3863SOL    HW212489   2.885   3.596   0.663
 3864SOL     OW12490   3.309   1.582   0.992
 3864SOL    HW112491   3.338   1.508   0.932
 3864SOL    HW212492   3.240   1.637   0.946
 3865SOL     OW12493   4.330   0.856   2.268
 3865SOL    HW112494   4.270   0.902   2.334
 3865SOL    HW212495   4.275   0.812   2.197
 3866SOL     OW12496   3.485   6.203   6.725
 3866SOL    HW112497   3.485   6.103   6.724
 3866SOL    HW212498   3.578   6.237   6.735
 3867SOL     OW12499   1.585   5.067   3.220
 3867SOL    HW112500   1.661   5.098   3.162
 3867SOL    HW212501   1.615   5.067   3.315
 3868SOL     OW12502   2.192   5.955   2.595
 3868SOL    HW112503   2.212   5.901   2.513
 3868SOL    HW212504   2.133   6.032   2.570
 3869SOL     OW12505   0.762   1.711   3.735
 3869SOL    HW112506   0.804   1.635   3.784
 3869SOL    HW212507   0.684   1.677   3.682
 3870SOL     OW12508   3.411   3.423   0.579
 3870SOL    HW112509   3.494   3.382   0.617
 3870SOL    HW212510   3.390   3.507   0.628
 3871SOL     OW12511   3.044   1.224   5.255
 3871SOL    HW112512   3.095   1.298   5.212
 3871SOL    HW212513   3.003   1.166   5.184
 3872SOL     OW12514   4.208   3.765   1.060
 3872SOL    HW112515   4.115   3.760   1.022
 3872SOL    HW212516   4.214   3.708   1.141
 3873SOL     OW12517   5.669   4.494   1.962
 3873SOL    HW112518   5.623   4.426   1.905
 3873SOL    HW212519   5.739   4.449   2.017
 3874SOL     OW12520   4.593   6.045   6.101
 3874SOL    HW112521   4.553   6.009   6.185
 3874SOL    HW212522   4.647   5.974   6.056
 3875SOL     OW12523   2.413   3.984   0.172
 3875SOL    HW112524   2.405   3.926   0.091
 3875SOL    HW212525   2.492   3.955   0.226
 3876SOL     OW12526   5.633   3.721   2.180
 3876SOL    HW112527   5.576   3.646   2.212
 3876SOL    HW212528   5.591   3.808   2.206
 3877SOL     OW12529   4.592   2.028   2.080
 3877SOL    HW112530   4.591   2.087   1.999
 3877SOL    HW212531   4.562   2.081   2.160
 3878SOL     OW12532   4.683   5.740   4.568
 3878SOL    HW112533   4.763   5.762   4.623
 3878SOL    HW212534   4.703   5.662   4.509
 3879SOL     OW12535   2.883   5.801   0.723
 3879SOL    HW112536   2.793   5.842   0.730
 3879SOL    HW212537   2.939   5.854   0.659
 3880SOL     OW12538   6.263   1.961   4.180
 3880SOL    HW112539   6.171   1.958   4.141
 3880SOL    HW212540   6.273   1.887   4.247
 3881SOL     OW12541   0.393   5.517   6.895
 3881SOL    HW112542   0.331   5.508   6.817
 3881SOL    HW212543   0.353   5.473   6.975
 3882SOL     OW12544   0.099   6.608   6.647
 3882SOL    HW112545   0.127   6.521   6.688
 3882SOL    HW212546   0.058   6.666   6.718
 3883SOL     OW12547   3.523   1.790   0.109
 3883SOL    HW112548   3.458   1.746   0.171
 3883SOL    HW212549   3.595   1.725   0.085
 3884SOL     OW12550   2.101   5.157   5.807
 3884SOL    HW112551   2.062   5.070   5.776
 3884SOL    HW212552   2.178   5.181   5.747
 3885SOL     OW12553   6.829   0.761   4.065
 3885SOL    HW112554   6.863   0.726   4.152
 3885SOL    HW212555   6.764   0.835   4.082
 3886SOL     OW12556   0.182   5.937   4.916
 3886SOL    HW112557   0.105   5.943   4.852
 3886SOL    HW212558   0.178   6.013   4.980
 3887SOL     OW12559   5.376   2.894   5.126
 3887SOL    HW112560   5.389   2.801   5.094
 3887SOL    HW212561   5.433   2.910   5.207
 3888SOL     OW12562   5.489   1.093   2.627
 3888SOL    HW112563   5.504   0.994   2.631
 3888SOL    HW212564   5.407   1.111   2.573
 3889SOL     OW12565   6.417   5.923   6.611
 3889SOL    HW112566   6.487   5.972   6.558
 3889SOL    HW212567   6.437   5.825   6.610
 3890SOL     OW12568   6.238   3.047   3.243
 3890SOL    HW112569   6.285   3.018   3.159
 3890SOL    HW212570   6.223   3.146   3.240
 3891SOL     OW12571   4.503   4.743   5.935
 3891SOL    HW112572   4.494   4.841   5.953
 3891SOL    HW212573   4.486   4.691   6.019
 3892SOL     OW12574   5.761   5.617   3.824
 3892SOL    HW112575   5.678   5.664   3.790
 3892SOL    HW212576   5.829   5.615   3.751
 3893SOL     OW12577   3.159   6.206   4.396
 3893SOL    HW112578   3.183   6.178   4.303
 3893SOL    HW212579   3.172   6.129   4.458
 3894SOL     OW12580   5.826   5.001   6.869
 3894SOL    HW112581   5.797   5.096   6.882
 3894SOL    HW212582   5.802   4.972   6.776
 3895SOL     OW12583   1.824   1.993   6.249
 3895SOL    HW112584   1.887   1.918   6.269
 3895SOL    HW212585   1.806   2.045   6.332
 3896SOL     OW12586   6.404   2.958   0.785
 3896SOL    HW112587   6.504   2.953   0.795
 3896SOL    HW212588   6.381   2.971   0.688
 3897SOL     OW12589   2.872   6.609   3.627
 3897SOL    HW112590   2.805   6.674   3.592
 3897SOL    HW212591   2.950   6.659   3.667
 3898SOL     OW12592   3.330   3.300   3.879
 3898SOL    HW112593   3.249   3.333   3.928
 3898SOL    HW212594   3.401   3.370   3.880
 3899SOL     OW12595   4.829   1.487   6.641
 3899SOL    HW112596   4.789   1.577   6.659
 3899SOL    HW212597   4.911   1.498   6.585
 3900SOL     OW12598   0.785   2.726   3.819
 3900SOL    HW112599   0.827   2.675   3.744
 3900SOL    HW212600   0.685   2.723   3.809
 3901SOL     OW12601   3.457   5.857   5.445
 3901SOL    HW112602   3.530   5.865   5.378
 3901SOL    HW212603   3.489   5.894   5.533
 3902SOL     OW12604   3.851   5.678   2.968
 3902SOL    HW112605   3.807   5.746   2.908
 3902SOL    HW212606   3.945   5.705   2.986
 3903SOL     OW12607   3.748   3.573   5.967
 3903SOL    HW112608   3.756   3.563   5.868
 3903SOL    HW212609   3.738   3.670   5.990
 3904SOL     OW12610   2.275   6.258   6.957
 3904SOL    HW112611   2.279   6.163   6.988
 3904SOL    HW212612   2.365   6.301   6.968
 3905SOL     OW12613   4.557   0.414   5.661
 3905SOL    HW112614   4.544   0.470   5.743
 3905SOL    HW212615   4.473   0.365   5.641
 3906SOL     OW12616   6.702   6.027   4.558
 3906SOL    HW112617   6.729   6.113   4.514
 3906SOL    HW212618   6.611   6.001   4.527
 3907SOL     OW12619   0.556   1.811   4.357
 3907SOL    HW112620   0.526   1.828   4.451
 3907SOL    HW212621   0.636   1.750   4.358
 3908SOL     OW12622   2.284   0.971   4.779
 3908SOL    HW112623   2.184   0.966   4.768
 3908SOL    HW212624   2.327   0.901   4.722
 3909SOL     OW12625   5.800   3.557   2.003
 3909SOL    HW112626   5.757   3.598   2.084
 3909SOL    HW212627   5.869   3.491   2.031
 3910SOL     OW12628   2.260   2.910   1.305
 3910SOL    HW112629   2.348   2.866   1.291
 3910SOL    HW212630   2.259   2.998   1.257
 3911SOL     OW12631   6.913   1.427   1.250
 3911SOL    HW112632   6.983   1.383   1.306
 3911SOL    HW212633   6.884   1.365   1.178
 3912SOL     OW12634   4.526   3.942   0.389
 3912SOL    HW112635   4.609   3.994   0.367
 3912SOL    HW212636   4.490   3.973   0.477
 3913SOL     OW12637   4.077   4.837   1.390
 3913SOL    HW112638   3.982   4.862   1.406
 3913SOL    HW212639   4.091   4.742   1.418
 3914SOL     OW12640   0.484   1.101   0.701
 3914SOL    HW112641   0.401   1.144   0.664
 3914SOL    HW212642   0.460   1.050   0.784
 3915SOL     OW12643   5.591   0.363   5.251
 3915SOL    HW112644   5.637   0.296   5.310
 3915SOL    HW212645   5.641   0.372   5.165
 3916SOL     OW12646   2.013   2.356   2.442
 3916SOL    HW112647   2.022   2.418   2.519
 3916SOL    HW212648   1.929   2.376   2.392
 3917SOL     OW12649   4.579   5.370   2.612
 3917SOL    HW112650   4.481   5.360   2.591
 3917SOL    HW212651   4.630   5.297   2.567
 3918SOL     OW12652   3.992   6.514   1.407
 3918SOL    HW112653   3.970   6.573   1.329
 3918SOL    HW212654   3.971   6.419   1.383
 3919SOL     OW12655   5.297   5.325   3.205
 3919SOL    HW112656   5.384   5.343   3.251
 3919SOL    HW212657   5.232   5.287   3.271
 3920SOL     OW12658   4.147   1.427   5.723
 3920SOL    HW112659   4.127   1.525   5.724
 3920SOL    HW212660   4.246   1.414   5.733
 3921SOL     OW12661   1.489   3.090   6.090
 3921SOL    HW112662   1.538   3.081   6.177
 3921SOL    HW212663   1.391   3.076   6.105
 3922SOL     OW12664   5.489   2.500   4.192
 3922SOL    HW112665   5.543   2.559   4.132
 3922SOL    HW212666   5.464   2.416   4.142
 3923SOL     OW12667   6.051   0.680   1.263
 3923SOL    HW112668   6.049   0.762   1.206
 3923SOL    HW212669   6.145   0.662   1.291
 3924SOL     OW12670   5.134   4.753   4.104
 3924SOL    HW112671   5.177   4.843   4.109
 3924SOL    HW212672   5.075   4.749   4.023
 3925SOL     OW12673   3.355   4.886   1.475
 3925SOL    HW112674   3.422   4.871   1.548
 3925SOL    HW212675   3.318   4.978   1.482
 3926SOL     OW12676   1.474   5.919   5.523
 3926SOL    HW112677   1.546   5.936   5.457
 3926SOL    HW212678   1.480   5.825   5.556
 3927SOL     OW12679   6.039   6.894   5.208
 3927SOL    HW112680   5.995   6.901   5.118
 3927SOL    HW212681   6.133   6.927   5.202
 3928SOL     OW12682   4.823   5.526   2.627
 3928SOL    HW112683   4.735   5.482   2.608
 3928SOL    HW212684   4.819   5.622   2.601
 3929SOL     OW12685   1.437   0.928   5.287
 3929SOL    HW112686   1.434   0.828   5.292
 3929SOL    HW212687   1.387   0.959   5.206
 3930SOL     OW12688   2.526   5.965   4.208
 3930SOL    HW112689   2.503   5.868   4.211
 3930SOL    HW212690   2.626   5.975   4.207
 3931SOL     OW12691   0.366   2.358   0.085
 3931SOL    HW112692   0.386   2.378   7.007
 3931SOL    HW212693   0.284   2.406   0.114
 3932SOL     OW12694   2.112   3.878   2.792
 3932SOL    HW112695   2.098   3.803   2.727
 3932SOL    HW212696   2.177   3.943   2.754
 3933SOL     OW12697   1.727   6.718   1.625
 3933SOL    HW112698   1.683   6.740   1.538
 3933SOL    HW212699   1.669   6.654   1.676
 3934SOL     OW12700   1.514   6.737   2.083
 3934SOL    HW112701   1.577   6.777   2.017
 3934SOL    HW212702   1.495   6.803   2.155
 3935SOL     OW12703   0.587   1.394   4.692
 3935SOL    HW112704   0.638   1.467   4.648
 3935SOL    HW212705   0.639   1.309   4.688
 3936SOL     OW12706   6.538   4.334   3.856
 3936SOL    HW112707   6.542   4.245   3.902
 3936SOL    HW212708   6.448   4.347   3.816
 3937SOL     OW12709   0.933   6.564   0.295
 3937SOL    HW112710   1.023   6.606   0.288
 3937SOL    HW212711   0.917   6.535   0.389
 3938SOL     OW12712   0.804   4.260   6.746
 3938SOL    HW112713   0.783   4.342   6.693
 3938SOL    HW212714   0.739   4.187   6.723
 3939SOL     OW12715   2.091   6.378   3.882
 3939SOL    HW112716   2.132   6.349   3.795
 3939SOL    HW212717   2.087   6.300   3.945
 3940SOL     OW12718   2.276   6.143   6.712
 3940SOL    HW112719   2.235   6.195   6.637
 3940SOL    HW212720   2.272   6.197   6.796
 3941SOL     OW12721   5.674   5.346   2.693
 3941SOL    HW112722   5.710   5.253   2.703
 3941SOL    HW212723   5.574   5.343   2.692
 3942SOL     OW12724   6.819   6.250   6.432
 3942SOL    HW112725   6.807   6.252   6.531
 3942SOL    HW212726   6.745   6.301   6.388
 3943SOL     OW12727   1.282   4.218   0.424
 3943SOL    HW112728   1.271   4.167   0.338
 3943SOL    HW212729   1.247   4.311   0.412
 3944SOL     OW12730   4.755   3.312   6.829
 3944SOL    HW112731   4.788   3.376   6.898
 3944SOL    HW212732   4.696   3.360   6.764
 3945SOL     OW12733   6.862   0.615   3.044
 3945SOL    HW112734   6.774   0.661   3.057
 3945SOL    HW212735   6.876   0.549   3.118
 3946SOL     OW12736   6.072   1.886   1.272
 3946SOL    HW112737   6.119   1.812   1.319
 3946SOL    HW212738   6.050   1.959   1.337
 3947SOL     OW12739   5.565   6.744   2.187
 3947SOL    HW112740   5.654   6.705   2.163
 3947SOL    HW212741   5.578   6.822   2.248
 3948SOL     OW12742   2.121   1.178   5.002
 3948SOL    HW112743   2.114   1.086   5.041
 3948SOL    HW212744   2.201   1.183   4.942
 3949SOL     OW12745   6.462   6.932   2.605
 3949SOL    HW112746   6.370   6.961   2.579
 3949SOL    HW212747   6.529   6.996   2.566
 3950SOL     OW12748   2.572   4.832   1.024
 3950SOL    HW112749   2.511   4.903   1.057
 3950SOL    HW212750   2.649   4.873   0.975
 3951SOL     OW12751   6.808   2.619   3.512
 3951SOL    HW112752   6.869   2.550   3.551
 3951SOL    HW212753   6.816   2.618   3.412
 3952SOL     OW12754   6.011   4.428   6.957
 3952SOL    HW112755   6.067   4.347   6.974
 3952SOL    HW212756   6.029   4.497   0.010
 3953SOL     OW12757   3.688   3.465   5.716
 3953SOL    HW112758   3.734   3.401   5.777
 3953SOL    HW212759   3.695   3.433   5.622
 3954SOL     OW12760   1.252   3.652   5.287
 3954SOL    HW112761   1.179   3.589   5.315
 3954SOL    HW212762   1.337   3.627   5.334
 3955SOL     OW12763   5.909   3.449   0.223
 3955SOL    HW112764   5.817   3.414   0.241
 3955SOL    HW212765   5.975   3.400   0.279
 3956SOL     OW12766   6.703   2.336   4.975
 3956SOL    HW112767   6.758   2.356   5.056
 3956SOL    HW212768   6.635   2.408   4.961
 3957SOL     OW12769   1.390   2.564   2.043
 3957SOL    HW112770   1.334   2.630   1.992
 3957SOL    HW212771   1.417   2.490   1.981
 3958SOL     OW12772   5.451   5.732   1.238
 3958SOL    HW112773   5.461   5.709   1.335
 3958SOL    HW212774   5.498   5.662   1.183
 3959SOL     OW12775   2.666   5.018   1.870
 3959SOL    HW112776   2.704   4.928   1.848
 3959SOL    HW212777   2.642   5.066   1.785
 3960SOL     OW12778   6.116   2.297   0.795
 3960SOL    HW112779   6.104   2.394   0.773
 3960SOL    HW212780   6.046   2.243   0.748
 3961SOL     OW12781   6.906   1.245   1.037
 3961SOL    HW112782   6.905   1.151   1.071
 3961SOL    HW212783   6.990   1.260   0.984
 3962SOL     OW12784   6.859   0.154   6.282
 3962SOL    HW112785   6.889   0.126   6.190
 3962SOL    HW212786   6.938   0.186   6.334
 3963SOL     OW12787   5.361   3.874   4.445
 3963SOL    HW112788   5.262   3.888   4.454
 3963SOL    HW212789   5.398   3.842   4.532
 3964SOL     OW12790   6.090   4.899   0.487
 3964SOL    HW112791   6.017   4.830   0.483
 3964SOL    HW212792   6.093   4.939   0.578
 3965SOL     OW12793   2.728   4.159   1.408
 3965SOL    HW112794   2.725   4.258   1.401
 3965SOL    HW212795   2.776   4.133   1.492
 3966SOL     OW12796   6.973   3.244   5.718
 3966SOL    HW112797   6.941   3.338   5.709
 3966SOL    HW212798   6.911   3.193   5.776
 3967SOL     OW12799   2.618   6.328   0.231
 3967SOL    HW112800   2.588   6.397   0.166
 3967SOL    HW212801   2.567   6.243   0.215
 3968SOL     OW12802   4.317   2.405   0.637
 3968SOL    HW112803   4.370   2.341   0.693
 3968SOL    HW212804   4.303   2.490   0.688
 3969SOL     OW12805   6.293   6.607   0.751
 3969SOL    HW112806   6.301   6.516   0.793
 3969SOL    HW212807   6.367   6.620   0.685
 3970SOL     OW12808   5.838   4.431   4.276
 3970SOL    HW112809   5.843   4.531   4.273
 3970SOL    HW212810   5.924   4.395   4.312
 3971SOL     OW12811   0.590   5.897   4.269
 3971SOL    HW112812   0.576   5.936   4.178
 3971SOL    HW212813   0.528   5.941   4.334
 3972SOL     OW12814   1.003   0.331   5.945
 3972SOL    HW112815   1.087   0.281   5.925
 3972SOL    HW212816   1.016   0.388   6.026
 3973SOL     OW12817   4.007   3.040   2.373
 3973SOL    HW112818   4.071   2.963   2.367
 3973SOL    HW212819   3.915   3.007   2.352
 3974SOL     OW12820   4.908   0.964   6.606
 3974SOL    HW112821   4.942   1.037   6.547
 3974SOL    HW212822   4.858   1.004   6.683
 3975SOL     OW12823   0.440   6.539   4.469
 3975SOL    HW112824   0.415   6.632   4.495
 3975SOL    HW212825   0.378   6.506   4.397
 3976SOL     OW12826   1.025   2.869   5.639
 3976SOL    HW112827   1.076   2.921   5.571
 3976SOL    HW212828   1.072   2.783   5.657
 3977SOL     OW12829   3.058   4.896   5.657
 3977SOL    HW112830   3.045   4.822   5.723
 3977SOL    HW212831   3.056   4.984   5.704
 3978SOL     OW12832   5.032   2.995   6.581
 3978SOL    HW112833   5.083   3.051   6.647
 3978SOL    HW212834   5.055   3.023   6.488
 3979SOL     OW12835   1.260   5.972   3.282
 3979SOL    HW112836   1.355   5.975   3.313
 3979SOL    HW212837   1.243   5.887   3.233
 3980SOL     OW12838   5.103   3.910   4.365
 3980SOL    HW112839   5.083   3.833   4.425
 3980SOL    HW212840   5.054   3.899   4.278
 3981SOL     OW12841   0.109   1.139   6.459
 3981SOL    HW112842   0.024   1.105   6.420
 3981SOL    HW212843   0.144   1.215   6.403
 3982SOL     OW12844   2.118   3.420   4.279
 3982SOL    HW112845   2.162   3.400   4.367
 3982SOL    HW212846   2.141   3.514   4.252
 3983SOL     OW12847   2.865   0.329   3.458
 3983SOL    HW112848   2.883   0.355   3.553
 3983SOL    HW212849   2.846   0.410   3.403
 3984SOL     OW12850   1.336   5.523   2.248
 3984SOL    HW112851   1.409   5.531   2.316
 3984SOL    HW212852   1.360   5.452   2.182
 3985SOL     OW12853   1.631   2.843   1.474
 3985SOL    HW112854   1.623   2.817   1.378
 3985SOL    HW212855   1.609   2.941   1.484
 3986SOL     OW12856   6.697   2.399   2.809
 3986SOL    HW112857   6.762   2.431   2.878
 3986SOL    HW212858   6.745   2.346   2.739
 3987SOL     OW12859   0.810   4.269   5.211
 3987SOL    HW112860   0.721   4.307   5.238
 3987SOL    HW212861   0.864   4.340   5.166
 3988SOL     OW12862   5.022   6.918   1.932
 3988SOL    HW112863   5.036   6.921   2.031
 3988SOL    HW212864   5.078   6.989   1.889
 3989SOL     OW12865   4.441   1.259   5.784
 3989SOL    HW112866   4.536   1.230   5.795
 3989SOL    HW212867   4.413   1.246   5.689
 3990SOL     OW12868   6.080   0.613   4.060
 3990SOL    HW112869   6.063   0.676   4.136
 3990SOL    HW212870   6.037   0.648   3.977
 3991SOL     OW12871   6.478   2.117   3.420
 3991SOL    HW112872   6.494   2.198   3.476
 3991SOL    HW212873   6.385   2.083   3.436
 3992SOL     OW12874   5.504   3.687   5.997
 3992SOL    HW112875   5.436   3.745   5.954
 3992SOL    HW212876   5.594   3.729   5.989
 3993SOL     OW12877   1.621   0.659   4.010
 3993SOL    HW112878   1.539   0.616   4.047
 3993SOL    HW212879   1.603   0.756   3.993
 3994SOL     OW12880   2.802   1.830   3.723
 3994SOL    HW112881   2.839   1.767   3.654
 3994SOL    HW212882   2.868   1.840   3.797
 3995SOL     OW12883   1.425   3.222   2.013
 3995SOL    HW112884   1.362   3.300   2.008
 3995SOL    HW212885   1.478   3.227   2.097
 3996SOL     OW12886   6.695   6.311   5.024
 3996SOL    HW112887   6.609   6.272   5.059
 3996SOL    HW212888   6.762   6.315   5.098
 3997SOL     OW12889   5.770   3.841   4.583
 3997SOL    HW112890   5.784   3.875   4.676
 3997SOL    HW212891   5.858   3.827   4.539
 3998SOL     OW12892   4.821   1.960   4.152
 3998SOL    HW112893   4.793   2.001   4.066
 3998SOL    HW212894   4.913   1.990   4.176
 3999SOL     OW12895   5.139   2.719   0.737
 3999SOL    HW112896   5.154   2.669   0.823
 3999SOL    HW212897   5.130   2.654   0.662
 4000SOL     OW12898   2.131   4.916   2.935
 4000SOL    HW112899   2.191   4.900   2.856
 4000SOL    HW212900   2.125   5.014   2.953
 4001SOL     OW12901   0.632   5.946   4.624
 4001SOL    HW112902   0.723   5.935   4.584
 4001SOL    HW212903   0.641   5.975   4.720
 4002SOL     OW12904   3.726   3.436   4.612
 4002SOL    HW112905   3.774   3.473   4.691
 4002SOL    HW212906   3.681   3.350   4.636
 4003SOL     OW12907   2.617   1.025   4.744
 4003SOL    HW112908   2.592   0.932   4.768
 4003SOL    HW212909   2.653   1.072   4.824
 4004SOL     OW12910   1.848   4.052   4.907
 4004SOL    HW112911   1.771   4.092   4.859
 4004SOL    HW212912   1.864   4.102   4.993
 4005SOL     OW12913   5.294   2.984   0.698
 4005SOL    HW112914   5.282   2.886   0.683
 4005SOL    HW212915   5.218   3.019   0.753
 4006SOL     OW12916   6.831   5.705   2.040
 4006SOL    HW112917   6.928   5.718   2.061
 4006SOL    HW212918   6.817   5.613   2.004
 4007SOL     OW12919   0.671   1.415   1.915
 4007SOL    HW112920   0.587   1.454   1.954
 4007SOL    HW212921   0.722   1.367   1.987
 4008SOL     OW12922   3.947   0.830   1.453
 4008SOL    HW112923   3.990   0.740   1.451
 4008SOL    HW212924   3.855   0.823   1.491
 4009SOL     OW12925   3.779   2.242   1.251
 4009SOL    HW112926   3.875   2.254   1.275
 4009SOL    HW212927   3.753   2.147   1.264
 4010SOL     OW12928   1.957   4.679   1.055
 4010SOL    HW112929   1.857   4.684   1.062
 4010SOL    HW212930   1.995   4.771   1.045
 4011SOL     OW12931   6.357   6.867   5.880
 4011SOL    HW112932   6.360   6.786   5.820
 4011SOL    HW212933   6.280   6.859   5.943
 4012SOL     OW12934   5.516   5.527   2.057
 4012SOL    HW112935   5.564   5.442   2.035
 4012SOL    HW212936   5.544   5.559   2.148
 4013SOL     OW12937   0.284   1.705   0.137
 4013SOL    HW112938   0.286   1.718   0.236
 4013SOL    HW212939   0.317   1.788   0.092
 4014SOL     OW12940   3.412   5.892   2.833
 4014SOL    HW112941   3.386   5.887   2.736
 4014SOL    HW212942   3.335   5.861   2.889
 4015SOL     OW12943   4.122   5.900   5.246
 4015SOL    HW112944   4.105   5.852   5.332
 4015SOL    HW212945   4.125   5.999   5.263
 4016SOL     OW12946   5.099   5.404   4.355
 4016SOL    HW112947   5.146   5.443   4.435
 4016SOL    HW212948   5.168   5.371   4.290
 4017SOL     OW12949   2.191   5.543   6.069
 4017SOL    HW112950   2.100   5.582   6.086
 4017SOL    HW212951   2.191   5.447   6.096
 4018SOL     OW12952   4.274   5.525   1.142
 4018SOL    HW112953   4.346   5.580   1.183
 4018SOL    HW212954   4.309   5.434   1.121
 4019SOL     OW12955   7.000   2.840   2.298
 4019SOL    HW112956   6.983   2.806   2.390
 4019SOL    HW212957   7.015   2.939   2.301
 4020SOL     OW12958   6.889   5.824   4.449
 4020SOL    HW112959   6.851   5.883   4.520
 4020SOL    HW212960   6.816   5.791   4.390
 4021SOL     OW12961   4.699   5.263   6.070
 4021SOL    HW112962   4.783   5.317   6.078
 4021SOL    HW212963   4.705   5.183   6.129
 4022SOL     OW12964   3.553   0.137   1.339
 4022SOL    HW112965   3.567   0.106   1.245
 4022SOL    HW212966   3.639   0.176   1.374
 4023SOL     OW12967   0.461   2.043   4.193
 4023SOL    HW112968   0.368   2.031   4.159
 4023SOL    HW212969   0.492   1.959   4.238
 4024SOL     OW12970   0.265   6.309   6.262
 4024SOL    HW112971   0.284   6.378   6.332
 4024SOL    HW212972   0.348   6.257   6.242
 4025SOL     OW12973   6.766   4.972   3.939
 4025SOL    HW112974   6.670   4.945   3.934
 4025SOL    HW212975   6.802   4.947   4.029
 4026SOL     OW12976   0.588   0.017   3.946
 4026SOL    HW112977   0.678   0.059   3.941
 4026SOL    HW212978   0.597   6.936   3.960
 4027SOL     OW12979   3.162   5.266   5.455
 4027SOL    HW112980   3.161   5.365   5.441
 4027SOL    HW212981   3.094   5.223   5.395
 4028SOL     OW12982   5.544   1.635   4.528
 4028SOL    HW112983   5.561   1.584   4.612
 4028SOL    HW212984   5.445   1.652   4.519
 4029SOL     OW12985   1.061   6.758   0.711
 4029SOL    HW112986   1.071   6.827   0.782
 4029SOL    HW212987   0.992   6.788   0.645
 4030SOL     OW12988   0.455   1.965   1.890
 4030SOL    HW112989   0.543   1.917   1.883
 4030SOL    HW212990   0.458   2.029   1.967
 4031SOL     OW12991   5.871   5.794   0.493
 4031SOL    HW112992   5.809   5.716   0.500
 4031SOL    HW212993   5.830   5.874   0.536
 4032SOL     OW12994   5.141   1.590   2.908
 4032SOL    HW112995   5.228   1.542   2.918
 4032SOL    HW212996   5.131   1.621   2.813
 4033SOL     OW12997   1.748   3.334   2.902
 4033SOL    HW112998   1.655   3.313   2.870
 4033SOL    HW212999   1.778   3.421   2.864
 4034SOL     OW13000   1.483   2.503   4.418
 4034SOL    HW113001   1.412   2.465   4.359
 4034SOL    HW213002   1.464   2.600   4.435
 4035SOL     OW13003   4.305   2.323   1.629
 4035SOL    HW113004   4.282   2.263   1.706
 4035SOL    HW213005   4.242   2.401   1.628
 4036SOL     OW13006   3.934   6.182   3.224
 4036SOL    HW113007   3.918   6.160   3.321
 4036SOL    HW213008   3.998   6.259   3.217
 4037SOL     OW13009   2.030   2.381   6.617
 4037SOL    HW113010   2.088   2.410   6.541
 4037SOL    HW213011   1.945   2.433   6.615
 4038SOL     OW13012   3.169   4.963   6.065
 4038SOL    HW113013   3.242   4.905   6.100
 4038SOL    HW213014   3.190   5.059   6.083
 4039SOL     OW13015   6.006   4.501   1.741
 4039SOL    HW113016   6.039   4.529   1.650
 4039SOL    HW213017   6.082   4.461   1.793
 4040SOL     OW13018   3.620   0.573   5.328
 4040SOL    HW113019   3.684   0.497   5.330
 4040SOL    HW213020   3.613   0.608   5.234
 4041SOL     OW13021   1.307   5.620   1.799
 4041SOL    HW113022   1.373   5.676   1.849
 4041SOL    HW213023   1.277   5.544   1.857
 4042SOL     OW13024   6.887   1.889   3.182
 4042SOL    HW113025   6.830   1.924   3.256
 4042SOL    HW213026   6.983   1.914   3.199
 4043SOL     OW13027   4.535   2.172   6.045
 4043SOL    HW113028   4.549   2.227   6.127
 4043SOL    HW213029   4.470   2.218   5.985
 4044SOL     OW13030   4.454   4.440   3.313
 4044SOL    HW113031   4.474   4.444   3.215
 4044SOL    HW213032   4.512   4.372   3.357
 4045SOL     OW13033   4.633   1.411   5.246
 4045SOL    HW113034   4.717   1.358   5.251
 4045SOL    HW213035   4.644   1.486   5.181
 4046SOL     OW13036   5.192   1.541   4.199
 4046SOL    HW113037   5.271   1.535   4.260
 4046SOL    HW213038   5.127   1.468   4.221
 4047SOL     OW13039   3.567   2.482   6.544
 4047SOL    HW113040   3.666   2.465   6.540
 4047SOL    HW213041   3.528   2.471   6.453
 4048SOL     OW13042   4.919   2.183   3.423
 4048SOL    HW113043   4.943   2.103   3.367
 4048SOL    HW213044   4.874   2.152   3.507
 4049SOL     OW13045   4.373   3.877   1.355
 4049SOL    HW113046   4.358   3.787   1.395
 4049SOL    HW213047   4.429   3.932   1.416
 4050SOL     OW13048   6.798   4.796   2.573
 4050SOL    HW113049   6.859   4.745   2.512
 4050SOL    HW213050   6.851   4.868   2.619
 4051SOL     OW13051   5.352   0.417   4.992
 4051SOL    HW113052   5.253   0.424   4.978
 4051SOL    HW213053   5.375   0.446   5.085
 4052SOL     OW13054   4.915   1.416   4.298
 4052SOL    HW113055   4.899   1.395   4.394
 4052SOL    HW213056   4.923   1.515   4.286
 4053SOL     OW13057   0.863   5.049   3.797
 4053SOL    HW113058   0.955   5.042   3.836
 4053SOL    HW213059   0.795   5.050   3.870
 4054SOL     OW13060   4.568   3.560   1.392
 4054SOL    HW113061   4.615   3.625   1.332
 4054SOL    HW213062   4.469   3.572   1.382
 4055SOL     OW13063   6.991   4.506   0.083
 4055SOL    HW113064   6.994   4.441   0.160
 4055SOL    HW213065   0.019   4.591   0.110
 4056SOL     OW13066   5.009   3.135   6.896
 4056SOL    HW113067   5.053   3.201   6.835
 4056SOL    HW213068   4.910   3.146   6.890
 4057SOL     OW13069   0.082   3.689   6.829
 4057SOL    HW113070   0.054   3.645   6.744
 4057SOL    HW213071   0.143   3.766   6.808
 4058SOL     OW13072   3.280   0.130   4.402
 4058SOL    HW113073   3.321   0.146   4.312
 4058SOL    HW213074   3.244   0.216   4.437
 4059SOL     OW13075   0.686   1.474   3.949
 4059SOL    HW113076   0.654   1.552   4.003
 4059SOL    HW213077   0.608   1.419   3.920
 4060SOL     OW13078   0.241   6.239   4.465
 4060SOL    HW113079   0.208   6.308   4.400
 4060SOL    HW213080   0.292   6.285   4.538
 4061SOL     OW13081   0.447   4.734   2.030
 4061SOL    HW113082   0.377   4.718   2.099
 4061SOL    HW213083   0.404   4.749   1.941
 4062SOL     OW13084   1.802   3.654   0.363
 4062SOL    HW113085   1.756   3.722   0.420
 4062SOL    HW213086   1.853   3.699   0.290
 4063SOL     OW13087   3.892   0.580   0.953
 4063SOL    HW113088   3.899   0.484   0.927
 4063SOL    HW213089   3.959   0.601   1.024
 4064SOL     OW13090   1.995   1.110   5.964
 4064SOL    HW113091   1.951   1.049   6.030
 4064SOL    HW213092   1.925   1.148   5.903
 4065SOL     OW13093   2.475   1.292   1.656
 4065SOL    HW113094   2.469   1.380   1.609
 4065SOL    HW213095   2.476   1.306   1.755
 4066SOL     OW13096   0.486   4.051   4.052
 4066SOL    HW113097   0.567   4.076   3.998
 4066SOL    HW213098   0.420   4.126   4.048
 4067SOL     OW13099   6.481   4.860   0.785
 4067SOL    HW113100   6.575   4.826   0.787
 4067SOL    HW213101   6.469   4.919   0.705
 4068SOL     OW13102   2.444   2.677   4.910
 4068SOL    HW113103   2.360   2.668   4.857
 4068SOL    HW213104   2.475   2.772   4.907
 4069SOL     OW13105   4.930   6.458   5.904
 4069SOL    HW113106   5.020   6.451   5.860
 4069SOL    HW213107   4.911   6.554   5.925
 4070SOL     OW13108   1.539   3.503   4.148
 4070SOL    HW113109   1.524   3.563   4.069
 4070SOL    HW213110   1.627   3.525   4.191
 4071SOL     OW13111   1.801   1.096   4.804
 4071SOL    HW113112   1.705   1.102   4.832
 4071SOL    HW213113   1.848   1.181   4.828
 4072SOL     OW13114   3.099   6.295   2.344
 4072SOL    HW113115   3.057   6.316   2.256
 4072SOL    HW213116   3.055   6.215   2.385
 4073SOL     OW13117   3.802   5.016   0.067
 4073SOL    HW113118   3.711   5.023   0.028
 4073SOL    HW213119   3.870   5.009   7.011
 4074SOL     OW13120   1.558   5.256   2.489
 4074SOL    HW113121   1.618   5.259   2.569
 4074SOL    HW213122   1.465   5.282   2.515
 4075SOL     OW13123   6.107   1.247   0.099
 4075SOL    HW113124   6.108   1.342   0.068
 4075SOL    HW213125   6.197   1.206   0.086
 4076SOL     OW13126   2.332   5.649   3.756
 4076SOL    HW113127   2.281   5.735   3.763
 4076SOL    HW213128   2.385   5.636   3.840
 4077SOL     OW13129   3.214   1.203   1.669
 4077SOL    HW113130   3.121   1.217   1.704
 4077SOL    HW213131   3.261   1.135   1.726
 4078SOL     OW13132   3.730   4.884   2.200
 4078SOL    HW113133   3.658   4.877   2.269
 4078SOL    HW213134   3.698   4.841   2.115
 4079SOL     OW13135   0.051   2.151   3.879
 4079SOL    HW113136   0.105   2.211   3.821
 4079SOL    HW213137   0.007   2.081   3.823
 4080SOL     OW13138   6.933   2.054   5.206
 4080SOL    HW113139   6.902   2.109   5.129
 4080SOL    HW213140   6.897   1.961   5.197
 4081SOL     OW13141   1.082   3.697   3.311
 4081SOL    HW113142   1.106   3.782   3.263
 4081SOL    HW213143   1.157   3.672   3.373
 4082SOL     OW13144   0.741   3.497   6.789
 4082SOL    HW113145   0.824   3.447   6.766
 4082SOL    HW213146   0.671   3.434   6.821
 4083SOL     OW13147   6.720   2.691   5.402
 4083SOL    HW113148   6.746   2.741   5.320
 4083SOL    HW213149   6.633   2.644   5.387
 4084SOL     OW13150   6.311   1.184   4.259
 4084SOL    HW113151   6.213   1.168   4.257
 4084SOL    HW213152   6.343   1.185   4.354
 4085SOL     OW13153   2.735   5.873   0.478
 4085SOL    HW113154   2.826   5.833   0.487
 4085SOL    HW213155   2.744   5.970   0.456
 4086SOL     OW13156   1.526   4.065   1.319
 4086SOL    HW113157   1.602   4.001   1.313
 4086SOL    HW213158   1.515   4.113   1.232
 4087SOL     OW13159   2.416   1.823   2.500
 4087SOL    HW113160   2.415   1.889   2.575
 4087SOL    HW213161   2.349   1.750   2.519
 4088SOL     OW13162   6.731   1.720   0.307
 4088SOL    HW113163   6.685   1.660   0.373
 4088SOL    HW213164   6.780   1.664   0.240
 4089SOL     OW13165   1.179   1.586   5.308
 4089SOL    HW113166   1.191   1.662   5.373
 4089SOL    HW213167   1.253   1.588   5.241
 4090SOL     OW13168   2.912   4.604   6.245
 4090SOL    HW113169   2.814   4.586   6.246
 4090SOL    HW213170   2.936   4.649   6.159
 4091SOL     OW13171   4.155   0.217   1.210
 4091SOL    HW113172   4.244   0.247   1.245
 4091SOL    HW213173   4.163   0.195   1.113
 4092SOL     OW13174   6.788   1.647   4.108
 4092SOL    HW113175   6.856   1.593   4.058
 4092SOL    HW213176   6.790   1.741   4.076
 4093SOL     OW13177   5.656   6.669   4.483
 4093SOL    HW113178   5.585   6.683   4.414
 4093SOL    HW213179   5.739   6.717   4.456
 4094SOL     OW13180   3.399   4.452   5.322
 4094SOL    HW113181   3.347   4.412   5.398
 4094SOL    HW213182   3.396   4.552   5.330
 4095SOL     OW13183   1.767   3.444   5.821
 4095SOL    HW113184   1.720   3.524   5.785
 4095SOL    HW213185   1.866   3.456   5.813
 4096SOL     OW13186   4.566   4.663   2.132
 4096SOL    HW113187   4.528   4.644   2.042
 4096SOL    HW213188   4.654   4.709   2.122
 4097SOL     OW13189   3.924   3.930   3.712
 4097SOL    HW113190   3.998   3.863   3.705
 4097SOL    HW213191   3.964   4.022   3.719
 4098SOL     OW13192   0.677   3.501   2.204
 4098SOL    HW113193   0.687   3.409   2.243
 4098SOL    HW213194   0.661   3.494   2.106
 4099SOL     OW13195   2.411   6.025   2.027
 4099SOL    HW113196   2.445   5.981   2.110
 4099SOL    HW213197   2.400   6.123   2.044
 4100SOL     OW13198   3.645   6.469   3.116
 4100SOL    HW113199   3.596   6.472   3.028
 4100SOL    HW213200   3.603   6.400   3.175
 4101SOL     OW13201   4.455   1.315   0.376
 4101SOL    HW113202   4.548   1.347   0.396
 4101SOL    HW213203   4.430   1.343   0.284
 4102SOL     OW13204   5.327   1.428   0.515
 4102SOL    HW113205   5.367   1.337   0.502
 4102SOL    HW213206   5.350   1.462   0.606
 4103SOL     OW13207   0.424   0.121   2.392
 4103SOL    HW113208   0.414   0.022   2.379
 4103SOL    HW213209   0.504   0.154   2.340
 4104SOL     OW13210   1.943   5.126   2.716
 4104SOL    HW113211   2.032   5.125   2.670
 4104SOL    HW213212   1.888   5.049   2.684
 4105SOL     OW13213   6.149   5.048   0.239
 4105SOL    HW113214   6.236   5.031   0.192
 4105SOL    HW213215   6.132   4.975   0.305
 4106SOL     OW13216   0.059   3.526   4.608
 4106SOL    HW113217   0.023   3.619   4.614
 4106SOL    HW213218   0.004   3.465   4.665
 4107SOL     OW13219   6.646   0.482   0.394
 4107SOL    HW113220   6.737   0.443   0.378
 4107SOL    HW213221   6.579   0.408   0.399
 4108SOL     OW13222   6.480   2.618   4.993
 4108SOL    HW113223   6.439   2.681   5.059
 4108SOL    HW213224   6.418   2.541   4.977
 4109SOL     OW13225   3.011   6.361   3.747
 4109SOL    HW113226   2.966   6.360   3.837
 4109SOL    HW213227   2.973   6.435   3.692
 4110SOL     OW13228   4.665   3.187   5.818
 4110SOL    HW113229   4.592   3.135   5.774
 4110SOL    HW213230   4.632   3.227   5.903
 4111SOL     OW13231   3.835   3.194   6.309
 4111SOL    HW113232   3.896   3.272   6.318
 4111SOL    HW213233   3.885   3.115   6.273
 4112SOL     OW13234   4.186   0.383   5.041
 4112SOL    HW113235   4.219   0.289   5.041
 4112SOL    HW213236   4.088   0.384   5.022
 4113SOL     OW13237   3.855   5.109   5.093
 4113SOL    HW113238   3.773   5.159   5.122
 4113SOL    HW213239   3.831   5.047   5.019
 4114SOL     OW13240   3.793   2.119   2.519
 4114SOL    HW113241   3.766   2.099   2.425
 4114SOL    HW213242   3.787   2.217   2.536
 4115SOL     OW13243   5.518   4.889   2.200
 4115SOL    HW113244   5.517   4.791   2.179
 4115SOL    HW213245   5.455   4.908   2.275
 4116SOL     OW13246   3.362   0.948   2.219
 4116SOL    HW113247   3.289   0.885   2.193
 4116SOL    HW213248   3.440   0.936   2.158
 4117SOL     OW13249   0.516   5.679   1.661
 4117SOL    HW113250   0.603   5.701   1.617
 4117SOL    HW213251   0.532   5.617   1.738
 4118SOL     OW13252   2.522   6.829   0.403
 4118SOL    HW113253   2.437   6.797   0.362
 4118SOL    HW213254   2.562   6.756   0.459
 4119SOL     OW13255   4.869   1.246   3.233
 4119SOL    HW113256   4.909   1.215   3.319
 4119SOL    HW213257   4.813   1.327   3.249
 4120SOL     OW13258   4.819   1.121   2.300
 4120SOL    HW113259   4.879   1.144   2.377
 4120SOL    HW213260   4.815   1.022   2.289
 4121SOL     OW13261   6.900   2.140   4.942
 4121SOL    HW113262   6.968   2.125   4.870
 4121SOL    HW213263   6.845   2.221   4.920
 4122SOL     OW13264   1.836   5.607   0.312
 4122SOL    HW113265   1.765   5.548   0.274
 4122SOL    HW213266   1.897   5.553   0.370
 4123SOL     OW13267   4.131   4.196   5.969
 4123SOL    HW113268   4.215   4.250   5.968
 4123SOL    HW213269   4.066   4.234   5.903
 4124SOL     OW13270   4.199   6.345   3.412
 4124SOL    HW113271   4.164   6.327   3.504
 4124SOL    HW213272   4.292   6.381   3.418
 4125SOL     OW13273   5.399   1.123   1.466
 4125SOL    HW113274   5.334   1.175   1.410
 4125SOL    HW213275   5.476   1.181   1.491
 4126SOL     OW13276   2.368   5.356   4.290
 4126SOL    HW113277   2.435   5.333   4.220
 4126SOL    HW213278   2.316   5.274   4.315
 4127SOL     OW13279   6.301   4.094   4.962
 4127SOL    HW113280   6.330   4.154   4.887
 4127SOL    HW213281   6.206   4.113   4.985
 4128SOL     OW13282   0.913   2.117   1.792
 4128SOL    HW113283   0.899   2.211   1.822
 4128SOL    HW213284   0.953   2.116   1.700
 4129SOL     OW13285   6.216   2.469   6.236
 4129SOL    HW113286   6.181   2.383   6.199
 4129SOL    HW213287   6.139   2.527   6.263
 4130SOL     OW13288   6.738   2.992   1.090
 4130SOL    HW113289   6.765   3.087   1.078
 4130SOL    HW213290   6.793   2.951   1.163
 4131SOL     OW13291   0.097   3.946   3.342
 4131SOL    HW113292   0.047   3.895   3.412
 4131SOL    HW213293   0.048   4.031   3.321
 4132SOL     OW13294   4.937   2.235   4.943
 4132SOL    HW113295   4.837   2.234   4.937
 4132SOL    HW213296   4.975   2.274   4.859
 4133SOL     OW13297   2.094   2.384   0.858
 4133SOL    HW113298   2.072   2.426   0.947
 4133SOL    HW213299   2.174   2.429   0.819
 4134SOL     OW13300   1.871   1.694   0.297
 4134SOL    HW113301   1.939   1.622   0.310
 4134SOL    HW213302   1.779   1.657   0.315
 4135SOL     OW13303   1.863   0.750   0.901
 4135SOL    HW113304   1.792   0.741   0.972
 4135SOL    HW213305   1.847   0.682   0.829
 4136SOL     OW13306   0.919   1.695   3.173
 4136SOL    HW113307   0.886   1.727   3.261
 4136SOL    HW213308   0.885   1.603   3.156
 4137SOL     OW13309   3.752   3.732   5.651
 4137SOL    HW113310   3.737   3.635   5.634
 4137SOL    HW213311   3.672   3.784   5.622
 4138SOL     OW13312   4.352   5.707   2.467
 4138SOL    HW113313   4.320   5.725   2.374
 4138SOL    HW213314   4.407   5.785   2.499
 4139SOL     OW13315   2.518   0.726   0.440
 4139SOL    HW113316   2.589   0.764   0.380
 4139SOL    HW213317   2.559   0.662   0.505
 4140SOL     OW13318   4.104   1.809   5.547
 4140SOL    HW113319   4.169   1.884   5.559
 4140SOL    HW213320   4.126   1.759   5.463
 4141SOL     OW13321   5.154   4.945   0.418
 4141SOL    HW113322   5.111   4.923   0.506
 4141SOL    HW213323   5.170   5.043   0.413
 4142SOL     OW13324   6.216   2.512   1.333
 4142SOL    HW113325   6.228   2.501   1.432
 4142SOL    HW213326   6.246   2.603   1.305
 4143SOL     OW13327   0.687   2.757   1.894
 4143SOL    HW113328   0.771   2.704   1.891
 4143SOL    HW213329   0.616   2.710   1.842
 4144SOL     OW13330   4.572   0.732   1.891
 4144SOL    HW113331   4.480   0.742   1.853
 4144SOL    HW213332   4.569   0.671   1.970
 4145SOL     OW13333   3.280   7.006   3.080
 4145SOL    HW113334   3.330   6.982   3.163
 4145SOL    HW213335   3.183   7.012   3.100
 4146SOL     OW13336   4.674   5.249   0.830
 4146SOL    HW113337   4.744   5.190   0.791
 4146SOL    HW213338   4.692   5.344   0.803
 4147SOL     OW13339   2.579   2.211   6.166
 4147SOL    HW113340   2.647   2.171   6.227
 4147SOL    HW213341   2.509   2.143   6.144
 4148SOL     OW13342   6.607   0.121   2.897
 4148SOL    HW113343   6.595   0.029   2.935
 4148SOL    HW213344   6.683   0.167   2.944
 4149SOL     OW13345   5.106   4.068   1.830
 4149SOL    HW113346   5.098   3.969   1.818
 4149SOL    HW213347   5.015   4.107   1.847
 4150SOL     OW13348   4.818   0.457   6.069
 4150SOL    HW113349   4.789   0.365   6.045
 4150SOL    HW213350   4.738   0.518   6.073
 4151SOL     OW13351   0.047   5.399   0.445
 4151SOL    HW113352   0.107   5.332   0.402
 4151SOL    HW213353   0.050   5.388   0.545
 4152SOL     OW13354   3.403   4.036   1.305
 4152SOL    HW113355   3.304   4.044   1.315
 4152SOL    HW213356   3.448   4.097   1.371
 4153SOL     OW13357   6.022   5.755   5.985
 4153SOL    HW113358   6.085   5.833   5.984
 4153SOL    HW213359   6.066   5.677   5.941
 4154SOL     OW13360   4.337   2.521   5.694
 4154SOL    HW113361   4.418   2.529   5.636
 4154SOL    HW213362   4.255   2.537   5.638
 4155SOL     OW13363   1.470   3.539   0.592
 4155SOL    HW113364   1.487   3.493   0.505
 4155SOL    HW213365   1.557   3.552   0.641
 4156SOL     OW13366   5.954   0.128   5.294
 4156SOL    HW113367   6.025   0.189   5.258
 4156SOL    HW213368   5.973   0.034   5.266
 4157SOL     OW13369   3.522   0.610   3.977
 4157SOL    HW113370   3.436   0.656   3.955
 4157SOL    HW213371   3.596   0.678   3.980
 4158SOL     OW13372   1.136   0.472   3.521
 4158SOL    HW113373   1.048   0.492   3.478
 4158SOL    HW213374   1.208   0.470   3.451
 4159SOL     OW13375   0.692   3.534   5.146
 4159SOL    HW113376   0.693   3.506   5.243
 4159SOL    HW213377   0.781   3.516   5.106
 4160SOL     OW13378   1.095   0.690   1.128
 4160SOL    HW113379   1.176   0.722   1.079
 4160SOL    HW213380   1.075   0.752   1.204
 4161SOL     OW13381   6.433   1.995   0.760
 4161SOL    HW113382   6.424   2.092   0.780
 4161SOL    HW213383   6.343   1.955   0.745
 4162SOL     OW13384   0.473   6.529   4.907
 4162SOL    HW113385   0.415   6.483   4.975
 4162SOL    HW213386   0.545   6.580   4.955
 4163SOL     OW13387   6.373   1.176   5.252
 4163SOL    HW113388   6.416   1.190   5.162
 4163SOL    HW213389   6.276   1.154   5.240
 4164SOL     OW13390   2.843   6.658   6.144
 4164SOL    HW113391   2.855   6.758   6.142
 4164SOL    HW213392   2.748   6.636   6.162
 4165SOL     OW13393   2.490   6.066   2.412
 4165SOL    HW113394   2.427   5.989   2.411
 4165SOL    HW213395   2.576   6.039   2.454
 4166SOL     OW13396   6.325   2.100   1.673
 4166SOL    HW113397   6.376   2.024   1.633
 4166SOL    HW213398   6.380   2.143   1.744
 4167SOL     OW13399   2.000   3.212   1.186
 4167SOL    HW113400   1.952   3.130   1.217
 4167SOL    HW213401   2.025   3.268   1.265
 4168SOL     OW13402   1.734   4.907   1.450
 4168SOL    HW113403   1.832   4.899   1.432
 4168SOL    HW213404   1.707   4.840   1.520
 4169SOL     OW13405   6.139   3.549   5.283
 4169SOL    HW113406   6.134   3.476   5.216
 4169SOL    HW213407   6.187   3.517   5.365
 4170SOL     OW13408   4.011   1.301   5.014
 4170SOL    HW113409   3.964   1.364   5.076
 4170SOL    HW213410   4.062   1.234   5.067
 4171SOL     OW13411   5.706   3.297   1.292
 4171SOL    HW113412   5.766   3.220   1.269
 4171SOL    HW213413   5.667   3.334   1.207
 4172SOL     OW13414   2.311   1.084   0.299
 4172SOL    HW113415   2.402   1.125   0.304
 4172SOL    HW213416   2.246   1.152   0.267
 4173SOL     OW13417   4.948   3.173   6.119
 4173SOL    HW113418   4.959   3.077   6.095
 4173SOL    HW213419   4.932   3.226   6.035
 4174SOL     OW13420   5.313   0.744   4.345
 4174SOL    HW113421   5.321   0.820   4.280
 4174SOL    HW213422   5.240   0.763   4.411
 4175SOL     OW13423   2.998   1.487   2.977
 4175SOL    HW113424   2.975   1.416   3.044
 4175SOL    HW213425   3.001   1.576   3.023
 4176SOL     OW13426   5.690   4.690   2.436
 4176SOL    HW113427   5.691   4.666   2.533
 4176SOL    HW213428   5.679   4.789   2.427
 4177SOL     OW13429   6.435   4.942   3.458
 4177SOL    HW113430   6.470   5.033   3.432
 4177SOL    HW213431   6.460   4.923   3.552
 4178SOL     OW13432   3.650   2.938   5.403
 4178SOL    HW113433   3.584   3.004   5.437
 4178SOL    HW213434   3.645   2.854   5.458
 4179SOL     OW13435   6.525   2.581   6.901
 4179SOL    HW113436   6.495   2.560   6.808
 4179SOL    HW213437   6.456   2.636   6.947
 4180SOL     OW13438   4.622   3.517   1.675
 4180SOL    HW113439   4.590   3.612   1.674
 4180SOL    HW213440   4.550   3.458   1.712
 4181SOL     OW13441   6.602   0.728   0.244
 4181SOL    HW113442   6.637   0.651   0.296
 4181SOL    HW213443   6.510   0.706   0.210
 4182SOL     OW13444   5.384   0.815   3.957
 4182SOL    HW113445   5.349   0.858   4.040
 4182SOL    HW213446   5.310   0.805   3.891
 4183SOL     OW13447   2.199   1.158   1.625
 4183SOL    HW113448   2.296   1.181   1.612
 4183SOL    HW213449   2.145   1.196   1.551
 4184SOL     OW13450   4.378   5.019   6.983
 4184SOL    HW113451   4.323   5.101   7.001
 4184SOL    HW213452   4.466   5.027   0.011
 4185SOL     OW13453   6.974   0.116   3.764
 4185SOL    HW113454   0.045   0.163   3.763
 4185SOL    HW213455   6.986   0.022   3.794
 4186SOL     OW13456   3.738   4.261   1.676
 4186SOL    HW113457   3.652   4.281   1.629
 4186SOL    HW213458   3.730   4.173   1.723
 4187SOL     OW13459   4.111   5.145   6.663
 4187SOL    HW113460   4.074   5.212   6.599
 4187SOL    HW213461   4.139   5.191   6.747
 4188SOL     OW13462   5.216   5.953   4.254
 4188SOL    HW113463   5.263   5.959   4.167
 4188SOL    HW213464   5.175   6.042   4.275
 4189SOL     OW13465   1.618   3.731   3.442
 4189SOL    HW113466   1.651   3.680   3.363
 4189SOL    HW213467   1.687   3.797   3.470
 4190SOL     OW13468   2.523   0.396   1.261
 4190SOL    HW113469   2.453   0.445   1.208
 4190SOL    HW213470   2.592   0.462   1.292
 4191SOL     OW13471   0.615   2.341   2.507
 4191SOL    HW113472   0.638   2.377   2.597
 4191SOL    HW213473   0.623   2.242   2.506
 4192SOL     OW13474   5.465   0.331   3.272
 4192SOL    HW113475   5.449   0.242   3.315
 4192SOL    HW213476   5.559   0.361   3.291
 4193SOL     OW13477   1.955   6.569   2.609
 4193SOL    HW113478   2.006   6.613   2.535
 4193SOL    HW213479   1.988   6.475   2.620
 4194SOL     OW13480   5.838   0.493   3.622
 4194SOL    HW113481   5.890   0.483   3.706
 4194SOL    HW213482   5.836   0.590   3.595
 4195SOL     OW13483   5.244   1.071   3.588
 4195SOL    HW113484   5.265   1.169   3.594
 4195SOL    HW213485   5.197   1.041   3.671
 4196SOL     OW13486   4.538   2.596   3.731
 4196SOL    HW113487   4.599   2.538   3.678
 4196SOL    HW213488   4.470   2.540   3.777
 4197SOL     OW13489   5.121   3.963   5.048
 4197SOL    HW113490   5.054   3.903   5.091
 4197SOL    HW213491   5.161   3.917   4.969
 4198SOL     OW13492   6.058   3.768   6.006
 4198SOL    HW113493   6.040   3.747   6.102
 4198SOL    HW213494   6.109   3.692   5.964
 4199SOL     OW13495   3.222   3.834   5.530
 4199SOL    HW113496   3.251   3.746   5.494
 4199SOL    HW213497   3.181   3.822   5.620
 4200SOL     OW13498   2.756   0.430   6.670
 4200SOL    HW113499   2.672   0.480   6.648
 4200SOL    HW213500   2.794   0.466   6.755
 4201SOL     OW13501   5.905   6.860   4.702
 4201SOL    HW113502   5.892   6.880   4.799
 4201SOL    HW213503   5.945   6.940   4.657
 4202SOL     OW13504   5.339   3.560   5.445
 4202SOL    HW113505   5.297   3.509   5.370
 4202SOL    HW213506   5.430   3.590   5.419
 4203SOL     OW13507   4.338   5.168   4.226
 4203SOL    HW113508   4.241   5.182   4.247
 4203SOL    HW213509   4.392   5.181   4.309
 4204SOL     OW13510   1.766   4.020   0.686
 4204SOL    HW113511   1.818   4.100   0.657
 4204SOL    HW213512   1.701   4.047   0.758
 4205SOL     OW13513   2.600   5.955   3.212
 4205SOL    HW113514   2.627   6.019   3.140
 4205SOL    HW213515   2.682   5.910   3.249
 4206SOL     OW13516   5.052   6.196   4.250
 4206SOL    HW113517   4.985   6.139   4.296
 4206SOL    HW213518   5.006   6.256   4.184
 4207SOL     OW13519   0.820   0.050   0.156
 4207SOL    HW113520   0.804   6.978   0.112
 4207SOL    HW213521   0.733   0.086   0.189
 4208SOL     OW13522   0.923   2.893   0.729
 4208SOL    HW113523   0.835   2.888   0.778
 4208SOL    HW213524   0.906   2.908   0.632
 4209SOL     OW13525   3.339   0.500   5.355
 4209SOL    HW113526   3.290   0.587   5.355
 4209SOL    HW213527   3.433   0.515   5.324
 4210SOL     OW13528   4.128   2.768   0.523
 4210SOL    HW113529   4.160   2.723   0.439
 4210SOL    HW213530   4.141   2.867   0.514
 4211SOL     OW13531   5.487   3.539   4.810
 4211SOL    HW113532   5.421   3.601   4.852
 4211SOL    HW213533   5.447   3.500   4.727
 4212SOL     OW13534   6.284   6.529   2.408
 4212SOL    HW113535   6.373   6.561   2.377
 4212SOL    HW213536   6.229   6.501   2.329
 4213SOL     OW13537   0.608   6.880   1.334
 4213SOL    HW113538   0.532   6.845   1.278
 4213SOL    HW213539   0.589   6.860   1.431
 4214SOL     OW13540   3.171   5.581   4.828
 4214SOL    HW113541   3.135   5.555   4.918
 4214SOL    HW213542   3.234   5.511   4.796
 4215SOL     OW13543   1.187   5.968   5.882
 4215SOL    HW113544   1.124   5.907   5.832
 4215SOL    HW213545   1.160   5.971   5.978
 4216SOL     OW13546   2.737   3.123   5.294
 4216SOL    HW113547   2.645   3.092   5.269
 4216SOL    HW213548   2.750   3.218   5.265
 4217SOL     OW13549   6.993   1.269   3.872
 4217SOL    HW113550   0.046   1.203   3.848
 4217SOL    HW213551   6.930   1.280   3.796
 4218SOL     OW13552   3.291   5.944   2.520
 4218SOL    HW113553   3.321   5.848   2.514
 4218SOL    HW213554   3.232   5.964   2.441
 4219SOL     OW13555   5.427   0.060   2.868
 4219SOL    HW113556   5.460   6.983   2.864
 4219SOL    HW213557   5.364   0.076   2.792
 4220SOL     OW13558   0.326   4.358   3.815
 4220SOL    HW113559   0.348   4.348   3.718
 4220SOL    HW213560   0.258   4.289   3.841
 4221SOL     OW13561   5.461   5.985   5.640
 4221SOL    HW113562   5.523   6.016   5.568
 4221SOL    HW213563   5.514   5.947   5.715
 4222SOL     OW13564   3.031   3.341   0.471
 4222SOL    HW113565   3.105   3.300   0.524
 4222SOL    HW213566   2.977   3.268   0.427
 4223SOL     OW13567   3.120   3.856   2.466
 4223SOL    HW113568   3.035   3.825   2.425
 4223SOL    HW213569   3.197   3.810   2.422
 4224SOL     OW13570   3.800   1.693   6.090
 4224SOL    HW113571   3.820   1.597   6.108
 4224SOL    HW213572   3.881   1.738   6.054
 4225SOL     OW13573   4.555   0.630   3.905
 4225SOL    HW113574   4.540   0.633   3.806
 4225SOL    HW213575   4.603   0.546   3.929
 4226SOL     OW13576   1.495   1.752   2.898
 4226SOL    HW113577   1.515   1.728   2.993
 4226SOL    HW213578   1.570   1.807   2.861
 4227SOL     OW13579   5.129   4.106   6.519
 4227SOL    HW113580   5.073   4.168   6.574
 4227SOL    HW213581   5.213   4.153   6.491
 4228SOL     OW13582   5.242   5.020   3.136
 4228SOL    HW113583   5.194   5.102   3.168
 4228SOL    HW213584   5.259   4.959   3.214
 4229SOL     OW13585   4.451   4.960   5.083
 4229SOL    HW113586   4.369   4.954   5.140
 4229SOL    HW213587   4.430   5.011   5.000
 4230SOL     OW13588   3.216   0.863   6.050
 4230SOL    HW113589   3.313   0.853   6.027
 4230SOL    HW213590   3.163   0.866   5.965
 4231SOL     OW13591   3.694   6.422   6.315
 4231SOL    HW113592   3.623   6.486   6.343
 4231SOL    HW213593   3.728   6.446   6.224
 4232SOL     OW13594   2.458   4.207   1.321
 4232SOL    HW113595   2.488   4.277   1.256
 4232SOL    HW213596   2.535   4.177   1.377
 4233SOL     OW13597   5.418   5.952   0.899
 4233SOL    HW113598   5.504   6.001   0.919
 4233SOL    HW213599   5.390   5.972   0.806
 4234SOL     OW13600   3.629   3.378   5.458
 4234SOL    HW113601   3.598   3.436   5.383
 4234SOL    HW213602   3.713   3.330   5.430
 4235SOL     OW13603   0.374   4.094   4.799
 4235SOL    HW113604   0.437   4.171   4.801
 4235SOL    HW213605   0.386   4.043   4.714
 4236SOL     OW13606   0.622   3.790   4.948
 4236SOL    HW113607   0.630   3.709   5.006
 4236SOL    HW213608   0.593   3.868   5.003
 4237SOL     OW13609   6.564   4.002   5.353
 4237SOL    HW113610   6.489   4.038   5.408
 4237SOL    HW213611   6.578   4.060   5.272
 4238SOL     OW13612   4.934   4.770   4.480
 4238SOL    HW113613   5.024   4.732   4.463
 4238SOL    HW213614   4.904   4.746   4.572
 4239SOL     OW13615   5.063   5.844   5.193
 4239SOL    HW113616   5.048   5.756   5.149
 4239SOL    HW213617   5.158   5.872   5.180
 4240SOL     OW13618   2.456   5.044   6.624
 4240SOL    HW113619   2.402   5.116   6.668
 4240SOL    HW213620   2.395   4.977   6.582
 4241SOL     OW13621   4.170   2.288   1.032
 4241SOL    HW113622   4.093   2.237   1.070
 4241SOL    HW213623   4.203   2.242   0.950
 4242SOL     OW13624   2.063   0.612   2.008
 4242SOL    HW113625   2.101   0.639   1.920
 4242SOL    HW213626   1.965   0.593   1.998
 4243SOL     OW13627   1.452   3.073   3.134
 4243SOL    HW113628   1.447   3.059   3.036
 4243SOL    HW213629   1.534   3.027   3.170
 4244SOL     OW13630   3.274   0.628   0.844
 4244SOL    HW113631   3.275   0.705   0.907
 4244SOL    HW213632   3.363   0.583   0.844
 4245SOL     OW13633   0.030   1.871   0.903
 4245SOL    HW113634   0.099   1.932   0.865
 4245SOL    HW213635   0.022   1.789   0.847
 4246SOL     OW13636   4.684   2.799   3.826
 4246SOL    HW113637   4.636   2.841   3.903
 4246SOL    HW213638   4.632   2.719   3.795
 4247SOL     OW13639   2.145   5.337   0.317
 4247SOL    HW113640   2.105   5.247   0.335
 4247SOL    HW213641   2.189   5.336   0.227
 4248SOL     OW13642   1.879   1.003   2.998
 4248SOL    HW113643   1.927   0.960   3.075
 4248SOL    HW213644   1.909   0.962   2.912
 4249SOL     OW13645   5.684   0.718   5.792
 4249SOL    HW113646   5.612   0.738   5.858
 4249SOL    HW213647   5.773   0.720   5.838
 4250SOL     OW13648   0.731   5.478   5.151
 4250SOL    HW113649   0.715   5.544   5.224
 4250SOL    HW213650   0.656   5.483   5.085
 4251SOL     OW13651   4.643   2.417   5.536
 4251SOL    HW113652   4.645   2.420   5.636
 4251SOL    HW213653   4.603   2.502   5.501
 4252SOL     OW13654   0.005   0.206   6.604
 4252SOL    HW113655   0.070   0.246   6.669
 4252SOL    HW213656   0.033   0.228   6.511
 4253SOL     OW13657   4.254   6.335   2.693
 4253SOL    HW113658   4.212   6.347   2.783
 4253SOL    HW213659   4.314   6.412   2.673
 4254SOL     OW13660   1.408   2.203   5.676
 4254SOL    HW113661   1.376   2.244   5.591
 4254SOL    HW213662   1.451   2.115   5.658
 4255SOL     OW13663   0.878   3.099   3.110
 4255SOL    HW113664   0.861   3.187   3.153
 4255SOL    HW213665   0.948   3.109   3.040
 4256SOL     OW13666   5.691   6.049   0.894
 4256SOL    HW113667   5.750   5.995   0.954
 4256SOL    HW213668   5.705   6.147   0.912
 4257SOL     OW13669   6.597   0.807   3.026
 4257SOL    HW113670   6.593   0.906   3.041
 4257SOL    HW213671   6.547   0.760   3.099
 4258SOL     OW13672   3.126   6.028   0.671
 4258SOL    HW113673   3.209   6.067   0.631
 4258SOL    HW213674   3.098   6.083   0.750
 4259SOL     OW13675   0.568   6.417   0.390
 4259SOL    HW113676   0.652   6.386   0.346
 4259SOL    HW213677   0.492   6.415   0.325
 4260SOL     OW13678   6.070   0.204   4.982
 4260SOL    HW113679   6.110   0.246   5.063
 4260SOL    HW213680   6.046   0.274   4.916
 4261SOL     OW13681   2.523   6.352   3.361
 4261SOL    HW113682   2.471   6.268   3.346
 4261SOL    HW213683   2.613   6.329   3.399
 4262SOL     OW13684   1.827   4.852   4.854
 4262SOL    HW113685   1.807   4.763   4.896
 4262SOL    HW213686   1.799   4.925   4.915
 4263SOL     OW13687   3.216   1.418   2.813
 4263SOL    HW113688   3.249   1.502   2.772
 4263SOL    HW213689   3.137   1.438   2.871
 4264SOL     OW13690   4.788   1.774   6.592
 4264SOL    HW113691   4.784   1.758   6.493
 4264SOL    HW213692   4.864   1.834   6.613
 4265SOL     OW13693   3.362   6.235   6.479
 4265SOL    HW113694   3.300   6.311   6.460
 4265SOL    HW213695   3.404   6.248   6.569
 4266SOL     OW13696   0.940   4.787   1.911
 4266SOL    HW113697   1.005   4.792   1.986
 4266SOL    HW213698   0.867   4.722   1.935
 4267SOL     OW13699   1.280   4.139   3.807
 4267SOL    HW113700   1.328   4.223   3.830
 4267SOL    HW213701   1.181   4.154   3.813
 4268SOL     OW13702   1.194   4.220   6.275
 4268SOL    HW113703   1.143   4.249   6.194
 4268SOL    HW213704   1.291   4.216   6.254
 4269SOL     OW13705   2.917   1.449   3.751
 4269SOL    HW113706   2.857   1.487   3.821
 4269SOL    HW213707   3.003   1.419   3.793
 4270SOL     OW13708   4.158   4.073   0.979
 4270SOL    HW113709   4.208   3.986   0.974
 4270SOL    HW213710   4.073   4.065   0.927
 4271SOL     OW13711   6.606   0.672   0.628
 4271SOL    HW113712   6.512   0.703   0.616
 4271SOL    HW213713   6.636   0.624   0.546
 4272SOL     OW13714   6.822   1.800   5.228
 4272SOL    HW113715   6.868   1.746   5.300
 4272SOL    HW213716   6.791   1.739   5.155
 4273SOL     OW13717   3.480   5.814   3.568
 4273SOL    HW113718   3.478   5.780   3.662
 4273SOL    HW213719   3.504   5.739   3.506
 4274SOL     OW13720   0.408   0.916   1.122
 4274SOL    HW113721   0.445   0.840   1.067
 4274SOL    HW213722   0.321   0.888   1.162
 4275SOL     OW13723   6.801   2.341   3.862
 4275SOL    HW113724   6.890   2.327   3.905
 4275SOL    HW213725   6.797   2.432   3.821
 4276SOL     OW13726   1.088   6.426   2.659
 4276SOL    HW113727   1.183   6.436   2.688
 4276SOL    HW213728   1.085   6.398   2.563
 4277SOL     OW13729   6.303   5.539   3.096
 4277SOL    HW113730   6.287   5.504   3.004
 4277SOL    HW213731   6.329   5.635   3.091
 4278SOL     OW13732   0.052   6.802   1.140
 4278SOL    HW113733   0.093   6.723   1.186
 4278SOL    HW213734   0.112   6.881   1.150
 4279SOL     OW13735   0.901   2.767   2.822
 4279SOL    HW113736   0.827   2.831   2.799
 4279SOL    HW213737   0.872   2.674   2.801
 4280SOL     OW13738   2.477   6.409   0.007
 4280SOL    HW113739   2.556   6.414   6.963
 4280SOL    HW213740   2.430   6.498   0.007
 4281SOL     OW13741   6.648   5.968   2.860
 4281SOL    HW113742   6.710   5.968   2.781
 4281SOL    HW213743   6.559   5.932   2.832
 4282SOL     OW13744   5.430   5.030   1.794
 4282SOL    HW113745   5.331   5.017   1.792
 4282SOL    HW213746   5.472   4.958   1.850
 4283SOL     OW13747   6.055   1.515   4.631
 4283SOL    HW113748   6.143   1.530   4.585
 4283SOL    HW213749   6.014   1.430   4.598
 4284SOL     OW13750   4.832   5.866   6.739
 4284SOL    HW113751   4.758   5.926   6.706
 4284SOL    HW213752   4.796   5.805   6.810
 4285SOL     OW13753   3.147   1.366   6.530
 4285SOL    HW113754   3.111   1.451   6.490
 4285SOL    HW213755   3.071   1.308   6.560
 4286SOL     OW13756   5.045   6.614   6.989
 4286SOL    HW113757   4.994   6.556   6.925
 4286SOL    HW213758   5.041   6.709   6.957
 4287SOL     OW13759   3.640   0.960   1.153
 4287SOL    HW113760   3.560   0.933   1.208
 4287SOL    HW213761   3.681   1.042   1.192
 4288SOL     OW13762   6.805   5.831   2.271
 4288SOL    HW113763   6.808   5.826   2.171
 4288SOL    HW213764   6.717   5.869   2.300
 4289SOL     OW13765   0.428   4.221   5.364
 4289SOL    HW113766   0.437   4.293   5.433
 4289SOL    HW213767   0.476   4.248   5.281
 4290SOL     OW13768   6.628   1.467   3.359
 4290SOL    HW113769   6.721   1.463   3.321
 4290SOL    HW213770   6.610   1.385   3.412
 4291SOL     OW13771   4.245   4.900   6.775
 4291SOL    HW113772   4.313   4.959   6.819
 4291SOL    HW213773   4.161   4.899   6.829
 4292SOL     OW13774   6.822   0.511   1.333
 4292SOL    HW113775   6.739   0.546   1.377
 4292SOL    HW213776   6.876   0.587   1.299
 4293SOL     OW13777   3.702   2.871   6.657
 4293SOL    HW113778   3.790   2.829   6.677
 4293SOL    HW213779   3.707   2.969   6.677
 4294SOL     OW13780   2.662   1.829   6.984
 4294SOL    HW113781   2.575   1.851   0.011
 4294SOL    HW213782   2.731   1.811   0.036
 4295SOL     OW13783   4.431   6.537   2.589
 4295SOL    HW113784   4.472   6.495   2.508
 4295SOL    HW213785   4.351   6.590   2.562
 4296SOL     OW13786   1.987   5.768   2.365
 4296SOL    HW113787   1.974   5.702   2.440
 4296SOL    HW213788   1.970   5.723   2.278
 4297SOL     OW13789   4.750   5.081   0.457
 4297SOL    HW113790   4.707   5.009   0.404
 4297SOL    HW213791   4.780   5.044   0.545
 4298SOL     OW13792   1.497   0.022   0.546
 4298SOL    HW113793   1.529   0.024   0.641
 4298SOL    HW213794   1.466   6.947   0.523
 4299SOL     OW13795   0.158   2.771   6.178
 4299SOL    HW113796   0.147   2.815   6.267
 4299SOL    HW213797   0.075   2.785   6.123
 4300SOL     OW13798   3.164   0.553   1.854
 4300SOL    HW113799   3.194   0.647   1.864
 4300SOL    HW213800   3.147   0.513   1.944
 4301SOL     OW13801   1.999   6.237   5.251
 4301SOL    HW113802   1.931   6.166   5.268
 4301SOL    HW213803   2.087   6.209   5.290
 4302SOL     OW13804   3.932   5.202   0.204
 4302SOL    HW113805   4.023   5.160   0.206
 4302SOL    HW213806   3.871   5.146   0.149
 4303SOL     OW13807   4.212   5.435   3.834
 4303SOL    HW113808   4.256   5.523   3.850
 4303SOL    HW213809   4.281   5.368   3.805
 4304SOL     OW13810   3.036   4.229   1.788
 4304SOL    HW113811   2.986   4.314   1.807
 4304SOL    HW213812   3.083   4.237   1.700
 4305SOL     OW13813   0.399   6.688   5.545
 4305SOL    HW113814   0.380   6.659   5.452
 4305SOL    HW213815   0.437   6.612   5.597
 4306SOL     OW13816   5.540   3.221   5.209
 4306SOL    HW113817   5.461   3.202   5.266
 4306SOL    HW213818   5.510   3.236   5.114
 4307SOL     OW13819   6.985   1.617   5.378
 4307SOL    HW113820   7.005   1.554   5.303
 4307SOL    HW213821   6.927   1.571   5.445
 4308SOL     OW13822   4.238   5.762   5.887
 4308SOL    HW113823   4.290   5.848   5.893
 4308SOL    HW213824   4.154   5.771   5.940
 4309SOL     OW13825   2.903   1.707   1.016
 4309SOL    HW113826   2.951   1.678   1.099
 4309SOL    HW213827   2.943   1.793   0.983
 4310SOL     OW13828   6.357   2.368   3.699
 4310SOL    HW113829   6.276   2.393   3.751
 4310SOL    HW213830   6.356   2.414   3.610
 4311SOL     OW13831   0.527   6.472   1.130
 4311SOL    HW113832   0.551   6.457   1.034
 4311SOL    HW213833   0.462   6.548   1.137
 4312SOL     OW13834   0.187   3.875   2.417
 4312SOL    HW113835   0.153   3.921   2.499
 4312SOL    HW213836   0.189   3.776   2.432
 4313SOL     OW13837   0.845   3.342   0.378
 4313SOL    HW113838   0.942   3.356   0.396
 4313SOL    HW213839   0.826   3.356   0.281
 4314SOL     OW13840   1.755   1.917   5.758
 4314SOL    HW113841   1.848   1.882   5.745
 4314SOL    HW213842   1.750   1.968   5.844
 4315SOL     OW13843   2.774   2.358   4.918
 4315SOL    HW113844   2.681   2.374   4.886
 4315SOL    HW213845   2.837   2.362   4.841
 4316SOL     OW13846   4.634   5.094   2.147
 4316SOL    HW113847   4.619   5.190   2.169
 4316SOL    HW213848   4.637   5.084   2.047
 4317SOL     OW13849   4.806   0.196   4.164
 4317SOL    HW113850   4.861   0.274   4.194
 4317SOL    HW213851   4.861   0.113   4.169
 4318SOL     OW13852   1.736   6.086   3.598
 4318SOL    HW113853   1.694   6.177   3.594
 4318SOL    HW213854   1.668   6.019   3.626
 4319SOL     OW13855   1.467   4.885   2.231
 4319SOL    HW113856   1.499   4.831   2.153
 4319SOL    HW213857   1.505   4.847   2.316
 4320SOL     OW13858   3.120   0.294   1.219
 4320SOL    HW113859   3.077   0.384   1.226
 4320SOL    HW213860   3.055   0.223   1.247
 4321SOL     OW13861   6.523   5.641   2.862
 4321SOL    HW113862   6.433   5.660   2.824
 4321SOL    HW213863   6.532   5.686   2.950
 4322SOL     OW13864   2.696   2.314   3.664
 4322SOL    HW113865   2.788   2.286   3.689
 4322SOL    HW213866   2.689   2.320   3.564
 4323SOL     OW13867   5.473   4.501   1.551
 4323SOL    HW113868   5.486   4.469   1.458
 4323SOL    HW213869   5.404   4.574   1.552
 4324SOL     OW13870   6.979   4.364   5.641
 4324SOL    HW113871   7.005   4.303   5.566
 4324SOL    HW213872   6.976   4.458   5.607
 4325SOL     OW13873   1.342   0.499   1.190
 4325SOL    HW113874   1.246   0.480   1.167
 4325SOL    HW213875   1.350   0.593   1.223
 4326SOL     OW13876   4.529   2.507   3.216
 4326SOL    HW113877   4.557   2.464   3.130
 4326SOL    HW213878   4.604   2.565   3.250
 4327SOL     OW13879   3.085   6.734   3.743
 4327SOL    HW113880   3.139   6.815   3.767
 4327SOL    HW213881   3.145   6.666   3.701
 4328SOL     OW13882   6.368   6.984   3.199
 4328SOL    HW113883   6.311   6.906   3.227
 4328SOL    HW213884   6.455   6.950   3.163
 4329SOL     OW13885   6.244   4.224   0.595
 4329SOL    HW113886   6.186   4.195   0.671
 4329SOL    HW213887   6.220   4.172   0.513
 4330SOL     OW13888   2.342   5.391   4.584
 4330SOL    HW113889   2.301   5.317   4.531
 4330SOL    HW213890   2.429   5.359   4.623
 4331SOL     OW13891   5.691   1.528   2.510
 4331SOL    HW113892   5.765   1.538   2.444
 4331SOL    HW213893   5.694   1.437   2.550
 4332SOL     OW13894   6.807   5.560   1.524
 4332SOL    HW113895   6.781   5.586   1.431
 4332SOL    HW213896   6.873   5.627   1.559
 4333SOL     OW13897   3.780   2.832   6.332
 4333SOL    HW113898   3.834   2.804   6.411
 4333SOL    HW213899   3.766   2.753   6.271
 4334SOL     OW13900   0.140   2.555   4.107
 4334SOL    HW113901   0.236   2.537   4.085
 4334SOL    HW213902   0.092   2.468   4.120
 4335SOL     OW13903   2.472   3.943   1.725
 4335SOL    HW113904   2.472   3.845   1.707
 4335SOL    HW213905   2.550   3.986   1.678
 4336SOL     OW13906   3.102   5.687   5.695
 4336SOL    HW113907   3.110   5.762   5.761
 4336SOL    HW213908   3.177   5.622   5.710
 4337SOL     OW13909   6.925   4.778   3.785
 4337SOL    HW113910   6.867   4.850   3.824
 4337SOL    HW213911   6.885   4.746   3.699
 4338SOL     OW13912   3.101   2.353   5.877
 4338SOL    HW113913   3.161   2.296   5.821
 4338SOL    HW213914   3.045   2.294   5.936
 4339SOL     OW13915   4.263   4.523   5.431
 4339SOL    HW113916   4.275   4.483   5.340
 4339SOL    HW213917   4.309   4.466   5.499
 4340SOL     OW13918   0.110   4.002   0.552
 4340SOL    HW113919   0.017   3.979   0.524
 4340SOL    HW213920   0.132   3.954   0.637
 4341SOL     OW13921   6.231   5.476   1.105
 4341SOL    HW113922   6.231   5.512   1.012
 4341SOL    HW213923   6.240   5.551   1.170
 4342SOL     OW13924   5.333   3.398   2.650
 4342SOL    HW113925   5.256   3.460   2.635
 4342SOL    HW213926   5.321   3.316   2.594
 4343SOL     OW13927   4.142   0.396   6.870
 4343SOL    HW113928   4.167   0.469   6.933
 4343SOL    HW213929   4.126   0.434   6.779
 4344SOL     OW13930   1.337   4.310   2.129
 4344SOL    HW113931   1.286   4.389   2.095
 4344SOL    HW213932   1.292   4.226   2.100
 4345SOL     OW13933   3.721   3.280   2.807
 4345SOL    HW113934   3.720   3.378   2.823
 4345SOL    HW213935   3.694   3.232   2.891
 4346SOL     OW13936   0.676   3.684   2.421
 4346SOL    HW113937   0.655   3.779   2.398
 4346SOL    HW213938   0.685   3.631   2.337
 4347SOL     OW13939   6.477   5.821   0.451
 4347SOL    HW113940   6.418   5.744   0.476
 4347SOL    HW213941   6.509   5.867   0.534
 4348SOL     OW13942   6.344   3.960   5.788
 4348SOL    HW113943   6.281   4.005   5.852
 4348SOL    HW213944   6.375   3.874   5.827
 4349SOL     OW13945   1.168   4.009   4.165
 4349SOL    HW113946   1.234   3.962   4.106
 4349SOL    HW213947   1.076   3.981   4.140
 4350SOL     OW13948   4.901   0.571   3.845
 4350SOL    HW113949   4.902   0.664   3.809
 4350SOL    HW213950   4.857   0.510   3.779
 4351SOL     OW13951   0.076   5.792   1.205
 4351SOL    HW113952   0.089   5.735   1.287
 4351SOL    HW213953   0.156   5.784   1.146
 4352SOL     OW13954   3.294   4.714   1.770
 4352SOL    HW113955   3.230   4.660   1.715
 4352SOL    HW213956   3.385   4.673   1.765
 4353SOL     OW13957   2.437   4.281   0.444
 4353SOL    HW113958   2.506   4.263   0.374
 4353SOL    HW213959   2.348   4.293   0.399
 4354SOL     OW13960   5.474   5.321   2.354
 4354SOL    HW113961   5.425   5.246   2.398
 4354SOL    HW213962   5.409   5.385   2.314
 4355SOL     OW13963   2.514   5.266   3.067
 4355SOL    HW113964   2.479   5.219   3.148
 4355SOL    HW213965   2.466   5.353   3.055
 4356SOL     OW13966   5.866   2.002   5.828
 4356SOL    HW113967   5.902   2.039   5.914
 4356SOL    HW213968   5.892   1.905   5.821
 4357SOL     OW13969   5.461   6.066   2.458
 4357SOL    HW113970   5.454   6.106   2.366
 4357SOL    HW213971   5.541   6.007   2.462
 4358SOL     OW13972   2.633   0.641   0.695
 4358SOL    HW113973   2.721   0.596   0.680
 4358SOL    HW213974   2.586   0.596   0.772
 4359SOL     OW13975   2.503   2.217   1.656
 4359SOL    HW113976   2.581   2.209   1.719
 4359SOL    HW213977   2.457   2.304   1.671
 4360SOL     OW13978   2.792   5.993   4.154
 4360SOL    HW113979   2.828   5.938   4.079
 4360SOL    HW213980   2.842   5.973   4.237
 4361SOL     OW13981   1.499   1.662   6.918
 4361SOL    HW113982   1.488   1.704   6.828
 4361SOL    HW213983   1.424   1.597   6.933
 4362SOL     OW13984   0.512   5.627   2.406
 4362SOL    HW113985   0.457   5.637   2.489
 4362SOL    HW213986   0.467   5.563   2.344
 4363SOL     OW13987   3.461   0.656   2.157
 4363SOL    HW113988   3.486   0.655   2.253
 4363SOL    HW213989   3.373   0.702   2.145
 4364SOL     OW13990   3.360   4.062   2.905
 4364SOL    HW113991   3.261   4.074   2.902
 4364SOL    HW213992   3.399   4.089   2.817
 4365SOL     OW13993   2.066   1.122   0.702
 4365SOL    HW113994   2.156   1.087   0.726
 4365SOL    HW213995   2.018   1.150   0.786
 4366SOL     OW13996   5.414   5.938   4.876
 4366SOL    HW113997   5.413   5.885   4.791
 4366SOL    HW213998   5.495   5.996   4.879
 4367SOL     OW13999   2.823   6.462   1.788
 4367SOL    HW114000   2.742   6.462   1.730
 4367SOL    HW214001   2.795   6.481   1.883
 4368SOL     OW14002   5.006   3.909   4.100
 4368SOL    HW114003   4.932   3.971   4.128
 4368SOL    HW214004   5.065   3.955   4.034
 4369SOL     OW14005   5.768   4.343   3.759
 4369SOL    HW114006   5.839   4.412   3.772
 4369SOL    HW214007   5.679   4.383   3.778
 4370SOL     OW14008   4.119   5.182   0.930
 4370SOL    HW114009   4.121   5.142   0.838
 4370SOL    HW214010   4.185   5.256   0.936
 4371SOL     OW14011   3.516   1.693   2.893
 4371SOL    HW114012   3.506   1.744   2.978
 4371SOL    HW214013   3.509   1.595   2.912
 4372SOL     OW14014   1.791   4.603   5.000
 4372SOL    HW114015   1.733   4.628   5.077
 4372SOL    HW214016   1.875   4.561   5.034
 4373SOL     OW14017   4.185   0.396   0.336
 4373SOL    HW114018   4.108   0.403   0.399
 4373SOL    HW214019   4.270   0.384   0.388
 4374SOL     OW14020   2.790   6.132   0.597
 4374SOL    HW114021   2.864   6.123   0.664
 4374SOL    HW214022   2.719   6.192   0.633
 4375SOL     OW14023   3.910   1.410   5.584
 4375SOL    HW114024   3.813   1.386   5.598
 4375SOL    HW214025   3.964   1.373   5.659
 4376SOL     OW14026   2.507   5.795   0.178
 4376SOL    HW114027   2.607   5.797   0.177
 4376SOL    HW214028   2.473   5.886   0.204
 4377SOL     OW14029   5.249   5.583   6.612
 4377SOL    HW114030   5.316   5.653   6.587
 4377SOL    HW214031   5.260   5.560   6.708
 4378SOL     OW14032   2.899   5.426   2.149
 4378SOL    HW114033   2.879   5.521   2.172
 4378SOL    HW214034   2.841   5.398   2.072
 4379SOL     OW14035   0.278   6.667   0.834
 4379SOL    HW114036   0.316   6.577   0.855
 4379SOL    HW214037   0.178   6.663   0.840
 4380SOL     OW14038   1.995   5.900   3.965
 4380SOL    HW114039   1.943   5.903   4.050
 4380SOL    HW214040   2.092   5.897   3.985
 4381SOL     OW14041   3.805   6.110   4.764
 4381SOL    HW114042   3.797   6.028   4.821
 4381SOL    HW214043   3.851   6.087   4.679
 4382SOL     OW14044   5.415   4.745   2.868
 4382SOL    HW114045   5.321   4.727   2.839
 4382SOL    HW214046   5.427   4.712   2.962
 4383SOL     OW14047   1.055   1.218   0.585
 4383SOL    HW114048   0.998   1.289   0.626
 4383SOL    HW214049   1.151   1.243   0.593
 4384SOL     OW14050   3.723   0.337   2.102
 4384SOL    HW114051   3.730   0.435   2.120
 4384SOL    HW214052   3.627   0.312   2.091
 4385SOL     OW14053   6.233   2.609   3.196
 4385SOL    HW114054   6.307   2.660   3.239
 4385SOL    HW214055   6.271   2.526   3.153
 4386SOL     OW14056   1.642   4.311   0.041
 4386SOL    HW114057   1.569   4.334   0.106
 4386SOL    HW214058   1.646   4.212   0.030
 4387SOL     OW14059   6.391   1.826   1.443
 4387SOL    HW114060   6.308   1.770   1.452
 4387SOL    HW214061   6.451   1.785   1.374
 4388SOL     OW14062   3.689   1.327   5.738
 4388SOL    HW114063   3.593   1.306   5.719
 4388SOL    HW214064   3.694   1.390   5.815
 4389SOL     OW14065   6.494   2.755   2.421
 4389SOL    HW114066   6.460   2.682   2.481
 4389SOL    HW214067   6.594   2.754   2.421
 4390SOL     OW14068   4.209   3.129   1.056
 4390SOL    HW114069   4.117   3.137   1.093
 4390SOL    HW214070   4.256   3.217   1.064
 4391SOL     OW14071   0.608   6.233   0.033
 4391SOL    HW114072   0.612   6.176   6.969
 4391SOL    HW214073   0.556   6.187   0.105
 4392SOL     OW14074   5.137   4.761   5.057
 4392SOL    HW114075   5.191   4.845   5.057
 4392SOL    HW214076   5.133   4.724   4.964
 4393SOL     OW14077   4.966   6.539   2.858
 4393SOL    HW114078   4.908   6.557   2.938
 4393SOL    HW214079   5.039   6.607   2.854
 4394SOL     OW14080   4.597   0.570   2.128
 4394SOL    HW114081   4.521   0.505   2.125
 4394SOL    HW214082   4.587   0.629   2.208
 4395SOL     OW14083   4.754   2.261   1.331
 4395SOL    HW114084   4.738   2.186   1.266
 4395SOL    HW214085   4.669   2.281   1.380
 4396SOL     OW14086   1.587   1.439   3.039
 4396SOL    HW114087   1.533   1.509   3.087
 4396SOL    HW214088   1.602   1.468   2.944
 4397SOL     OW14089   5.016   0.370   6.338
 4397SOL    HW114090   4.950   0.295   6.330
 4397SOL    HW214091   4.970   0.457   6.326
 4398SOL     OW14092   0.180   4.980   4.885
 4398SOL    HW114093   0.192   5.024   4.796
 4398SOL    HW214094   0.169   5.050   4.955
 4399SOL     OW14095   3.273   1.070   2.496
 4399SOL    HW114096   3.261   1.118   2.409
 4399SOL    HW214097   3.333   0.991   2.483
 4400SOL     OW14098   3.743   5.337   3.163
 4400SOL    HW114099   3.818   5.366   3.104
 4400SOL    HW214100   3.660   5.388   3.141
 4401SOL     OW14101   5.726   5.889   5.015
 4401SOL    HW114102   5.698   5.793   5.014
 4401SOL    HW214103   5.675   5.937   5.087
 4402SOL     OW14104   6.649   6.373   2.420
 4402SOL    HW114105   6.655   6.273   2.412
 4402SOL    HW214106   6.616   6.397   2.511
 4403SOL     OW14107   6.652   1.274   2.235
 4403SOL    HW114108   6.675   1.185   2.274
 4403SOL    HW214109   6.555   1.294   2.252
 4404SOL     OW14110   2.430   4.814   2.501
 4404SOL    HW114111   2.494   4.763   2.444
 4404SOL    HW214112   2.398   4.895   2.452
 4405SOL     OW14113   2.899   3.695   5.824
 4405SOL    HW114114   2.830   3.677   5.754
 4405SOL    HW214115   2.872   3.775   5.877
 4406SOL     OW14116   6.005   3.393   2.043
 4406SOL    HW114117   5.993   3.330   2.120
 4406SOL    HW214118   6.025   3.340   1.960
 4407SOL     OW14119   0.835   1.051   0.059
 4407SOL    HW114120   0.804   1.146   0.062
 4407SOL    HW214121   0.773   0.994   0.113
 4408SOL     OW14122   3.982   6.264   1.266
 4408SOL    HW114123   4.056   6.277   1.332
 4408SOL    HW214124   3.919   6.193   1.299
 4409SOL     OW14125   2.516   2.023   2.674
 4409SOL    HW114126   2.574   1.943   2.685
 4409SOL    HW214127   2.572   2.106   2.671
 4410SOL     OW14128   1.615   5.831   1.436
 4410SOL    HW114129   1.536   5.773   1.412
 4410SOL    HW214130   1.599   5.874   1.524
 4411SOL     OW14131   4.105   3.285   2.399
 4411SOL    HW114132   4.155   3.279   2.485
 4411SOL    HW214133   4.059   3.199   2.381
 4412SOL     OW14134   3.603   1.510   5.940
 4412SOL    HW114135   3.629   1.572   6.015
 4412SOL    HW214136   3.594   1.417   5.975
 4413SOL     OW14137   4.434   5.253   3.815
 4413SOL    HW114138   4.414   5.172   3.869
 4413SOL    HW214139   4.525   5.287   3.838
 4414SOL     OW14140   3.497   5.018   2.000
 4414SOL    HW114141   3.525   4.930   1.961
 4414SOL    HW214142   3.411   5.006   2.051
 4415SOL     OW14143   4.708   1.440   1.390
 4415SOL    HW114144   4.757   1.524   1.414
 4415SOL    HW214145   4.645   1.459   1.315
 4416SOL     OW14146   2.634   1.903   4.833
 4416SOL    HW114147   2.586   1.939   4.752
 4416SOL    HW214148   2.646   1.977   4.900
 4417SOL     OW14149   6.138   6.720   1.322
 4417SOL    HW114150   6.088   6.653   1.377
 4417SOL    HW214151   6.162   6.680   1.234
 4418SOL     OW14152   5.211   1.140   3.135
 4418SOL    HW114153   5.147   1.081   3.184
 4418SOL    HW214154   5.187   1.143   3.038
 4419SOL     OW14155   6.201   5.628   6.500
 4419SOL    HW114156   6.247   5.627   6.412
 4419SOL    HW214157   6.188   5.535   6.533
 4420SOL     OW14158   4.553   0.722   0.331
 4420SOL    HW114159   4.481   0.762   0.388
 4420SOL    HW214160   4.511   0.666   0.259
 4421SOL     OW14161   0.250   1.121   3.337
 4421SOL    HW114162   0.225   1.046   3.398
 4421SOL    HW214163   0.343   1.106   3.302
 4422SOL     OW14164   1.434   4.152   6.101
 4422SOL    HW114165   1.518   4.120   6.056
 4422SOL    HW214166   1.394   4.226   6.047
 4423SOL     OW14167   0.050   1.418   6.000
 4423SOL    HW114168   6.995   1.443   5.936
 4423SOL    HW214169   0.131   1.388   5.950
 4424SOL     OW14170   1.207   5.656   3.716
 4424SOL    HW114171   1.167   5.566   3.736
 4424SOL    HW214172   1.133   5.724   3.709
 4425SOL     OW14173   5.123   4.466   0.887
 4425SOL    HW114174   5.137   4.438   0.982
 4425SOL    HW214175   5.132   4.566   0.880
 4426SOL     OW14176   0.584   0.300   6.852
 4426SOL    HW114177   0.643   0.220   6.842
 4426SOL    HW214178   0.490   0.269   6.871
 4427SOL     OW14179   1.318   5.665   3.426
 4427SOL    HW114180   1.388   5.736   3.424
 4427SOL    HW214181   1.290   5.648   3.520
 4428SOL     OW14182   1.919   6.890   2.997
 4428SOL    HW114183   2.010   6.887   3.038
 4428SOL    HW214184   1.909   6.814   2.933
 4429SOL     OW14185   3.175   0.986   3.397
 4429SOL    HW114186   3.211   0.978   3.304
 4429SOL    HW214187   3.117   0.908   3.418
 4430SOL     OW14188   1.460   0.939   2.207
 4430SOL    HW114189   1.406   0.868   2.162
 4430SOL    HW214190   1.407   1.023   2.212
 4431SOL     OW14191   2.201   2.192   3.628
 4431SOL    HW114192   2.195   2.190   3.528
 4431SOL    HW214193   2.166   2.279   3.661
 4432SOL     OW14194   3.051   3.860   3.582
 4432SOL    HW114195   2.996   3.823   3.658
 4432SOL    HW214196   3.140   3.815   3.581
 4433SOL     OW14197   6.363   0.656   2.654
 4433SOL    HW114198   6.446   0.673   2.707
 4433SOL    HW214199   6.368   0.564   2.614
 4434SOL     OW14200   5.374   2.280   5.122
 4434SOL    HW114201   5.354   2.183   5.106
 4434SOL    HW214202   5.389   2.295   5.220
 4435SOL     OW14203   3.959   3.147   2.006
 4435SOL    HW114204   3.895   3.148   2.084
 4435SOL    HW214205   4.052   3.158   2.040
 4436SOL     OW14206   5.400   0.267   0.413
 4436SOL    HW114207   5.426   0.210   0.491
 4436SOL    HW214208   5.398   0.363   0.442
 4437SOL     OW14209   3.392   0.318   5.530
 4437SOL    HW114210   3.370   0.372   5.449
 4437SOL    HW214211   3.313   0.261   5.554
 4438SOL     OW14212   3.987   3.110   6.518
 4438SOL    HW114213   4.000   3.013   6.538
 4438SOL    HW214214   3.906   3.121   6.460
 4439SOL     OW14215   1.853   4.188   2.674
 4439SOL    HW114216   1.891   4.131   2.748
 4439SOL    HW214217   1.901   4.276   2.672
 4440SOL     OW14218   6.330   1.664   0.561
 4440SOL    HW114219   6.244   1.658   0.612
 4440SOL    HW214220   6.336   1.754   0.517
 4441SOL     OW14221   6.186   0.526   3.540
 4441SOL    HW114222   6.251   0.534   3.465
 4441SOL    HW214223   6.112   0.592   3.527
 4442SOL     OW14224   1.762   6.121   1.988
 4442SOL    HW114225   1.828   6.174   2.041
 4442SOL    HW214226   1.689   6.088   2.049
 4443SOL     OW14227   2.408   1.673   0.374
 4443SOL    HW114228   2.466   1.601   0.412
 4443SOL    HW214229   2.387   1.652   0.278
 4444SOL     OW14230   4.715   1.295   2.975
 4444SOL    HW114231   4.808   1.331   2.966
 4444SOL    HW214232   4.712   1.227   3.048
 4445SOL     OW14233   0.794   1.255   6.132
 4445SOL    HW114234   0.810   1.201   6.049
 4445SOL    HW214235   0.696   1.275   6.141
 4446SOL     OW14236   5.280   4.440   3.958
 4446SOL    HW114237   5.324   4.351   3.942
 4446SOL    HW214238   5.292   4.465   4.054
 4447SOL     OW14239   5.079   3.332   5.558
 4447SOL    HW114240   5.109   3.364   5.469
 4447SOL    HW214241   4.986   3.364   5.576
 4448SOL     OW14242   2.312   3.188   6.541
 4448SOL    HW114243   2.292   3.158   6.634
 4448SOL    HW214244   2.409   3.175   6.522
 4449SOL     OW14245   0.326   1.049   5.682
 4449SOL    HW114246   0.369   0.999   5.756
 4449SOL    HW214247   0.397   1.081   5.618
 4450SOL     OW14248   3.523   3.534   2.598
 4450SOL    HW114249   3.425   3.550   2.582
 4450SOL    HW214250   3.566   3.619   2.627
 4451SOL     OW14251   0.221   4.199   1.062
 4451SOL    HW114252   0.205   4.277   1.001
 4451SOL    HW214253   0.206   4.114   1.012
 4452SOL     OW14254   6.452   3.083   6.167
 4452SOL    HW114255   6.357   3.058   6.186
 4452SOL    HW214256   6.455   3.175   6.127
 4453SOL     OW14257   5.218   1.044   1.048
 4453SOL    HW114258   5.290   1.113   1.044
 4453SOL    HW214259   5.226   0.982   0.969
 4454SOL     OW14260   5.147   2.966   1.802
 4454SOL    HW114261   5.082   2.968   1.725
 4454SOL    HW214262   5.115   2.901   1.871
 4455SOL     OW14263   4.508   2.300   2.682
 4455SOL    HW114264   4.538   2.345   2.598
 4455SOL    HW214265   4.417   2.261   2.669
 4456SOL     OW14266   0.776   5.719   2.509
 4456SOL    HW114267   0.677   5.713   2.496
 4456SOL    HW214268   0.813   5.793   2.453
 4457SOL     OW14269   4.579   2.014   6.946
 4457SOL    HW114270   4.562   2.011   0.027
 4457SOL    HW214271   4.515   2.079   6.903
 4458SOL     OW14272   4.361   1.570   1.200
 4458SOL    HW114273   4.291   1.499   1.209
 4458SOL    HW214274   4.352   1.636   1.275
 4459SOL     OW14275   5.767   6.429   5.282
 4459SOL    HW114276   5.698   6.500   5.294
 4459SOL    HW214277   5.830   6.431   5.360
 4460SOL     OW14278   1.188   1.228   6.892
 4460SOL    HW114279   1.089   1.242   6.882
 4460SOL    HW214280   1.205   1.135   6.923
 4461SOL     OW14281   1.892   0.215   2.452
 4461SOL    HW114282   1.860   0.201   2.358
 4461SOL    HW214283   1.899   0.313   2.470
 4462SOL     OW14284   6.757   4.189   0.569
 4462SOL    HW114285   6.810   4.244   0.634
 4462SOL    HW214286   6.711   4.249   0.504
 4463SOL     OW14287   1.102   4.731   6.584
 4463SOL    HW114288   1.198   4.724   6.556
 4463SOL    HW214289   1.067   4.821   6.558
 4464SOL     OW14290   6.329   2.767   6.952
 4464SOL    HW114291   6.360   2.807   0.021
 4464SOL    HW214292   6.372   2.816   6.875
 4465SOL     OW14293   6.760   5.755   0.699
 4465SOL    HW114294   6.722   5.664   0.680
 4465SOL    HW214295   6.828   5.778   0.630
 4466SOL     OW14296   6.862   2.759   3.062
 4466SOL    HW114297   6.886   2.678   3.009
 4466SOL    HW214298   6.811   2.732   3.143
 4467SOL     OW14299   1.261   0.459   3.255
 4467SOL    HW114300   1.213   0.443   3.168
 4467SOL    HW214301   1.360   0.448   3.241
 4468SOL     OW14302   1.791   2.002   0.870
 4468SOL    HW114303   1.721   2.058   0.825
 4468SOL    HW214304   1.842   2.058   0.935
 4469SOL     OW14305   4.410   6.820   0.662
 4469SOL    HW114306   4.388   6.868   0.578
 4469SOL    HW214307   4.497   6.853   0.698
 4470SOL     OW14308   4.785   4.669   1.339
 4470SOL    HW114309   4.762   4.577   1.371
 4470SOL    HW214310   4.704   4.727   1.346
 4471SOL     OW14311   6.294   2.777   1.269
 4471SOL    HW114312   6.284   2.790   1.171
 4471SOL    HW214313   6.273   2.863   1.316
 4472SOL     OW14314   2.181   4.818   1.596
 4472SOL    HW114315   2.213   4.724   1.587
 4472SOL    HW214316   2.109   4.834   1.528
 4473SOL     OW14317   6.867   0.636   6.932
 4473SOL    HW114318   6.896   0.731   6.946
 4473SOL    HW214319   6.842   0.623   6.836
 4474SOL     OW14320   6.346   0.726   4.285
 4474SOL    HW114321   6.360   0.810   4.232
 4474SOL    HW214322   6.392   0.650   4.240
 4475SOL     OW14323   1.656   3.846   0.500
 4475SOL    HW114324   1.559   3.819   0.504
 4475SOL    HW214325   1.679   3.898   0.582
 4476SOL     OW14326   4.867   6.227   2.750
 4476SOL    HW114327   4.858   6.144   2.696
 4476SOL    HW214328   4.782   6.279   2.746
 4477SOL     OW14329   1.659   2.212   0.793
 4477SOL    HW114330   1.743   2.247   0.752
 4477SOL    HW214331   1.618   2.283   0.851
 4478SOL     OW14332   1.260   4.805   1.879
 4478SOL    HW114333   1.338   4.845   1.830
 4478SOL    HW214334   1.273   4.707   1.888
 4479SOL     OW14335   1.618   0.457   6.121
 4479SOL    HW114336   1.631   0.474   6.219
 4479SOL    HW214337   1.700   0.414   6.084
 4480SOL     OW14338   6.652   4.216   3.605
 4480SOL    HW114339   6.657   4.257   3.696
 4480SOL    HW214340   6.631   4.287   3.538
 4481SOL     OW14341   0.585   0.942   4.054
 4481SOL    HW114342   0.663   0.879   4.059
 4481SOL    HW214343   0.517   0.916   4.123
 4482SOL     OW14344   1.395   4.409   2.987
 4482SOL    HW114345   1.380   4.487   2.925
 4482SOL    HW214346   1.357   4.326   2.946
 4483SOL     OW14347   6.062   3.471   0.844
 4483SOL    HW114348   6.161   3.482   0.842
 4483SOL    HW214349   6.024   3.495   0.755
 4484SOL     OW14350   3.446   3.615   6.103
 4484SOL    HW114351   3.425   3.634   6.199
 4484SOL    HW214352   3.523   3.551   6.098
 4485SOL     OW14353   4.749   0.157   6.859
 4485SOL    HW114354   4.775   0.181   6.765
 4485SOL    HW214355   4.668   0.210   6.885
 4486SOL     OW14356   6.023   3.362   3.861
 4486SOL    HW114357   6.006   3.373   3.959
 4486SOL    HW214358   6.052   3.269   3.842
 4487SOL     OW14359   2.949   3.034   5.710
 4487SOL    HW114360   2.937   3.098   5.635
 4487SOL    HW214361   2.922   2.942   5.681
 4488SOL     OW14362   6.939   1.860   6.690
 4488SOL    HW114363   6.894   1.938   6.646
 4488SOL    HW214364   6.872   1.807   6.741
 4489SOL     OW14365   0.944   1.269   2.560
 4489SOL    HW114366   0.908   1.293   2.650
 4489SOL    HW214367   0.918   1.340   2.494
 4490SOL     OW14368   6.496   2.531   4.105
 4490SOL    HW114369   6.455   2.592   4.038
 4490SOL    HW214370   6.447   2.443   4.105
 4491SOL     OW14371   1.988   3.872   2.396
 4491SOL    HW114372   1.903   3.914   2.427
 4491SOL    HW214373   1.990   3.869   2.296
 4492SOL     OW14374   4.873   4.509   6.462
 4492SOL    HW114375   4.848   4.523   6.558
 4492SOL    HW214376   4.944   4.575   6.436
 4493SOL     OW14377   5.848   4.793   3.851
 4493SOL    HW114378   5.810   4.835   3.933
 4493SOL    HW214379   5.799   4.829   3.771
 4494SOL     OW14380   5.466   2.665   2.777
 4494SOL    HW114381   5.558   2.631   2.795
 4494SOL    HW214382   5.453   2.676   2.678
 4495SOL     OW14383   4.713   5.977   1.977
 4495SOL    HW114384   4.735   5.991   1.880
 4495SOL    HW214385   4.798   5.963   2.029
 4496SOL     OW14386   6.083   3.812   5.741
 4496SOL    HW114387   6.111   3.905   5.720
 4496SOL    HW214388   6.063   3.805   5.839
 4497SOL     OW14389   6.387   5.997   0.679
 4497SOL    HW114390   6.320   6.029   0.612
 4497SOL    HW214391   6.364   6.033   0.769
 4498SOL     OW14392   1.034   4.029   0.010
 4498SOL    HW114393   1.066   3.935   0.012
 4498SOL    HW214394   1.041   4.065   6.935
 4499SOL     OW14395   5.095   3.471   0.057
 4499SOL    HW114396   5.167   3.448   7.008
 4499SOL    HW214397   5.043   3.389   0.080
 4500SOL     OW14398   4.009   3.863   2.834
 4500SOL    HW114399   4.030   3.896   2.926
 4500SOL    HW214400   4.038   3.768   2.825
 4501SOL     OW14401   1.644   4.820   4.507
 4501SOL    HW114402   1.635   4.784   4.600
 4501SOL    HW214403   1.590   4.764   4.444
 4502SOL     OW14404   5.488   2.567   6.871
 4502SOL    HW114405   5.518   2.640   6.931
 4502SOL    HW214406   5.565   2.535   6.816
 4503SOL     OW14407   1.405   3.574   2.653
 4503SOL    HW114408   1.460   3.617   2.724
 4503SOL    HW214409   1.316   3.550   2.690
 4504SOL     OW14410   4.577   2.579   4.425
 4504SOL    HW114411   4.591   2.594   4.327
 4504SOL    HW214412   4.539   2.488   4.440
 4505SOL     OW14413   2.054   5.017   0.133
 4505SOL    HW114414   2.088   5.110   0.148
 4505SOL    HW214415   2.123   4.951   0.162
 4506SOL     OW14416   3.736   0.051   5.564
 4506SOL    HW114417   3.692   0.043   5.653
 4506SOL    HW214418   3.719   0.142   5.526
 4507SOL     OW14419   6.266   3.177   2.002
 4507SOL    HW114420   6.322   3.256   1.979
 4507SOL    HW214421   6.175   3.186   1.960
 4508SOL     OW14422   2.043   3.745   0.268
 4508SOL    HW114423   2.065   3.728   0.172
 4508SOL    HW214424   2.109   3.811   0.306
 4509SOL     OW14425   0.129   1.938   3.243
 4509SOL    HW114426   0.176   1.995   3.311
 4509SOL    HW214427   0.175   1.947   3.155
 4510SOL     OW14428   3.191   6.473   6.061
 4510SOL    HW114429   3.222   6.513   6.147
 4510SOL    HW214430   3.128   6.397   6.080
 4511SOL     OW14431   0.011   2.138   0.077
 4511SOL    HW114432   7.006   2.049   0.039
 4511SOL    HW214433   6.993   2.145   0.170
 4512SOL     OW14434   2.342   4.138   6.661
 4512SOL    HW114435   2.440   4.157   6.659
 4512SOL    HW214436   2.325   4.043   6.636
 4513SOL     OW14437   6.061   1.332   2.439
 4513SOL    HW114438   6.112   1.339   2.353
 4513SOL    HW214439   6.025   1.239   2.449
 4514SOL     OW14440   3.384   0.529   5.789
 4514SOL    HW114441   3.422   0.439   5.771
 4514SOL    HW214442   3.436   0.598   5.739
 4515SOL     OW14443   6.509   4.764   0.298
 4515SOL    HW114444   6.534   4.720   0.212
 4515SOL    HW214445   6.428   4.720   0.337
 4516SOL     OW14446   0.923   0.319   3.713
 4516SOL    HW114447   1.002   0.344   3.767
 4516SOL    HW214448   0.953   0.269   3.631
 4517SOL     OW14449   3.479   0.382   0.054
 4517SOL    HW114450   3.404   0.448   0.049
 4517SOL    HW214451   3.557   0.423   0.100
 4518SOL     OW14452   1.800   0.199   3.674
 4518SOL    HW114453   1.796   0.101   3.689
 4518SOL    HW214454   1.829   0.218   3.580
 4519SOL     OW14455   6.318   2.341   5.326
 4519SOL    HW114456   6.369   2.264   5.289
 4519SOL    HW214457   6.295   2.404   5.252
 4520SOL     OW14458   0.014   4.171   3.025
 4520SOL    HW114459   0.092   4.124   2.984
 4520SOL    HW214460   0.040   4.266   3.046
 4521SOL     OW14461   4.978   1.643   6.229
 4521SOL    HW114462   4.987   1.581   6.151
 4521SOL    HW214463   5.028   1.728   6.210
 4522SOL     OW14464   5.573   0.065   3.431
 4522SOL    HW114465   5.559   0.134   3.503
 4522SOL    HW214466   5.484   0.034   3.398
 4523SOL     OW14467   4.890   2.429   6.070
 4523SOL    HW114468   4.791   2.436   6.083
 4523SOL    HW214469   4.928   2.520   6.054
 4524SOL     OW14470   6.038   0.529   4.973
 4524SOL    HW114471   6.012   0.446   4.924
 4524SOL    HW214472   6.137   0.540   4.969
 4525SOL     OW14473   6.306   1.798   4.889
 4525SOL    HW114474   6.244   1.721   4.877
 4525SOL    HW214475   6.254   1.883   4.889
 4526SOL     OW14476   3.424   1.107   1.826
 4526SOL    HW114477   3.459   1.019   1.859
 4526SOL    HW214478   3.464   1.181   1.880
 4527SOL     OW14479   4.377   6.150   3.794
 4527SOL    HW114480   4.387   6.185   3.887
 4527SOL    HW214481   4.467   6.132   3.754
 4528SOL     OW14482   5.241   0.164   5.643
 4528SOL    HW114483   5.181   0.198   5.570
 4528SOL    HW214484   5.190   0.160   5.729
 4529SOL     OW14485   3.922   6.983   3.779
 4529SOL    HW114486   4.018   7.006   3.795
 4529SOL    HW214487   3.874   6.976   3.866
 4530SOL     OW14488   0.422   2.928   5.002
 4530SOL    HW114489   0.399   2.841   5.046
 4530SOL    HW214490   0.489   2.977   5.057
 4531SOL     OW14491   0.437   3.933   3.736
 4531SOL    HW114492   0.509   3.994   3.769
 4531SOL    HW214493   0.355   3.946   3.791
 4532SOL     OW14494   0.516   2.268   0.284
 4532SOL    HW114495   0.481   2.309   0.200
 4532SOL    HW214496   0.549   2.340   0.345
 4533SOL     OW14497   2.930   5.954   2.051
 4533SOL    HW114498   2.941   5.978   2.147
 4533SOL    HW214499   2.956   6.032   1.994
 4534SOL     OW14500   0.245   4.566   5.553
 4534SOL    HW114501   0.152   4.547   5.521
 4534SOL    HW214502   0.242   4.639   5.622
 4535SOL     OW14503   5.046   2.801   3.128
 4535SOL    HW114504   4.949   2.775   3.128
 4535SOL    HW214505   5.085   2.783   3.037
 4536SOL     OW14506   6.638   0.416   4.157
 4536SOL    HW114507   6.684   0.457   4.078
 4536SOL    HW214508   6.688   0.440   4.240
 4537SOL     OW14509   5.092   3.650   6.713
 4537SOL    HW114510   4.997   3.620   6.715
 4537SOL    HW214511   5.148   3.580   6.668
 4538SOL     OW14512   3.557   2.125   1.468
 4538SOL    HW114513   3.615   2.205   1.484
 4538SOL    HW214514   3.485   2.122   1.536
 4539SOL     OW14515   2.481   2.515   2.275
 4539SOL    HW114516   2.500   2.551   2.367
 4539SOL    HW214517   2.565   2.479   2.235
 4540SOL     OW14518   3.321   3.213   5.192
 4540SOL    HW114519   3.328   3.149   5.115
 4540SOL    HW214520   3.266   3.292   5.165
 4541SOL     OW14521   5.903   0.622   1.903
 4541SOL    HW114522   5.913   0.721   1.901
 4541SOL    HW214523   5.808   0.597   1.881
 4542SOL     OW14524   5.063   6.659   3.256
 4542SOL    HW114525   5.160   6.654   3.279
 4542SOL    HW214526   5.025   6.566   3.252
 4543SOL     OW14527   5.740   2.159   2.125
 4543SOL    HW114528   5.720   2.208   2.210
 4543SOL    HW214529   5.683   2.195   2.052
 4544SOL     OW14530   4.771   5.520   6.465
 4544SOL    HW114531   4.859   5.549   6.502
 4544SOL    HW214532   4.775   5.424   6.440
 4545SOL     OW14533   4.177   3.929   6.010
 4545SOL    HW114534   4.141   4.023   6.005
 4545SOL    HW214535   4.259   3.923   5.954
 4546SOL     OW14536   0.495   5.676   0.239
 4546SOL    HW114537   0.492   5.652   0.142
 4546SOL    HW214538   0.425   5.745   0.259
 4547SOL     OW14539   4.620   1.429   2.198
 4547SOL    HW114540   4.582   1.456   2.286
 4547SOL    HW214541   4.547   1.426   2.130
 4548SOL     OW14542   1.025   3.708   3.954
 4548SOL    HW114543   1.070   3.661   4.030
 4548SOL    HW214544   1.051   3.664   3.868
 4549SOL     OW14545   5.052   1.844   2.562
 4549SOL    HW114546   5.077   1.767   2.505
 4549SOL    HW214547   5.130   1.907   2.570
 4550SOL     OW14548   1.765   5.728   4.607
 4550SOL    HW114549   1.796   5.788   4.680
 4550SOL    HW214550   1.779   5.772   4.518
 4551SOL     OW14551   6.516   3.135   0.094
 4551SOL    HW114552   6.431   3.148   0.043
 4551SOL    HW214553   6.505   3.173   0.186
 4552SOL     OW14554   6.897   3.347   4.699
 4552SOL    HW114555   6.955   3.286   4.752
 4552SOL    HW214556   6.863   3.299   4.618
 4553SOL     OW14557   4.961   4.809   0.247
 4553SOL    HW114558   5.010   4.727   0.220
 4553SOL    HW214559   5.021   4.869   0.299
 4554SOL     OW14560   6.195   6.592   3.949
 4554SOL    HW114561   6.101   6.569   3.976
 4554SOL    HW214562   6.200   6.688   3.925
 4555SOL     OW14563   4.015   3.311   6.678
 4555SOL    HW114564   4.000   3.227   6.626
 4555SOL    HW214565   4.044   3.383   6.616
 4556SOL     OW14566   4.643   0.360   4.992
 4556SOL    HW114567   4.689   0.312   4.917
 4556SOL    HW214568   4.698   0.439   5.020
 4557SOL     OW14569   5.167   0.076   4.626
 4557SOL    HW114570   5.095   0.011   4.600
 4557SOL    HW214571   5.237   0.078   4.555
 4558SOL     OW14572   6.222   2.918   5.554
 4558SOL    HW114573   6.263   2.870   5.632
 4558SOL    HW214574   6.175   2.852   5.496
 4559SOL     OW14575   1.103   6.131   1.200
 4559SOL    HW114576   1.142   6.080   1.276
 4559SOL    HW214577   1.088   6.069   1.123
 4560SOL     OW14578   5.729   2.704   2.490
 4560SOL    HW114579   5.717   2.800   2.515
 4560SOL    HW214580   5.641   2.656   2.498
 4561SOL     OW14581   3.482   6.940   6.673
 4561SOL    HW114582   3.394   6.914   6.712
 4561SOL    HW214583   3.480   0.018   6.644
 4562SOL     OW14584   2.492   4.401   5.848
 4562SOL    HW114585   2.509   4.435   5.756
 4562SOL    HW214586   2.458   4.306   5.843
 4563SOL     OW14587   5.800   2.389   6.448
 4563SOL    HW114588   5.861   2.309   6.452
 4563SOL    HW214589   5.745   2.393   6.531
 4564SOL     OW14590   0.795   5.288   6.712
 4564SOL    HW114591   0.765   5.320   6.802
 4564SOL    HW214592   0.716   5.264   6.656
 4565SOL     OW14593   2.624   1.312   4.039
 4565SOL    HW114594   2.570   1.244   4.088
 4565SOL    HW214595   2.631   1.286   3.942
 4566SOL     OW14596   1.248   0.888   0.747
 4566SOL    HW114597   1.229   0.864   0.652
 4566SOL    HW214598   1.268   0.986   0.753
 4567SOL     OW14599   5.811   1.614   1.041
 4567SOL    HW114600   5.835   1.693   0.985
 4567SOL    HW214601   5.826   1.530   0.988
 4568SOL     OW14602   4.120   4.926   4.023
 4568SOL    HW114603   4.181   4.859   4.065
 4568SOL    HW214604   4.027   4.888   4.018
 4569SOL     OW14605   0.336   2.055   3.079
 4569SOL    HW114606   0.422   2.087   3.117
 4569SOL    HW214607   0.267   2.128   3.087
 4570SOL     OW14608   5.463   5.754   4.676
 4570SOL    HW114609   5.514   5.677   4.638
 4570SOL    HW214610   5.400   5.790   4.606
 4571SOL     OW14611   3.623   2.915   4.341
 4571SOL    HW114612   3.634   2.882   4.247
 4571SOL    HW214613   3.612   3.014   4.341
 4572SOL     OW14614   1.910   5.114   1.674
 4572SOL    HW114615   1.819   5.155   1.669
 4572SOL    HW214616   1.903   5.021   1.710
 4573SOL     OW14617   4.944   0.525   0.846
 4573SOL    HW114618   4.891   0.596   0.894
 4573SOL    HW214619   5.034   0.516   0.888
 4574SOL     OW14620   0.057   4.482   1.643
 4574SOL    HW114621   6.987   4.528   1.657
 4574SOL    HW214622   0.065   4.404   1.706
 4575SOL     OW14623   6.536   5.991   2.084
 4575SOL    HW114624   6.466   6.046   2.038
 4575SOL    HW214625   6.610   6.051   2.114
 4576SOL     OW14626   3.719   6.302   4.125
 4576SOL    HW114627   3.796   6.264   4.175
 4576SOL    HW214628   3.681   6.380   4.175
 4577SOL     OW14629   1.350   3.082   4.135
 4577SOL    HW114630   1.376   3.114   4.044
 4577SOL    HW214631   1.300   2.995   4.127
 4578SOL     OW14632   0.186   5.471   4.039
 4578SOL    HW114633   0.176   5.523   4.124
 4578SOL    HW214634   0.150   5.378   4.053
 4579SOL     OW14635   5.511   1.714   4.831
 4579SOL    HW114636   5.524   1.721   4.930
 4579SOL    HW214637   5.414   1.710   4.810
 4580SOL     OW14638   0.327   5.371   0.109
 4580SOL    HW114639   0.407   5.310   0.103
 4580SOL    HW214640   0.267   5.339   0.183
 4581SOL     OW14641   3.527   6.202   4.285
 4581SOL    HW114642   3.568   6.190   4.375
 4581SOL    HW214643   3.597   6.193   4.214
 4582SOL     OW14644   4.847   6.650   3.100
 4582SOL    HW114645   4.916   6.660   3.171
 4582SOL    HW214646   4.760   6.686   3.132
 4583SOL     OW14647   3.699   1.070   5.402
 4583SOL    HW114648   3.740   1.115   5.323
 4583SOL    HW214649   3.618   1.120   5.430
 4584SOL     OW14650   1.191   4.829   5.772
 4584SOL    HW114651   1.145   4.859   5.688
 4584SOL    HW214652   1.122   4.807   5.841
 4585SOL     OW14653   3.329   6.264   2.056
 4585SOL    HW114654   3.343   6.166   2.043
 4585SOL    HW214655   3.231   6.283   2.067
 4586SOL     OW14656   2.576   6.260   1.607
 4586SOL    HW114657   2.586   6.323   1.530
 4586SOL    HW214658   2.486   6.218   1.606
 4587SOL     OW14659   3.347   4.626   0.808
 4587SOL    HW114660   3.348   4.580   0.719
 4587SOL    HW214661   3.439   4.658   0.830
 4588SOL     OW14662   3.503   3.991   4.974
 4588SOL    HW114663   3.414   3.948   4.984
 4588SOL    HW214664   3.573   3.919   4.965
 4589SOL     OW14665   0.870   1.945   3.067
 4589SOL    HW114666   0.851   1.949   2.969
 4589SOL    HW214667   0.872   1.850   3.097
 4590SOL     OW14668   4.183   6.416   2.960
 4590SOL    HW114669   4.244   6.493   2.942
 4590SOL    HW214670   4.108   6.446   3.020
 4591SOL     OW14671   6.051   6.568   4.987
 4591SOL    HW114672   5.956   6.585   5.013
 4591SOL    HW214673   6.087   6.492   5.040
 4592SOL     OW14674   3.152   1.535   5.983
 4592SOL    HW114675   3.170   1.441   6.010
 4592SOL    HW214676   3.185   1.551   5.890
 4593SOL     OW14677   5.073   6.334   1.747
 4593SOL    HW114678   4.997   6.362   1.805
 4593SOL    HW214679   5.061   6.238   1.720
 4594SOL     OW14680   3.954   1.827   2.383
 4594SOL    HW114681   4.018   1.753   2.362
 4594SOL    HW214682   3.868   1.789   2.414
 4595SOL     OW14683   4.849   3.355   5.944
 4595SOL    HW114684   4.886   3.431   5.891
 4595SOL    HW214685   4.791   3.299   5.886
 4596SOL     OW14686   5.050   0.196   2.177
 4596SOL    HW114687   5.047   0.100   2.151
 4596SOL    HW214688   5.020   0.206   2.272
 4597SOL     OW14689   6.608   4.292   5.601
 4597SOL    HW114690   6.660   4.325   5.680
 4597SOL    HW214691   6.574   4.371   5.549
 4598SOL     OW14692   3.342   3.927   0.313
 4598SOL    HW114693   3.395   3.878   0.244
 4598SOL    HW214694   3.266   3.870   0.344
 4599SOL     OW14695   2.779   5.398   0.527
 4599SOL    HW114696   2.862   5.400   0.471
 4599SOL    HW214697   2.742   5.306   0.529
 4600SOL     OW14698   3.504   4.280   1.494
 4600SOL    HW114699   3.514   4.328   1.406
 4600SOL    HW214700   3.485   4.347   1.566
 4601SOL     OW14701   1.600   5.853   4.089
 4601SOL    HW114702   1.502   5.875   4.088
 4601SOL    HW214703   1.618   5.780   4.023
 4602SOL     OW14704   1.630   0.685   1.084
 4602SOL    HW114705   1.566   0.725   1.019
 4602SOL    HW214706   1.602   0.591   1.103
 4603SOL     OW14707   2.993   1.410   2.088
 4603SOL    HW114708   3.050   1.430   2.008
 4603SOL    HW214709   2.906   1.370   2.058
 4604SOL     OW14710   1.645   0.876   2.409
 4604SOL    HW114711   1.693   0.962   2.428
 4604SOL    HW214712   1.606   0.880   2.317
 4605SOL     OW14713   5.245   5.813   5.607
 4605SOL    HW114714   5.173   5.873   5.574
 4605SOL    HW214715   5.297   5.859   5.679
 4606SOL     OW14716   0.018   5.477   5.022
 4606SOL    HW114717   6.981   5.507   4.943
 4606SOL    HW214718   0.065   5.392   5.000
 4607SOL     OW14719   2.532   2.819   1.210
 4607SOL    HW114720   2.575   2.856   1.293
 4607SOL    HW214721   2.570   2.866   1.130
 4608SOL     OW14722   1.655   3.471   5.036
 4608SOL    HW114723   1.624   3.567   5.033
 4608SOL    HW214724   1.576   3.411   5.046
 4609SOL     OW14725   2.955   6.867   0.564
 4609SOL    HW114726   2.928   6.850   0.470
 4609SOL    HW214727   3.027   6.937   0.566
 4610SOL     OW14728   6.859   3.305   6.538
 4610SOL    HW114729   6.841   3.302   6.440
 4610SOL    HW214730   6.956   3.287   6.554
 4611SOL     OW14731   1.358   4.288   6.600
 4611SOL    HW114732   1.337   4.214   6.536
 4611SOL    HW214733   1.316   4.267   6.689
 4612SOL     OW14734   2.401   0.119   6.335
 4612SOL    HW114735   2.464   0.182   6.382
 4612SOL    HW214736   2.454   0.053   6.282
 4613SOL     OW14737   3.236   5.067   1.796
 4613SOL    HW114738   3.145   5.048   1.760
 4613SOL    HW214739   3.252   5.012   1.878
 4614SOL     OW14740   2.506   5.075   0.091
 4614SOL    HW114741   2.489   5.027   0.005
 4614SOL    HW214742   2.524   5.009   0.163
 4615SOL     OW14743   6.390   3.313   6.869
 4615SOL    HW114744   6.375   3.257   6.788
 4615SOL    HW214745   6.396   3.409   6.843
 4616SOL     OW14746   5.900   0.590   0.269
 4616SOL    HW114747   5.966   0.662   0.291
 4616SOL    HW214748   5.938   0.501   0.294
 4617SOL     OW14749   7.014   3.881   1.965
 4617SOL    HW114750   6.927   3.915   1.998
 4617SOL    HW214751   7.014   3.781   1.967
 4618SOL     OW14752   0.642   2.724   6.346
 4618SOL    HW114753   0.722   2.664   6.347
 4618SOL    HW214754   0.595   2.715   6.258
 4619SOL     OW14755   4.002   0.529   3.250
 4619SOL    HW114756   3.941   0.511   3.173
 4619SOL    HW214757   4.047   0.444   3.279
 4620SOL     OW14758   2.198   5.904   6.803
 4620SOL    HW114759   2.222   5.998   6.778
 4620SOL    HW214760   2.276   5.844   6.787
 4621SOL     OW14761   0.277   0.385   6.226
 4621SOL    HW114762   0.336   0.395   6.306
 4621SOL    HW214763   0.322   0.329   6.157
 4622SOL     OW14764   2.085   3.698   0.586
 4622SOL    HW114765   2.065   3.608   0.626
 4622SOL    HW214766   2.042   3.704   0.496
 4623SOL     OW14767   5.375   4.235   2.619
 4623SOL    HW114768   5.280   4.241   2.651
 4623SOL    HW214769   5.377   4.189   2.530
 4624SOL     OW14770   4.627   6.829   5.486
 4624SOL    HW114771   4.677   6.773   5.552
 4624SOL    HW214772   4.659   6.924   5.493
 4625SOL     OW14773   1.180   3.790   6.326
 4625SOL    HW114774   1.187   3.841   6.240
 4625SOL    HW214775   1.219   3.699   6.314
 4626SOL     OW14776   5.640   5.302   1.939
 4626SOL    HW114777   5.558   5.248   1.958
 4626SOL    HW214778   5.664   5.295   1.842
 4627SOL     OW14779   1.433   6.960   5.716
 4627SOL    HW114780   1.513   6.947   5.775
 4627SOL    HW214781   1.435   0.035   5.677
 4628SOL     OW14782   6.360   2.802   2.174
 4628SOL    HW114783   6.373   2.751   2.089
 4628SOL    HW214784   6.406   2.753   2.249
 4629SOL     OW14785   4.494   4.708   4.281
 4629SOL    HW114786   4.540   4.787   4.321
 4629SOL    HW214787   4.549   4.626   4.297
 4630SOL     OW14788   1.966   6.592   2.267
 4630SOL    HW114789   2.028   6.536   2.322
 4630SOL    HW214790   1.872   6.569   2.289
 4631SOL     OW14791   1.764   0.291   3.085
 4631SOL    HW114792   1.849   0.340   3.063
 4631SOL    HW214793   1.696   0.356   3.117
 4632SOL     OW14794   6.038   5.565   4.250
 4632SOL    HW114795   5.959   5.505   4.237
 4632SOL    HW214796   6.122   5.512   4.239
 4633SOL     OW14797   5.457   2.463   5.751
 4633SOL    HW114798   5.554   2.448   5.771
 4633SOL    HW214799   5.417   2.378   5.718
 4634SOL     OW14800   2.905   4.468   0.487
 4634SOL    HW114801   2.817   4.446   0.528
 4634SOL    HW214802   2.953   4.384   0.463
 4635SOL     OW14803   5.575   2.874   1.796
 4635SOL    HW114804   5.519   2.816   1.737
 4635SOL    HW214805   5.672   2.855   1.780
 4636SOL     OW14806   0.761   5.790   1.553
 4636SOL    HW114807   0.761   5.796   1.454
 4636SOL    HW214808   0.848   5.752   1.585
 4637SOL     OW14809   1.513   0.630   4.309
 4637SOL    HW114810   1.487   0.724   4.330
 4637SOL    HW214811   1.515   0.576   4.394
 4638SOL     OW14812   4.311   4.763   5.670
 4638SOL    HW114813   4.331   4.801   5.760
 4638SOL    HW214814   4.238   4.695   5.678
 4639SOL     OW14815   0.244   2.226   4.552
 4639SOL    HW114816   0.265   2.323   4.553
 4639SOL    HW214817   0.225   2.196   4.458
 4640SOL     OW14818   6.194   4.782   2.860
 4640SOL    HW114819   6.182   4.692   2.901
 4640SOL    HW214820   6.291   4.796   2.837
 4641SOL     OW14821   3.217   3.366   5.475
 4641SOL    HW114822   3.181   3.363   5.382
 4641SOL    HW214823   3.284   3.293   5.487
 4642SOL     OW14824   6.593   6.110   3.842
 4642SOL    HW114825   6.625   6.052   3.767
 4642SOL    HW214826   6.616   6.205   3.822
 4643SOL     OW14827   4.081   2.967   0.828
 4643SOL    HW114828   4.027   2.973   0.744
 4643SOL    HW214829   4.151   3.038   0.828
 4644SOL     OW14830   3.713   4.673   5.432
 4644SOL    HW114831   3.726   4.745   5.364
 4644SOL    HW214832   3.741   4.585   5.394
 4645SOL     OW14833   2.059   6.250   4.981
 4645SOL    HW114834   2.150   6.286   5.001
 4645SOL    HW214835   2.025   6.199   5.059
 4646SOL     OW14836   3.840   0.607   1.275
 4646SOL    HW114837   3.756   0.612   1.330
 4646SOL    HW214838   3.846   0.688   1.217
 4647SOL     OW14839   6.953   0.566   4.769
 4647SOL    HW114840   6.911   0.627   4.836
 4647SOL    HW214841   0.030   0.595   4.753
 4648SOL     OW14842   1.719   5.790   2.910
 4648SOL    HW114843   1.793   5.822   2.852
 4648SOL    HW214844   1.705   5.854   2.986
 4649SOL     OW14845   5.543   6.572   6.079
 4649SOL    HW114846   5.546   6.489   6.025
 4649SOL    HW214847   5.598   6.643   6.035
 4650SOL     OW14848   6.599   4.651   1.475
 4650SOL    HW114849   6.566   4.744   1.461
 4650SOL    HW214850   6.641   4.644   1.566
 4651SOL     OW14851   6.384   2.566   2.004
 4651SOL    HW114852   6.383   2.469   1.979
 4651SOL    HW214853   6.475   2.590   2.039
 4652SOL     OW14854   0.168   5.866   5.289
 4652SOL    HW114855   0.250   5.811   5.276
 4652SOL    HW214856   0.099   5.842   5.221
 4653SOL     OW14857   0.586   5.250   6.541
 4653SOL    HW114858   0.506   5.208   6.582
 4653SOL    HW214859   0.585   5.237   6.442
 4654SOL     OW14860   1.211   1.728   6.610
 4654SOL    HW114861   1.214   1.695   6.516
 4654SOL    HW214862   1.304   1.744   6.643
 4655SOL     OW14863   0.246   5.730   3.434
 4655SOL    HW114864   0.182   5.760   3.505
 4655SOL    HW214865   0.334   5.774   3.447
 4656SOL     OW14866   2.460   6.496   2.679
 4656SOL    HW114867   2.478   6.593   2.696
 4656SOL    HW214868   2.407   6.485   2.595
 4657SOL     OW14869   6.265   0.746   6.095
 4657SOL    HW114870   6.185   0.805   6.089
 4657SOL    HW214871   6.238   0.651   6.079
 4658SOL     OW14872   5.040   0.947   4.029
 4658SOL    HW114873   4.952   0.901   4.018
 4658SOL    HW214874   5.046   1.025   3.967
 4659SOL     OW14875   1.742   2.885   4.352
 4659SOL    HW114876   1.760   2.979   4.380
 4659SOL    HW214877   1.828   2.841   4.325
 4660SOL     OW14878   6.502   1.565   5.207
 4660SOL    HW114879   6.414   1.579   5.254
 4660SOL    HW214880   6.522   1.645   5.150
 4661SOL     OW14881   3.861   2.994   3.250
 4661SOL    HW114882   3.866   2.914   3.191
 4661SOL    HW214883   3.768   3.003   3.286
 4662SOL     OW14884   5.822   0.159   3.724
 4662SOL    HW114885   5.878   0.193   3.648
 4662SOL    HW214886   5.787   0.068   3.702
 4663SOL     OW14887   0.949   2.622   1.815
 4663SOL    HW114888   1.037   2.617   1.769
 4663SOL    HW214889   0.963   2.632   1.913
 4664SOL     OW14890   3.601   3.737   0.326
 4664SOL    HW114891   3.622   3.750   0.423
 4664SOL    HW214892   3.579   3.641   0.309
 4665SOL     OW14893   5.491   0.234   6.726
 4665SOL    HW114894   5.399   0.252   6.761
 4665SOL    HW214895   5.486   0.168   6.651
 4666SOL     OW14896   2.179   2.131   0.435
 4666SOL    HW114897   2.133   2.151   0.521
 4666SOL    HW214898   2.120   2.074   0.377
 4667SOL     OW14899   0.683   5.202   4.581
 4667SOL    HW114900   0.588   5.205   4.613
 4667SOL    HW214901   0.695   5.269   4.507
 4668SOL     OW14902   5.005   0.900   5.463
 4668SOL    HW114903   4.969   0.869   5.375
 4668SOL    HW214904   5.006   0.824   5.527
 4669SOL     OW14905   2.439   1.329   1.921
 4669SOL    HW114906   2.461   1.371   2.010
 4669SOL    HW214907   2.340   1.325   1.909
 4670SOL     OW14908   2.785   1.405   4.526
 4670SOL    HW114909   2.839   1.404   4.610
 4670SOL    HW214910   2.775   1.499   4.495
 4671SOL     OW14911   5.881   2.204   1.790
 4671SOL    HW114912   5.826   2.120   1.796
 4671SOL    HW214913   5.951   2.203   1.861
 4672SOL     OW14914   2.850   2.864   5.420
 4672SOL    HW114915   2.903   2.827   5.497
 4672SOL    HW214916   2.904   2.932   5.372
 4673SOL     OW14917   4.538   0.716   2.345
 4673SOL    HW114918   4.605   0.764   2.401
 4673SOL    HW214919   4.470   0.780   2.310
 4674SOL     OW14920   4.962   6.570   5.041
 4674SOL    HW114921   4.907   6.617   5.110
 4674SOL    HW214922   4.975   6.474   5.067
 4675SOL     OW14923   1.105   4.452   6.666
 4675SOL    HW114924   1.201   4.430   6.650
 4675SOL    HW214925   1.094   4.551   6.674
 4676SOL     OW14926   0.694   5.065   4.024
 4676SOL    HW114927   0.711   4.971   4.053
 4676SOL    HW214928   0.672   5.121   4.104
 4677SOL     OW14929   1.334   3.039   0.293
 4677SOL    HW114930   1.323   3.065   0.389
 4677SOL    HW214931   1.287   2.952   0.277
 4678SOL     OW14932   1.204   4.501   2.010
 4678SOL    HW114933   1.200   4.590   2.054
 4678SOL    HW214934   1.120   4.485   1.959
 4679SOL     OW14935   4.217   0.229   1.881
 4679SOL    HW114936   4.131   0.188   1.852
 4679SOL    HW214937   4.289   0.159   1.882
 4680SOL     OW14938   2.086   0.326   6.522
 4680SOL    HW114939   2.100   0.255   6.591
 4680SOL    HW214940   2.100   0.416   6.563
 4681SOL     OW14941   5.244   5.481   2.301
 4681SOL    HW114942   5.270   5.562   2.353
 4681SOL    HW214943   5.167   5.503   2.241
 4682SOL     OW14944   3.558   4.004   5.955
 4682SOL    HW114945   3.529   3.918   5.914
 4682SOL    HW214946   3.546   4.078   5.889
 4683SOL     OW14947   6.100   4.795   3.749
 4683SOL    HW114948   6.124   4.883   3.791
 4683SOL    HW214949   6.007   4.771   3.775
 4684SOL     OW14950   5.682   6.646   6.319
 4684SOL    HW114951   5.597   6.599   6.344
 4684SOL    HW214952   5.728   6.595   6.246
 4685SOL     OW14953   3.219   4.125   4.417
 4685SOL    HW114954   3.237   4.117   4.319
 4685SOL    HW214955   3.142   4.066   4.442
 4686SOL     OW14956   1.625   0.040   6.766
 4686SOL    HW114957   1.671   6.971   6.784
 4686SOL    HW214958   1.526   0.029   6.779
 4687SOL     OW14959   2.052   0.889   2.786
 4687SOL    HW114960   2.117   0.900   2.711
 4687SOL    HW214961   2.092   0.832   2.857
 4688SOL     OW14962   5.203   2.775   6.129
 4688SOL    HW114963   5.128   2.770   6.062
 4688SOL    HW214964   5.271   2.705   6.108
 4689SOL     OW14965   6.908   1.269   0.728
 4689SOL    HW114966   6.854   1.317   0.797
 4689SOL    HW214967   7.004   1.270   0.754
 4690SOL     OW14968   3.088   2.651   0.815
 4690SOL    HW114969   3.163   2.717   0.823
 4690SOL    HW214970   3.125   2.558   0.815
 4691SOL     OW14971   6.426   3.678   1.696
 4691SOL    HW114972   6.472   3.622   1.627
 4691SOL    HW214973   6.329   3.653   1.700
 4692SOL     OW14974   5.203   2.817   2.754
 4692SOL    HW114975   5.192   2.890   2.821
 4692SOL    HW214976   5.264   2.747   2.790
 4693SOL     OW14977   0.766   0.340   2.483
 4693SOL    HW114978   0.819   0.265   2.445
 4693SOL    HW214979   0.820   0.389   2.551
 4694SOL     OW14980   1.927   0.102   6.422
 4694SOL    HW114981   1.905   0.040   6.497
 4694SOL    HW214982   2.027   0.107   6.411
 4695SOL     OW14983   2.374   5.058   2.379
 4695SOL    HW114984   2.459   5.104   2.403
 4695SOL    HW214985   2.361   5.063   2.280
 4696SOL     OW14986   1.334   6.297   6.050
 4696SOL    HW114987   1.256   6.263   5.997
 4696SOL    HW214988   1.418   6.253   6.018
 4697SOL     OW14989   4.312   5.739   1.532
 4697SOL    HW114990   4.349   5.736   1.439
 4697SOL    HW214991   4.387   5.754   1.597
 4698SOL     OW14992   5.739   1.200   4.576
 4698SOL    HW114993   5.710   1.167   4.665
 4698SOL    HW214994   5.738   1.124   4.510
 4699SOL     OW14995   1.153   1.083   2.629
 4699SOL    HW114996   1.088   1.064   2.702
 4699SOL    HW214997   1.153   1.182   2.609
 4700SOL     OW14998   6.164   1.600   3.062
 4700SOL    HW114999   6.116   1.613   2.976
 4700SOL    HW215000   6.098   1.584   3.136
 4701SOL     OW15001   3.214   2.621   1.736
 4701SOL    HW115002   3.130   2.568   1.750
 4701SOL    HW215003   3.225   2.687   1.810
 4702SOL     OW15004   6.098   5.305   0.170
 4702SOL    HW115005   6.183   5.349   0.144
 4702SOL    HW215006   6.116   5.211   0.199
 4703SOL     OW15007   0.796   5.757   3.560
 4703SOL    HW115008   0.866   5.742   3.628
 4703SOL    HW215009   0.707   5.727   3.595
 4704SOL     OW15010   1.446   4.994   3.912
 4704SOL    HW115011   1.397   4.912   3.881
 4704SOL    HW215012   1.496   4.973   3.996
 4705SOL     OW15013   3.612   1.960   1.877
 4705SOL    HW115014   3.620   2.054   1.910
 4705SOL    HW215015   3.659   1.952   1.789
 4706SOL     OW15016   2.388   0.783   1.012
 4706SOL    HW115017   2.431   0.872   0.995
 4706SOL    HW215018   2.290   0.789   0.995
 4707SOL     OW15019   1.413   5.348   2.068
 4707SOL    HW115020   1.507   5.357   2.035
 4707SOL    HW215021   1.350   5.358   1.991
 4708SOL     OW15022   1.418   2.892   5.230
 4708SOL    HW115023   1.482   2.822   5.197
 4708SOL    HW215024   1.469   2.964   5.278
 4709SOL     OW15025   6.052   4.071   5.674
 4709SOL    HW115026   6.060   4.140   5.746
 4709SOL    HW215027   6.009   4.111   5.593
 4710SOL     OW15028   6.331   6.083   5.137
 4710SOL    HW115029   6.288   5.998   5.109
 4710SOL    HW215030   6.337   6.145   5.059
 4711SOL     OW15031   4.784   4.505   2.429
 4711SOL    HW115032   4.699   4.485   2.381
 4711SOL    HW215033   4.861   4.491   2.368
 4712SOL     OW15034   4.275   4.266   5.641
 4712SOL    HW115035   4.239   4.173   5.637
 4712SOL    HW215036   4.310   4.284   5.733
 4713SOL     OW15037   5.416   3.839   0.878
 4713SOL    HW115038   5.506   3.850   0.835
 4713SOL    HW215039   5.417   3.760   0.939
 4714SOL     OW15040   4.419   2.371   6.836
 4714SOL    HW115041   4.392   2.296   6.896
 4714SOL    HW215042   4.458   2.445   6.891
 4715SOL     OW15043   6.585   1.102   1.644
 4715SOL    HW115044   6.625   1.010   1.654
 4715SOL    HW215045   6.534   1.125   1.726
 4716SOL     OW15046   3.603   4.414   5.632
 4716SOL    HW115047   3.532   4.483   5.613
 4716SOL    HW215048   3.689   4.443   5.589
 4717SOL     OW15049   1.987   4.919   5.665
 4717SOL    HW115050   1.920   4.942   5.594
 4717SOL    HW215051   1.945   4.856   5.730
 4718SOL     OW15052   5.104   4.388   1.480
 4718SOL    HW115053   5.177   4.372   1.547
 4718SOL    HW215054   5.028   4.436   1.524
 4719SOL     OW15055   6.326   4.624   3.949
 4719SOL    HW115056   6.300   4.630   3.853
 4719SOL    HW215057   6.425   4.628   3.957
 4720SOL     OW15058   2.541   3.235   6.811
 4720SOL    HW115059   2.442   3.227   6.824
 4720SOL    HW215060   2.582   3.143   6.811
 4721SOL     OW15061   0.751   3.046   3.480
 4721SOL    HW115062   0.732   3.007   3.390
 4721SOL    HW215063   0.788   3.139   3.469
 4722SOL     OW15064   1.272   5.430   6.811
 4722SOL    HW115065   1.227   5.378   6.738
 4722SOL    HW215066   1.244   5.394   6.900
 4723SOL     OW15067   2.981   5.018   6.716
 4723SOL    HW115068   3.009   5.046   6.624
 4723SOL    HW215069   2.947   5.098   6.767
 4724SOL     OW15070   0.797   0.176   3.967
 4724SOL    HW115071   0.749   0.248   4.017
 4724SOL    HW215072   0.816   0.207   3.874
 4725SOL     OW15073   5.506   4.986   0.868
 4725SOL    HW115074   5.511   4.937   0.955
 4725SOL    HW215075   5.473   4.924   0.797
 4726SOL     OW15076   1.965   2.972   5.158
 4726SOL    HW115077   2.047   2.947   5.210
 4726SOL    HW215078   1.922   3.052   5.201
 4727SOL     OW15079   6.289   4.522   1.267
 4727SOL    HW115080   6.267   4.502   1.172
 4727SOL    HW215081   6.372   4.473   1.293
 4728SOL     OW15082   5.710   1.951   3.975
 4728SOL    HW115083   5.696   1.977   3.880
 4728SOL    HW215084   5.717   2.033   4.032
 4729SOL     OW15085   5.686   1.121   2.004
 4729SOL    HW115086   5.711   1.206   2.051
 4729SOL    HW215087   5.631   1.142   1.924
 4730SOL     OW15088   4.000   0.695   3.507
 4730SOL    HW115089   4.068   0.636   3.551
 4730SOL    HW215090   3.984   0.663   3.414
 4731SOL     OW15091   3.017   6.884   1.147
 4731SOL    HW115092   2.991   6.980   1.140
 4731SOL    HW215093   3.022   6.844   1.055
 4732SOL     OW15094   0.098   4.709   4.955
 4732SOL    HW115095   0.130   4.801   4.932
 4732SOL    HW215096   0.117   4.647   4.878
 4733SOL     OW15097   1.515   4.176   2.673
 4733SOL    HW115098   1.541   4.113   2.746
 4733SOL    HW215099   1.420   4.159   2.646
 4734SOL     OW15100   4.609   3.971   6.994
 4734SOL    HW115101   4.635   3.955   6.899
 4734SOL    HW215102   4.535   4.038   6.998
 4735SOL     OW15103   0.212   0.614   4.672
 4735SOL    HW115104   0.163   0.638   4.588
 4735SOL    HW215105   0.299   0.662   4.675
 4736SOL     OW15106   5.856   1.313   4.097
 4736SOL    HW115107   5.794   1.379   4.055
 4736SOL    HW215108   5.942   1.358   4.120
 4737SOL     OW15109   2.037   5.070   0.424
 4737SOL    HW115110   2.121   5.016   0.436
 4737SOL    HW215111   1.967   5.015   0.379
 4738SOL     OW15112   0.512   5.646   4.406
 4738SOL    HW115113   0.540   5.734   4.365
 4738SOL    HW215114   0.465   5.663   4.493
 4739SOL     OW15115   5.951   3.602   3.111
 4739SOL    HW115116   5.853   3.624   3.103
 4739SOL    HW215117   5.963   3.503   3.103
 4740SOL     OW15118   1.362   6.760   0.515
 4740SOL    HW115119   1.364   6.749   0.614
 4740SOL    HW215120   1.415   6.687   0.472
 4741SOL     OW15121   5.592   4.577   1.033
 4741SOL    HW115122   5.595   4.491   0.981
 4741SOL    HW215123   5.680   4.623   1.026
 4742SOL     OW15124   2.489   5.639   2.307
 4742SOL    HW115125   2.555   5.660   2.235
 4742SOL    HW215126   2.470   5.541   2.307
 4743SOL     OW15127   2.573   3.438   0.867
 4743SOL    HW115128   2.579   3.400   0.960
 4743SOL    HW215129   2.632   3.386   0.805
 4744SOL     OW15130   2.694   1.786   5.643
 4744SOL    HW115131   2.626   1.744   5.582
 4744SOL    HW215132   2.670   1.883   5.657
 4745SOL     OW15133   4.261   5.562   4.708
 4745SOL    HW115134   4.349   5.607   4.722
 4745SOL    HW215135   4.269   5.493   4.636
 4746SOL     OW15136   5.736   0.953   1.600
 4746SOL    HW115137   5.670   0.926   1.670
 4746SOL    HW215138   5.750   0.877   1.537
 4747SOL     OW15139   0.629   2.825   2.183
 4747SOL    HW115140   0.533   2.849   2.197
 4747SOL    HW215141   0.643   2.792   2.090
 4748SOL     OW15142   2.172   0.361   0.678
 4748SOL    HW115143   2.166   0.445   0.624
 4748SOL    HW215144   2.198   0.285   0.620
 4749SOL     OW15145   3.117   0.244   0.213
 4749SOL    HW115146   3.096   0.259   0.310
 4749SOL    HW215147   3.055   0.298   0.157
 4750SOL     OW15148   0.709   1.642   4.591
 4750SOL    HW115149   0.643   1.716   4.601
 4750SOL    HW215150   0.748   1.643   4.499
 4751SOL     OW15151   0.959   3.675   6.077
 4751SOL    HW115152   0.882   3.621   6.110
 4751SOL    HW215153   1.044   3.628   6.097
 4752SOL     OW15154   2.291   5.693   1.446
 4752SOL    HW115155   2.344   5.619   1.490
 4752SOL    HW215156   2.243   5.746   1.516
 4753SOL     OW15157   0.379   6.960   5.886
 4753SOL    HW115158   0.351   6.864   5.893
 4753SOL    HW215159   0.398   6.982   5.790
 4754SOL     OW15160   0.775   0.676   6.080
 4754SOL    HW115161   0.772   0.576   6.070
 4754SOL    HW215162   0.718   0.703   6.157
 4755SOL     OW15163   2.892   0.257   1.697
 4755SOL    HW115164   2.958   0.189   1.665
 4755SOL    HW215165   2.921   0.348   1.667
 4756SOL     OW15166   5.370   2.434   1.442
 4756SOL    HW115167   5.288   2.456   1.495
 4756SOL    HW215168   5.423   2.517   1.426
 4757SOL     OW15169   2.713   1.623   1.232
 4757SOL    HW115170   2.640   1.691   1.224
 4757SOL    HW215171   2.773   1.630   1.152
 4758SOL     OW15172   5.560   3.402   5.923
 4758SOL    HW115173   5.545   3.497   5.953
 4758SOL    HW215174   5.581   3.401   5.826
 4759SOL     OW15175   6.162   4.096   6.389
 4759SOL    HW115176   6.092   4.095   6.318
 4759SOL    HW215177   6.151   4.178   6.446
 4760SOL     OW15178   2.384   2.932   0.462
 4760SOL    HW115179   2.368   2.971   0.372
 4760SOL    HW215180   2.428   2.843   0.453
 4761SOL     OW15181   1.940   5.687   6.090
 4761SOL    HW115182   1.912   5.615   6.026
 4761SOL    HW215183   1.884   5.769   6.075
 4762SOL     OW15184   3.599   6.856   2.249
 4762SOL    HW115185   3.527   6.868   2.318
 4762SOL    HW215186   3.653   6.940   2.242
 4763SOL     OW15187   5.938   5.586   5.191
 4763SOL    HW115188   5.961   5.587   5.094
 4763SOL    HW215189   5.855   5.532   5.204
 4764SOL     OW15190   3.979   3.247   4.264
 4764SOL    HW115191   3.951   3.166   4.316
 4764SOL    HW215192   3.950   3.329   4.313
 4765SOL     OW15193   6.356   5.595   6.291
 4765SOL    HW115194   6.385   5.543   6.211
 4765SOL    HW215195   6.360   5.693   6.270
 4766SOL     OW15196   3.361   0.696   3.585
 4766SOL    HW115197   3.274   0.724   3.544
 4766SOL    HW215198   3.353   0.698   3.684
 4767SOL     OW15199   3.893   6.634   6.882
 4767SOL    HW115200   3.830   6.566   6.919
 4767SOL    HW215201   3.845   6.691   6.815
 4768SOL     OW15202   1.138   0.739   4.772
 4768SOL    HW115203   1.121   0.649   4.813
 4768SOL    HW215204   1.114   0.736   4.675
 4769SOL     OW15205   4.249   0.753   1.849
 4769SOL    HW115206   4.164   0.744   1.798
 4769SOL    HW215207   4.276   0.849   1.852
 4770SOL     OW15208   2.210   0.598   4.091
 4770SOL    HW115209   2.265   0.545   4.026
 4770SOL    HW215210   2.119   0.615   4.052
 4771SOL     OW15211   4.144   4.233   5.327
 4771SOL    HW115212   4.167   4.316   5.275
 4771SOL    HW215213   4.225   4.200   5.374
 4772SOL     OW15214   2.281   3.170   6.871
 4772SOL    HW115215   2.267   3.167   6.970
 4772SOL    HW215216   2.196   3.144   6.825
 4773SOL     OW15217   0.162   5.130   4.582
 4773SOL    HW115218   0.215   5.175   4.510
 4773SOL    HW215219   0.096   5.195   4.621
 4774SOL     OW15220   1.734   4.094   6.772
 4774SOL    HW115221   1.636   4.090   6.794
 4774SOL    HW215222   1.745   4.103   6.673
 4775SOL     OW15223   1.813   1.859   2.336
 4775SOL    HW115224   1.870   1.939   2.355
 4775SOL    HW215225   1.865   1.775   2.350
 4776SOL     OW15226   4.264   4.682   2.387
 4776SOL    HW115227   4.358   4.653   2.405
 4776SOL    HW215228   4.220   4.706   2.473
 4777SOL     OW15229   2.820   3.747   1.654
 4777SOL    HW115230   2.813   3.763   1.752
 4777SOL    HW215231   2.915   3.760   1.625
 4778SOL     OW15232   5.139   3.702   2.970
 4778SOL    HW115233   5.194   3.738   3.045
 4778SOL    HW215234   5.195   3.640   2.914
 4779SOL     OW15235   4.832   0.917   2.835
 4779SOL    HW115236   4.853   0.937   2.739
 4779SOL    HW215237   4.733   0.909   2.847
 4780SOL     OW15238   1.889   0.460   5.440
 4780SOL    HW115239   1.875   0.549   5.396
 4780SOL    HW215240   1.940   0.473   5.525
 4781SOL     OW15241   2.296   5.796   2.814
 4781SOL    HW115242   2.263   5.830   2.902
 4781SOL    HW215243   2.260   5.854   2.741
 4782SOL     OW15244   5.986   5.515   0.009
 4782SOL    HW115245   6.012   5.445   0.076
 4782SOL    HW215246   6.068   5.549   6.980
 4783SOL     OW15247   5.967   3.903   2.694
 4783SOL    HW115248   5.924   3.993   2.698
 4783SOL    HW215249   5.951   3.854   2.779
 4784SOL     OW15250   5.295   4.537   5.463
 4784SOL    HW115251   5.300   4.489   5.550
 4784SOL    HW215252   5.221   4.498   5.407
 4785SOL     OW15253   5.915   6.936   0.306
 4785SOL    HW115254   5.901   6.859   0.368
 4785SOL    HW215255   5.830   6.956   0.258
 4786SOL     OW15256   1.199   3.190   2.288
 4786SOL    HW115257   1.217   3.271   2.232
 4786SOL    HW215258   1.277   3.128   2.284
 4787SOL     OW15259   4.590   2.064   3.027
 4787SOL    HW115260   4.568   2.001   3.102
 4787SOL    HW215261   4.585   2.015   2.940
 4788SOL     OW15262   2.477   6.729   5.018
 4788SOL    HW115263   2.536   6.651   5.000
 4788SOL    HW215264   2.517   6.812   4.979
 4789SOL     OW15265   5.258   6.609   0.667
 4789SOL    HW115266   5.268   6.512   0.647
 4789SOL    HW215267   5.221   6.656   0.587
 4790SOL     OW15268   5.371   6.928   6.692
 4790SOL    HW115269   5.425   6.851   6.727
 4790SOL    HW215270   5.326   6.974   6.768
 4791SOL     OW15271   4.876   2.068   3.663
 4791SOL    HW115272   4.926   2.051   3.748
 4791SOL    HW215273   4.887   1.991   3.601
 4792SOL     OW15274   3.144   2.253   1.203
 4792SOL    HW115275   3.243   2.250   1.215
 4792SOL    HW215276   3.101   2.295   1.283
 4793SOL     OW15277   0.651   6.934   6.625
 4793SOL    HW115278   0.735   6.881   6.611
 4793SOL    HW215279   0.652   7.013   6.564
 4794SOL     OW15280   5.147   1.151   1.772
 4794SOL    HW115281   5.110   1.224   1.829
 4794SOL    HW215282   5.083   1.130   1.698
 4795SOL     OW15283   6.046   3.309   4.203
 4795SOL    HW115284   6.138   3.273   4.221
 4795SOL    HW215285   5.978   3.241   4.230
 4796SOL     OW15286   5.787   3.573   0.881
 4796SOL    HW115287   5.774   3.583   0.782
 4796SOL    HW215288   5.798   3.664   0.922
 4797SOL     OW15289   0.731   4.921   4.503
 4797SOL    HW115290   0.705   5.011   4.540
 4797SOL    HW215291   0.827   4.904   4.521
 4798SOL     OW15292   6.710   5.207   5.764
 4798SOL    HW115293   6.642   5.245   5.701
 4798SOL    HW215294   6.669   5.196   5.855
 4799SOL     OW15295   4.709   0.886   5.086
 4799SOL    HW115296   4.670   0.920   5.171
 4799SOL    HW215297   4.751   0.962   5.036
 4800SOL     OW15298   2.076   2.914   4.190
 4800SOL    HW115299   2.055   3.010   4.207
 4800SOL    HW215300   2.133   2.879   4.264
 4801SOL     OW15301   0.667   2.690   0.554
 4801SOL    HW115302   0.734   2.689   0.629
 4801SOL    HW215303   0.617   2.776   0.556
 4802SOL     OW15304   1.927   0.527   1.720
 4802SOL    HW115305   1.990   0.603   1.705
 4802SOL    HW215306   1.859   0.552   1.789
 4803SOL     OW15307   1.016   0.791   0.849
 4803SOL    HW115308   1.022   0.803   0.948
 4803SOL    HW215309   1.101   0.824   0.806
 4804SOL     OW15310   4.310   5.621   6.710
 4804SOL    HW115311   4.283   5.658   6.798
 4804SOL    HW215312   4.235   5.630   6.644
 4805SOL     OW15313   0.167   0.590   1.211
 4805SOL    HW115314   0.109   0.523   1.257
 4805SOL    HW215315   0.140   0.597   1.115
 4806SOL     OW15316   6.884   2.596   3.856
 4806SOL    HW115317   6.857   2.691   3.842
 4806SOL    HW215318   6.975   2.580   3.818
 4807SOL     OW15319   1.079   6.713   2.391
 4807SOL    HW115320   0.985   6.746   2.403
 4807SOL    HW215321   1.103   6.719   2.294
 4808SOL     OW15322   5.581   3.114   0.923
 4808SOL    HW115323   5.680   3.122   0.928
 4808SOL    HW215324   5.557   3.023   0.889
 4809SOL     OW15325   4.186   6.635   0.546
 4809SOL    HW115326   4.102   6.688   0.559
 4809SOL    HW215327   4.261   6.678   0.596
 4810SOL     OW15328   1.754   0.057   1.083
 4810SOL    HW115329   1.794   6.983   1.087
 4810SOL    HW215330   1.817   0.119   1.036
 4811SOL     OW15331   5.504   4.644   3.102
 4811SOL    HW115332   5.600   4.626   3.079
 4811SOL    HW215333   5.458   4.558   3.123
 4812SOL     OW15334   6.146   4.918   4.322
 4812SOL    HW115335   6.238   4.911   4.284
 4812SOL    HW215336   6.151   4.940   4.419
 4813SOL     OW15337   5.850   3.399   2.779
 4813SOL    HW115338   5.840   3.373   2.683
 4813SOL    HW215339   5.880   3.320   2.833
 4814SOL     OW15340   6.574   3.124   1.440
 4814SOL    HW115341   6.497   3.120   1.377
 4814SOL    HW215342   6.611   3.032   1.454
 4815SOL     OW15343   4.514   0.917   3.128
 4815SOL    HW115344   4.548   0.951   3.040
 4815SOL    HW215345   4.472   0.993   3.178
 4816SOL     OW15346   5.386   4.368   3.389
 4816SOL    HW115347   5.318   4.438   3.412
 4816SOL    HW215348   5.478   4.409   3.389
 4817SOL     OW15349   0.020   1.668   0.062
 4817SOL    HW115350   0.101   1.698   0.113
 4817SOL    HW215351   6.968   1.740   0.063
 4818SOL     OW15352   0.489   6.111   3.563
 4818SOL    HW115353   0.552   6.163   3.506
 4818SOL    HW215354   0.406   6.165   3.578
 4819SOL     OW15355   2.648   2.857   0.944
 4819SOL    HW115356   2.745   2.846   0.966
 4819SOL    HW215357   2.629   2.813   0.856
 4820SOL     OW15358   0.136   3.295   2.593
 4820SOL    HW115359   0.105   3.263   2.683
 4820SOL    HW215360   0.218   3.350   2.604
 4821SOL     OW15361   0.583   5.988   4.005
 4821SOL    HW115362   0.501   6.020   3.956
 4821SOL    HW215363   0.665   6.012   3.953
 4822SOL     OW15364   2.385   4.419   4.161
 4822SOL    HW115365   2.444   4.495   4.133
 4822SOL    HW215366   2.383   4.413   4.261
 4823SOL     OW15367   2.261   2.793   0.918
 4823SOL    HW115368   2.189   2.804   0.987
 4823SOL    HW215369   2.315   2.877   0.912
 4824SOL     OW15370   6.462   1.766   0.198
 4824SOL    HW115371   6.562   1.771   0.197
 4824SOL    HW215372   6.427   1.828   0.269
 4825SOL     OW15373   1.437   6.758   4.173
 4825SOL    HW115374   1.403   6.678   4.221
 4825SOL    HW215375   1.513   6.798   4.223
 4826SOL     OW15376   3.894   6.465   1.038
 4826SOL    HW115377   3.922   6.457   0.942
 4826SOL    HW215378   3.904   6.376   1.083
 4827SOL     OW15379   6.478   1.314   1.188
 4827SOL    HW115380   6.503   1.397   1.237
 4827SOL    HW215381   6.480   1.331   1.089
 4828SOL     OW15382   5.216   0.967   5.799
 4828SOL    HW115383   5.241   0.871   5.787
 4828SOL    HW215384   5.280   1.025   5.748
 4829SOL     OW15385   4.194   6.165   5.302
 4829SOL    HW115386   4.273   6.225   5.315
 4829SOL    HW215387   4.116   6.201   5.355
 4830SOL     OW15388   1.750   6.618   3.641
 4830SOL    HW115389   1.764   6.660   3.730
 4830SOL    HW215390   1.765   6.687   3.569
 4831SOL     OW15391   3.583   4.735   5.667
 4831SOL    HW115392   3.633   4.695   5.590
 4831SOL    HW215393   3.484   4.725   5.650
 4832SOL     OW15394   4.086   3.764   4.881
 4832SOL    HW115395   4.046   3.852   4.905
 4832SOL    HW215396   4.116   3.765   4.785
 4833SOL     OW15397   6.297   1.984   5.652
 4833SOL    HW115398   6.371   2.034   5.606
 4833SOL    HW215399   6.212   1.997   5.601
 4834SOL     OW15400   0.164   5.917   1.551
 4834SOL    HW115401   0.242   5.875   1.505
 4834SOL    HW215402   0.194   5.960   1.636
 4835SOL     OW15403   0.232   3.566   6.475
 4835SOL    HW115404   0.260   3.534   6.384
 4835SOL    HW215405   0.313   3.575   6.533
 4836SOL     OW15406   4.212   2.112   5.773
 4836SOL    HW115407   4.265   2.065   5.702
 4836SOL    HW215408   4.268   2.183   5.815
 4837SOL     OW15409   1.253   3.788   4.403
 4837SOL    HW115410   1.197   3.865   4.432
 4837SOL    HW215411   1.269   3.726   4.480
 4838SOL     OW15412   1.642   4.057   5.953
 4838SOL    HW115413   1.584   4.040   5.873
 4838SOL    HW215414   1.738   4.052   5.926
 4839SOL     OW15415   2.903   1.510   1.612
 4839SOL    HW115416   2.826   1.472   1.561
 4839SOL    HW215417   2.868   1.569   1.685
 4840SOL     OW15418   5.147   2.732   5.352
 4840SOL    HW115419   5.163   2.794   5.276
 4840SOL    HW215420   5.076   2.770   5.412
 4841SOL     OW15421   2.539   6.139   2.998
 4841SOL    HW115422   2.463   6.124   2.935
 4841SOL    HW215423   2.587   6.223   2.974
 4842SOL     OW15424   4.095   5.824   3.696
 4842SOL    HW115425   4.124   5.836   3.601
 4842SOL    HW215426   4.145   5.747   3.737
 4843SOL     OW15427   6.284   1.636   1.100
 4843SOL    HW115428   6.284   1.736   1.094
 4843SOL    HW215429   6.343   1.598   1.029
 4844SOL     OW15430   1.644   4.865   6.848
 4844SOL    HW115431   1.679   4.872   6.942
 4844SOL    HW215432   1.658   4.951   6.801
 4845SOL     OW15433   4.861   3.887   4.914
 4845SOL    HW115434   4.875   3.862   4.818
 4845SOL    HW215435   4.837   3.805   4.966
 4846SOL     OW15436   6.702   3.771   4.776
 4846SOL    HW115437   6.621   3.822   4.803
 4846SOL    HW215438   6.693   3.675   4.806
 4847SOL     OW15439   3.315   6.656   0.009
 4847SOL    HW115440   3.290   6.673   0.104
 4847SOL    HW215441   3.350   6.740   6.985
 4848SOL     OW15442   5.067   2.094   3.861
 4848SOL    HW115443   5.124   2.011   3.854
 4848SOL    HW215444   5.030   2.101   3.953
 4849SOL     OW15445   2.040   6.223   1.622
 4849SOL    HW115446   2.105   6.276   1.677
 4849SOL    HW215447   1.977   6.174   1.683
 4850SOL     OW15448   3.125   6.490   1.778
 4850SOL    HW115449   3.031   6.478   1.808
 4850SOL    HW215450   3.128   6.547   1.696
 4851SOL     OW15451   4.441   4.760   6.906
 4851SOL    HW115452   4.397   4.771   6.818
 4851SOL    HW215453   4.432   4.844   6.959
 4852SOL     OW15454   4.878   4.391   5.911
 4852SOL    HW115455   4.785   4.410   5.880
 4852SOL    HW215456   4.933   4.356   5.835
 4853SOL     OW15457   4.057   0.520   2.891
 4853SOL    HW115458   3.996   0.443   2.909
 4853SOL    HW215459   4.093   0.513   2.797
 4854SOL     OW15460   4.307   6.841   2.165
 4854SOL    HW115461   4.327   6.749   2.132
 4854SOL    HW215462   4.215   6.843   2.204
 4855SOL     OW15463   4.915   5.065   5.722
 4855SOL    HW115464   5.013   5.066   5.742
 4855SOL    HW215465   4.900   5.035   5.628
 4856SOL     OW15466   0.452   2.470   3.126
 4856SOL    HW115467   0.483   2.394   3.068
 4856SOL    HW215468   0.522   2.541   3.128
 4857SOL     OW15469   1.695   2.279   5.062
 4857SOL    HW115470   1.763   2.282   4.988
 4857SOL    HW215471   1.605   2.256   5.024
 4858SOL     OW15472   1.662   5.540   4.842
 4858SOL    HW115473   1.572   5.535   4.800
 4858SOL    HW215474   1.670   5.625   4.895
 4859SOL     OW15475   6.577   5.784   3.560
 4859SOL    HW115476   6.559   5.732   3.477
 4859SOL    HW215477   6.490   5.814   3.600
 4860SOL     OW15478   3.733   5.347   1.804
 4860SOL    HW115479   3.752   5.250   1.820
 4860SOL    HW215480   3.662   5.356   1.735
 4861SOL     OW15481   6.511   4.753   5.681
 4861SOL    HW115482   6.521   4.678   5.746
 4861SOL    HW215483   6.501   4.839   5.731
 4862SOL     OW15484   2.192   6.026   4.340
 4862SOL    HW115485   2.195   5.937   4.293
 4862SOL    HW215486   2.098   6.045   4.369
 4863SOL     OW15487   5.847   1.337   2.067
 4863SOL    HW115488   5.874   1.380   1.980
 4863SOL    HW215489   5.861   1.401   2.142
 4864SOL     OW15490   1.975   2.601   1.495
 4864SOL    HW115491   1.906   2.640   1.557
 4864SOL    HW215492   1.931   2.568   1.412
 4865SOL     OW15493   4.004   6.454   5.139
 4865SOL    HW115494   3.952   6.368   5.141
 4865SOL    HW215495   4.049   6.468   5.227
 4866SOL     OW15496   0.417   5.400   1.586
 4866SOL    HW115497   0.509   5.438   1.593
 4866SOL    HW215498   0.353   5.459   1.636
 4867SOL     OW15499   5.446   4.888   5.082
 4867SOL    HW115500   5.514   4.909   5.012
 4867SOL    HW215501   5.447   4.790   5.101
 4868SOL     OW15502   1.604   6.022   1.636
 4868SOL    HW115503   1.513   6.053   1.664
 4868SOL    HW215504   1.674   6.081   1.676
 4869SOL     OW15505   6.540   0.956   1.928
 4869SOL    HW115506   6.613   0.972   1.995
 4869SOL    HW215507   6.486   1.039   1.918
 4870SOL     OW15508   6.192   0.963   0.876
 4870SOL    HW115509   6.126   1.038   0.870
 4870SOL    HW215510   6.241   0.968   0.964
 4871SOL     OW15511   1.712   3.611   4.530
 4871SOL    HW115512   1.757   3.676   4.591
 4871SOL    HW215513   1.710   3.649   4.437
 4872SOL     OW15514   1.430   2.282   3.652
 4872SOL    HW115515   1.384   2.199   3.622
 4872SOL    HW215516   1.380   2.362   3.617
 4873SOL     OW15517   1.248   6.684   5.241
 4873SOL    HW115518   1.259   6.742   5.160
 4873SOL    HW215519   1.337   6.646   5.266
 4874SOL     OW15520   5.889   2.757   3.491
 4874SOL    HW115521   5.961   2.690   3.511
 4874SOL    HW215522   5.812   2.741   3.552
 4875SOL     OW15523   0.358   2.930   6.753
 4875SOL    HW115524   0.448   2.888   6.773
 4875SOL    HW215525   0.301   2.863   6.705
 4876SOL     OW15526   6.942   1.408   6.996
 4876SOL    HW115527   6.960   1.503   0.005
 4876SOL    HW215528   0.004   1.371   6.948
 4877SOL     OW15529   5.026   1.782   1.806
 4877SOL    HW115530   5.056   1.826   1.721
 4877SOL    HW215531   5.061   1.835   1.883
 4878SOL     OW15532   1.190   3.017   1.539
 4878SOL    HW115533   1.259   3.043   1.607
 4878SOL    HW215534   1.230   2.957   1.470
 4879SOL     OW15535   4.486   5.785   3.603
 4879SOL    HW115536   4.463   5.703   3.551
 4879SOL    HW215537   4.406   5.815   3.655
 4880SOL     OW15538   6.024   1.620   5.510
 4880SOL    HW115539   5.962   1.641   5.434
 4880SOL    HW215540   5.999   1.675   5.589
 4881SOL     OW15541   2.546   5.705   5.764
 4881SOL    HW115542   2.519   5.623   5.714
 4881SOL    HW215543   2.489   5.715   5.845
 4882SOL     OW15544   5.337   5.762   6.980
 4882SOL    HW115545   5.265   5.778   0.029
 4882SOL    HW215546   5.316   5.810   6.895
 4883SOL     OW15547   6.269   5.173   6.535
 4883SOL    HW115548   6.220   5.255   6.564
 4883SOL    HW215549   6.365   5.194   6.522
 4884SOL     OW15550   3.803   6.474   2.038
 4884SOL    HW115551   3.707   6.447   2.030
 4884SOL    HW215552   3.814   6.566   2.000
 4885SOL     OW15553   1.505   0.470   1.938
 4885SOL    HW115554   1.477   0.498   2.030
 4885SOL    HW215555   1.427   0.471   1.877
 4886SOL     OW15556   6.019   0.535   5.449
 4886SOL    HW115557   5.934   0.587   5.435
 4886SOL    HW215558   6.017   0.491   5.539
 4887SOL     OW15559   0.937   1.731   5.274
 4887SOL    HW115560   0.965   1.823   5.251
 4887SOL    HW215561   1.016   1.670   5.276
 4888SOL     OW15562   3.668   6.001   1.685
 4888SOL    HW115563   3.644   5.904   1.694
 4888SOL    HW215564   3.765   6.008   1.659
 4889SOL     OW15565   1.294   3.505   6.666
 4889SOL    HW115566   1.276   3.592   6.711
 4889SOL    HW215567   1.216   3.480   6.609
 4890SOL     OW15568   0.297   0.512   4.118
 4890SOL    HW115569   0.359   0.484   4.191
 4890SOL    HW215570   0.207   0.469   4.132
 4891SOL     OW15571   0.804   4.263   0.581
 4891SOL    HW115572   0.868   4.186   0.569
 4891SOL    HW215573   0.787   4.277   0.678
 4892SOL     OW15574   2.029   5.551   2.106
 4892SOL    HW115575   1.936   5.539   2.141
 4892SOL    HW215576   2.035   5.512   2.014
 4893SOL     OW15577   0.248   3.871   6.313
 4893SOL    HW115578   0.236   3.772   6.323
 4893SOL    HW215579   0.211   3.900   6.226
 4894SOL     OW15580   0.695   6.769   3.374
 4894SOL    HW115581   0.732   6.862   3.368
 4894SOL    HW215582   0.700   6.726   3.284
 4895SOL     OW15583   6.420   3.924   6.818
 4895SOL    HW115584   6.506   3.969   6.794
 4895SOL    HW215585   6.393   3.862   6.745
 4896SOL     OW15586   4.414   6.942   4.225
 4896SOL    HW115587   4.475   6.883   4.173
 4896SOL    HW215588   4.364   7.002   4.163
 4897SOL     OW15589   2.838   6.183   6.516
 4897SOL    HW115590   2.768   6.134   6.568
 4897SOL    HW215591   2.814   6.182   6.419
 4898SOL     OW15592   5.732   2.132   4.686
 4898SOL    HW115593   5.749   2.040   4.649
 4898SOL    HW215594   5.664   2.178   4.629
 4899SOL     OW15595   5.639   4.332   4.442
 4899SOL    HW115596   5.667   4.236   4.432
 4899SOL    HW215597   5.700   4.391   4.390
 4900SOL     OW15598   1.180   6.459   4.673
 4900SOL    HW115599   1.086   6.492   4.672
 4900SOL    HW215600   1.201   6.421   4.763
 4901SOL     OW15601   6.921   6.421   3.057
 4901SOL    HW115602   7.003   6.478   3.057
 4901SOL    HW215603   6.913   6.374   3.144
 4902SOL     OW15604   3.824   4.858   0.792
 4902SOL    HW115605   3.901   4.831   0.849
 4902SOL    HW215606   3.752   4.789   0.798
 4903SOL     OW15607   6.074   5.268   5.931
 4903SOL    HW115608   6.086   5.291   6.028
 4903SOL    HW215609   5.999   5.324   5.893
 4904SOL     OW15610   2.496   0.607   3.389
 4904SOL    HW115611   2.428   0.576   3.456
 4904SOL    HW215612   2.581   0.555   3.400
 4905SOL     OW15613   6.453   3.474   3.328
 4905SOL    HW115614   6.460   3.565   3.286
 4905SOL    HW215615   6.512   3.470   3.408
 4906SOL     OW15616   5.374   0.416   1.248
 4906SOL    HW115617   5.307   0.389   1.317
 4906SOL    HW215618   5.458   0.364   1.261
 4907SOL     OW15619   2.765   1.960   1.638
 4907SOL    HW115620   2.718   2.046   1.659
 4907SOL    HW215621   2.849   1.979   1.589
 4908SOL     OW15622   4.179   6.112   0.307
 4908SOL    HW115623   4.203   6.196   0.357
 4908SOL    HW215624   4.081   6.093   0.318
 4909SOL     OW15625   6.304   6.983   5.216
 4909SOL    HW115626   6.341   6.905   5.265
 4909SOL    HW215627   6.340   0.051   5.254
 4910SOL     OW15628   5.280   6.187   5.773
 4910SOL    HW115629   5.187   6.168   5.740
 4910SOL    HW215630   5.341   6.115   5.740
 4911SOL     OW15631   0.645   4.041   6.671
 4911SOL    HW115632   0.547   4.046   6.690
 4911SOL    HW215633   0.660   4.048   6.573
 4912SOL     OW15634   2.462   2.610   1.382
 4912SOL    HW115635   2.426   2.517   1.376
 4912SOL    HW215636   2.438   2.661   1.299
 4913SOL     OW15637   2.562   2.965   1.714
 4913SOL    HW115638   2.464   2.960   1.733
 4913SOL    HW215639   2.580   2.922   1.625
 4914SOL     OW15640   1.720   6.676   2.660
 4914SOL    HW115641   1.727   6.774   2.646
 4914SOL    HW215642   1.812   6.637   2.669
 4915SOL     OW15643   3.246   6.574   3.607
 4915SOL    HW115644   3.249   6.511   3.529
 4915SOL    HW215645   3.321   6.552   3.670
 4916SOL     OW15646   1.457   1.941   2.098
 4916SOL    HW115647   1.550   1.904   2.099
 4916SOL    HW215648   1.396   1.877   2.145
 4917SOL     OW15649   1.917   3.443   6.315
 4917SOL    HW115650   1.849   3.480   6.252
 4917SOL    HW215651   2.006   3.483   6.295
 4918SOL     OW15652   2.351   0.281   3.443
 4918SOL    HW115653   2.444   0.289   3.408
 4918SOL    HW215654   2.309   0.197   3.411
 4919SOL     OW15655   2.315   3.247   1.633
 4919SOL    HW115656   2.354   3.296   1.711
 4919SOL    HW215657   2.346   3.152   1.634
 4920SOL     OW15658   3.383   0.939   0.092
 4920SOL    HW115659   3.329   0.928   0.009
 4920SOL    HW215660   3.359   0.866   0.157
 4921SOL     OW15661   6.472   4.740   1.833
 4921SOL    HW115662   6.528   4.818   1.804
 4921SOL    HW215663   6.384   4.772   1.865
 4922SOL     OW15664   0.940   3.108   5.978
 4922SOL    HW115665   0.966   3.170   5.904
 4922SOL    HW215666   0.924   3.016   5.941
 4923SOL     OW15667   2.765   2.208   6.635
 4923SOL    HW115668   2.713   2.130   6.671
 4923SOL    HW215669   2.840   2.174   6.577
 4924SOL     OW15670   0.323   3.317   4.246
 4924SOL    HW115671   0.322   3.337   4.344
 4924SOL    HW215672   0.286   3.395   4.195
 4925SOL     OW15673   5.008   5.334   5.794
 4925SOL    HW115674   5.067   5.259   5.765
 4925SOL    HW215675   5.062   5.401   5.844
 4926SOL     OW15676   4.489   2.957   0.390
 4926SOL    HW115677   4.558   3.027   0.406
 4926SOL    HW215678   4.517   2.872   0.436
 4927SOL     OW15679   3.282   4.020   2.135
 4927SOL    HW115680   3.357   4.086   2.130
 4927SOL    HW215681   3.318   3.930   2.159
 4928SOL     OW15682   0.566   0.651   0.433
 4928SOL    HW115683   0.581   0.605   0.521
 4928SOL    HW215684   0.564   0.750   0.448
 4929SOL     OW15685   1.316   4.891   4.345
 4929SOL    HW115686   1.292   4.952   4.420
 4929SOL    HW215687   1.341   4.945   4.265
 4930SOL     OW15688   0.428   3.260   0.606
 4930SOL    HW115689   0.362   3.311   0.553
 4930SOL    HW215690   0.391   3.241   0.697
 4931SOL     OW15691   5.618   6.751   1.524
 4931SOL    HW115692   5.634   6.850   1.532
 4931SOL    HW215693   5.564   6.720   1.602
 4932SOL     OW15694   3.575   1.780   1.105
 4932SOL    HW115695   3.590   1.845   1.031
 4932SOL    HW215696   3.530   1.698   1.070
 4933SOL     OW15697   3.070   6.834   4.639
 4933SOL    HW115698   3.158   6.879   4.622
 4933SOL    HW215699   3.069   6.797   4.732
 4934SOL     OW15700   2.057   5.667   5.209
 4934SOL    HW115701   2.077   5.575   5.241
 4934SOL    HW215702   2.037   5.727   5.287
 4935SOL     OW15703   2.111   2.492   0.558
 4935SOL    HW115704   2.017   2.502   0.589
 4935SOL    HW215705   2.173   2.497   0.636
 4936SOL     OW15706   5.779   4.583   1.418
 4936SOL    HW115707   5.796   4.488   1.390
 4936SOL    HW215708   5.779   4.589   1.518
 4937SOL     OW15709   0.651   3.540   4.613
 4937SOL    HW115710   0.573   3.550   4.675
 4937SOL    HW215711   0.622   3.560   4.519
 4938SOL     OW15712   3.456   4.434   1.721
 4938SOL    HW115713   3.437   4.385   1.807
 4938SOL    HW215714   3.522   4.507   1.738
 4939SOL     OW15715   1.159   1.552   1.118
 4939SOL    HW115716   1.157   1.609   1.199
 4939SOL    HW215717   1.210   1.598   1.045
 4940SOL     OW15718   1.163   2.069   5.534
 4940SOL    HW115719   1.163   2.030   5.626
 4940SOL    HW215720   1.106   2.151   5.533
 4941SOL     OW15721   4.152   2.336   5.479
 4941SOL    HW115722   4.146   2.429   5.517
 4941SOL    HW215723   4.102   2.272   5.537
 4942SOL     OW15724   6.458   0.924   3.299
 4942SOL    HW115725   6.479   0.827   3.309
 4942SOL    HW215726   6.543   0.977   3.305
 4943SOL     OW15727   4.546   2.227   6.301
 4943SOL    HW115728   4.479   2.153   6.310
 4943SOL    HW215729   4.536   2.290   6.377
 4944SOL     OW15730   1.298   4.932   0.500
 4944SOL    HW115731   1.358   4.934   0.580
 4944SOL    HW215732   1.235   5.009   0.502
 4945SOL     OW15733   3.006   0.502   5.253
 4945SOL    HW115734   2.965   0.413   5.274
 4945SOL    HW215735   2.991   0.564   5.331
 4946SOL     OW15736   3.011   5.815   0.449
 4946SOL    HW115737   3.034   5.725   0.485
 4946SOL    HW215738   3.090   5.876   0.456
 4947SOL     OW15739   0.837   0.310   1.226
 4947SOL    HW115740   0.914   0.347   1.173
 4947SOL    HW215741   0.844   0.210   1.228
 4948SOL     OW15742   1.697   2.310   1.980
 4948SOL    HW115743   1.757   2.351   2.049
 4948SOL    HW215744   1.603   2.306   2.015
 4949SOL     OW15745   6.368   4.482   5.549
 4949SOL    HW115746   6.428   4.516   5.622
 4949SOL    HW215747   6.375   4.542   5.469
 4950SOL     OW15748   3.928   4.184   5.186
 4950SOL    HW115749   3.978   4.172   5.272
 4950SOL    HW215750   3.990   4.218   5.115
 4951SOL     OW15751   4.912   5.021   3.393
 4951SOL    HW115752   4.856   5.071   3.459
 4951SOL    HW215753   4.958   4.945   3.440
 4952SOL     OW15754   0.635   0.893   6.895
 4952SOL    HW115755   0.725   0.906   6.938
 4952SOL    HW215756   0.637   0.810   6.839
 4953SOL     OW15757   1.426   2.195   5.059
 4953SOL    HW115758   1.341   2.227   5.018
 4953SOL    HW215759   1.419   2.097   5.080
 4954SOL     OW15760   3.056   3.936   4.863
 4954SOL    HW115761   3.125   3.864   4.855
 4954SOL    HW215762   3.101   4.024   4.878
 4955SOL     OW15763   3.993   5.945   0.062
 4955SOL    HW115764   4.014   5.857   0.106
 4955SOL    HW215765   3.989   6.016   0.132
 4956SOL     OW15766   2.536   0.408   4.933
 4956SOL    HW115767   2.478   0.469   4.879
 4956SOL    HW215768   2.624   0.396   4.886
 4957SOL     OW15769   5.737   5.289   0.131
 4957SOL    HW115770   5.765   5.253   0.043
 4957SOL    HW215771   5.679   5.222   0.178
 4958SOL     OW15772   3.625   5.445   0.005
 4958SOL    HW115773   3.553   5.399   0.057
 4958SOL    HW215774   3.612   5.428   6.925
 4959SOL     OW15775   0.115   2.570   2.498
 4959SOL    HW115776   0.173   2.557   2.578
 4959SOL    HW215777   0.054   2.491   2.487
 4960SOL     OW15778   5.381   4.427   4.223
 4960SOL    HW115779   5.431   4.340   4.225
 4960SOL    HW215780   5.431   4.495   4.277
 4961SOL     OW15781   3.396   2.812   2.228
 4961SOL    HW115782   3.410   2.796   2.130
 4961SOL    HW215783   3.325   2.750   2.262
 4962SOL     OW15784   1.712   2.860   0.109
 4962SOL    HW115785   1.807   2.862   0.141
 4962SOL    HW215786   1.685   2.765   0.092
 4963SOL     OW15787   0.507   4.238   6.507
 4963SOL    HW115788   0.605   4.252   6.497
 4963SOL    HW215789   0.459   4.325   6.501
 4964SOL     OW15790   1.753   4.780   4.084
 4964SOL    HW115791   1.784   4.786   3.989
 4964SOL    HW215792   1.815   4.833   4.142
 4965SOL     OW15793   2.359   6.978   2.738
 4965SOL    HW115794   2.260   6.990   2.726
 4965SOL    HW215795   2.399   0.048   2.766
 4966SOL     OW15796   4.255   0.137   5.111
 4966SOL    HW115797   4.166   0.102   5.141
 4966SOL    HW215798   4.323   0.119   5.183
 4967SOL     OW15799   4.503   4.531   4.000
 4967SOL    HW115800   4.497   4.571   4.092
 4967SOL    HW215801   4.559   4.449   4.003
 4968SOL     OW15802   6.690   3.102   4.128
 4968SOL    HW115803   6.765   3.167   4.117
 4968SOL    HW215804   6.722   3.023   4.179
 4969SOL     OW15805   0.423   5.760   4.621
 4969SOL    HW115806   0.332   5.800   4.636
 4969SOL    HW215807   0.493   5.830   4.630
 4970SOL     OW15808   2.085   1.364   1.779
 4970SOL    HW115809   2.120   1.282   1.734
 4970SOL    HW215810   2.048   1.426   1.711
 4971SOL     OW15811   0.115   5.536   1.340
 4971SOL    HW115812   0.077   5.472   1.407
 4971SOL    HW215813   0.187   5.590   1.383
 4972SOL     OW15814   0.074   4.277   6.887
 4972SOL    HW115815   0.067   4.197   6.947
 4972SOL    HW215816   7.008   4.332   6.894
 4973SOL     OW15817   5.542   1.914   6.768
 4973SOL    HW115818   5.541   2.004   6.811
 4973SOL    HW215819   5.482   1.852   6.818
 4974SOL     OW15820   3.320   6.980   5.394
 4974SOL    HW115821   3.361   0.040   5.346
 4974SOL    HW215822   3.222   6.997   5.408
 4975SOL     OW15823   5.454   4.443   1.263
 4975SOL    HW115824   5.386   4.371   1.246
 4975SOL    HW215825   5.469   4.495   1.180
 4976SOL     OW15826   0.696   0.419   3.597
 4976SOL    HW115827   0.775   0.381   3.646
 4976SOL    HW215828   0.652   0.488   3.653
 4977SOL     OW15829   1.464   3.808   5.558
 4977SOL    HW115830   1.487   3.739   5.489
 4977SOL    HW215831   1.383   3.859   5.529
 4978SOL     OW15832   6.436   4.302   4.817
 4978SOL    HW115833   6.528   4.284   4.783
 4978SOL    HW215834   6.437   4.382   4.877
 4979SOL     OW15835   2.494   6.767   6.554
 4979SOL    HW115836   2.460   6.768   6.460
 4979SOL    HW215837   2.561   6.694   6.564
 4980SOL     OW15838   5.909   3.113   4.318
 4980SOL    HW115839   5.932   3.139   4.412
 4980SOL    HW215840   5.822   3.155   4.292
 4981SOL     OW15841   3.600   6.052   3.420
 4981SOL    HW115842   3.582   5.973   3.479
 4981SOL    HW215843   3.625   6.020   3.329
 4982SOL     OW15844   3.959   2.036   4.904
 4982SOL    HW115845   3.889   2.042   4.833
 4982SOL    HW215846   3.916   2.022   4.993
 4983SOL     OW15847   6.205   3.677   2.820
 4983SOL    HW115848   6.138   3.709   2.888
 4983SOL    HW215849   6.156   3.646   2.738
 4984SOL     OW15850   4.966   3.632   4.821
 4984SOL    HW115851   4.944   3.576   4.741
 4984SOL    HW215852   4.905   3.609   4.896
 4985SOL     OW15853   5.851   0.324   2.018
 4985SOL    HW115854   5.871   0.309   2.115
 4985SOL    HW215855   5.792   0.404   2.008
 4986SOL     OW15856   0.983   4.889   1.247
 4986SOL    HW115857   1.026   4.931   1.327
 4986SOL    HW215858   0.903   4.837   1.276
 4987SOL     OW15859   1.676   2.781   2.925
 4987SOL    HW115860   1.727   2.767   3.010
 4987SOL    HW215861   1.618   2.701   2.907
 4988SOL     OW15862   6.338   5.527   4.285
 4988SOL    HW115863   6.375   5.571   4.203
 4988SOL    HW215864   6.412   5.481   4.334
 4989SOL     OW15865   6.308   0.046   3.707
 4989SOL    HW115866   6.405   0.028   3.727
 4989SOL    HW215867   6.295   0.144   3.693
 4990SOL     OW15868   4.487   1.695   6.581
 4990SOL    HW115869   4.543   1.711   6.662
 4990SOL    HW215870   4.468   1.597   6.573
 4991SOL     OW15871   1.686   6.004   6.352
 4991SOL    HW115872   1.755   6.056   6.402
 4991SOL    HW215873   1.625   6.066   6.304
 4992SOL     OW15874   1.489   4.130   4.165
 4992SOL    HW115875   1.500   4.039   4.205
 4992SOL    HW215876   1.394   4.160   4.176
 4993SOL     OW15877   2.137   6.224   3.649
 4993SOL    HW115878   2.075   6.171   3.706
 4993SOL    HW215879   2.222   6.173   3.635
 4994SOL     OW15880   3.433   5.350   5.074
 4994SOL    HW115881   3.346   5.302   5.061
 4994SOL    HW215882   3.490   5.300   5.139
 4995SOL     OW15883   0.313   0.648   6.191
 4995SOL    HW115884   0.305   0.549   6.206
 4995SOL    HW215885   0.409   0.672   6.181
 4996SOL     OW15886   6.758   0.986   3.731
 4996SOL    HW115887   6.755   1.085   3.719
 4996SOL    HW215888   6.689   0.944   3.672
 4997SOL     OW15889   4.178   1.592   0.658
 4997SOL    HW115890   4.273   1.562   0.665
 4997SOL    HW215891   4.126   1.558   0.736
 4998SOL     OW15892   0.906   3.903   3.543
 4998SOL    HW115893   0.917   3.941   3.451
 4998SOL    HW215894   0.817   3.860   3.550
 4999SOL     OW15895   0.922   3.389   3.927
 4999SOL    HW115896   0.992   3.387   3.998
 4999SOL    HW215897   0.954   3.445   3.851
 5000SOL     OW15898   2.611   6.676   2.947
 5000SOL    HW115899   2.698   6.633   2.922
 5000SOL    HW215900   2.624   6.775   2.955
 5001SOL     OW15901   0.567   5.555   3.077
 5001SOL    HW115902   0.569   5.553   3.177
 5001SOL    HW215903   0.496   5.619   3.047
 5002SOL     OW15904   1.605   4.770   3.748
 5002SOL    HW115905   1.652   4.847   3.791
 5002SOL    HW215906   1.509   4.769   3.776
 5003SOL     OW15907   3.528   0.636   2.429
 5003SOL    HW115908   3.467   0.686   2.490
 5003SOL    HW215909   3.532   0.540   2.458
 5004SOL     OW15910   3.757   6.194   0.531
 5004SOL    HW115911   3.741   6.158   0.623
 5004SOL    HW215912   3.851   6.228   0.526
 5005SOL     OW15913   3.411   2.604   0.910
 5005SOL    HW115914   3.430   2.536   0.839
 5005SOL    HW215915   3.363   2.560   0.986
 5006SOL     OW15916   5.410   0.660   2.239
 5006SOL    HW115917   5.428   0.718   2.318
 5006SOL    HW215918   5.459   0.696   2.159
 5007SOL     OW15919   6.241   5.548   2.173
 5007SOL    HW115920   6.173   5.531   2.103
 5007SOL    HW215921   6.241   5.474   2.240
 5008SOL     OW15922   5.049   0.046   3.283
 5008SOL    HW115923   5.013   6.989   3.339
 5008SOL    HW215924   5.046   0.132   3.334
 5009SOL     OW15925   0.575   1.939   0.517
 5009SOL    HW115926   0.559   2.032   0.550
 5009SOL    HW215927   0.667   1.909   0.545
 5010SOL     OW15928   4.776   3.682   1.222
 5010SOL    HW115929   4.842   3.609   1.239
 5010SOL    HW215930   4.819   3.754   1.167
 5011SOL     OW15931   1.941   2.643   6.115
 5011SOL    HW115932   1.995   2.585   6.055
 5011SOL    HW215933   1.961   2.739   6.096
 5012SOL     OW15934   6.320   1.463   6.022
 5012SOL    HW115935   6.400   1.462   5.963
 5012SOL    HW215936   6.249   1.405   5.982
 5013SOL     OW15937   5.323   6.906   5.775
 5013SOL    HW115938   5.306   6.949   5.686
 5013SOL    HW215939   5.359   6.974   5.838
 5014SOL     OW15940   5.963   3.406   1.726
 5014SOL    HW115941   6.044   3.404   1.667
 5014SOL    HW215942   5.917   3.494   1.715
 5015SOL     OW15943   6.191   5.303   4.355
 5015SOL    HW115944   6.245   5.373   4.308
 5015SOL    HW215945   6.187   5.323   4.452
 5016SOL     OW15946   1.566   3.058   6.386
 5016SOL    HW115947   1.641   3.123   6.395
 5016SOL    HW215948   1.495   3.080   6.453
 5017SOL     OW15949   0.121   2.561   1.869
 5017SOL    HW115950   0.130   2.640   1.808
 5017SOL    HW215951   0.059   2.583   1.943
 5018SOL     OW15952   1.175   0.818   6.789
 5018SOL    HW115953   1.111   0.890   6.762
 5018SOL    HW215954   1.155   0.735   6.738
 5019SOL     OW15955   1.480   4.405   3.976
 5019SOL    HW115956   1.401   4.356   4.011
 5019SOL    HW215957   1.532   4.443   4.053
 5020SOL     OW15958   1.834   0.322   4.342
 5020SOL    HW115959   1.831   0.422   4.350
 5020SOL    HW215960   1.742   0.285   4.344
 5021SOL     OW15961   2.849   0.997   1.452
 5021SOL    HW115962   2.806   0.944   1.525
 5021SOL    HW215963   2.855   0.940   1.369
 5022SOL     OW15964   6.615   2.656   1.102
 5022SOL    HW115965   6.530   2.639   1.051
 5022SOL    HW215966   6.595   2.715   1.180
 5023SOL     OW15967   0.249   3.992   2.920
 5023SOL    HW115968   0.244   3.921   2.990
 5023SOL    HW215969   0.264   3.950   2.831
 5024SOL     OW15970   4.827   3.937   0.584
 5024SOL    HW115971   4.905   3.970   0.637
 5024SOL    HW215972   4.799   4.007   0.518
 5025SOL     OW15973   4.841   1.959   4.640
 5025SOL    HW115974   4.812   1.922   4.728
 5025SOL    HW215975   4.825   2.058   4.638
 5026SOL     OW15976   5.337   6.171   4.594
 5026SOL    HW115977   5.399   6.204   4.665
 5026SOL    HW215978   5.257   6.232   4.590
 5027SOL     OW15979   5.562   6.740   0.787
 5027SOL    HW115980   5.639   6.681   0.813
 5027SOL    HW215981   5.506   6.694   0.719
 5028SOL     OW15982   6.119   1.714   2.273
 5028SOL    HW115983   6.210   1.732   2.235
 5028SOL    HW215984   6.074   1.801   2.294
 5029SOL     OW15985   4.870   2.039   2.450
 5029SOL    HW115986   4.944   1.988   2.493
 5029SOL    HW215987   4.792   1.979   2.435
 5030SOL     OW15988   0.279   3.600   0.242
 5030SOL    HW115989   0.311   3.684   0.287
 5030SOL    HW215990   0.192   3.617   0.197
 5031SOL     OW15991   6.428   0.142   5.887
 5031SOL    HW115992   6.499   0.139   5.958
 5031SOL    HW215993   6.392   0.050   5.871
 5032SOL     OW15994   2.588   3.809   5.891
 5032SOL    HW115995   2.580   3.728   5.949
 5032SOL    HW215996   2.643   3.878   5.938
 5033SOL     OW15997   2.285   0.074   5.965
 5033SOL    HW115998   2.268   0.002   6.033
 5033SOL    HW215999   2.352   0.043   5.899
 5034SOL     OW16000   4.448   6.212   4.599
 5034SOL    HW116001   4.462   6.278   4.526
 5034SOL    HW216002   4.351   6.184   4.602
 5035SOL     OW16003   2.119   3.731   3.934
 5035SOL    HW116004   2.122   3.683   4.022
 5035SOL    HW216005   2.129   3.665   3.860
 5036SOL     OW16006   1.354   2.814   4.805
 5036SOL    HW116007   1.388   2.862   4.724
 5036SOL    HW216008   1.329   2.881   4.875
 5037SOL     OW16009   4.488   4.203   0.932
 5037SOL    HW116010   4.429   4.271   0.976
 5037SOL    HW216011   4.460   4.111   0.961
 5038SOL     OW16012   3.293   3.740   3.537
 5038SOL    HW116013   3.279   3.665   3.601
 5038SOL    HW216014   3.386   3.776   3.548
 5039SOL     OW16015   1.009   4.003   0.424
 5039SOL    HW116016   0.959   3.972   0.343
 5039SOL    HW216017   1.058   4.088   0.403
 5040SOL     OW16018   0.202   1.660   5.209
 5040SOL    HW116019   0.155   1.698   5.289
 5040SOL    HW216020   0.298   1.646   5.231
 5041SOL     OW16021   6.970   2.031   1.454
 5041SOL    HW116022   0.015   2.014   1.531
 5041SOL    HW216023   6.904   1.957   1.448
 5042SOL     OW16024   1.233   2.325   5.884
 5042SOL    HW116025   1.269   2.402   5.937
 5042SOL    HW216026   1.292   2.307   5.806
 5043SOL     OW16027   3.294   6.576   1.993
 5043SOL    HW116028   3.257   6.551   1.903
 5043SOL    HW216029   3.337   6.495   2.034
 5044SOL     OW16030   0.068   5.654   0.075
 5044SOL    HW116031   0.027   5.743   0.055
 5044SOL    HW216032   0.065   5.597   7.010
 5045SOL     OW16033   5.686   2.398   0.491
 5045SOL    HW116034   5.670   2.381   0.588
 5045SOL    HW216035   5.691   2.310   0.442
 5046SOL     OW16036   3.862   3.398   2.556
 5046SOL    HW116037   3.798   3.380   2.631
 5046SOL    HW216038   3.954   3.366   2.582
 5047SOL     OW16039   1.896   3.695   3.650
 5047SOL    HW116040   1.806   3.651   3.655
 5047SOL    HW216041   1.966   3.634   3.688
 5048SOL     OW16042   2.702   0.192   6.545
 5048SOL    HW116043   2.691   0.104   6.592
 5048SOL    HW216044   2.711   0.265   6.613
 5049SOL     OW16045   4.189   1.862   0.010
 5049SOL    HW116046   4.240   1.805   6.962
 5049SOL    HW216047   4.166   1.807   0.090
 5050SOL     OW16048   1.559   0.632   0.675
 5050SOL    HW116049   1.469   0.587   0.678
 5050SOL    HW216050   1.590   0.638   0.580
 5051SOL     OW16051   4.899   5.097   1.591
 5051SOL    HW116052   4.846   5.059   1.515
 5051SOL    HW216053   4.925   5.024   1.654
 5052SOL     OW16054   1.824   2.806   5.015
 5052SOL    HW116055   1.837   2.710   5.041
 5052SOL    HW216056   1.880   2.864   5.074
 5053SOL     OW16057   6.863   0.968   1.171
 5053SOL    HW116058   6.811   1.017   1.241
 5053SOL    HW216059   6.836   0.871   1.172
 5054SOL     OW16060   4.024   5.448   3.596
 5054SOL    HW116061   3.937   5.492   3.619
 5054SOL    HW216062   4.077   5.435   3.680
 5055SOL     OW16063   0.217   3.631   5.692
 5055SOL    HW116064   0.157   3.636   5.612
 5055SOL    HW216065   0.263   3.719   5.705
 5056SOL     OW16066   6.249   3.780   3.946
 5056SOL    HW116067   6.232   3.704   4.010
 5056SOL    HW216068   6.189   3.771   3.867
 5057SOL     OW16069   0.240   5.557   2.262
 5057SOL    HW116070   0.188   5.471   2.262
 5057SOL    HW216071   0.186   5.628   2.307
 5058SOL     OW16072   2.697   5.342   5.714
 5058SOL    HW116073   2.646   5.393   5.784
 5058SOL    HW216074   2.761   5.404   5.669
 5059SOL     OW16075   6.779   0.309   2.457
 5059SOL    HW116076   6.733   0.331   2.372
 5059SOL    HW216077   6.874   0.340   2.452
 5060SOL     OW16078   0.102   2.521   6.025
 5060SOL    HW116079   0.094   2.548   5.929
 5060SOL    HW216080   0.126   2.600   6.081
 5061SOL     OW16081   5.161   3.646   1.167
 5061SOL    HW116082   5.198   3.733   1.200
 5061SOL    HW216083   5.122   3.595   1.244
 5062SOL     OW16084   6.563   0.277   0.772
 5062SOL    HW116085   6.470   0.247   0.754
 5062SOL    HW216086   6.618   0.199   0.804
 5063SOL     OW16087   1.342   6.061   2.280
 5063SOL    HW116088   1.299   6.041   2.368
 5063SOL    HW216089   1.348   6.160   2.268
 5064SOL     OW16090   4.908   3.975   0.046
 5064SOL    HW116091   4.948   3.887   0.024
 5064SOL    HW216092   4.820   3.985   7.016
 5065SOL     OW16093   2.672   6.362   6.062
 5065SOL    HW116094   2.594   6.425   6.072
 5065SOL    HW216095   2.746   6.407   6.012
 5066SOL     OW16096   5.000   5.006   1.291
 5066SOL    HW116097   5.047   5.075   1.237
 5066SOL    HW216098   4.907   5.037   1.311
 5067SOL     OW16099   5.206   1.158   6.783
 5067SOL    HW116100   5.113   1.175   6.752
 5067SOL    HW216101   5.216   1.192   6.877
 5068SOL     OW16102   3.663   4.633   1.385
 5068SOL    HW116103   3.624   4.682   1.307
 5068SOL    HW216104   3.694   4.543   1.355
 5069SOL     OW16105   6.524   5.356   2.870
 5069SOL    HW116106   6.529   5.453   2.849
 5069SOL    HW216107   6.432   5.333   2.904
 5070SOL     OW16108   4.850   3.311   3.866
 5070SOL    HW116109   4.848   3.234   3.802
 5070SOL    HW216110   4.842   3.277   3.960
 5071SOL     OW16111   4.214   1.059   6.955
 5071SOL    HW116112   4.207   1.020   0.030
 5071SOL    HW216113   4.310   1.057   6.925
 5072SOL     OW16114   0.951   3.996   0.904
 5072SOL    HW116115   1.012   3.918   0.919
 5072SOL    HW216116   1.003   4.081   0.914
 5073SOL     OW16117   4.408   1.915   4.377
 5073SOL    HW116118   4.367   1.925   4.468
 5073SOL    HW216119   4.338   1.887   4.312
 5074SOL     OW16120   4.129   4.857   4.963
 5074SOL    HW116121   4.102   4.825   5.053
 5074SOL    HW216122   4.128   4.957   4.961
 5075SOL     OW16123   6.525   6.763   3.964
 5075SOL    HW116124   6.520   6.810   4.051
 5075SOL    HW216125   6.441   6.778   3.912
 5076SOL     OW16126   4.095   0.645   1.143
 5076SOL    HW116127   4.031   0.720   1.122
 5076SOL    HW216128   4.115   0.645   1.241
 5077SOL     OW16129   6.721   2.864   2.128
 5077SOL    HW116130   6.806   2.853   2.179
 5077SOL    HW216131   6.687   2.957   2.139
 5078SOL     OW16132   0.024   1.263   4.167
 5078SOL    HW116133   0.083   1.183   4.160
 5078SOL    HW216134   6.998   1.280   4.079
 5079SOL     OW16135   4.613   4.810   4.825
 5079SOL    HW116136   4.622   4.909   4.807
 5079SOL    HW216137   4.517   4.789   4.842
 5080SOL     OW16138   5.911   0.347   5.688
 5080SOL    HW116139   5.848   0.349   5.766
 5080SOL    HW216140   6.005   0.348   5.721
 5081SOL     OW16141   3.388   3.524   2.875
 5081SOL    HW116142   3.383   3.481   2.785
 5081SOL    HW216143   3.361   3.459   2.945
 5082SOL     OW16144   0.115   0.201   5.980
 5082SOL    HW116145   0.186   0.196   6.050
 5082SOL    HW216146   0.040   0.140   6.005
 5083SOL     OW16147   1.251   5.960   2.024
 5083SOL    HW116148   1.278   5.993   2.115
 5083SOL    HW216149   1.333   5.945   1.969
 5084SOL     OW16150   1.179   5.731   2.190
 5084SOL    HW116151   1.254   5.666   2.201
 5084SOL    HW216152   1.200   5.793   2.114
 5085SOL     OW16153   6.617   3.449   6.635
 5085SOL    HW116154   6.703   3.429   6.588
 5085SOL    HW216155   6.616   3.402   6.723
 5086SOL     OW16156   7.002   5.337   4.669
 5086SOL    HW116157   6.928   5.286   4.714
 5086SOL    HW216158   6.966   5.383   4.588
 5087SOL     OW16159   6.601   5.353   5.133
 5087SOL    HW116160   6.636   5.335   5.225
 5087SOL    HW216161   6.654   5.428   5.092
 5088SOL     OW16162   6.060   0.823   0.340
 5088SOL    HW116163   6.023   0.843   0.431
 5088SOL    HW216164   6.130   0.891   0.317
 5089SOL     OW16165   5.711   2.781   4.483
 5089SOL    HW116166   5.710   2.697   4.538
 5089SOL    HW216167   5.805   2.804   4.460
 5090SOL     OW16168   0.628   5.072   0.443
 5090SOL    HW116169   0.657   5.092   0.537
 5090SOL    HW216170   0.572   5.148   0.408
 5091SOL     OW16171   1.380   6.609   3.814
 5091SOL    HW116172   1.442   6.541   3.853
 5091SOL    HW216173   1.403   6.700   3.850
 5092SOL     OW16174   3.271   2.959   1.131
 5092SOL    HW116175   3.181   2.997   1.155
 5092SOL    HW216176   3.313   2.919   1.212
 5093SOL     OW16177   1.083   2.100   1.189
 5093SOL    HW116178   1.009   2.163   1.215
 5093SOL    HW216179   1.047   2.029   1.128
 5094SOL     OW16180   0.082   0.224   0.024
 5094SOL    HW116181   0.086   0.200   0.121
 5094SOL    HW216182   0.026   0.306   0.012
 5095SOL     OW16183   3.162   0.174   5.577
 5095SOL    HW116184   3.133   0.078   5.578
 5095SOL    HW216185   3.122   0.221   5.655
 5096SOL     OW16186   3.565   6.165   2.812
 5096SOL    HW116187   3.574   6.263   2.825
 5096SOL    HW216188   3.615   6.116   2.883
 5097SOL     OW16189   0.881   1.505   6.170
 5097SOL    HW116190   0.848   1.410   6.164
 5097SOL    HW216191   0.836   1.551   6.246
 5098SOL     OW16192   6.830   2.790   2.752
 5098SOL    HW116193   6.865   2.715   2.807
 5098SOL    HW216194   6.904   2.852   2.727
 5099SOL     OW16195   1.046   0.725   4.132
 5099SOL    HW116196   1.060   0.772   4.045
 5099SOL    HW216197   1.096   0.639   4.133
 5100SOL     OW16198   4.955   5.335   6.054
 5100SOL    HW116199   4.969   5.318   5.957
 5100SOL    HW216200   5.021   5.404   6.085
 5101SOL     OW16201   4.830   6.295   0.505
 5101SOL    HW116202   4.820   6.196   0.516
 5101SOL    HW216203   4.907   6.327   0.560
 5102SOL     OW16204   3.701   5.448   3.953
 5102SOL    HW116205   3.621   5.415   4.003
 5102SOL    HW216206   3.677   5.462   3.857
 5103SOL     OW16207   1.442   1.389   4.197
 5103SOL    HW116208   1.484   1.480   4.198
 5103SOL    HW216209   1.474   1.336   4.275
 5104SOL     OW16210   0.784   0.753   1.188
 5104SOL    HW116211   0.802   0.795   1.277
 5104SOL    HW216212   0.801   0.655   1.194
 5105SOL     OW16213   1.964   2.906   6.061
 5105SOL    HW116214   2.028   2.933   6.134
 5105SOL    HW216215   1.885   2.967   6.063
 5106SOL     OW16216   2.706   0.011   2.226
 5106SOL    HW116217   2.766   0.057   2.292
 5106SOL    HW216218   2.738   0.030   2.133
 5107SOL     OW16219   1.919   6.865   6.813
 5107SOL    HW116220   1.983   6.853   6.738
 5107SOL    HW216221   1.968   6.856   6.900
 5108SOL     OW16222   3.420   3.971   3.963
 5108SOL    HW116223   3.363   4.041   4.007
 5108SOL    HW216224   3.493   4.016   3.912
 5109SOL     OW16225   6.611   1.959   2.419
 5109SOL    HW116226   6.636   2.021   2.345
 5109SOL    HW216227   6.536   1.997   2.472
 5110SOL     OW16228   2.185   5.900   5.407
 5110SOL    HW116229   2.213   5.995   5.410
 5110SOL    HW216230   2.233   5.848   5.478
 5111SOL     OW16231   1.454   0.785   0.044
 5111SOL    HW116232   1.399   0.834   0.112
 5111SOL    HW216233   1.475   0.846   6.985
 5112SOL     OW16234   0.417   6.776   3.361
 5112SOL    HW116235   0.389   6.738   3.273
 5112SOL    HW216236   0.511   6.747   3.381
 5113SOL     OW16237   0.453   0.434   6.425
 5113SOL    HW116238   0.461   0.517   6.480
 5113SOL    HW216239   0.537   0.421   6.372
 5114SOL     OW16240   4.172   5.727   6.288
 5114SOL    HW116241   4.206   5.818   6.267
 5114SOL    HW216242   4.109   5.732   6.365
 5115SOL     OW16243   2.150   3.805   4.928
 5115SOL    HW116244   2.156   3.730   4.994
 5115SOL    HW216245   2.210   3.880   4.958
 5116SOL     OW16246   6.655   3.435   0.964
 5116SOL    HW116247   6.598   3.356   0.941
 5116SOL    HW216248   6.669   3.491   0.883
 5117SOL     OW16249   2.869   5.050   2.715
 5117SOL    HW116250   2.864   4.973   2.652
 5117SOL    HW216251   2.806   5.036   2.791
 5118SOL     OW16252   3.793   6.707   1.932
 5118SOL    HW116253   3.774   6.805   1.939
 5118SOL    HW216254   3.725   6.664   1.873
 5119SOL     OW16255   6.138   0.135   2.657
 5119SOL    HW116256   6.136   0.047   2.608
 5119SOL    HW216257   6.179   0.121   2.747
 5120SOL     OW16258   3.264   1.212   2.275
 5120SOL    HW116259   3.277   1.297   2.223
 5120SOL    HW216260   3.319   1.139   2.234
 5121SOL     OW16261   0.696   3.704   3.998
 5121SOL    HW116262   0.736   3.708   3.906
 5121SOL    HW216263   0.735   3.626   4.047
 5122SOL     OW16264   2.727   5.318   3.530
 5122SOL    HW116265   2.682   5.230   3.515
 5122SOL    HW216266   2.667   5.378   3.582
 5123SOL     OW16267   6.415   3.435   1.978
 5123SOL    HW116268   6.499   3.488   1.991
 5123SOL    HW216269   6.338   3.487   2.014
 5124SOL     OW16270   2.548   6.167   0.892
 5124SOL    HW116271   2.626   6.201   0.943
 5124SOL    HW216272   2.516   6.081   0.932
 5125SOL     OW16273   0.130   2.005   5.771
 5125SOL    HW116274   0.113   2.066   5.848
 5125SOL    HW216275   0.187   2.052   5.703
 5126SOL     OW16276   4.179   2.283   0.119
 5126SOL    HW116277   4.131   2.230   0.189
 5126SOL    HW216278   4.233   2.355   0.163
 5127SOL     OW16279   5.431   3.421   6.609
 5127SOL    HW116280   5.417   3.508   6.562
 5127SOL    HW216281   5.381   3.421   6.695
 5128SOL     OW16282   6.750   6.968   6.462
 5128SOL    HW116283   6.835   6.939   6.506
 5128SOL    HW216284   6.765   0.038   6.415
 5129SOL     OW16285   4.917   2.661   3.734
 5129SOL    HW116286   4.845   2.715   3.777
 5129SOL    HW216287   4.876   2.601   3.665
 5130SOL     OW16288   1.785   6.513   5.071
 5130SOL    HW116289   1.736   6.460   5.141
 5130SOL    HW216290   1.883   6.507   5.087
 5131SOL     OW16291   3.450   5.028   3.310
 5131SOL    HW116292   3.460   5.003   3.213
 5131SOL    HW216293   3.537   5.014   3.357
 5132SOL     OW16294   4.267   2.023   6.684
 5132SOL    HW116295   4.329   1.948   6.665
 5132SOL    HW216296   4.281   2.056   6.777
 5133SOL     OW16297   4.795   4.546   6.722
 5133SOL    HW116298   4.696   4.535   6.735
 5133SOL    HW216299   4.839   4.560   6.810
 5134SOL     OW16300   5.681   5.866   0.081
 5134SOL    HW116301   5.682   5.776   0.037
 5134SOL    HW216302   5.772   5.886   0.117
 5135SOL     OW16303   6.410   3.086   2.229
 5135SOL    HW116304   6.410   2.986   2.221
 5135SOL    HW216305   6.362   3.126   2.151
 5136SOL     OW16306   0.431   0.778   4.656
 5136SOL    HW116307   0.509   0.733   4.700
 5136SOL    HW216308   0.439   0.769   4.556
 5137SOL     OW16309   5.274   0.227   3.588
 5137SOL    HW116310   5.341   0.296   3.613
 5137SOL    HW216311   5.250   0.236   3.491
 5138SOL     OW16312   2.995   3.202   2.265
 5138SOL    HW116313   3.020   3.108   2.242
 5138SOL    HW216314   2.955   3.246   2.185
 5139SOL     OW16315   4.487   0.305   4.598
 5139SOL    HW116316   4.558   0.374   4.585
 5139SOL    HW216317   4.462   0.300   4.694
 5140SOL     OW16318   3.093   3.887   6.379
 5140SOL    HW116319   3.092   3.985   6.356
 5140SOL    HW216320   3.181   3.865   6.422
 5141SOL     OW16321   1.411   3.208   1.274
 5141SOL    HW116322   1.326   3.159   1.256
 5141SOL    HW216323   1.469   3.155   1.335
 5142SOL     OW16324   0.669   6.997   2.592
 5142SOL    HW116325   0.687   0.078   2.601
 5142SOL    HW216326   0.673   6.955   2.683
 5143SOL     OW16327   6.801   5.962   1.938
 5143SOL    HW116328   6.731   5.975   1.868
 5143SOL    HW216329   6.807   5.865   1.962
 5144SOL     OW16330   2.142   3.476   4.842
 5144SOL    HW116331   2.175   3.382   4.853
 5144SOL    HW216332   2.047   3.482   4.875
 5145SOL     OW16333   2.414   5.754   5.479
 5145SOL    HW116334   2.430   5.753   5.380
 5145SOL    HW216335   2.430   5.663   5.516
 5146SOL     OW16336   6.064   5.863   6.519
 5146SOL    HW116337   6.104   5.930   6.581
 5146SOL    HW216338   6.118   5.778   6.523
 5147SOL     OW16339   5.874   2.349   3.921
 5147SOL    HW116340   5.839   2.313   4.007
 5147SOL    HW216341   5.883   2.275   3.855
 5148SOL     OW16342   6.566   1.403   0.240
 5148SOL    HW116343   6.474   1.429   0.267
 5148SOL    HW216344   6.585   1.435   0.147
 5149SOL     OW16345   4.408   5.667   4.290
 5149SOL    HW116346   4.343   5.593   4.306
 5149SOL    HW216347   4.501   5.635   4.309
 5150SOL     OW16348   6.625   0.627   3.508
 5150SOL    HW116349   6.722   0.641   3.524
 5150SOL    HW216350   6.572   0.696   3.558
 5151SOL     OW16351   5.198   5.153   1.574
 5151SOL    HW116352   5.224   5.058   1.591
 5151SOL    HW216353   5.099   5.159   1.564
 5152SOL     OW16354   2.466   2.135   0.682
 5152SOL    HW116355   2.474   2.042   0.646
 5152SOL    HW216356   2.433   2.132   0.776
 5153SOL     OW16357   2.535   2.422   0.707
 5153SOL    HW116358   2.533   2.322   0.709
 5153SOL    HW216359   2.534   2.453   0.612
 5154SOL     OW16360   0.464   2.517   0.580
 5154SOL    HW116361   0.388   2.554   0.528
 5154SOL    HW216362   0.549   2.564   0.553
 5155SOL     OW16363   1.909   1.338   6.893
 5155SOL    HW116364   1.853   1.281   6.833
 5155SOL    HW216365   1.851   1.408   6.934
 5156SOL     OW16366   5.186   5.254   6.286
 5156SOL    HW116367   5.165   5.253   6.384
 5156SOL    HW216368   5.146   5.173   6.243
 5157SOL     OW16369   3.885   0.942   1.898
 5157SOL    HW116370   3.884   0.866   1.832
 5157SOL    HW216371   3.891   1.028   1.849
 5158SOL     OW16372   1.456   2.232   2.117
 5158SOL    HW116373   1.398   2.228   2.199
 5158SOL    HW216374   1.433   2.156   2.057
 5159SOL     OW16375   6.675   3.129   5.796
 5159SOL    HW116376   6.663   3.186   5.715
 5159SOL    HW216377   6.702   3.036   5.769
 5160SOL     OW16378   6.879   7.003   3.233
 5160SOL    HW116379   6.877   6.903   3.240
 5160SOL    HW216380   6.934   0.023   3.307
 5161SOL     OW16381   1.167   1.957   5.798
 5161SOL    HW116382   1.151   2.002   5.885
 5161SOL    HW216383   1.257   1.913   5.798
 5162SOL     OW16384   0.289   6.707   4.811
 5162SOL    HW116385   0.360   6.640   4.832
 5162SOL    HW216386   0.207   6.687   4.865
 5163SOL     OW16387   2.783   0.742   1.610
 5163SOL    HW116388   2.685   0.739   1.588
 5163SOL    HW216389   2.836   0.721   1.529
 5164SOL     OW16390   2.695   4.045   6.904
 5164SOL    HW116391   2.645   4.021   6.820
 5164SOL    HW216392   2.736   3.963   6.943
 5165SOL     OW16393   1.850   4.759   5.839
 5165SOL    HW116394   1.891   4.668   5.846
 5165SOL    HW216395   1.879   4.815   5.917
 5166SOL     OW16396   7.002   5.273   5.714
 5166SOL    HW116397   6.905   5.260   5.736
 5166SOL    HW216398   7.013   5.285   5.615
 5167SOL     OW16399   5.768   3.834   6.008
 5167SOL    HW116400   5.859   3.798   5.986
 5167SOL    HW216401   5.757   3.838   6.107
 5168SOL     OW16402   4.905   1.843   3.504
 5168SOL    HW116403   4.884   1.881   3.414
 5168SOL    HW216404   4.836   1.774   3.529
 5169SOL     OW16405   5.635   5.619   4.246
 5169SOL    HW116406   5.591   5.592   4.160
 5169SOL    HW216407   5.608   5.713   4.268
 5170SOL     OW16408   2.067   4.222   5.996
 5170SOL    HW116409   2.052   4.236   5.898
 5170SOL    HW216410   2.156   4.180   6.011
 5171SOL     OW16411   2.421   6.415   6.139
 5171SOL    HW116412   2.321   6.413   6.135
 5171SOL    HW216413   2.451   6.363   6.219
 5172SOL     OW16414   5.796   5.388   6.485
 5172SOL    HW116415   5.790   5.292   6.458
 5172SOL    HW216416   5.796   5.446   6.404
 5173SOL     OW16417   4.269   5.377   4.524
 5173SOL    HW116418   4.240   5.415   4.436
 5173SOL    HW216419   4.216   5.294   4.544
 5174SOL     OW16420   1.104   6.107   2.877
 5174SOL    HW116421   1.022   6.159   2.855
 5174SOL    HW216422   1.169   6.165   2.927
 5175SOL     OW16423   2.463   1.982   6.389
 5175SOL    HW116424   2.445   2.038   6.307
 5175SOL    HW216425   2.376   1.958   6.432
 5176SOL     OW16426   6.075   6.301   6.572
 5176SOL    HW116427   5.983   6.277   6.540
 5176SOL    HW216428   6.080   6.399   6.589
 5177SOL     OW16429   5.328   5.921   0.606
 5177SOL    HW116430   5.252   5.980   0.582
 5177SOL    HW216431   5.326   5.839   0.550
 5178SOL     OW16432   0.542   3.956   1.318
 5178SOL    HW116433   0.615   3.930   1.382
 5178SOL    HW216434   0.528   3.882   1.252
 5179SOL     OW16435   4.899   5.269   3.158
 5179SOL    HW116436   4.965   5.263   3.232
 5179SOL    HW216437   4.942   5.238   3.073
 5180SOL     OW16438   1.719   4.894   1.869
 5180SOL    HW116439   1.808   4.880   1.826
 5180SOL    HW216440   1.724   4.971   1.932
 5181SOL     OW16441   6.997   1.439   5.178
 5181SOL    HW116442   0.064   1.466   5.132
 5181SOL    HW216443   7.017   1.370   5.247
 5182SOL     OW16444   2.113   6.723   2.072
 5182SOL    HW116445   2.064   6.723   1.985
 5182SOL    HW216446   2.072   6.655   2.133
 5183SOL     OW16447   4.713   2.685   3.376
 5183SOL    HW116448   4.738   2.607   3.433
 5183SOL    HW216449   4.630   2.727   3.413
 5184SOL     OW16450   1.986   1.899   2.792
 5184SOL    HW116451   2.036   1.986   2.786
 5184SOL    HW216452   2.004   1.845   2.709
 5185SOL     OW16453   6.520   6.862   1.939
 5185SOL    HW116454   6.603   6.908   1.970
 5185SOL    HW216455   6.452   6.930   1.912
 5186SOL     OW16456   6.085   2.099   6.647
 5186SOL    HW116457   6.125   2.160   6.715
 5186SOL    HW216458   6.074   2.008   6.686
 5187SOL     OW16459   1.591   4.939   5.174
 5187SOL    HW116460   1.647   4.982   5.103
 5187SOL    HW216461   1.621   4.844   5.187
 5188SOL     OW16462   6.948   0.483   1.589
 5188SOL    HW116463   6.940   0.386   1.566
 5188SOL    HW216464   6.902   0.537   1.518
 5189SOL     OW16465   5.071   6.013   6.749
 5189SOL    HW116466   5.056   6.056   6.659
 5189SOL    HW216467   4.996   5.950   6.768
 5190SOL     OW16468   1.753   4.726   0.779
 5190SOL    HW116469   1.836   4.686   0.739
 5190SOL    HW216470   1.772   4.818   0.812
 5191SOL     OW16471   2.742   4.361   1.626
 5191SOL    HW116472   2.748   4.413   1.540
 5191SOL    HW216473   2.802   4.404   1.694
 5192SOL     OW16474   0.755   4.632   2.957
 5192SOL    HW116475   0.722   4.541   2.982
 5192SOL    HW216476   0.781   4.634   2.861
 5193SOL     OW16477   4.557   0.794   5.463
 5193SOL    HW116478   4.644   0.747   5.451
 5193SOL    HW216479   4.513   0.763   5.546
 5194SOL     OW16480   4.346   1.814   5.046
 5194SOL    HW116481   4.385   1.886   4.989
 5194SOL    HW216482   4.407   1.735   5.048
 5195SOL     OW16483   1.513   0.549   5.411
 5195SOL    HW116484   1.600   0.586   5.378
 5195SOL    HW216485   1.495   0.583   5.503
 5196SOL     OW16486   5.588   6.535   3.382
 5196SOL    HW116487   5.536   6.451   3.371
 5196SOL    HW216488   5.662   6.538   3.314
 5197SOL     OW16489   1.502   3.284   4.579
 5197SOL    HW116490   1.529   3.375   4.611
 5197SOL    HW216491   1.491   3.286   4.479
 5198SOL     OW16492   5.985   5.021   3.024
 5198SOL    HW116493   5.894   4.985   3.038
 5198SOL    HW216494   6.053   4.954   3.053
 5199SOL     OW16495   0.264   4.570   1.332
 5199SOL    HW116496   0.357   4.535   1.337
 5199SOL    HW216497   0.199   4.494   1.334
 5200SOL     OW16498   6.435   3.663   5.096
 5200SOL    HW116499   6.444   3.752   5.050
 5200SOL    HW216500   6.441   3.677   5.195
 5201SOL     OW16501   1.141   6.091   4.969
 5201SOL    HW116502   1.118   6.003   4.927
 5201SOL    HW216503   1.148   6.161   4.897
 5202SOL     OW16504   0.313   4.348   1.908
 5202SOL    HW116505   0.232   4.392   1.946
 5202SOL    HW216506   0.295   4.320   1.814
 5203SOL     OW16507   6.420   3.586   6.814
 5203SOL    HW116508   6.514   3.607   6.788
 5203SOL    HW216509   6.395   3.637   6.895
 5204SOL     OW16510   5.366   5.308   6.084
 5204SOL    HW116511   5.358   5.230   6.022
 5204SOL    HW216512   5.306   5.294   6.163
 5205SOL     OW16513   2.842   6.315   0.371
 5205SOL    HW116514   2.755   6.339   0.329
 5205SOL    HW216515   2.851   6.215   0.375
 5206SOL     OW16516   0.028   4.180   4.481
 5206SOL    HW116517   0.103   4.175   4.415
 5206SOL    HW216518   0.002   4.276   4.495
 5207SOL     OW16519   1.802   5.089   3.036
 5207SOL    HW116520   1.863   5.167   3.027
 5207SOL    HW216521   1.783   5.050   2.946
 5208SOL     OW16522   5.270   1.046   0.064
 5208SOL    HW116523   5.181   1.002   0.054
 5208SOL    HW216524   5.329   0.989   0.122
 5209SOL     OW16525   5.497   5.095   3.224
 5209SOL    HW116526   5.406   5.094   3.182
 5209SOL    HW216527   5.540   5.184   3.210
 5210SOL     OW16528   4.782   4.582   2.960
 5210SOL    HW116529   4.814   4.557   2.868
 5210SOL    HW216530   4.788   4.681   2.971
 5211SOL     OW16531   3.097   3.577   2.163
 5211SOL    HW116532   3.066   3.651   2.223
 5211SOL    HW216533   3.118   3.496   2.218
 5212SOL     OW16534   0.592   0.080   6.245
 5212SOL    HW116535   0.645   7.016   6.219
 5212SOL    HW216536   0.634   0.122   6.326
 5213SOL     OW16537   4.115   2.130   6.465
 5213SOL    HW116538   4.150   2.108   6.556
 5213SOL    HW216539   4.125   2.228   6.448
 5214SOL     OW16540   4.668   1.478   0.397
 5214SOL    HW116541   4.621   1.542   0.336
 5214SOL    HW216542   4.765   1.502   0.402
 5215SOL     OW16543   5.733   5.040   3.711
 5215SOL    HW116544   5.660   5.017   3.775
 5215SOL    HW216545   5.803   5.094   3.758
 5216SOL     OW16546   4.203   5.990   1.591
 5216SOL    HW116547   4.239   6.017   1.680
 5216SOL    HW216548   4.243   5.901   1.565
 5217SOL     OW16549   2.895   4.781   3.672
 5217SOL    HW116550   2.961   4.770   3.746
 5217SOL    HW216551   2.805   4.748   3.702
 5218SOL     OW16552   2.048   0.048   3.850
 5218SOL    HW116553   2.065   6.973   3.884
 5218SOL    HW216554   2.025   0.108   3.926
 5219SOL     OW16555   2.245   6.924   0.756
 5219SOL    HW116556   2.205   6.928   0.847
 5219SOL    HW216557   2.339   6.960   0.759
 5220SOL     OW16558   1.363   6.705   1.677
 5220SOL    HW116559   1.278   6.744   1.712
 5220SOL    HW216560   1.411   6.774   1.622
 5221SOL     OW16561   4.066   1.272   6.860
 5221SOL    HW116562   4.131   1.198   6.877
 5221SOL    HW216563   3.986   1.261   6.919
 5222SOL     OW16564   0.637   6.721   2.790
 5222SOL    HW116565   0.624   6.622   2.784
 5222SOL    HW216566   0.548   6.765   2.805
 5223SOL     OW16567   4.824   6.485   0.970
 5223SOL    HW116568   4.835   6.547   0.892
 5223SOL    HW216569   4.753   6.520   1.031
 5224SOL     OW16570   5.448   1.098   3.256
 5224SOL    HW116571   5.468   1.005   3.226
 5224SOL    HW216572   5.382   1.139   3.193
 5225SOL     OW16573   0.071   6.608   5.729
 5225SOL    HW116574   0.132   6.683   5.756
 5225SOL    HW216575   0.053   6.550   5.809
 5226SOL     OW16576   2.407   6.400   3.950
 5226SOL    HW116577   2.494   6.354   3.933
 5226SOL    HW216578   2.358   6.352   4.023
 5227SOL     OW16579   5.375   3.516   3.864
 5227SOL    HW116580   5.379   3.616   3.866
 5227SOL    HW216581   5.311   3.487   3.793
 5228SOL     OW16582   5.243   0.844   1.251
 5228SOL    HW116583   5.342   0.836   1.262
 5228SOL    HW216584   5.223   0.927   1.198
 5229SOL     OW16585   1.353   4.505   3.355
 5229SOL    HW116586   1.431   4.488   3.415
 5229SOL    HW216587   1.361   4.597   3.316
 5230SOL     OW16588   1.350   0.255   6.125
 5230SOL    HW116589   1.433   0.229   6.175
 5230SOL    HW216590   1.323   0.348   6.151
 5231SOL     OW16591   3.000   3.184   2.983
 5231SOL    HW116592   3.020   3.095   2.940
 5231SOL    HW216593   2.979   3.251   2.911
 5232SOL     OW16594   5.439   2.907   5.473
 5232SOL    HW116595   5.446   2.808   5.465
 5232SOL    HW216596   5.449   2.934   5.569
 5233SOL     OW16597   1.046   0.395   3.086
 5233SOL    HW116598   1.070   0.335   3.010
 5233SOL    HW216599   1.010   0.481   3.051
 5234SOL     OW16600   3.782   5.289   1.437
 5234SOL    HW116601   3.848   5.256   1.369
 5234SOL    HW216602   3.775   5.222   1.511
 5235SOL     OW16603   0.602   2.932   1.342
 5235SOL    HW116604   0.693   2.967   1.319
 5235SOL    HW216605   0.535   2.967   1.277
 5236SOL     OW16606   5.995   3.228   0.733
 5236SOL    HW116607   6.055   3.151   0.758
 5236SOL    HW216608   6.027   3.311   0.779
 5237SOL     OW16609   1.646   1.691   3.551
 5237SOL    HW116610   1.742   1.700   3.524
 5237SOL    HW216611   1.602   1.781   3.549
 5238SOL     OW16612   2.011   3.680   1.049
 5238SOL    HW116613   1.977   3.722   0.965
 5238SOL    HW216614   2.002   3.580   1.042
 5239SOL     OW16615   2.858   3.578   4.447
 5239SOL    HW116616   2.874   3.674   4.426
 5239SOL    HW216617   2.797   3.539   4.378
 5240SOL     OW16618   3.549   1.805   5.017
 5240SOL    HW116619   3.462   1.834   4.976
 5240SOL    HW216620   3.557   1.843   5.109
 5241SOL     OW16621   2.928   5.491   5.607
 5241SOL    HW116622   2.955   5.414   5.549
 5241SOL    HW216623   2.974   5.574   5.575
 5242SOL     OW16624   4.749   0.630   5.047
 5242SOL    HW116625   4.728   0.727   5.059
 5242SOL    HW216626   4.826   0.621   4.983
 5243SOL     OW16627   0.474   4.213   0.396
 5243SOL    HW116628   0.537   4.289   0.380
 5243SOL    HW216629   0.466   4.197   0.495
 5244SOL     OW16630   5.828   3.195   6.875
 5244SOL    HW116631   5.873   3.140   6.804
 5244SOL    HW216632   5.893   3.263   6.910
 5245SOL     OW16633   4.445   4.593   6.142
 5245SOL    HW116634   4.464   4.502   6.179
 5245SOL    HW216635   4.466   4.662   6.210
 5246SOL     OW16636   1.278   3.925   2.941
 5246SOL    HW116637   1.373   3.899   2.956
 5246SOL    HW216638   1.227   3.846   2.907
 5247SOL     OW16639   0.248   4.588   0.757
 5247SOL    HW116640   0.312   4.659   0.727
 5247SOL    HW216641   0.232   4.595   0.855
 5248SOL     OW16642   5.140   1.077   0.347
 5248SOL    HW116643   5.129   0.987   0.305
 5248SOL    HW216644   5.139   1.147   0.276
 5249SOL     OW16645   1.487   5.361   6.559
 5249SOL    HW116646   1.521   5.338   6.650
 5249SOL    HW216647   1.440   5.449   6.562
 5250SOL     OW16648   1.269   1.429   5.586
 5250SOL    HW116649   1.196   1.497   5.593
 5250SOL    HW216650   1.234   1.346   5.544
 5251SOL     OW16651   0.961   2.957   0.474
 5251SOL    HW116652   1.012   2.881   0.433
 5251SOL    HW216653   0.973   3.038   0.417
 5252SOL     OW16654   5.325   6.954   1.132
 5252SOL    HW116655   5.244   6.898   1.113
 5252SOL    HW216656   5.308   0.030   1.102
 5253SOL     OW16657   5.809   2.954   3.931
 5253SOL    HW116658   5.781   2.865   3.895
 5253SOL    HW216659   5.892   2.942   3.985
 5254SOL     OW16660   5.008   0.414   4.192
 5254SOL    HW116661   5.053   0.469   4.121
 5254SOL    HW216662   5.064   0.413   4.275
 5255SOL     OW16663   3.181   5.981   4.533
 5255SOL    HW116664   3.280   5.967   4.527
 5255SOL    HW216665   3.148   5.950   4.623
 5256SOL     OW16666   5.154   6.528   2.078
 5256SOL    HW116667   5.061   6.512   2.112
 5256SOL    HW216668   5.200   6.594   2.136
 5257SOL     OW16669   3.352   1.342   3.518
 5257SOL    HW116670   3.439   1.381   3.489
 5257SOL    HW216671   3.279   1.377   3.459
 5258SOL     OW16672   6.205   1.953   2.051
 5258SOL    HW116673   6.179   2.046   2.077
 5258SOL    HW216674   6.302   1.939   2.070
 5259SOL     OW16675   5.576   4.162   1.263
 5259SOL    HW116676   5.504   4.175   1.195
 5259SOL    HW216677   5.609   4.252   1.294
 5260SOL     OW16678   4.898   2.590   1.560
 5260SOL    HW116679   4.858   2.543   1.639
 5260SOL    HW216680   4.833   2.657   1.524
 5261SOL     OW16681   2.440   2.642   4.600
 5261SOL    HW116682   2.455   2.646   4.501
 5261SOL    HW216683   2.527   2.630   4.647
 5262SOL     OW16684   1.454   0.188   1.592
 5262SOL    HW116685   1.376   0.153   1.644
 5262SOL    HW216686   1.423   0.224   1.504
 5263SOL     OW16687   0.917   6.481   0.019
 5263SOL    HW116688   0.843   6.520   6.982
 5263SOL    HW216689   0.943   6.545   0.092
 5264SOL     OW16690   1.157   1.752   1.311
 5264SOL    HW116691   1.065   1.789   1.297
 5264SOL    HW216692   1.222   1.804   1.255
 5265SOL     OW16693   5.528   4.969   3.455
 5265SOL    HW116694   5.512   5.019   3.369
 5265SOL    HW216695   5.626   4.966   3.474
 5266SOL     OW16696   1.334   6.969   1.078
 5266SOL    HW116697   1.324   6.878   1.120
 5266SOL    HW216698   1.431   6.989   1.065
 5267SOL     OW16699   4.408   3.720   5.268
 5267SOL    HW116700   4.430   3.771   5.351
 5267SOL    HW216701   4.492   3.678   5.232
 5268SOL     OW16702   5.609   5.268   5.624
 5268SOL    HW116703   5.602   5.348   5.685
 5268SOL    HW216704   5.679   5.206   5.659
 5269SOL     OW16705   2.046   4.552   5.867
 5269SOL    HW116706   2.139   4.517   5.875
 5269SOL    HW216707   2.000   4.544   5.955
 5270SOL     OW16708   6.661   2.345   3.243
 5270SOL    HW116709   6.571   2.378   3.215
 5270SOL    HW216710   6.653   2.294   3.329
 5271SOL     OW16711   5.410   3.858   5.609
 5271SOL    HW116712   5.369   3.926   5.548
 5271SOL    HW216713   5.478   3.805   5.559
 5272SOL     OW16714   1.838   1.098   3.841
 5272SOL    HW116715   1.792   1.185   3.860
 5272SOL    HW216716   1.873   1.060   3.926
 5273SOL     OW16717   0.048   0.207   5.080
 5273SOL    HW116718   6.981   0.258   5.095
 5273SOL    HW216719   0.033   0.136   5.011
 5274SOL     OW16720   0.845   5.773   4.847
 5274SOL    HW116721   0.766   5.716   4.824
 5274SOL    HW216722   0.920   5.753   4.785
 5275SOL     OW16723   1.540   6.490   6.744
 5275SOL    HW116724   1.465   6.451   6.797
 5275SOL    HW216725   1.601   6.541   6.805
 5276SOL     OW16726   0.272   0.024   0.561
 5276SOL    HW116727   0.296   0.090   0.632
 5276SOL    HW216728   0.181   0.045   0.525
 5277SOL     OW16729   0.387   1.053   2.685
 5277SOL    HW116730   0.308   1.115   2.686
 5277SOL    HW216731   0.469   1.103   2.657
 5278SOL     OW16732   0.726   3.563   6.171
 5278SOL    HW116733   0.673   3.643   6.142
 5278SOL    HW216734   0.718   3.552   6.270
 5279SOL     OW16735   2.906   6.588   6.954
 5279SOL    HW116736   2.810   6.568   6.934
 5279SOL    HW216737   2.955   6.504   6.974
 5280SOL     OW16738   4.749   6.290   4.925
 5280SOL    HW116739   4.717   6.198   4.947
 5280SOL    HW216740   4.746   6.304   4.826
 5281SOL     OW16741   2.857   6.717   4.851
 5281SOL    HW116742   2.845   6.809   4.889
 5281SOL    HW216743   2.782   6.658   4.883
 5282SOL     OW16744   0.573   6.581   0.606
 5282SOL    HW116745   0.583   6.509   0.538
 5282SOL    HW216746   0.493   6.637   0.583
 5283SOL     OW16747   1.087   0.841   3.878
 5283SOL    HW116748   1.004   0.868   3.830
 5283SOL    HW216749   1.132   0.767   3.828
 5284SOL     OW16750   4.950   3.479   2.036
 5284SOL    HW116751   4.891   3.516   1.964
 5284SOL    HW216752   4.970   3.383   2.016
 5285SOL     OW16753   1.388   1.969   4.254
 5285SOL    HW116754   1.373   1.907   4.331
 5285SOL    HW216755   1.301   1.988   4.208
 5286SOL     OW16756   6.600   2.794   1.531
 5286SOL    HW116757   6.673   2.726   1.538
 5286SOL    HW216758   6.590   2.823   1.436
 5287SOL     OW16759   1.063   5.344   1.682
 5287SOL    HW116760   1.009   5.262   1.661
 5287SOL    HW216761   1.038   5.417   1.619
 5288SOL     OW16762   3.952   0.716   1.742
 5288SOL    HW116763   3.918   0.664   1.821
 5288SOL    HW216764   3.959   0.656   1.663
 5289SOL     OW16765   2.728   4.556   5.969
 5289SOL    HW116766   2.823   4.525   5.966
 5289SOL    HW216767   2.669   4.485   5.933
 5290SOL     OW16768   1.878   3.374   4.517
 5290SOL    HW116769   1.966   3.421   4.508
 5290SOL    HW216770   1.805   3.441   4.525
 5291SOL     OW16771   3.122   4.898   4.291
 5291SOL    HW116772   3.220   4.910   4.277
 5291SOL    HW216773   3.107   4.861   4.383
 5292SOL     OW16774   0.405   3.890   4.587
 5292SOL    HW116775   0.425   3.805   4.637
 5292SOL    HW216776   0.384   3.868   4.491
 5293SOL     OW16777   2.187   0.223   4.317
 5293SOL    HW116778   2.131   0.256   4.392
 5293SOL    HW216779   2.205   0.125   4.329
 5294SOL     OW16780   4.828   6.797   4.712
 5294SOL    HW116781   4.824   6.889   4.752
 5294SOL    HW216782   4.735   6.761   4.700
 5295SOL     OW16783   2.156   1.062   2.192
 5295SOL    HW116784   2.227   1.000   2.224
 5295SOL    HW216785   2.092   1.012   2.134
 5296SOL     OW16786   4.695   4.820   1.771
 5296SOL    HW116787   4.607   4.867   1.783
 5296SOL    HW216788   4.679   4.727   1.736
 5297SOL     OW16789   2.603   5.652   6.285
 5297SOL    HW116790   2.509   5.675   6.309
 5297SOL    HW216791   2.638   5.718   6.218
 5298SOL     OW16792   2.263   1.895   0.579
 5298SOL    HW116793   2.323   1.845   0.516
 5298SOL    HW216794   2.238   1.982   0.537
 5299SOL     OW16795   2.355   0.856   1.756
 5299SOL    HW116796   2.425   0.887   1.691
 5299SOL    HW216797   2.314   0.935   1.801
 5300SOL     OW16798   3.204   4.992   0.098
 5300SOL    HW116799   3.237   5.004   0.005
 5300SOL    HW216800   3.157   4.904   0.106
 5301SOL     OW16801   6.154   0.032   6.033
 5301SOL    HW116802   6.148   6.949   6.039
 5301SOL    HW216803   6.145   0.060   5.938
 5302SOL     OW16804   5.181   5.850   2.761
 5302SOL    HW116805   5.247   5.789   2.805
 5302SOL    HW216806   5.228   5.927   2.720
 5303SOL     OW16807   1.037   5.567   5.303
 5303SOL    HW116808   1.044   5.576   5.204
 5303SOL    HW216809   1.006   5.474   5.326
 5304SOL     OW16810   0.126   0.695   3.219
 5304SOL    HW116811   0.026   0.691   3.224
 5304SOL    HW216812   0.164   0.677   3.310
 5305SOL     OW16813   0.086   5.294   4.183
 5305SOL    HW116814   0.071   5.356   4.261
 5305SOL    HW216815   0.083   5.200   4.215
 5306SOL     OW16816   0.992   2.237   5.770
 5306SOL    HW116817   0.943   2.179   5.835
 5306SOL    HW216818   1.084   2.257   5.805
 5307SOL     OW16819   6.840   1.736   1.491
 5307SOL    HW116820   6.911   1.693   1.545
 5307SOL    HW216821   6.827   1.685   1.406
 5308SOL     OW16822   1.903   3.995   2.928
 5308SOL    HW116823   1.963   3.924   2.892
 5308SOL    HW216824   1.867   3.968   3.017
 5309SOL     OW16825   6.095   5.359   3.228
 5309SOL    HW116826   6.172   5.423   3.232
 5309SOL    HW216827   6.041   5.376   3.146
 5310SOL     OW16828   5.993   2.803   3.239
 5310SOL    HW116829   6.078   2.754   3.218
 5310SOL    HW216830   5.970   2.790   3.336
 5311SOL     OW16831   5.749   0.164   0.414
 5311SOL    HW116832   5.846   0.150   0.429
 5311SOL    HW216833   5.727   0.147   0.318
 5312SOL     OW16834   6.200   6.356   0.558
 5312SOL    HW116835   6.288   6.393   0.530
 5312SOL    HW216836   6.210   6.307   0.644
 5313SOL     OW16837   1.100   6.373   5.544
 5313SOL    HW116838   1.088   6.472   5.552
 5313SOL    HW216839   1.028   6.335   5.486
 5314SOL     OW16840   5.916   1.114   1.675
 5314SOL    HW116841   5.847   1.055   1.631
 5314SOL    HW216842   5.881   1.207   1.682
 5315SOL     OW16843   4.542   1.795   4.029
 5315SOL    HW116844   4.572   1.775   4.122
 5315SOL    HW216845   4.578   1.884   4.000
 5316SOL     OW16846   0.801   2.446   4.917
 5316SOL    HW116847   0.834   2.445   5.012
 5316SOL    HW216848   0.821   2.535   4.877
 5317SOL     OW16849   5.841   2.682   6.656
 5317SOL    HW116850   5.839   2.595   6.705
 5317SOL    HW216851   5.933   2.699   6.621
 5318SOL     OW16852   0.263   4.100   6.465
 5318SOL    HW116853   0.355   4.138   6.474
 5318SOL    HW216854   0.258   4.044   6.382
 5319SOL     OW16855   4.027   6.043   2.218
 5319SOL    HW116856   4.010   6.136   2.250
 5319SOL    HW216857   3.973   6.026   2.135
 5320SOL     OW16858   3.928   5.958   1.016
 5320SOL    HW116859   3.991   5.884   1.036
 5320SOL    HW216860   3.839   5.940   1.058
 5321SOL     OW16861   2.015   4.448   5.593
 5321SOL    HW116862   2.080   4.460   5.518
 5321SOL    HW216863   2.015   4.530   5.650
 5322SOL     OW16864   4.342   6.972   1.936
 5322SOL    HW116865   4.326   6.941   2.029
 5322SOL    HW216866   4.255   6.982   1.888
 5323SOL     OW16867   4.170   0.528   5.802
 5323SOL    HW116868   4.206   0.435   5.793
 5323SOL    HW216869   4.181   0.576   5.715
 5324SOL     OW16870   1.911   1.909   1.204
 5324SOL    HW116871   1.923   1.873   1.297
 5324SOL    HW216872   1.822   1.882   1.169
 5325SOL     OW16873   2.189   2.404   4.976
 5325SOL    HW116874   2.125   2.360   5.038
 5325SOL    HW216875   2.191   2.502   4.994
 5326SOL     OW16876   6.380   6.738   1.718
 5326SOL    HW116877   6.419   6.768   1.631
 5326SOL    HW216878   6.437   6.769   1.794
 5327SOL     OW16879   0.097   2.572   5.758
 5327SOL    HW116880   0.196   2.582   5.766
 5327SOL    HW216881   0.076   2.495   5.697
 5328SOL     OW16882   4.846   5.560   0.279
 5328SOL    HW116883   4.748   5.555   0.261
 5328SOL    HW216884   4.887   5.469   0.267
 5329SOL     OW16885   1.791   6.626   6.148
 5329SOL    HW116886   1.720   6.589   6.208
 5329SOL    HW216887   1.818   6.716   6.180
 5330SOL     OW16888   2.304   4.724   0.936
 5330SOL    HW116889   2.305   4.634   0.892
 5330SOL    HW216890   2.391   4.770   0.918
 5331SOL     OW16891   6.282   1.112   6.038
 5331SOL    HW116892   6.360   1.066   6.080
 5331SOL    HW216893   6.304   1.208   6.022
 5332SOL     OW16894   0.197   4.780   1.532
 5332SOL    HW116895   0.186   4.712   1.460
 5332SOL    HW216896   0.131   4.762   1.605
 5333SOL     OW16897   0.894   6.121   5.141
 5333SOL    HW116898   0.833   6.042   5.127
 5333SOL    HW216899   0.985   6.100   5.107
 5334SOL     OW16900   3.770   0.453   4.549
 5334SOL    HW116901   3.725   0.495   4.470
 5334SOL    HW216902   3.782   0.355   4.532
 5335SOL     OW16903   0.035   5.936   6.893
 5335SOL    HW116904   0.044   5.997   6.971
 5335SOL    HW216905   0.055   5.987   6.809
 5336SOL     OW16906   1.054   4.001   1.583
 5336SOL    HW116907   1.148   4.027   1.602
 5336SOL    HW216908   1.018   4.057   1.509
 5337SOL     OW16909   5.637   3.653   1.212
 5337SOL    HW116910   5.666   3.573   1.265
 5337SOL    HW216911   5.584   3.714   1.270
 5338SOL     OW16912   6.265   1.520   6.898
 5338SOL    HW116913   6.209   1.522   6.981
 5338SOL    HW216914   6.284   1.425   6.873
 5339SOL     OW16915   6.881   0.224   2.196
 5339SOL    HW116916   6.941   0.256   2.269
 5339SOL    HW216917   6.786   0.235   2.224
 5340SOL     OW16918   5.409   2.597   6.042
 5340SOL    HW116919   5.420   2.516   6.099
 5340SOL    HW216920   5.439   2.576   5.949
 5341SOL     OW16921   3.810   0.334   0.811
 5341SOL    HW116922   3.730   0.304   0.758
 5341SOL    HW216923   3.886   0.272   0.795
 5342SOL     OW16924   2.382   0.938   5.962
 5342SOL    HW116925   2.406   0.963   6.056
 5342SOL    HW216926   2.394   1.017   5.902
 5343SOL     OW16927   3.964   3.893   2.073
 5343SOL    HW116928   4.050   3.940   2.091
 5343SOL    HW216929   3.888   3.956   2.090
 5344SOL     OW16930   1.909   2.383   2.773
 5344SOL    HW116931   1.904   2.446   2.695
 5344SOL    HW216932   1.880   2.431   2.856
 5345SOL     OW16933   4.740   0.125   2.129
 5345SOL    HW116934   4.808   0.198   2.135
 5345SOL    HW216935   4.692   0.131   2.042
 5346SOL     OW16936   2.492   6.611   3.234
 5346SOL    HW116937   2.522   6.595   3.141
 5346SOL    HW216938   2.514   6.532   3.291
 5347SOL     OW16939   0.118   2.035   2.234
 5347SOL    HW116940   0.154   1.982   2.157
 5347SOL    HW216941   0.038   2.087   2.204
 5348SOL     OW16942   6.925   0.837   0.262
 5348SOL    HW116943   6.858   0.820   0.190
 5348SOL    HW216944   6.977   0.753   0.279
 5349SOL     OW16945   6.405   0.045   1.634
 5349SOL    HW116946   6.470   0.100   1.686
 5349SOL    HW216947   6.370   0.098   1.557
 5350SOL     OW16948   2.448   0.390   6.849
 5350SOL    HW116949   2.483   0.343   6.931
 5350SOL    HW216950   2.389   0.465   6.878
 5351SOL     OW16951   4.162   0.368   2.105
 5351SOL    HW116952   4.172   0.343   2.009
 5351SOL    HW216953   4.248   0.349   2.154
 5352SOL     OW16954   3.514   6.309   3.331
 5352SOL    HW116955   3.512   6.220   3.376
 5352SOL    HW216956   3.433   6.362   3.358
 5353SOL     OW16957   5.716   0.528   5.541
 5353SOL    HW116958   5.642   0.461   5.544
 5353SOL    HW216959   5.713   0.585   5.622
 5354SOL     OW16960   1.358   3.411   1.592
 5354SOL    HW116961   1.439   3.469   1.603
 5354SOL    HW216962   1.305   3.413   1.677
 5355SOL     OW16963   4.317   1.403   5.218
 5355SOL    HW116964   4.272   1.336   5.159
 5355SOL    HW216965   4.404   1.365   5.250
 5356SOL     OW16966   5.920   3.609   0.559
 5356SOL    HW116967   5.877   3.521   0.576
 5356SOL    HW216968   5.989   3.600   0.487
 5357SOL     OW16969   3.723   6.780   0.763
 5357SOL    HW116970   3.649   6.741   0.817
 5357SOL    HW216971   3.693   6.791   0.668
 5358SOL     OW16972   4.725   3.247   1.145
 5358SOL    HW116973   4.654   3.296   1.196
 5358SOL    HW216974   4.683   3.194   1.071
 5359SOL     OW16975   2.907   6.983   6.782
 5359SOL    HW116976   2.926   6.937   6.869
 5359SOL    HW216977   2.809   6.979   6.763
 5360SOL     OW16978   4.091   0.424   6.605
 5360SOL    HW116979   4.076   0.325   6.598
 5360SOL    HW216980   4.143   0.456   6.525
 5361SOL     OW16981   1.906   0.837   6.242
 5361SOL    HW116982   1.929   0.740   6.253
 5361SOL    HW216983   1.846   0.847   6.162
 5362SOL     OW16984   3.952   5.826   4.014
 5362SOL    HW116985   3.971   5.742   3.963
 5362SOL    HW216986   3.884   5.880   3.965
 5363SOL     OW16987   0.836   4.985   5.231
 5363SOL    HW116988   0.793   5.058   5.177
 5363SOL    HW216989   0.925   5.016   5.264
 5364SOL     OW16990   0.761   6.569   6.638
 5364SOL    HW116991   0.837   6.614   6.592
 5364SOL    HW216992   0.705   6.521   6.570
 5365SOL     OW16993   3.725   1.509   6.361
 5365SOL    HW116994   3.786   1.488   6.285
 5365SOL    HW216995   3.727   1.433   6.426
 5366SOL     OW16996   3.297   4.298   6.533
 5366SOL    HW116997   3.205   4.337   6.542
 5366SOL    HW216998   3.347   4.309   6.619
 5367SOL     OW16999   0.418   4.828   0.980
 5367SOL    HW117000   0.343   4.802   1.040
 5367SOL    HW217001   0.389   4.820   0.885
 5368SOL     OW17002   6.524   0.901   3.624
 5368SOL    HW117003   6.477   0.853   3.698
 5368SOL    HW217004   6.457   0.956   3.573
 5369SOL     OW17005   1.760   3.530   2.463
 5369SOL    HW117006   1.679   3.480   2.495
 5369SOL    HW217007   1.773   3.611   2.519
 5370SOL     OW17008   3.930   2.944   1.501
 5370SOL    HW117009   3.926   3.022   1.562
 5370SOL    HW217010   3.889   2.968   1.413
 5371SOL     OW17011   1.531   4.112   4.949
 5371SOL    HW117012   1.568   4.204   4.940
 5371SOL    HW217013   1.583   4.061   5.017
 5372SOL     OW17014   2.888   5.854   2.852
 5372SOL    HW117015   2.957   5.883   2.785
 5372SOL    HW217016   2.872   5.755   2.842
 5373SOL     OW17017   1.557   5.186   3.752
 5373SOL    HW117018   1.642   5.227   3.784
 5373SOL    HW217019   1.533   5.108   3.811
 5374SOL     OW17020   3.348   2.594   0.573
 5374SOL    HW117021   3.335   2.499   0.601
 5374SOL    HW217022   3.443   2.620   0.585
 5375SOL     OW17023   1.784   4.083   4.562
 5375SOL    HW117024   1.814   3.992   4.592
 5375SOL    HW217025   1.848   4.119   4.495
 5376SOL     OW17026   2.515   4.240   0.014
 5376SOL    HW117027   2.572   4.186   6.969
 5376SOL    HW217028   2.562   4.252   0.101
 5377SOL     OW17029   0.874   1.837   1.295
 5377SOL    HW117030   0.785   1.802   1.265
 5377SOL    HW217031   0.861   1.895   1.375
 5378SOL     OW17032   4.302   6.935   0.433
 5378SOL    HW117033   4.281   6.937   0.335
 5378SOL    HW217034   4.232   6.986   0.484
 5379SOL     OW17035   6.432   6.636   1.066
 5379SOL    HW117036   6.423   6.706   0.994
 5379SOL    HW217037   6.466   6.679   1.149
 5380SOL     OW17038   2.386   0.376   4.251
 5380SOL    HW117039   2.369   0.427   4.167
 5380SOL    HW217040   2.311   0.311   4.266
 5381SOL     OW17041   5.574   3.176   1.689
 5381SOL    HW117042   5.523   3.091   1.672
 5381SOL    HW217043   5.509   3.251   1.701
 5382SOL     OW17044   1.825   0.403   1.487
 5382SOL    HW117045   1.736   0.449   1.486
 5382SOL    HW217046   1.887   0.453   1.547
 5383SOL     OW17047   1.934   2.259   4.890
 5383SOL    HW117048   1.961   2.182   4.948
 5383SOL    HW217049   2.010   2.283   4.829
 5384SOL     OW17050   5.560   6.375   4.314
 5384SOL    HW117051   5.596   6.449   4.372
 5384SOL    HW217052   5.577   6.396   4.218
 5385SOL     OW17053   3.454   4.136   2.634
 5385SOL    HW117054   3.413   4.126   2.543
 5385SOL    HW217055   3.552   4.119   2.629
 5386SOL     OW17056   5.674   0.100   5.781
 5386SOL    HW117057   5.688   0.198   5.771
 5386SOL    HW217058   5.739   0.050   5.724
 5387SOL     OW17059   3.314   5.445   1.421
 5387SOL    HW117060   3.263   5.416   1.339
 5387SOL    HW217061   3.251   5.491   1.484
 5388SOL     OW17062   6.124   6.675   2.839
 5388SOL    HW117063   6.031   6.708   2.826
 5388SOL    HW217064   6.174   6.684   2.752
 5389SOL     OW17065   4.997   2.162   1.153
 5389SOL    HW117066   4.986   2.096   1.227
 5389SOL    HW217067   5.035   2.246   1.190
 5390SOL     OW17068   6.348   4.755   5.981
 5390SOL    HW117069   6.341   4.656   5.966
 5390SOL    HW217070   6.320   4.777   6.074
 5391SOL     OW17071   2.831   3.810   6.993
 5391SOL    HW117072   2.772   3.763   0.042
 5391SOL    HW217073   2.921   3.824   0.016
 5392SOL     OW17074   6.303   3.089   2.771
 5392SOL    HW117075   6.271   3.033   2.847
 5392SOL    HW217076   6.301   3.035   2.687
 5393SOL     OW17077   6.171   6.785   6.065
 5393SOL    HW117078   6.130   6.700   6.034
 5393SOL    HW217079   6.251   6.765   6.122
 5394SOL     OW17080   1.807   3.983   5.548
 5394SOL    HW117081   1.709   3.997   5.532
 5394SOL    HW217082   1.841   3.913   5.485
 5395SOL     OW17083   4.657   0.538   0.857
 5395SOL    HW117084   4.696   0.585   0.778
 5395SOL    HW217085   4.684   0.585   0.941
 5396SOL     OW17086   5.019   2.789   1.965
 5396SOL    HW117087   4.934   2.748   1.932
 5396SOL    HW217088   4.998   2.851   2.041
 5397SOL     OW17089   0.946   2.932   1.468
 5397SOL    HW117090   0.879   2.943   1.542
 5397SOL    HW217091   1.036   2.962   1.500
 5398SOL     OW17092   3.489   3.306   1.943
 5398SOL    HW117093   3.440   3.382   1.987
 5398SOL    HW217094   3.554   3.343   1.876
 5399SOL     OW17095   0.440   6.189   0.505
 5399SOL    HW117096   0.486   6.267   0.461
 5399SOL    HW217097   0.475   6.104   0.467
 5400SOL     OW17098   2.044   4.070   6.590
 5400SOL    HW117099   2.100   4.023   6.521
 5400SOL    HW217100   1.979   4.131   6.545
 5401SOL     OW17101   6.638   1.949   1.502
 5401SOL    HW117102   6.707   1.876   1.498
 5401SOL    HW217103   6.549   1.911   1.476
 5402SOL     OW17104   1.341   6.198   2.570
 5402SOL    HW117105   1.417   6.135   2.585
 5402SOL    HW217106   1.347   6.273   2.636
 5403SOL     OW17107   6.048   3.564   6.758
 5403SOL    HW117108   6.093   3.634   6.701
 5403SOL    HW217109   6.059   3.475   6.715
 5404SOL     OW17110   1.398   3.323   3.050
 5404SOL    HW117111   1.314   3.334   2.997
 5404SOL    HW217112   1.405   3.228   3.083
 5405SOL     OW17113   6.893   3.534   5.728
 5405SOL    HW117114   6.949   3.581   5.797
 5405SOL    HW217115   6.920   3.565   5.637
 5406SOL     OW17116   1.610   0.049   4.514
 5406SOL    HW117117   1.588   7.013   4.595
 5406SOL    HW217118   1.608   7.007   4.433
 5407SOL     OW17119   4.179   3.258   6.876
 5407SOL    HW117120   4.152   3.317   6.952
 5407SOL    HW217121   4.113   3.267   6.802
 5408SOL     OW17122   3.328   1.147   0.363
 5408SOL    HW117123   3.272   1.230   0.358
 5408SOL    HW217124   3.376   1.133   0.277
 5409SOL     OW17125   3.883   0.571   2.485
 5409SOL    HW117126   3.815   0.630   2.440
 5409SOL    HW217127   3.919   0.506   2.418
 5410SOL     OW17128   1.456   2.951   2.889
 5410SOL    HW117129   1.529   2.883   2.895
 5410SOL    HW217130   1.406   2.938   2.804
 5411SOL     OW17131   1.548   4.984   4.179
 5411SOL    HW117132   1.607   4.904   4.186
 5411SOL    HW217133   1.590   5.060   4.231
 5412SOL     OW17134   6.044   2.422   1.580
 5412SOL    HW117135   6.005   2.351   1.521
 5412SOL    HW217136   5.983   2.501   1.581
 5413SOL     OW17137   2.682   0.325   2.041
 5413SOL    HW117138   2.724   0.371   2.119
 5413SOL    HW217139   2.585   0.312   2.058
 5414SOL     OW17140   4.791   0.633   5.390
 5414SOL    HW117141   4.746   0.581   5.317
 5414SOL    HW217142   4.807   0.573   5.468
 5415SOL     OW17143   5.924   3.889   2.409
 5415SOL    HW117144   5.889   3.803   2.371
 5415SOL    HW217145   5.953   3.873   2.504
 5416SOL     OW17146   3.991   4.845   4.344
 5416SOL    HW117147   3.918   4.909   4.322
 5416SOL    HW217148   3.982   4.763   4.287
 5417SOL     OW17149   3.492   6.905   5.629
 5417SOL    HW117150   3.482   6.806   5.619
 5417SOL    HW217151   3.445   6.951   5.553
 5418SOL     OW17152   3.888   0.923   3.382
 5418SOL    HW117153   3.848   0.976   3.457
 5418SOL    HW217154   3.940   0.846   3.420
 5419SOL     OW17155   3.244   4.353   0.104
 5419SOL    HW117156   3.205   4.377   0.015
 5419SOL    HW217157   3.220   4.258   0.125
 5420SOL     OW17158   1.109   2.697   2.665
 5420SOL    HW117159   1.113   2.748   2.750
 5420SOL    HW217160   1.041   2.624   2.674
 5421SOL     OW17161   1.642   3.183   1.142
 5421SOL    HW117162   1.695   3.120   1.198
 5421SOL    HW217163   1.555   3.203   1.188
 5422SOL     OW17164   1.464   4.013   6.856
 5422SOL    HW117165   1.432   3.981   6.945
 5422SOL    HW217166   1.471   3.935   6.793
 5423SOL     OW17167   5.528   3.297   6.192
 5423SOL    HW117168   5.524   3.197   6.202
 5423SOL    HW217169   5.584   3.320   6.112
 5424SOL     OW17170   5.186   3.619   5.739
 5424SOL    HW117171   5.207   3.616   5.641
 5424SOL    HW217172   5.247   3.685   5.784
 5425SOL     OW17173   5.283   0.137   4.396
 5425SOL    HW117174   5.241   0.223   4.367
 5425SOL    HW217175   5.381   0.140   4.376
 5426SOL     OW17176   0.337   6.957   4.923
 5426SOL    HW117177   0.429   6.994   4.913
 5426SOL    HW217178   0.338   6.859   4.904
 5427SOL     OW17179   4.338   6.639   0.056
 5427SOL    HW117180   4.274   6.643   6.997
 5427SOL    HW217181   4.289   6.657   0.141
 5428SOL     OW17182   1.922   0.821   6.759
 5428SOL    HW117183   1.912   0.785   6.667
 5428SOL    HW217184   1.862   0.771   6.822
 5429SOL     OW17185   1.501   2.398   6.300
 5429SOL    HW117186   1.404   2.422   6.303
 5429SOL    HW217187   1.517   2.334   6.224
 5430SOL     OW17188   2.482   1.930   5.281
 5430SOL    HW117189   2.563   1.987   5.296
 5430SOL    HW217190   2.403   1.989   5.265
 5431SOL     OW17191   3.922   6.021   4.517
 5431SOL    HW117192   3.843   5.990   4.463
 5431SOL    HW217193   3.999   6.037   4.456
 5432SOL     OW17194   5.867   6.059   1.442
 5432SOL    HW117195   5.795   5.996   1.412
 5432SOL    HW217196   5.829   6.128   1.502
 5433SOL     OW17197   0.021   2.277   4.315
 5433SOL    HW117198   6.974   2.352   4.330
 5433SOL    HW217199   6.988   2.194   4.291
 5434SOL     OW17200   2.703   0.202   5.366
 5434SOL    HW117201   2.656   0.246   5.289
 5434SOL    HW217202   2.736   0.273   5.429
 5435SOL     OW17203   4.439   1.295   2.013
 5435SOL    HW117204   4.515   1.231   2.017
 5435SOL    HW217205   4.409   1.306   1.918
 5436SOL     OW17206   4.727   4.077   2.480
 5436SOL    HW117207   4.766   4.143   2.543
 5436SOL    HW217208   4.630   4.062   2.503
 5437SOL     OW17209   3.156   4.490   6.852
 5437SOL    HW117210   3.100   4.571   6.840
 5437SOL    HW217211   3.131   4.421   6.783
 5438SOL     OW17212   6.787   1.111   1.400
 5438SOL    HW117213   6.854   1.058   1.452
 5438SOL    HW217214   6.754   1.186   1.456
 5439SOL     OW17215   1.624   2.706   1.203
 5439SOL    HW117216   1.628   2.741   1.109
 5439SOL    HW217217   1.547   2.643   1.211
 5440SOL     OW17218   1.492   1.435   0.827
 5440SOL    HW117219   1.557   1.482   0.768
 5440SOL    HW217220   1.542   1.388   0.900
 5441SOL     OW17221   3.898   1.842   4.295
 5441SOL    HW117222   3.925   1.796   4.380
 5441SOL    HW217223   3.883   1.774   4.223
 5442SOL     OW17224   3.357   0.821   2.617
 5442SOL    HW117225   3.413   0.858   2.692
 5442SOL    HW217226   3.262   0.812   2.648
 5443SOL     OW17227   2.748   6.967   5.849
 5443SOL    HW117228   2.843   6.935   5.847
 5443SOL    HW217229   2.698   6.921   5.922
 5444SOL     OW17230   0.172   0.651   3.925
 5444SOL    HW117231   0.153   0.749   3.925
 5444SOL    HW217232   0.223   0.628   4.008
 5445SOL     OW17233   5.892   3.684   1.734
 5445SOL    HW117234   5.878   3.763   1.675
 5445SOL    HW217235   5.844   3.698   1.821
 5446SOL     OW17236   6.835   5.862   5.901
 5446SOL    HW117237   6.830   5.846   6.000
 5446SOL    HW217238   6.826   5.960   5.882
 5447SOL     OW17239   2.809   2.212   1.280
 5447SOL    HW117240   2.880   2.247   1.340
 5447SOL    HW217241   2.801   2.112   1.292
 5448SOL     OW17242   5.506   2.100   6.298
 5448SOL    HW117243   5.431   2.036   6.315
 5448SOL    HW217244   5.472   2.194   6.302
 5449SOL     OW17245   0.271   3.203   6.391
 5449SOL    HW117246   0.296   3.279   6.330
 5449SOL    HW217247   0.304   3.117   6.352
 5450SOL     OW17248   2.151   5.947   0.814
 5450SOL    HW117249   2.155   6.029   0.758
 5450SOL    HW217250   2.225   5.948   0.881
 5451SOL     OW17251   1.421   0.188   2.676
 5451SOL    HW117252   1.419   0.260   2.745
 5451SOL    HW217253   1.515   0.161   2.658
 5452SOL     OW17254   2.664   3.619   5.641
 5452SOL    HW117255   2.586   3.602   5.582
 5452SOL    HW217256   2.712   3.533   5.659
 5453SOL     OW17257   0.168   5.165   6.284
 5453SOL    HW117258   0.215   5.108   6.352
 5453SOL    HW217259   0.073   5.177   6.311
 5454SOL     OW17260   0.637   3.866   5.274
 5454SOL    HW117261   0.734   3.845   5.259
 5454SOL    HW217262   0.607   3.934   5.207
 5455SOL     OW17263   0.278   3.144   0.837
 5455SOL    HW117264   0.295   3.046   0.827
 5455SOL    HW217265   0.181   3.164   0.820
 5456SOL     OW17266   2.901   6.806   1.381
 5456SOL    HW117267   2.941   6.843   1.465
 5456SOL    HW217268   2.943   6.850   1.302
 5457SOL     OW17269   6.241   3.851   0.362
 5457SOL    HW117270   6.176   3.852   0.438
 5457SOL    HW217271   6.192   3.837   0.276
 5458SOL     OW17272   2.191   4.465   6.372
 5458SOL    HW117273   2.205   4.532   6.445
 5458SOL    HW217274   2.264   4.398   6.374
 5459SOL     OW17275   2.356   4.545   6.033
 5459SOL    HW117276   2.275   4.490   6.049
 5459SOL    HW217277   2.417   4.498   5.969
 5460SOL     OW17278   3.888   6.766   3.034
 5460SOL    HW117279   3.790   6.757   3.013
 5460SOL    HW217280   3.899   6.805   3.126
 5461SOL     OW17281   4.533   6.464   4.721
 5461SOL    HW117282   4.631   6.453   4.708
 5461SOL    HW217283   4.484   6.395   4.668
 5462SOL     OW17284   0.863   0.497   1.499
 5462SOL    HW117285   0.833   0.403   1.511
 5462SOL    HW217286   0.784   0.556   1.484
 5463SOL     OW17287   0.011   3.155   0.780
 5463SOL    HW117288   6.968   3.181   0.856
 5463SOL    HW217289   6.976   3.105   0.711
 5464SOL     OW17290   2.026   6.202   4.097
 5464SOL    HW117291   2.049   6.241   4.187
 5464SOL    HW217292   1.927   6.188   4.091
 5465SOL     OW17293   2.164   6.235   6.477
 5465SOL    HW117294   2.147   6.323   6.433
 5465SOL    HW217295   2.077   6.191   6.496
 5466SOL     OW17296   5.237   5.092   5.048
 5466SOL    HW117297   5.276   5.183   5.036
 5466SOL    HW217298   5.310   5.024   5.046
 5467SOL     OW17299   5.667   1.517   2.177
 5467SOL    HW117300   5.681   1.550   2.084
 5467SOL    HW217301   5.742   1.549   2.236
 5468SOL     OW17302   4.191   1.705   5.791
 5468SOL    HW117303   4.154   1.738   5.704
 5468SOL    HW217304   4.281   1.665   5.777
 5469SOL     OW17305   4.365   4.391   1.083
 5469SOL    HW117306   4.425   4.470   1.081
 5469SOL    HW217307   4.274   4.417   1.051
 5470SOL     OW17308   0.134   5.507   3.342
 5470SOL    HW117309   0.167   5.503   3.247
 5470SOL    HW217310   0.158   5.595   3.382
 5471SOL     OW17311   6.286   5.049   2.324
 5471SOL    HW117312   6.341   5.131   2.341
 5471SOL    HW217313   6.198   5.076   2.285
 5472SOL     OW17314   3.625   5.168   6.146
 5472SOL    HW117315   3.556   5.226   6.188
 5472SOL    HW217316   3.658   5.210   6.061
 5473SOL     OW17317   1.272   4.165   3.312
 5473SOL    HW117318   1.310   4.091   3.368
 5473SOL    HW217319   1.226   4.231   3.371
 5474SOL     OW17320   1.668   6.361   3.629
 5474SOL    HW117321   1.647   6.311   3.712
 5474SOL    HW217322   1.715   6.447   3.652
 5475SOL     OW17323   3.083   2.759   1.501
 5475SOL    HW117324   3.048   2.776   1.593
 5475SOL    HW217325   3.116   2.665   1.495
 5476SOL     OW17326   1.845   3.479   6.633
 5476SOL    HW117327   1.933   3.443   6.603
 5476SOL    HW217328   1.802   3.528   6.557
 5477SOL     OW17329   1.831   2.773   2.447
 5477SOL    HW117330   1.859   2.869   2.443
 5477SOL    HW217331   1.892   2.718   2.389
 5478SOL     OW17332   0.165   5.661   5.988
 5478SOL    HW117333   0.153   5.724   6.064
 5478SOL    HW217334   0.257   5.622   5.991
 5479SOL     OW17335   4.350   6.932   4.712
 5479SOL    HW117336   4.369   6.967   4.621
 5479SOL    HW217337   4.404   6.983   4.780
 5480SOL     OW17338   0.702   2.530   5.389
 5480SOL    HW117339   0.679   2.569   5.478
 5480SOL    HW217340   0.710   2.430   5.398
 5481SOL     OW17341   4.774   6.523   3.493
 5481SOL    HW117342   4.822   6.528   3.405
 5481SOL    HW217343   4.706   6.595   3.499
 5482SOL     OW17344   1.811   5.092   2.074
 5482SOL    HW117345   1.737   5.094   2.142
 5482SOL    HW217346   1.891   5.047   2.114
 5483SOL     OW17347   0.439   2.666   6.138
 5483SOL    HW117348   0.341   2.684   6.129
 5483SOL    HW217349   0.488   2.710   6.063
 5484SOL     OW17350   4.969   6.970   4.187
 5484SOL    HW117351   5.054   6.946   4.234
 5484SOL    HW217352   4.971   6.931   4.095
 5485SOL     OW17353   3.904   0.392   4.861
 5485SOL    HW117354   3.934   0.344   4.778
 5485SOL    HW217355   3.805   0.404   4.859
 5486SOL     OW17356   2.917   5.168   4.068
 5486SOL    HW117357   2.850   5.138   4.137
 5486SOL    HW217358   3.009   5.158   4.105
 5487SOL     OW17359   3.253   5.028   5.541
 5487SOL    HW117360   3.215   5.120   5.537
 5487SOL    HW217361   3.181   4.963   5.564
 5488SOL     OW17362   4.627   1.772   6.820
 5488SOL    HW117363   4.705   1.752   6.760
 5488SOL    HW217364   4.623   1.870   6.838
 5489SOL     OW17365   0.189   3.581   4.020
 5489SOL    HW117366   0.165   3.516   3.948
 5489SOL    HW217367   0.280   3.618   4.003
 5490SOL     OW17368   0.921   5.529   2.642
 5490SOL    HW117369   0.971   5.474   2.576
 5490SOL    HW217370   0.840   5.568   2.598
 5491SOL     OW17371   6.380   3.744   0.730
 5491SOL    HW117372   6.354   3.713   0.821
 5491SOL    HW217373   6.353   3.675   0.663
 5492SOL     OW17374   0.231   1.542   6.163
 5492SOL    HW117375   0.154   1.532   6.101
 5492SOL    HW217376   0.237   1.463   6.223
 5493SOL     OW17377   4.471   4.085   0.617
 5493SOL    HW117378   4.494   4.040   0.702
 5493SOL    HW217379   4.466   4.184   0.631
 5494SOL     OW17380   6.013   3.107   5.556
 5494SOL    HW117381   6.096   3.070   5.599
 5494SOL    HW217382   5.976   3.180   5.614
 5495SOL     OW17383   5.808   6.890   6.934
 5495SOL    HW117384   5.810   6.945   6.851
 5495SOL    HW217385   5.875   6.816   6.928
 5496SOL     OW17386   4.347   6.844   5.505
 5496SOL    HW117387   4.332   6.943   5.505
 5496SOL    HW217388   4.438   6.824   5.469
 5497SOL     OW17389   0.642   0.372   5.212
 5497SOL    HW117390   0.612   0.285   5.173
 5497SOL    HW217391   0.564   0.433   5.221
 5498SOL     OW17392   0.238   5.058   1.236
 5498SOL    HW117393   0.247   5.143   1.287
 5498SOL    HW217394   0.320   5.002   1.251
 5499SOL     OW17395   1.913   0.201   4.081
 5499SOL    HW117396   1.907   0.229   4.176
 5499SOL    HW217397   1.945   0.278   4.025
 5500SOL     OW17398   2.221   0.219   1.097
 5500SOL    HW117399   2.251   0.283   1.026
 5500SOL    HW217400   2.291   0.149   1.109
 5501SOL     OW17401   4.467   3.320   6.828
 5501SOL    HW117402   4.492   3.302   6.923
 5501SOL    HW217403   4.371   3.297   6.813
 5502SOL     OW17404   4.830   3.602   6.637
 5502SOL    HW117405   4.743   3.562   6.666
 5502SOL    HW217406   4.855   3.565   6.547
 5503SOL     OW17407   5.939   2.827   0.787
 5503SOL    HW117408   5.855   2.801   0.739
 5503SOL    HW217409   5.983   2.744   0.822
 5504SOL     OW17410   3.831   2.142   0.141
 5504SOL    HW117411   3.879   2.228   0.158
 5504SOL    HW217412   3.854   2.107   0.051
 5505SOL     OW17413   2.746   4.864   2.512
 5505SOL    HW117414   2.712   4.833   2.601
 5505SOL    HW217415   2.724   4.794   2.443
 5506SOL     OW17416   6.505   2.339   6.347
 5506SOL    HW117417   6.415   2.320   6.307
 5506SOL    HW217418   6.552   2.409   6.293
 5507SOL     OW17419   3.954   6.775   0.507
 5507SOL    HW117420   3.911   6.821   0.585
 5507SOL    HW217421   3.889   6.711   0.466
 5508SOL     OW17422   0.407   1.066   6.322
 5508SOL    HW117423   0.377   1.102   6.233
 5508SOL    HW217424   0.419   1.141   6.386
 5509SOL     OW17425   6.319   4.409   0.105
 5509SOL    HW117426   6.314   4.332   0.168
 5509SOL    HW217427   6.328   4.375   0.012
 5510SOL     OW17428   5.037   5.183   6.520
 5510SOL    HW117429   4.945   5.178   6.480
 5510SOL    HW217430   5.074   5.091   6.530
 5511SOL     OW17431   0.670   2.479   6.096
 5511SOL    HW117432   0.728   2.440   6.167
 5511SOL    HW217433   0.581   2.502   6.134
 5512SOL     OW17434   1.684   0.481   2.252
 5512SOL    HW117435   1.782   0.493   2.271
 5512SOL    HW217436   1.631   0.546   2.307
 5513SOL     OW17437   3.588   4.646   6.875
 5513SOL    HW117438   3.556   4.728   6.829
 5513SOL    HW217439   3.639   4.671   6.957
 5514SOL     OW17440   2.943   1.087   0.374
 5514SOL    HW117441   3.009   1.163   0.379
 5514SOL    HW217442   2.910   1.077   0.280
 5515SOL     OW17443   3.587   5.737   2.307
 5515SOL    HW117444   3.513   5.681   2.269
 5515SOL    HW217445   3.637   5.685   2.375
 5516SOL     OW17446   1.577   2.018   5.607
 5516SOL    HW117447   1.620   2.094   5.560
 5516SOL    HW217448   1.641   1.979   5.674
 5517SOL     OW17449   0.701   2.280   3.395
 5517SOL    HW117450   0.742   2.232   3.473
 5517SOL    HW217451   0.760   2.270   3.315
 5518SOL     OW17452   4.706   5.162   6.717
 5518SOL    HW117453   4.656   5.232   6.769
 5518SOL    HW217454   4.679   5.071   6.749
 5519SOL     OW17455   5.399   2.631   5.545
 5519SOL    HW117456   5.412   2.578   5.628
 5519SOL    HW217457   5.353   2.575   5.476
 5520SOL     OW17458   4.964   6.862   1.245
 5520SOL    HW117459   4.899   6.809   1.190
 5520SOL    HW217460   5.033   6.903   1.185
 5521SOL     OW17461   4.759   6.866   1.806
 5521SOL    HW117462   4.666   6.836   1.828
 5521SOL    HW217463   4.820   6.843   1.882
 5522SOL     OW17464   5.533   6.427   0.108
 5522SOL    HW117465   5.532   6.404   0.205
 5522SOL    HW217466   5.567   6.521   0.097
 5523SOL     OW17467   5.275   2.263   1.002
 5523SOL    HW117468   5.222   2.261   1.087
 5523SOL    HW217469   5.355   2.205   1.012
 5524SOL     OW17470   2.482   1.466   2.807
 5524SOL    HW117471   2.450   1.378   2.842
 5524SOL    HW217472   2.405   1.519   2.773
 5525SOL     OW17473   6.819   1.571   1.007
 5525SOL    HW117474   6.884   1.577   1.083
 5525SOL    HW217475   6.859   1.611   0.925
 5526SOL     OW17476   5.645   4.507   4.034
 5526SOL    HW117477   5.724   4.516   4.096
 5526SOL    HW217478   5.571   4.566   4.066
 5527SOL     OW17479   6.499   0.371   2.843
 5527SOL    HW117480   6.578   0.418   2.803
 5527SOL    HW217481   6.525   0.278   2.867
 5528SOL     OW17482   1.328   2.171   6.913
 5528SOL    HW117483   1.244   2.156   6.861
 5528SOL    HW217484   1.401   2.199   6.851
 5529SOL     OW17485   3.124   0.462   2.133
 5529SOL    HW117486   3.202   0.466   2.196
 5529SOL    HW217487   3.040   0.486   2.182
 5530SOL     OW17488   0.506   1.891   0.837
 5530SOL    HW117489   0.559   1.808   0.825
 5530SOL    HW217490   0.552   1.951   0.903
 5531SOL     OW17491   1.651   4.327   1.826
 5531SOL    HW117492   1.733   4.352   1.877
 5531SOL    HW217493   1.603   4.253   1.873
 5532SOL     OW17494   0.500   3.615   6.577
 5532SOL    HW117495   0.562   3.675   6.628
 5532SOL    HW217496   0.551   3.537   6.542
 5533SOL     OW17497   4.018   1.135   2.757
 5533SOL    HW117498   3.984   1.047   2.724
 5533SOL    HW217499   4.014   1.137   2.857
 5534SOL     OW17500   1.170   0.123   4.386
 5534SOL    HW117501   1.173   0.028   4.355
 5534SOL    HW217502   1.157   0.126   4.485
 5535SOL     OW17503   6.856   2.066   2.885
 5535SOL    HW117504   6.865   2.070   2.785
 5535SOL    HW217505   6.761   2.081   2.910
 5536SOL     OW17506   4.442   6.378   4.389
 5536SOL    HW117507   4.512   6.449   4.397
 5536SOL    HW217508   4.352   6.417   4.409
 5537SOL     OW17509   2.496   2.455   3.227
 5537SOL    HW117510   2.468   2.537   3.276
 5537SOL    HW217511   2.547   2.481   3.145
 5538SOL     OW17512   4.664   5.323   4.018
 5538SOL    HW117513   4.615   5.268   4.086
 5538SOL    HW217514   4.762   5.325   4.041
 5539SOL     OW17515   2.054   4.368   6.689
 5539SOL    HW117516   2.012   4.340   6.603
 5539SOL    HW217517   2.102   4.455   6.676
 5540SOL     OW17518   3.800   5.636   1.805
 5540SOL    HW117519   3.804   5.537   1.818
 5540SOL    HW217520   3.739   5.657   1.728
 5541SOL     OW17521   4.596   0.764   6.021
 5541SOL    HW117522   4.601   0.810   6.110
 5541SOL    HW217523   4.554   0.826   5.954
 5542SOL     OW17524   5.360   4.668   6.715
 5542SOL    HW117525   5.266   4.669   6.680
 5542SOL    HW217526   5.410   4.745   6.675
 5543SOL     OW17527   0.837   1.773   4.965
 5543SOL    HW117528   0.844   1.709   4.888
 5543SOL    HW217529   0.926   1.815   4.981
 5544SOL     OW17530   5.525   0.732   6.899
 5544SOL    HW117531   5.539   0.827   6.872
 5544SOL    HW217532   5.534   0.724   6.998
 5545SOL     OW17533   2.340   2.468   1.656
 5545SOL    HW117534   2.405   2.544   1.654
 5545SOL    HW217535   2.326   2.438   1.750
 5546SOL     OW17536   4.285   5.483   6.005
 5546SOL    HW117537   4.253   5.507   6.096
 5546SOL    HW217538   4.268   5.558   5.942
 5547SOL     OW17539   3.517   5.346   4.108
 5547SOL    HW117540   3.467   5.362   4.193
 5547SOL    HW217541   3.524   5.248   4.091
 5548SOL     OW17542   0.489   1.813   4.608
 5548SOL    HW117543   0.499   1.909   4.635
 5548SOL    HW217544   0.400   1.779   4.640
 5549SOL     OW17545   3.341   5.122   6.837
 5549SOL    HW117546   3.435   5.150   6.818
 5549SOL    HW217547   3.281   5.153   6.763
 5550SOL     OW17548   2.671   6.540   2.358
 5550SOL    HW117549   2.723   6.459   2.333
 5550SOL    HW217550   2.726   6.597   2.419
 5551SOL     OW17551   0.173   1.229   2.636
 5551SOL    HW117552   0.111   1.179   2.696
 5551SOL    HW217553   0.148   1.210   2.541
 5552SOL     OW17554   1.360   2.902   2.603
 5552SOL    HW117555   1.292   2.831   2.622
 5552SOL    HW217556   1.447   2.860   2.578
 5553SOL     OW17557   4.840   6.283   6.212
 5553SOL    HW117558   4.773   6.348   6.176
 5553SOL    HW217559   4.926   6.294   6.162
 5554SOL     OW17560   3.225   1.002   4.812
 5554SOL    HW117561   3.162   0.934   4.849
 5554SOL    HW217562   3.176   1.063   4.749
 5555SOL     OW17563   0.820   6.164   1.341
 5555SOL    HW117564   0.756   6.204   1.275
 5555SOL    HW217565   0.911   6.159   1.301
 5556SOL     OW17566   0.074   1.058   5.059
 5556SOL    HW117567   0.108   1.030   5.149
 5556SOL    HW217568   6.995   1.082   5.066
 5557SOL     OW17569   3.057   0.300   2.742
 5557SOL    HW117570   3.127   0.350   2.792
 5557SOL    HW217571   3.016   0.232   2.803
 5558SOL     OW17572   5.171   1.798   5.554
 5558SOL    HW117573   5.182   1.699   5.544
 5558SOL    HW217574   5.125   1.818   5.641
 5559SOL     OW17575   2.217   1.033   1.172
 5559SOL    HW117576   2.291   1.098   1.154
 5559SOL    HW217577   2.202   0.977   1.090
 5560SOL     OW17578   0.339   1.522   4.782
 5560SOL    HW117579   0.317   1.601   4.724
 5560SOL    HW217580   0.427   1.483   4.753
 5561SOL     OW17581   1.628   4.331   2.145
 5561SOL    HW117582   1.530   4.335   2.126
 5561SOL    HW217583   1.656   4.235   2.154
 5562SOL     OW17584   3.371   2.168   6.473
 5562SOL    HW117585   3.468   2.175   6.449
 5562SOL    HW217586   3.332   2.259   6.481
 5563SOL     OW17587   3.965   4.273   1.361
 5563SOL    HW117588   3.918   4.192   1.396
 5563SOL    HW217589   4.061   4.251   1.342
 5564SOL     OW17590   5.979   1.768   1.905
 5564SOL    HW117591   5.887   1.805   1.918
 5564SOL    HW217592   6.046   1.833   1.940
 5565SOL     OW17593   2.232   2.678   5.061
 5565SOL    HW117594   2.220   2.757   5.121
 5565SOL    HW217595   2.324   2.680   5.021
 5566SOL     OW17596   2.602   3.881   0.319
 5566SOL    HW117597   2.553   3.814   0.374
 5566SOL    HW217598   2.661   3.936   0.378
 5567SOL     OW17599   1.775   5.342   3.312
 5567SOL    HW117600   1.773   5.272   3.383
 5567SOL    HW217601   1.682   5.376   3.297
 5568SOL     OW17602   3.636   2.741   6.929
 5568SOL    HW117603   3.561   2.736   6.995
 5568SOL    HW217604   3.636   2.831   6.885
 5569SOL     OW17605   4.468   2.005   0.203
 5569SOL    HW117606   4.508   2.061   0.276
 5569SOL    HW217607   4.369   2.021   0.201
 5570SOL     OW17608   1.290   2.674   5.546
 5570SOL    HW117609   1.350   2.611   5.498
 5570SOL    HW217610   1.256   2.744   5.483
 5571SOL     OW17611   6.757   4.545   6.436
 5571SOL    HW117612   6.675   4.508   6.393
 5571SOL    HW217613   6.810   4.471   6.478
 5572SOL     OW17614   0.867   3.119   5.686
 5572SOL    HW117615   0.944   3.163   5.640
 5572SOL    HW217616   0.825   3.052   5.624
 5573SOL     OW17617   6.712   3.969   6.785
 5573SOL    HW117618   6.690   3.875   6.814
 5573SOL    HW217619   6.710   3.974   6.685
 5574SOL     OW17620   1.723   6.740   3.944
 5574SOL    HW117621   1.744   6.832   3.978
 5574SOL    HW217622   1.801   6.680   3.958
 5575SOL     OW17623   0.922   1.342   2.826
 5575SOL    HW117624   0.847   1.291   2.867
 5575SOL    HW217625   0.996   1.353   2.893
 5576SOL     OW17626   6.016   6.498   5.476
 5576SOL    HW117627   6.054   6.573   5.423
 5576SOL    HW217628   6.040   6.509   5.572
 5577SOL     OW17629   2.068   4.473   4.658
 5577SOL    HW117630   2.096   4.495   4.565
 5577SOL    HW217631   1.977   4.433   4.658
 5578SOL     OW17632   3.939   2.099   6.035
 5578SOL    HW117633   3.911   2.063   6.124
 5578SOL    HW217634   4.007   2.038   5.994
 5579SOL     OW17635   5.018   4.640   1.741
 5579SOL    HW117636   5.107   4.672   1.771
 5579SOL    HW217637   4.955   4.636   1.819
 5580SOL     OW17638   5.638   1.508   1.810
 5580SOL    HW117639   5.666   1.533   1.718
 5580SOL    HW217640   5.576   1.430   1.807
 5581SOL     OW17641   3.218   2.775   0.394
 5581SOL    HW117642   3.294   2.727   0.437
 5581SOL    HW217643   3.248   2.815   0.307
 5582SOL     OW17644   3.221   3.115   3.208
 5582SOL    HW117645   3.162   3.106   3.128
 5582SOL    HW217646   3.165   3.122   3.290
 5583SOL     OW17647   3.964   0.533   0.128
 5583SOL    HW117648   4.037   0.581   0.177
 5583SOL    HW217649   3.911   0.599   0.075
 5584SOL     OW17650   4.931   3.578   3.805
 5584SOL    HW117651   4.987   3.591   3.886
 5584SOL    HW217652   4.884   3.490   3.810
 5585SOL     OW17653   0.508   0.178   3.169
 5585SOL    HW117654   0.552   0.222   3.248
 5585SOL    HW217655   0.457   0.098   3.200
 5586SOL     OW17656   2.324   0.614   6.943
 5586SOL    HW117657   2.260   0.680   6.904
 5586SOL    HW217658   2.314   0.612   0.025
 5587SOL     OW17659   3.807   6.219   3.514
 5587SOL    HW117660   3.774   6.126   3.530
 5587SOL    HW217661   3.730   6.278   3.489
 5588SOL     OW17662   5.483   6.514   6.580
 5588SOL    HW117663   5.495   6.490   6.484
 5588SOL    HW217664   5.413   6.585   6.588
 5589SOL     OW17665   1.890   3.959   0.116
 5589SOL    HW117666   1.929   4.036   0.064
 5589SOL    HW217667   1.855   3.891   0.052
 5590SOL     OW17668   6.872   0.705   3.593
 5590SOL    HW117669   6.913   0.614   3.599
 5590SOL    HW217670   6.897   0.758   3.674
 5591SOL     OW17671   5.714   0.400   0.083
 5591SOL    HW117672   5.797   0.387   0.028
 5591SOL    HW217673   5.699   0.498   0.097
 5592SOL     OW17674   1.193   3.115   2.644
 5592SOL    HW117675   1.140   3.095   2.561
 5592SOL    HW217676   1.267   3.048   2.653
 5593SOL     OW17677   2.133   4.120   4.843
 5593SOL    HW117678   2.051   4.071   4.871
 5593SOL    HW217679   2.210   4.092   4.901
 5594SOL     OW17680   2.530   1.326   6.092
 5594SOL    HW117681   2.613   1.382   6.080
 5594SOL    HW217682   2.547   1.254   6.159
 5595SOL     OW17683   0.437   3.152   6.611
 5595SOL    HW117684   0.397   3.164   6.520
 5595SOL    HW217685   0.392   3.076   6.657
 5596SOL     OW17686   4.850   3.541   4.201
 5596SOL    HW117687   4.867   3.444   4.214
 5596SOL    HW217688   4.911   3.577   4.130
 5597SOL     OW17689   0.124   2.008   6.815
 5597SOL    HW117690   0.079   1.945   6.751
 5597SOL    HW217691   0.084   2.099   6.807
 5598SOL     OW17692   6.015   0.895   4.115
 5598SOL    HW117693   5.959   0.901   4.033
 5598SOL    HW217694   5.957   0.877   4.194
 5599SOL     OW17695   5.523   3.365   3.073
 5599SOL    HW117696   5.458   3.365   3.148
 5599SOL    HW217697   5.483   3.319   2.993
 5600SOL     OW17698   1.778   2.775   1.881
 5600SOL    HW117699   1.872   2.764   1.914
 5600SOL    HW217700   1.754   2.872   1.880
 5601SOL     OW17701   6.092   2.702   6.548
 5601SOL    HW117702   6.158   2.641   6.593
 5601SOL    HW217703   6.074   2.669   6.455
 5602SOL     OW17704   6.385   1.740   3.156
 5602SOL    HW117705   6.310   1.695   3.108
 5602SOL    HW217706   6.402   1.695   3.243
 5603SOL     OW17707   3.509   1.901   6.587
 5603SOL    HW117708   3.470   1.952   6.511
 5603SOL    HW217709   3.564   1.825   6.552
 5604SOL     OW17710   0.809   5.135   3.062
 5604SOL    HW117711   0.732   5.104   3.117
 5604SOL    HW217712   0.776   5.191   2.986
 5605SOL     OW17713   3.525   6.802   4.504
 5605SOL    HW117714   3.599   6.869   4.499
 5605SOL    HW217715   3.563   6.711   4.518
 5606SOL     OW17716   4.342   3.547   0.964
 5606SOL    HW117717   4.345   3.536   0.864
 5606SOL    HW217718   4.316   3.641   0.986
 5607SOL     OW17719   0.555   2.273   2.975
 5607SOL    HW117720   0.606   2.219   3.042
 5607SOL    HW217721   0.526   2.214   2.900
 5608SOL     OW17722   6.315   0.320   3.665
 5608SOL    HW117723   6.392   0.342   3.605
 5608SOL    HW217724   6.236   0.374   3.637
 5609SOL     OW17725   6.596   0.561   7.012
 5609SOL    HW117726   6.584   0.462   7.012
 5609SOL    HW217727   6.689   0.583   6.983
 5610SOL     OW17728   5.493   6.335   5.926
 5610SOL    HW117729   5.443   6.283   5.857
 5610SOL    HW217730   5.516   6.275   6.003
 5611SOL     OW17731   6.507   3.911   1.374
 5611SOL    HW117732   6.563   3.874   1.300
 5611SOL    HW217733   6.541   4.002   1.399
 5612SOL     OW17734   4.596   2.323   1.551
 5612SOL    HW117735   4.503   2.290   1.565
 5612SOL    HW217736   4.624   2.380   1.628
 5613SOL     OW17737   6.469   5.136   5.352
 5613SOL    HW117738   6.508   5.045   5.368
 5613SOL    HW217739   6.406   5.131   5.275
 5614SOL     OW17740   5.405   2.335   4.829
 5614SOL    HW117741   5.418   2.357   4.925
 5614SOL    HW217742   5.410   2.236   4.816
 5615SOL     OW17743   0.423   3.209   2.840
 5615SOL    HW117744   0.438   3.173   2.748
 5615SOL    HW217745   0.456   3.143   2.907
 5616SOL     OW17746   1.258   3.401   1.843
 5616SOL    HW117747   1.247   3.499   1.860
 5616SOL    HW217748   1.168   3.358   1.840
 5617SOL     OW17749   0.544   5.156   5.481
 5617SOL    HW117750   0.515   5.157   5.577
 5617SOL    HW217751   0.497   5.228   5.431
 5618SOL     OW17752   4.641   0.279   2.733
 5618SOL    HW117753   4.661   0.350   2.801
 5618SOL    HW217754   4.652   0.317   2.642
 5619SOL     OW17755   2.928   3.848   3.330
 5619SOL    HW117756   3.009   3.896   3.296
 5619SOL    HW217757   2.909   3.878   3.424
 5620SOL     OW17758   5.191   4.862   5.495
 5620SOL    HW117759   5.124   4.834   5.564
 5620SOL    HW217760   5.173   4.956   5.467
 5621SOL     OW17761   1.171   3.167   6.385
 5621SOL    HW117762   1.226   3.158   6.302
 5621SOL    HW217763   1.228   3.148   6.465
 5622SOL     OW17764   5.959   5.568   3.390
 5622SOL    HW117765   5.964   5.473   3.358
 5622SOL    HW217766   6.011   5.626   3.328
 5623SOL     OW17767   4.645   4.705   3.820
 5623SOL    HW117768   4.576   4.649   3.867
 5623SOL    HW217769   4.677   4.656   3.739
 5624SOL     OW17770   5.152   3.953   3.842
 5624SOL    HW117771   5.071   3.955   3.784
 5624SOL    HW217772   5.206   3.871   3.821
 5625SOL     OW17773   3.041   6.669   6.354
 5625SOL    HW117774   2.973   6.657   6.281
 5625SOL    HW217775   3.011   6.741   6.416
 5626SOL     OW17776   1.980   4.897   6.582
 5626SOL    HW117777   2.001   4.989   6.616
 5626SOL    HW217778   1.916   4.852   6.643
 5627SOL     OW17779   1.170   5.336   0.707
 5627SOL    HW117780   1.207   5.423   0.674
 5627SOL    HW217781   1.167   5.338   0.807
 5628SOL     OW17782   1.755   3.202   0.146
 5628SOL    HW117783   1.692   3.145   0.199
 5628SOL    HW217784   1.828   3.144   0.109
 5629SOL     OW17785   6.677   3.426   4.427
 5629SOL    HW117786   6.600   3.460   4.480
 5629SOL    HW217787   6.654   3.426   4.330
 5630SOL     OW17788   1.702   4.328   0.415
 5630SOL    HW117789   1.635   4.372   0.355
 5630SOL    HW217790   1.691   4.229   0.411
 5631SOL     OW17791   3.826   0.660   2.907
 5631SOL    HW117792   3.812   0.757   2.891
 5631SOL    HW217793   3.923   0.637   2.893
 5632SOL     OW17794   3.620   6.583   6.703
 5632SOL    HW117795   3.644   6.660   6.644
 5632SOL    HW217796   3.521   6.577   6.711
 5633SOL     OW17797   1.517   5.153   5.486
 5633SOL    HW117798   1.454   5.085   5.448
 5633SOL    HW217799   1.575   5.190   5.413
 5634SOL     OW17800   2.414   0.179   1.639
 5634SOL    HW117801   2.495   0.174   1.581
 5634SOL    HW217802   2.335   0.206   1.584
 5635SOL     OW17803   3.561   0.378   2.534
 5635SOL    HW117804   3.555   0.386   2.633
 5635SOL    HW217805   3.596   0.287   2.509
 5636SOL     OW17806   5.230   0.001   4.892
 5636SOL    HW117807   5.283   6.936   4.869
 5636SOL    HW217808   5.196   0.043   4.808
 5637SOL     OW17809   4.932   6.980   5.099
 5637SOL    HW117810   4.894   7.003   5.010
 5637SOL    HW217811   5.026   7.015   5.105
 5638SOL     OW17812   0.238   5.808   0.303
 5638SOL    HW117813   0.203   5.761   0.384
 5638SOL    HW217814   0.203   5.765   0.220
 5639SOL     OW17815   3.005   6.934   2.160
 5639SOL    HW117816   3.032   6.984   2.078
 5639SOL    HW217817   2.927   6.876   2.139
 5640SOL     OW17818   3.585   7.005   4.085
 5640SOL    HW117819   3.523   6.928   4.075
 5640SOL    HW217820   3.677   6.978   4.056
 5641SOL     OW17821   6.285   4.598   3.683
 5641SOL    HW117822   6.380   4.629   3.682
 5641SOL    HW217823   6.224   4.677   3.688
 5642SOL     OW17824   2.549   2.489   6.159
 5642SOL    HW117825   2.449   2.486   6.153
 5642SOL    HW217826   2.585   2.397   6.175
 5643SOL     OW17827   5.559   3.263   3.646
 5643SOL    HW117828   5.577   3.180   3.593
 5643SOL    HW217829   5.646   3.309   3.665
 5644SOL     OW17830   3.633   0.511   5.981
 5644SOL    HW117831   3.630   0.606   6.013
 5644SOL    HW217832   3.717   0.496   5.929
 5645SOL     OW17833   5.879   6.787   2.769
 5645SOL    HW117834   5.875   6.827   2.678
 5645SOL    HW217835   5.812   6.713   2.776
 5646SOL     OW17836   6.536   0.335   3.523
 5646SOL    HW117837   6.604   0.406   3.539
 5646SOL    HW217838   6.581   0.245   3.523
 5647SOL     OW17839   6.007   3.750   6.284
 5647SOL    HW117840   5.908   3.749   6.267
 5647SOL    HW217841   6.026   3.804   6.366
 5648SOL     OW17842   2.272   1.509   4.147
 5648SOL    HW117843   2.282   1.458   4.232
 5648SOL    HW217844   2.175   1.516   4.123
 5649SOL     OW17845   0.427   0.188   5.085
 5649SOL    HW117846   0.427   0.114   5.153
 5649SOL    HW217847   0.352   0.251   5.105
 5650SOL     OW17848   6.784   4.857   5.147
 5650SOL    HW117849   6.812   4.933   5.206
 5650SOL    HW217850   6.813   4.876   5.053
 5651SOL     OW17851   6.036   0.544   2.407
 5651SOL    HW117852   6.040   0.596   2.492
 5651SOL    HW217853   5.967   0.584   2.346
 5652SOL     OW17854   5.206   4.311   6.964
 5652SOL    HW117855   5.299   4.335   6.991
 5652SOL    HW217856   5.200   4.212   6.951
 5653SOL     OW17857   1.832   6.002   6.900
 5653SOL    HW117858   1.745   6.017   6.852
 5653SOL    HW217859   1.855   5.905   6.899
 5654SOL     OW17860   1.694   0.022   0.143
 5654SOL    HW117861   1.706   0.060   0.235
 5654SOL    HW217862   1.639   0.084   0.088
 5655SOL     OW17863   6.324   5.164   3.209
 5655SOL    HW117864   6.256   5.238   3.204
 5655SOL    HW217865   6.279   5.077   3.190
 5656SOL     OW17866   3.850   5.453   6.085
 5656SOL    HW117867   3.777   5.404   6.037
 5656SOL    HW217868   3.908   5.387   6.132
 5657SOL     OW17869   4.784   4.826   2.131
 5657SOL    HW117870   4.883   4.841   2.130
 5657SOL    HW217871   4.738   4.911   2.155
 5658SOL     OW17872   4.619   6.791   5.904
 5658SOL    HW117873   4.534   6.788   5.957
 5658SOL    HW217874   4.609   6.859   5.830
 5659SOL     OW17875   3.836   4.014   3.382
 5659SOL    HW117876   3.880   3.932   3.418
 5659SOL    HW217877   3.906   4.084   3.364
 5660SOL     OW17878   6.987   5.683   1.757
 5660SOL    HW117879   6.966   5.760   1.697
 5660SOL    HW217880   0.013   5.716   1.841
 5661SOL     OW17881   6.261   5.824   4.745
 5661SOL    HW117882   6.307   5.878   4.674
 5661SOL    HW217883   6.198   5.882   4.795
 5662SOL     OW17884   1.632   4.544   4.152
 5662SOL    HW117885   1.660   4.632   4.114
 5662SOL    HW217886   1.710   4.501   4.198
 5663SOL     OW17887   2.308   3.723   1.082
 5663SOL    HW117888   2.211   3.714   1.056
 5663SOL    HW217889   2.366   3.690   1.008
 5664SOL     OW17890   6.349   6.227   2.177
 5664SOL    HW117891   6.275   6.214   2.112
 5664SOL    HW217892   6.323   6.188   2.265
 5665SOL     OW17893   1.466   0.951   5.679
 5665SOL    HW117894   1.530   1.019   5.642
 5665SOL    HW217895   1.376   0.965   5.639
 5666SOL     OW17896   5.812   5.290   6.853
 5666SOL    HW117897   5.756   5.346   6.793
 5666SOL    HW217898   5.890   5.343   6.885
 5667SOL     OW17899   5.730   4.455   2.313
 5667SOL    HW117900   5.714   4.548   2.346
 5667SOL    HW217901   5.648   4.399   2.326
 5668SOL     OW17902   6.676   2.286   6.711
 5668SOL    HW117903   6.630   2.197   6.706
 5668SOL    HW217904   6.703   2.304   6.805
 5669SOL     OW17905   0.135   2.831   4.681
 5669SOL    HW117906   0.037   2.842   4.696
 5669SOL    HW217907   0.172   2.913   4.638
 5670SOL     OW17908   1.510   3.566   2.198
 5670SOL    HW117909   1.475   3.641   2.254
 5670SOL    HW217910   1.522   3.484   2.254
 5671SOL     OW17911   0.951   0.739   5.030
 5671SOL    HW117912   1.000   0.719   5.115
 5671SOL    HW217913   0.958   0.661   4.969
 5672SOL     OW17914   4.667   4.019   5.733
 5672SOL    HW117915   4.573   3.986   5.733
 5672SOL    HW217916   4.706   4.010   5.825
 5673SOL     OW17917   1.938   0.034   0.756
 5673SOL    HW117918   1.974   0.065   0.844
 5673SOL    HW217919   1.860   0.090   0.731
 5674SOL     OW17920   0.239   2.928   1.621
 5674SOL    HW117921   0.333   2.896   1.629
 5674SOL    HW217922   0.177   2.856   1.651
 5675SOL     OW17923   3.863   1.019   5.743
 5675SOL    HW117924   3.937   1.087   5.745
 5675SOL    HW217925   3.835   1.004   5.648
 5676SOL     OW17926   2.461   6.913   2.324
 5676SOL    HW117927   2.378   6.965   2.301
 5676SOL    HW217928   2.540   6.955   2.279
 5677SOL     OW17929   6.243   0.185   2.920
 5677SOL    HW117930   6.304   0.245   2.868
 5677SOL    HW217931   6.267   0.090   2.902
 5678SOL     OW17932   0.919   5.246   2.540
 5678SOL    HW117933   0.862   5.305   2.483
 5678SOL    HW217934   0.916   5.152   2.505
 5679SOL     OW17935   3.903   5.753   5.730
 5679SOL    HW117936   3.909   5.796   5.821
 5679SOL    HW217937   3.962   5.672   5.728
 5680SOL     OW17938   1.655   6.773   6.823
 5680SOL    HW117939   1.627   6.754   6.917
 5680SOL    HW217940   1.752   6.801   6.822
 5681SOL     OW17941   2.793   4.160   6.371
 5681SOL    HW117942   2.843   4.188   6.453
 5681SOL    HW217943   2.841   4.194   6.289
 5682SOL     OW17944   2.075   2.857   3.921
 5682SOL    HW117945   2.065   2.871   4.019
 5682SOL    HW217946   1.985   2.842   3.880
 5683SOL     OW17947   4.071   3.371   5.184
 5683SOL    HW117948   4.135   3.298   5.207
 5683SOL    HW217949   4.122   3.451   5.152
 5684SOL     OW17950   3.004   3.908   3.017
 5684SOL    HW117951   2.921   3.912   3.072
 5684SOL    HW217952   3.084   3.900   3.077
 5685SOL     OW17953   0.223   6.076   1.292
 5685SOL    HW117954   0.179   6.152   1.341
 5685SOL    HW217955   0.171   5.992   1.307
 5686SOL     OW17956   3.455   4.535   0.077
 5686SOL    HW117957   3.374   4.478   0.062
 5686SOL    HW217958   3.500   4.553   7.007
 5687SOL     OW17959   4.445   5.832   6.611
 5687SOL    HW117960   4.408   5.751   6.657
 5687SOL    HW217961   4.371   5.882   6.566
 5688SOL     OW17962   5.220   1.582   2.459
 5688SOL    HW117963   5.170   1.527   2.392
 5688SOL    HW217964   5.222   1.534   2.547
 5689SOL     OW17965   4.329   3.646   5.733
 5689SOL    HW117966   4.233   3.640   5.705
 5689SOL    HW217967   4.387   3.623   5.655
 5690SOL     OW17968   3.766   0.009   3.355
 5690SOL    HW117969   3.787   0.077   3.285
 5690SOL    HW217970   3.833   6.952   3.351
 5691SOL     OW17971   3.377   0.206   4.143
 5691SOL    HW117972   3.417   0.296   4.159
 5691SOL    HW217973   3.450   0.141   4.121
 5692SOL     OW17974   5.620   2.344   6.643
 5692SOL    HW117975   5.546   2.383   6.587
 5692SOL    HW217976   5.603   2.247   6.657
 5693SOL     OW17977   4.992   2.656   2.291
 5693SOL    HW117978   5.029   2.682   2.380
 5693SOL    HW217979   4.935   2.730   2.255
 5694SOL     OW17980   1.800   2.093   4.506
 5694SOL    HW117981   1.739   2.102   4.428
 5694SOL    HW217982   1.762   2.142   4.584
 5695SOL     OW17983   1.976   4.105   3.411
 5695SOL    HW117984   1.911   4.171   3.375
 5695SOL    HW217985   2.069   4.141   3.403
 5696SOL     OW17986   2.679   0.855   6.351
 5696SOL    HW117987   2.723   0.770   6.378
 5696SOL    HW217988   2.743   0.931   6.360
 5697SOL     OW17989   6.490   3.782   0.297
 5697SOL    HW117990   6.399   3.813   0.325
 5697SOL    HW217991   6.528   3.845   0.229
 5698SOL     OW17992   1.627   4.512   3.774
 5698SOL    HW117993   1.634   4.612   3.781
 5698SOL    HW217994   1.554   4.479   3.834
 5699SOL     OW17995   0.301   2.450   5.259
 5699SOL    HW117996   0.348   2.370   5.297
 5699SOL    HW217997   0.231   2.420   5.194
 5700SOL     OW17998   1.099   5.413   3.793
 5700SOL    HW117999   1.174   5.369   3.744
 5700SOL    HW218000   1.015   5.406   3.740
 5701SOL     OW18001   4.909   3.807   2.802
 5701SOL    HW118002   4.996   3.768   2.831
 5701SOL    HW218003   4.836   3.774   2.863
 5702SOL     OW18004   3.507   0.179   6.914
 5702SOL    HW118005   3.493   0.264   6.965
 5702SOL    HW218006   3.598   0.143   6.935
 5703SOL     OW18007   4.597   4.241   1.647
 5703SOL    HW118008   4.680   4.285   1.681
 5703SOL    HW218009   4.524   4.247   1.715
 5704SOL     OW18010   5.101   4.299   3.684
 5704SOL    HW118011   5.087   4.206   3.651
 5704SOL    HW218012   5.025   4.326   3.743
 5705SOL     OW18013   6.301   1.681   3.775
 5705SOL    HW118014   6.313   1.764   3.829
 5705SOL    HW218015   6.387   1.629   3.775
 5706SOL     OW18016   2.141   1.064   6.653
 5706SOL    HW118017   2.064   1.124   6.631
 5706SOL    HW218018   2.152   0.996   6.580
 5707SOL     OW18019   3.529   1.432   0.155
 5707SOL    HW118020   3.450   1.492   0.170
 5707SOL    HW218021   3.596   1.480   0.098
 5708SOL     OW18022   6.917   6.733   0.934
 5708SOL    HW118023   6.941   6.642   0.899
 5708SOL    HW218024   6.969   6.751   1.017
 5709SOL     OW18025   1.342   2.748   1.022
 5709SOL    HW118026   1.363   2.845   1.011
 5709SOL    HW218027   1.404   2.694   0.964
 5710SOL     OW18028   3.634   4.449   0.272
 5710SOL    HW118029   3.573   4.476   0.197
 5710SOL    HW218030   3.595   4.479   0.359
 5711SOL     OW18031   5.234   1.811   5.289
 5711SOL    HW118032   5.231   1.906   5.257
 5711SOL    HW218033   5.199   1.806   5.382
 5712SOL     OW18034   6.461   6.751   6.981
 5712SOL    HW118035   6.529   6.759   6.908
 5712SOL    HW218036   6.427   6.842   7.006
 5713SOL     OW18037   0.302   2.518   2.707
 5713SOL    HW118038   0.284   2.529   2.805
 5713SOL    HW218039   0.384   2.568   2.682
 5714SOL     OW18040   2.082   0.572   6.630
 5714SOL    HW118041   2.149   0.646   6.640
 5714SOL    HW218042   2.043   0.551   6.720
 5715SOL     OW18043   1.718   0.117   3.291
 5715SOL    HW118044   1.806   0.110   3.337
 5715SOL    HW218045   1.727   0.172   3.208
 5716SOL     OW18046   2.051   2.232   5.205
 5716SOL    HW118047   2.016   2.151   5.158
 5716SOL    HW218048   1.975   2.291   5.231
 5717SOL     OW18049   0.673   3.395   5.879
 5717SOL    HW118050   0.743   3.466   5.875
 5717SOL    HW218051   0.622   3.392   5.793
 5718SOL     OW18052   2.780   4.940   6.171
 5718SOL    HW118053   2.807   4.976   6.261
 5718SOL    HW218054   2.693   4.893   6.179
 5719SOL     OW18055   2.289   0.961   0.743
 5719SOL    HW118056   2.380   0.935   0.773
 5719SOL    HW218057   2.278   0.937   0.646
 5720SOL     OW18058   1.627   5.825   3.671
 5720SOL    HW118059   1.620   5.733   3.633
 5720SOL    HW218060   1.665   5.820   3.763
 5721SOL     OW18061   6.647   4.179   0.143
 5721SOL    HW118062   6.616   4.163   0.236
 5721SOL    HW218063   6.747   4.168   0.139
 5722SOL     OW18064   5.648   1.268   4.280
 5722SOL    HW118065   5.637   1.184   4.332
 5722SOL    HW218066   5.710   1.252   4.203
 5723SOL     OW18067   0.518   4.453   1.319
 5723SOL    HW118068   0.502   4.378   1.255
 5723SOL    HW218069   0.536   4.537   1.268
 5724SOL     OW18070   5.013   2.659   5.676
 5724SOL    HW118071   4.944   2.659   5.748
 5724SOL    HW218072   5.009   2.745   5.626
 5725SOL     OW18073   5.597   6.477   5.583
 5725SOL    HW118074   5.678   6.419   5.589
 5725SOL    HW218075   5.575   6.495   5.487
 5726SOL     OW18076   4.301   5.010   5.552
 5726SOL    HW118077   4.319   4.917   5.583
 5726SOL    HW218078   4.381   5.067   5.571
 5727SOL     OW18079   5.595   2.883   4.243
 5727SOL    HW118080   5.510   2.926   4.273
 5727SOL    HW218081   5.651   2.862   4.323
 5728SOL     OW18082   4.439   0.738   5.202
 5728SOL    HW118083   4.433   0.638   5.197
 5728SOL    HW218084   4.497   0.764   5.280
 5729SOL     OW18085   1.204   2.897   3.798
 5729SOL    HW118086   1.251   2.885   3.885
 5729SOL    HW218087   1.228   2.985   3.758
 5730SOL     OW18088   4.181   4.426   0.339
 5730SOL    HW118089   4.082   4.418   0.343
 5730SOL    HW218090   4.219   4.345   0.293
 5731SOL     OW18091   4.363   1.085   4.954
 5731SOL    HW118092   4.390   1.123   5.042
 5731SOL    HW218093   4.398   1.143   4.880
 5732SOL     OW18094   5.336   4.649   4.713
 5732SOL    HW118095   5.345   4.575   4.646
 5732SOL    HW218096   5.425   4.666   4.756
 5733SOL     OW18097   2.728   6.970   1.737
 5733SOL    HW118098   2.722   0.012   1.656
 5733SOL    HW218099   2.639   6.970   1.784
 5734SOL     OW18100   1.504   6.877   6.088
 5734SOL    HW118101   1.548   6.810   6.148
 5734SOL    HW218102   1.442   6.934   6.142
 5735SOL     OW18103   5.496   1.173   1.012
 5735SOL    HW118104   5.581   1.169   0.959
 5735SOL    HW218105   5.486   1.264   1.053
 5736SOL     OW18106   5.363   3.660   6.472
 5736SOL    HW118107   5.273   3.683   6.434
 5736SOL    HW218108   5.419   3.619   6.400
 5737SOL     OW18109   5.566   5.660   2.308
 5737SOL    HW118110   5.522   5.646   2.397
 5737SOL    HW218111   5.620   5.744   2.312
 5738SOL     OW18112   2.469   0.892   1.280
 5738SOL    HW118113   2.491   0.971   1.337
 5738SOL    HW218114   2.468   0.919   1.184
 5739SOL     OW18115   2.358   0.716   5.082
 5739SOL    HW118116   2.318   0.624   5.077
 5739SOL    HW218117   2.365   0.745   5.177
 5740SOL     OW18118   4.890   3.386   2.303
 5740SOL    HW118119   4.855   3.424   2.217
 5740SOL    HW218120   4.884   3.456   2.375
 5741SOL     OW18121   1.540   3.236   4.276
 5741SOL    HW118122   1.530   3.314   4.216
 5741SOL    HW218123   1.482   3.161   4.244
 5742SOL     OW18124   5.792   5.811   2.255
 5742SOL    HW118125   5.876   5.858   2.228
 5742SOL    HW218126   5.742   5.781   2.174
 5743SOL     OW18127   3.671   5.677   0.181
 5743SOL    HW118128   3.748   5.680   0.244
 5743SOL    HW218129   3.670   5.588   0.133
 5744SOL     OW18130   5.365   5.939   3.438
 5744SOL    HW118131   5.295   5.900   3.498
 5744SOL    HW218132   5.336   6.031   3.410
 5745SOL     OW18133   0.819   3.506   2.785
 5745SOL    HW118134   0.824   3.443   2.707
 5745SOL    HW218135   0.767   3.587   2.760
 5746SOL     OW18136   5.253   0.459   3.157
 5746SOL    HW118137   5.339   0.436   3.201
 5746SOL    HW218138   5.238   0.398   3.079
 5747SOL     OW18139   1.929   0.165   1.356
 5747SOL    HW118140   1.877   0.222   1.420
 5747SOL    HW218141   1.900   0.185   1.262
 5748SOL     OW18142   5.895   6.602   6.901
 5748SOL    HW118143   5.937   6.619   6.990
 5748SOL    HW218144   5.917   6.509   6.872
 5749SOL     OW18145   2.198   5.946   6.304
 5749SOL    HW118146   2.155   5.940   6.394
 5749SOL    HW218147   2.152   6.015   6.249
 5750SOL     OW18148   6.217   2.832   4.475
 5750SOL    HW118149   6.293   2.821   4.412
 5750SOL    HW218150   6.250   2.830   4.569
 5751SOL     OW18151   0.276   3.488   4.459
 5751SOL    HW118152   0.199   3.507   4.519
 5751SOL    HW218153   0.309   3.573   4.418
 5752SOL     OW18154   5.490   0.975   0.288
 5752SOL    HW118155   5.543   1.053   0.253
 5752SOL    HW218156   5.538   0.935   0.366
 5753SOL     OW18157   3.659   3.838   4.285
 5753SOL    HW118158   3.598   3.861   4.361
 5753SOL    HW218159   3.605   3.815   4.204
 5754SOL     OW18160   6.462   6.054   1.102
 5754SOL    HW118161   6.420   6.023   1.016
 5754SOL    HW218162   6.467   5.977   1.165
 5755SOL     OW18163   1.341   3.093   6.594
 5755SOL    HW118164   1.390   3.163   6.646
 5755SOL    HW218165   1.317   3.017   6.653
 5756SOL     OW18166   6.147   6.060   1.825
 5756SOL    HW118167   6.243   6.085   1.813
 5756SOL    HW218168   6.107   6.040   1.735
 5757SOL     OW18169   0.475   1.317   3.852
 5757SOL    HW118170   0.432   1.267   3.927
 5757SOL    HW218171   0.407   1.333   3.779
 5758SOL     OW18172   6.026   6.731   3.254
 5758SOL    HW118173   6.105   6.770   3.302
 5758SOL    HW218174   6.001   6.790   3.177
 5759SOL     OW18175   2.026   6.990   2.456
 5759SOL    HW118176   1.945   6.952   2.501
 5759SOL    HW218177   2.014   0.071   2.444
 5760SOL     OW18178   0.609   1.909   6.328
 5760SOL    HW118179   0.646   1.914   6.421
 5760SOL    HW218180   0.539   1.838   6.324
 5761SOL     OW18181   6.616   6.423   4.770
 5761SOL    HW118182   6.653   6.394   4.859
 5761SOL    HW218183   6.583   6.517   4.778
 5762SOL     OW18184   1.016   5.526   5.724
 5762SOL    HW118185   1.057   5.605   5.678
 5762SOL    HW218186   1.084   5.455   5.737
 5763SOL     OW18187   5.365   0.505   0.524
 5763SOL    HW118188   5.459   0.519   0.555
 5763SOL    HW218189   5.323   0.593   0.503
 5764SOL     OW18190   4.578   6.160   4.283
 5764SOL    HW118191   4.530   6.074   4.299
 5764SOL    HW218192   4.530   6.234   4.329
 5765SOL     OW18193   6.929   5.376   2.252
 5765SOL    HW118194   6.929   5.278   2.275
 5765SOL    HW218195   6.892   5.428   2.329
 5766SOL     OW18196   0.863   1.190   3.960
 5766SOL    HW118197   0.888   1.271   3.907
 5766SOL    HW218198   0.799   1.216   4.032
 5767SOL     OW18199   4.618   6.768   0.321
 5767SOL    HW118200   4.555   6.699   0.358
 5767SOL    HW218201   4.649   6.828   0.395
 5768SOL     OW18202   1.251   0.866   5.043
 5768SOL    HW118203   1.270   0.781   5.091
 5768SOL    HW218204   1.180   0.850   4.974
 5769SOL     OW18205   0.857   2.887   5.849
 5769SOL    HW118206   0.893   2.932   5.766
 5769SOL    HW218207   0.845   2.790   5.831
 5770SOL     OW18208   1.980   4.665   2.282
 5770SOL    HW118209   2.004   4.659   2.379
 5770SOL    HW218210   1.889   4.626   2.268
 5771SOL     OW18211   2.585   5.082   3.520
 5771SOL    HW118212   2.516   5.096   3.449
 5771SOL    HW218213   2.554   5.011   3.583
 5772SOL     OW18214   3.018   0.013   3.141
 5772SOL    HW118215   2.953   6.974   3.192
 5772SOL    HW218216   3.007   0.109   3.168
 5773SOL     OW18217   5.537   1.019   3.614
 5773SOL    HW118218   5.521   1.079   3.692
 5773SOL    HW218219   5.450   0.994   3.572
 5774SOL     OW18220   1.037   6.716   3.391
 5774SOL    HW118221   0.948   6.712   3.437
 5774SOL    HW218222   1.064   6.624   3.362
 5775SOL     OW18223   5.987   5.196   2.281
 5775SOL    HW118224   5.979   5.096   2.277
 5775SOL    HW218225   5.954   5.235   2.195
 5776SOL     OW18226   2.809   0.997   4.193
 5776SOL    HW118227   2.815   1.094   4.216
 5776SOL    HW218228   2.737   0.983   4.126
 5777SOL     OW18229   1.136   0.436   1.526
 5777SOL    HW118230   1.039   0.453   1.539
 5777SOL    HW218231   1.148   0.359   1.463
 5778SOL     OW18232   0.052   0.270   0.913
 5778SOL    HW118233   0.003   0.272   0.826
 5778SOL    HW218234   0.130   0.208   0.907
 5779SOL     OW18235   6.313   1.533   0.314
 5779SOL    HW118236   6.267   1.549   0.401
 5779SOL    HW218237   6.352   1.619   0.280
 5780SOL     OW18238   4.851   4.730   3.993
 5780SOL    HW118239   4.774   4.743   3.930
 5780SOL    HW218240   4.846   4.799   4.065
 5781SOL     OW18241   1.658   5.448   6.157
 5781SOL    HW118242   1.730   5.468   6.090
 5781SOL    HW218243   1.685   5.483   6.247
 5782SOL     OW18244   0.156   1.002   0.017
 5782SOL    HW118245   0.199   1.061   0.086
 5782SOL    HW218246   0.190   0.908   0.027
 5783SOL     OW18247   2.439   2.812   6.997
 5783SOL    HW118248   2.358   2.802   0.036
 5783SOL    HW218249   2.413   2.821   6.901
 5784SOL     OW18250   0.040   6.643   6.385
 5784SOL    HW118251   0.080   6.637   6.477
 5784SOL    HW218252   0.086   6.715   6.334
 5785SOL     OW18253   1.653   1.251   0.964
 5785SOL    HW118254   1.653   1.157   0.929
 5785SOL    HW218255   1.748   1.282   0.973
 5786SOL     OW18256   6.099   5.410   1.343
 5786SOL    HW118257   6.071   5.497   1.384
 5786SOL    HW218258   6.140   5.427   1.253
 5787SOL     OW18259   2.188   2.892   5.619
 5787SOL    HW118260   2.189   2.915   5.717
 5787SOL    HW218261   2.249   2.953   5.570
 5788SOL     OW18262   3.291   0.724   3.872
 5788SOL    HW118263   3.203   0.703   3.829
 5788SOL    HW218264   3.281   0.806   3.929
 5789SOL     OW18265   3.835   4.943   6.214
 5789SOL    HW118266   3.890   4.947   6.130
 5789SOL    HW218267   3.748   4.989   6.199
 5790SOL     OW18268   1.217   3.912   3.628
 5790SOL    HW118269   1.121   3.895   3.603
 5790SOL    HW218270   1.224   3.997   3.679
 5791SOL     OW18271   1.860   0.634   3.074
 5791SOL    HW118272   1.817   0.719   3.106
 5791SOL    HW218273   1.825   0.611   2.984
 5792SOL     OW18274   0.061   2.290   2.427
 5792SOL    HW118275   0.146   2.326   2.465
 5792SOL    HW218276   0.076   2.198   2.391
 5793SOL     OW18277   6.507   0.722   4.516
 5793SOL    HW118278   6.435   0.726   4.447
 5793SOL    HW218279   6.595   0.743   4.473
 5794SOL     OW18280   6.272   4.555   6.398
 5794SOL    HW118281   6.209   4.529   6.325
 5794SOL    HW218282   6.226   4.549   6.486
 5795SOL     OW18283   5.851   4.103   6.775
 5795SOL    HW118284   5.853   4.071   6.869
 5795SOL    HW218285   5.757   4.122   6.748
 5796SOL     OW18286   3.142   2.351   0.937
 5796SOL    HW118287   3.059   2.326   0.888
 5796SOL    HW218288   3.132   2.328   1.034
 5797SOL     OW18289   2.903   2.424   5.411
 5797SOL    HW118290   2.885   2.376   5.325
 5797SOL    HW218291   2.816   2.446   5.456
 5798SOL     OW18292   6.603   5.337   4.678
 5798SOL    HW118293   6.607   5.410   4.609
 5798SOL    HW218294   6.526   5.277   4.657
 5799SOL     OW18295   5.276   0.950   4.166
 5799SOL    HW118296   5.305   1.046   4.170
 5799SOL    HW218297   5.189   0.944   4.118
 5800SOL     OW18298   6.194   6.080   6.674
 5800SOL    HW118299   6.156   6.124   6.592
 5800SOL    HW218300   6.285   6.045   6.654
 5801SOL     OW18301   1.869   1.084   2.706
 5801SOL    HW118302   1.947   1.034   2.743
 5801SOL    HW218303   1.897   1.135   2.625
 5802SOL     OW18304   1.003   3.022   4.973
 5802SOL    HW118305   1.036   3.102   4.924
 5802SOL    HW218306   0.969   2.954   4.908
 5803SOL     OW18307   1.636   4.765   1.240
 5803SOL    HW118308   1.672   4.809   1.322
 5803SOL    HW218309   1.646   4.826   1.162
 5804SOL     OW18310   6.794   2.776   6.344
 5804SOL    HW118311   6.719   2.835   6.314
 5804SOL    HW218312   6.778   2.748   6.439
 5805SOL     OW18313   6.138   3.382   6.576
 5805SOL    HW118314   6.219   3.325   6.588
 5805SOL    HW218315   6.057   3.325   6.564
 5806SOL     OW18316   6.984   6.960   6.565
 5806SOL    HW118317   7.004   0.041   6.572
 5806SOL    HW218318   0.050   6.912   6.536
 5807SOL     OW18319   2.388   3.631   1.665
 5807SOL    HW118320   2.377   3.563   1.738
 5807SOL    HW218321   2.298   3.664   1.637
 5808SOL     OW18322   6.113   1.876   3.515
 5808SOL    HW118323   6.076   1.880   3.608
 5808SOL    HW218324   6.138   1.782   3.493
 5809SOL     OW18325   0.264   3.023   4.312
 5809SOL    HW118326   0.344   3.081   4.298
 5809SOL    HW218327   0.260   2.954   4.239
 5810SOL     OW18328   2.098   2.152   2.755
 5810SOL    HW118329   2.179   2.164   2.699
 5810SOL    HW218330   2.062   2.242   2.781
 5811SOL     OW18331   2.802   0.423   2.279
 5811SOL    HW118332   2.813   0.332   2.318
 5811SOL    HW218333   2.874   0.483   2.314
 5812SOL     OW18334   4.698   0.497   4.580
 5812SOL    HW118335   4.654   0.573   4.628
 5812SOL    HW218336   4.740   0.532   4.496
 5813SOL     OW18337   1.699   1.056   5.125
 5813SOL    HW118338   1.666   1.001   5.202
 5813SOL    HW218339   1.621   1.094   5.075
 5814SOL     OW18340   0.013   4.984   0.474
 5814SOL    HW118341   6.970   5.047   0.424
 5814SOL    HW218342   6.989   4.893   0.475
 5815SOL     OW18343   3.801   1.299   3.769
 5815SOL    HW118344   3.738   1.313   3.845
 5815SOL    HW218345   3.895   1.294   3.803
 5816SOL     OW18346   5.103   6.852   0.980
 5816SOL    HW118347   5.106   6.753   0.992
 5816SOL    HW218348   5.113   6.874   0.883
 5817SOL     OW18349   5.903   1.806   6.031
 5817SOL    HW118350   5.911   1.719   5.982
 5817SOL    HW218351   5.980   1.817   6.093
 5818SOL     OW18352   6.165   6.167   5.578
 5818SOL    HW118353   6.208   6.238   5.522
 5818SOL    HW218354   6.234   6.103   5.610
 5819SOL     OW18355   5.748   0.237   0.891
 5819SOL    HW118356   5.650   0.252   0.882
 5819SOL    HW218357   5.768   0.200   0.982
 5820SOL     OW18358   5.716   5.393   2.426
 5820SOL    HW118359   5.727   5.401   2.525
 5820SOL    HW218360   5.621   5.366   2.405
 5821SOL     OW18361   3.281   6.695   2.360
 5821SOL    HW118362   3.214   6.639   2.409
 5821SOL    HW218363   3.336   6.636   2.300
 5822SOL     OW18364   0.852   1.326   2.112
 5822SOL    HW118365   0.925   1.281   2.061
 5822SOL    HW218366   0.888   1.360   2.198
 5823SOL     OW18367   2.248   2.813   4.399
 5823SOL    HW118368   2.265   2.866   4.483
 5823SOL    HW218369   2.204   2.727   4.422
 5824SOL     OW18370   4.302   0.472   3.292
 5824SOL    HW118371   4.382   0.433   3.338
 5824SOL    HW218372   4.237   0.399   3.270
 5825SOL     OW18373   3.175   1.061   1.420
 5825SOL    HW118374   3.160   0.964   1.441
 5825SOL    HW218375   3.205   1.108   1.503
 5826SOL     OW18376   6.773   6.861   4.262
 5826SOL    HW118377   6.790   6.853   4.164
 5826SOL    HW218378   6.704   6.794   4.290
 5827SOL     OW18379   1.828   4.962   5.455
 5827SOL    HW118380   1.810   5.038   5.392
 5827SOL    HW218381   1.791   4.877   5.416
 5828SOL     OW18382   6.562   2.028   1.876
 5828SOL    HW118383   6.532   2.114   1.917
 5828SOL    HW218384   6.662   2.023   1.878
 5829SOL     OW18385   1.340   1.657   1.690
 5829SOL    HW118386   1.256   1.639   1.742
 5829SOL    HW218387   1.384   1.571   1.667
 5830SOL     OW18388   2.068   0.847   5.365
 5830SOL    HW118389   2.072   0.911   5.289
 5830SOL    HW218390   2.091   0.755   5.333
 5831SOL     OW18391   5.768   6.010   3.094
 5831SOL    HW118392   5.706   5.949   3.143
 5831SOL    HW218393   5.740   6.105   3.110
 5832SOL     OW18394   3.331   3.447   4.678
 5832SOL    HW118395   3.348   3.526   4.736
 5832SOL    HW218396   3.233   3.440   4.658
 5833SOL     OW18397   3.307   3.223   4.916
 5833SOL    HW118398   3.268   3.314   4.901
 5833SOL    HW218399   3.282   3.163   4.840
 5834SOL     OW18400   6.367   0.587   0.121
 5834SOL    HW118401   6.310   0.611   0.042
 5834SOL    HW218402   6.462   0.579   0.092
 5835SOL     OW18403   5.344   2.908   4.420
 5835SOL    HW118404   5.375   2.957   4.501
 5835SOL    HW218405   5.374   2.813   4.425
 5836SOL     OW18406   3.262   6.893   2.829
 5836SOL    HW118407   3.173   6.906   2.785
 5836SOL    HW218408   3.262   6.938   2.918
 5837SOL     OW18409   4.528   4.704   6.599
 5837SOL    HW118410   4.455   4.727   6.535
 5837SOL    HW218411   4.582   4.628   6.562
 5838SOL     OW18412   0.618   1.357   5.447
 5838SOL    HW118413   0.714   1.370   5.472
 5838SOL    HW218414   0.590   1.428   5.383
 5839SOL     OW18415   0.066   2.437   2.212
 5839SOL    HW118416   0.063   2.389   2.299
 5839SOL    HW218417   0.160   2.464   2.191
 5840SOL     OW18418   2.984   5.410   0.317
 5840SOL    HW118419   3.068   5.445   0.358
 5840SOL    HW218420   3.000   5.319   0.279
 5841SOL     OW18421   6.102   2.542   2.814
 5841SOL    HW118422   6.197   2.573   2.825
 5841SOL    HW218423   6.059   2.534   2.903
 5842SOL     OW18424   3.912   3.149   0.068
 5842SOL    HW118425   3.886   3.136   6.989
 5842SOL    HW218426   3.919   3.247   0.088
 5843SOL     OW18427   1.136   3.153   1.141
 5843SOL    HW118428   1.160   3.163   1.045
 5843SOL    HW218429   1.043   3.116   1.148
 5844SOL     OW18430   1.578   6.083   6.798
 5844SOL    HW118431   1.488   6.096   6.840
 5844SOL    HW218432   1.584   6.135   6.714
 5845SOL     OW18433   1.025   2.616   4.626
 5845SOL    HW118434   1.115   2.610   4.670
 5845SOL    HW218435   0.987   2.708   4.641
 5846SOL     OW18436   0.627   3.308   6.221
 5846SOL    HW118437   0.611   3.244   6.146
 5846SOL    HW218438   0.675   3.388   6.187
 5847SOL     OW18439   1.538   2.423   3.932
 5847SOL    HW118440   1.513   2.338   3.886
 5847SOL    HW218441   1.470   2.493   3.911
 5848SOL     OW18442   1.165   5.034   3.298
 5848SOL    HW118443   1.220   5.098   3.244
 5848SOL    HW218444   1.214   5.012   3.383
 5849SOL     OW18445   2.994   6.826   5.807
 5849SOL    HW118446   3.023   6.736   5.840
 5849SOL    HW218447   3.066   6.893   5.826
 5850SOL     OW18448   0.683   4.462   3.631
 5850SOL    HW118449   0.634   4.375   3.619
 5850SOL    HW218450   0.774   4.445   3.667
 5851SOL     OW18451   5.194   3.110   2.035
 5851SOL    HW118452   5.191   3.092   1.937
 5851SOL    HW218453   5.249   3.039   2.080
 5852SOL     OW18454   4.339   5.963   2.806
 5852SOL    HW118455   4.376   5.882   2.852
 5852SOL    HW218456   4.413   6.024   2.781
 5853SOL     OW18457   4.622   4.376   5.583
 5853SOL    HW118458   4.656   4.405   5.493
 5853SOL    HW218459   4.690   4.318   5.627
 5854SOL     OW18460   0.860   0.927   6.476
 5854SOL    HW118461   0.916   0.900   6.397
 5854SOL    HW218462   0.917   0.930   6.558
 5855SOL     OW18463   1.929   1.229   5.186
 5855SOL    HW118464   1.855   1.162   5.180
 5855SOL    HW218465   1.993   1.214   5.111
 5856SOL     OW18466   2.130   5.175   2.918
 5856SOL    HW118467   2.217   5.202   2.877
 5856SOL    HW218468   2.058   5.179   2.849
 5857SOL     OW18469   0.091   2.123   5.408
 5857SOL    HW118470   0.103   2.028   5.435
 5857SOL    HW218471   0.023   2.129   5.335
 5858SOL     OW18472   3.888   6.756   3.309
 5858SOL    HW118473   3.812   6.740   3.373
 5858SOL    HW218474   3.969   6.708   3.342
 5859SOL     OW18475   6.392   5.713   1.763
 5859SOL    HW118476   6.340   5.795   1.739
 5859SOL    HW218477   6.431   5.723   1.854
 5860SOL     OW18478   0.511   3.487   0.886
 5860SOL    HW118479   0.495   3.503   0.789
 5860SOL    HW218480   0.585   3.545   0.919
 5861SOL     OW18481   5.971   2.021   4.133
 5861SOL    HW118482   5.919   2.017   4.219
 5861SOL    HW218483   5.916   1.983   4.059
 5862SOL     OW18484   4.598   4.416   3.700
 5862SOL    HW118485   4.588   4.398   3.797
 5862SOL    HW218486   4.692   4.445   3.680
 5863SOL     OW18487   2.006   1.547   1.273
 5863SOL    HW118488   1.921   1.536   1.220
 5863SOL    HW218489   2.009   1.639   1.311
 5864SOL     OW18490   4.162   5.603   0.460
 5864SOL    HW118491   4.147   5.567   0.552
 5864SOL    HW218492   4.210   5.691   0.466
 5865SOL     OW18493   4.525   0.895   3.553
 5865SOL    HW118494   4.483   0.879   3.464
 5865SOL    HW218495   4.456   0.930   3.617
 5866SOL     OW18496   3.058   1.978   6.956
 5866SOL    HW118497   3.120   2.055   6.942
 5866SOL    HW218498   3.002   1.965   6.874
 5867SOL     OW18499   0.363   2.655   1.247
 5867SOL    HW118500   0.429   2.580   1.256
 5867SOL    HW218501   0.397   2.735   1.296
 5868SOL     OW18502   1.404   6.752   4.456
 5868SOL    HW118503   1.432   6.829   4.398
 5868SOL    HW218504   1.345   6.691   4.404
 5869SOL     OW18505   3.322   4.921   3.950
 5869SOL    HW118506   3.357   4.943   3.859
 5869SOL    HW218507   3.223   4.935   3.952
 5870SOL     OW18508   5.282   5.325   4.167
 5870SOL    HW118509   5.327   5.241   4.199
 5870SOL    HW218510   5.262   5.316   4.069
 5871SOL     OW18511   2.690   3.688   0.160
 5871SOL    HW118512   2.651   3.763   0.213
 5871SOL    HW218513   2.634   3.606   0.172
 5872SOL     OW18514   3.882   5.678   4.258
 5872SOL    HW118515   3.917   5.599   4.209
 5872SOL    HW218516   3.876   5.756   4.195
 5873SOL     OW18517   1.890   3.285   6.865
 5873SOL    HW118518   1.844   3.298   6.953
 5873SOL    HW218519   1.827   3.241   6.801
 5874SOL     OW18520   1.047   4.097   6.759
 5874SOL    HW118521   0.967   4.141   6.718
 5874SOL    HW218522   1.072   4.017   6.703
 5875SOL     OW18523   4.001   2.186   0.581
 5875SOL    HW118524   4.078   2.223   0.633
 5875SOL    HW218525   3.916   2.230   0.611
 5876SOL     OW18526   3.866   4.025   6.259
 5876SOL    HW118527   3.878   4.076   6.174
 5876SOL    HW218528   3.781   4.054   6.304
 5877SOL     OW18529   6.153   0.281   2.436
 5877SOL    HW118530   6.104   0.368   2.433
 5877SOL    HW218531   6.141   0.239   2.525
 5878SOL     OW18532   5.009   4.246   2.289
 5878SOL    HW118533   4.947   4.220   2.215
 5878SOL    HW218534   5.087   4.295   2.251
 5879SOL     OW18535   3.024   4.195   5.264
 5879SOL    HW118536   2.957   4.269   5.274
 5879SOL    HW218537   3.053   4.163   5.354
 5880SOL     OW18538   5.551   2.182   6.908
 5880SOL    HW118539   5.492   2.183   6.989
 5880SOL    HW218540   5.495   2.195   6.826
 5881SOL     OW18541   1.440   6.358   2.773
 5881SOL    HW118542   1.533   6.368   2.810
 5881SOL    HW218543   1.382   6.315   2.842
 5882SOL     OW18544   1.444   4.756   5.625
 5882SOL    HW118545   1.384   4.684   5.589
 5882SOL    HW218546   1.411   4.786   5.714
 5883SOL     OW18547   6.745   5.813   0.180
 5883SOL    HW118548   6.790   5.890   0.136
 5883SOL    HW218549   6.701   5.756   0.110
 5884SOL     OW18550   6.782   1.001   2.344
 5884SOL    HW118551   6.760   0.913   2.384
 5884SOL    HW218552   6.863   0.993   2.286
 5885SOL     OW18553   0.074   5.419   1.072
 5885SOL    HW118554   0.076   5.328   1.030
 5885SOL    HW218555   0.011   5.419   1.149
 5886SOL     OW18556   1.897   4.953   3.516
 5886SOL    HW118557   1.912   4.956   3.417
 5886SOL    HW218558   1.887   4.858   3.546
 5887SOL     OW18559   3.219   3.181   6.978
 5887SOL    HW118560   3.252   3.195   0.054
 5887SOL    HW218561   3.274   3.110   6.933
 5888SOL     OW18562   2.647   6.056   1.276
 5888SOL    HW118563   2.680   5.992   1.345
 5888SOL    HW218564   2.620   6.142   1.320
 5889SOL     OW18565   5.535   1.283   2.329
 5889SOL    HW118566   5.546   1.317   2.235
 5889SOL    HW218567   5.548   1.359   2.393
 5890SOL     OW18568   2.408   4.880   3.655
 5890SOL    HW118569   2.322   4.901   3.702
 5890SOL    HW218570   2.389   4.858   3.559
 5891SOL     OW18571   2.465   3.456   6.374
 5891SOL    HW118572   2.391   3.397   6.407
 5891SOL    HW218573   2.438   3.552   6.387
 5892SOL     OW18574   1.403   2.825   0.583
 5892SOL    HW118575   1.324   2.783   0.629
 5892SOL    HW218576   1.402   2.924   0.597
 5893SOL     OW18577   0.816   6.280   1.605
 5893SOL    HW118578   0.796   6.258   1.510
 5893SOL    HW218579   0.886   6.352   1.609
 5894SOL     OW18580   1.968   5.781   6.892
 5894SOL    HW118581   2.037   5.846   6.862
 5894SOL    HW218582   1.989   5.690   6.858
 5895SOL     OW18583   5.954   3.952   3.443
 5895SOL    HW118584   5.882   3.993   3.499
 5895SOL    HW218585   6.013   4.024   3.407
 5896SOL     OW18586   5.634   2.304   2.336
 5896SOL    HW118587   5.620   2.248   2.417
 5896SOL    HW218588   5.549   2.350   2.313
 5897SOL     OW18589   3.311   2.342   0.718
 5897SOL    HW118590   3.264   2.334   0.806
 5897SOL    HW218591   3.386   2.277   0.714
 5898SOL     OW18592   2.203   0.793   6.766
 5898SOL    HW118593   2.259   0.835   6.837
 5898SOL    HW218594   2.111   0.833   6.767
 5899SOL     OW18595   6.864   6.977   0.002
 5899SOL    HW118596   6.900   6.958   0.093
 5899SOL    HW218597   6.903   0.045   6.985
 5900SOL     OW18598   6.179   6.319   2.581
 5900SOL    HW118599   6.227   6.385   2.524
 5900SOL    HW218600   6.098   6.361   2.621
 5901SOL     OW18601   2.537   0.425   5.207
 5901SOL    HW118602   2.555   0.415   5.110
 5901SOL    HW218603   2.580   0.509   5.241
 5902SOL     OW18604   3.981   4.300   5.541
 5902SOL    HW118605   4.029   4.290   5.454
 5902SOL    HW218606   3.931   4.216   5.562
 5903SOL     OW18607   6.537   1.782   5.047
 5903SOL    HW118608   6.442   1.789   5.017
 5903SOL    HW218609   6.595   1.834   4.984
 5904SOL     OW18610   7.001   4.981   1.321
 5904SOL    HW118611   0.054   4.934   1.375
 5904SOL    HW218612   0.028   5.048   1.261
 5905SOL     OW18613   6.031   2.520   4.928
 5905SOL    HW118614   5.997   2.432   4.896
 5905SOL    HW218615   5.983   2.594   4.881
 5906SOL     OW18616   4.522   1.306   6.051
 5906SOL    HW118617   4.457   1.344   6.118
 5906SOL    HW218618   4.476   1.291   5.964
 5907SOL     OW18619   1.423   2.909   5.692
 5907SOL    HW118620   1.515   2.871   5.684
 5907SOL    HW218621   1.356   2.841   5.660
 5908SOL     OW18622   4.335   3.962   6.595
 5908SOL    HW118623   4.308   3.983   6.500
 5908SOL    HW218624   4.255   3.967   6.654
 5909SOL     OW18625   6.032   4.998   4.081
 5909SOL    HW118626   6.076   4.980   4.169
 5909SOL    HW218627   5.993   4.914   4.045
 5910SOL     OW18628   3.195   4.429   0.949
 5910SOL    HW118629   3.215   4.518   0.909
 5910SOL    HW218630   3.265   4.363   0.921
 5911SOL     OW18631   6.280   0.379   6.494
 5911SOL    HW118632   6.373   0.416   6.484
 5911SOL    HW218633   6.276   0.322   6.576
 5912SOL     OW18634   0.492   3.446   5.701
 5912SOL    HW118635   0.410   3.412   5.656
 5912SOL    HW218636   0.524   3.529   5.655
 5913SOL     OW18637   1.744   2.434   4.500
 5913SOL    HW118638   1.665   2.480   4.460
 5913SOL    HW218639   1.800   2.394   4.427
 5914SOL     OW18640   1.541   6.018   1.101
 5914SOL    HW118641   1.494   6.042   1.186
 5914SOL    HW218642   1.574   6.102   1.057
 5915SOL     OW18643   5.774   3.515   4.772
 5915SOL    HW118644   5.676   3.535   4.777
 5915SOL    HW218645   5.802   3.464   4.853
 5916SOL     OW18646   3.088   0.079   6.365
 5916SOL    HW118647   3.120   7.007   6.395
 5916SOL    HW218648   3.166   0.142   6.361
 5917SOL     OW18649   3.941   3.942   2.580
 5917SOL    HW118650   3.981   3.931   2.489
 5917SOL    HW218651   4.006   3.910   2.649
 5918SOL     OW18652   2.304   2.046   4.240
 5918SOL    HW118653   2.328   2.119   4.304
 5918SOL    HW218654   2.387   2.002   4.207
 5919SOL     OW18655   1.404   2.261   6.662
 5919SOL    HW118656   1.484   2.316   6.639
 5919SOL    HW218657   1.399   2.182   6.600
 5920SOL     OW18658   2.709   5.245   7.016
 5920SOL    HW118659   2.640   5.185   0.038
 5920SOL    HW218660   2.712   5.330   0.052
 5921SOL     OW18661   3.922   5.397   5.746
 5921SOL    HW118662   3.960   5.309   5.717
 5921SOL    HW218663   3.997   5.458   5.773
 5922SOL     OW18664   6.001   4.591   1.245
 5922SOL    HW118665   5.932   4.605   1.316
 5922SOL    HW218666   6.089   4.626   1.277
 5923SOL     OW18667   0.263   0.661   3.661
 5923SOL    HW118668   0.357   0.627   3.665
 5923SOL    HW218669   0.217   0.642   3.748
 5924SOL     OW18670   6.014   2.081   4.529
 5924SOL    HW118671   6.059   2.169   4.546
 5924SOL    HW218672   6.082   2.008   4.535
 5925SOL     OW18673   6.194   6.036   0.473
 5925SOL    HW118674   6.222   6.049   0.378
 5925SOL    HW218675   6.138   6.114   0.503
 5926SOL     OW18676   3.110   5.589   2.027
 5926SOL    HW118677   3.128   5.644   1.946
 5926SOL    HW218678   3.035   5.526   2.009
 5927SOL     OW18679   2.154   5.091   1.840
 5927SOL    HW118680   2.183   5.017   1.901
 5927SOL    HW218681   2.059   5.075   1.812
 5928SOL     OW18682   1.095   5.900   1.047
 5928SOL    HW118683   1.133   5.831   1.110
 5928SOL    HW218684   1.136   5.889   0.957
 5929SOL     OW18685   0.668   6.514   5.295
 5929SOL    HW118686   0.706   6.540   5.206
 5929SOL    HW218687   0.569   6.526   5.293
 5930SOL     OW18688   6.091   1.133   4.924
 5930SOL    HW118689   6.048   1.135   5.014
 5930SOL    HW218690   6.030   1.088   4.859
 5931SOL     OW18691   5.655   4.894   0.528
 5931SOL    HW118692   5.685   4.931   0.440
 5931SOL    HW218693   5.718   4.822   0.557
 5932SOL     OW18694   2.133   0.171   0.231
 5932SOL    HW118695   2.058   0.159   0.165
 5932SOL    HW218696   2.115   0.114   0.311
 5933SOL     OW18697   6.288   3.306   3.126
 5933SOL    HW118698   6.355   3.300   3.052
 5933SOL    HW218699   6.329   3.353   3.204
 5934SOL     OW18700   4.036   3.773   2.357
 5934SOL    HW118701   4.088   3.700   2.401
 5934SOL    HW218702   4.026   3.753   2.259
 5935SOL     OW18703   4.044   3.115   2.819
 5935SOL    HW118704   4.056   3.023   2.857
 5935SOL    HW218705   3.984   3.168   2.879
 5936SOL     OW18706   6.608   6.361   6.269
 5936SOL    HW118707   6.523   6.328   6.309
 5936SOL    HW218708   6.617   6.459   6.285
 5937SOL     OW18709   1.494   4.424   0.259
 5937SOL    HW118710   1.448   4.490   0.200
 5937SOL    HW218711   1.425   4.369   0.307
 5938SOL     OW18712   2.171   4.360   0.501
 5938SOL    HW118713   2.255   4.405   0.471
 5938SOL    HW218714   2.185   4.319   0.591
 5939SOL     OW18715   1.604   1.520   2.286
 5939SOL    HW118716   1.646   1.570   2.362
 5939SOL    HW218717   1.541   1.451   2.321
 5940SOL     OW18718   3.843   5.158   3.353
 5940SOL    HW118719   3.821   5.212   3.271
 5940SOL    HW218720   3.794   5.196   3.431
 5941SOL     OW18721   6.804   3.119   2.890
 5941SOL    HW118722   6.722   3.120   2.833
 5941SOL    HW218723   6.778   3.093   2.984
 5942SOL     OW18724   6.950   1.953   4.532
 5942SOL    HW118725   6.964   1.861   4.567
 5942SOL    HW218726   6.994   2.019   4.593
 5943SOL     OW18727   1.402   5.118   0.749
 5943SOL    HW118728   1.324   5.056   0.746
 5943SOL    HW218729   1.422   5.141   0.844
 5944SOL     OW18730   4.850   2.421   3.292
 5944SOL    HW118731   4.889   2.435   3.202
 5944SOL    HW218732   4.869   2.327   3.323
 5945SOL     OW18733   6.812   5.491   6.245
 5945SOL    HW118734   6.767   5.458   6.328
 5945SOL    HW218735   6.754   5.559   6.201
 5946SOL     OW18736   3.573   2.649   5.517
 5946SOL    HW118737   3.486   2.658   5.469
 5946SOL    HW218738   3.619   2.564   5.491
 5947SOL     OW18739   4.794   3.905   1.808
 5947SOL    HW118740   4.734   3.919   1.729
 5947SOL    HW218741   4.791   3.986   1.867
 5948SOL     OW18742   3.243   5.239   3.220
 5948SOL    HW118743   3.185   5.165   3.254
 5948SOL    HW218744   3.333   5.202   3.194
 5949SOL     OW18745   4.419   4.569   2.763
 5949SOL    HW118746   4.422   4.547   2.666
 5949SOL    HW218747   4.404   4.667   2.775
 5950SOL     OW18748   5.697   2.710   4.058
 5950SOL    HW118749   5.660   2.783   4.116
 5950SOL    HW218750   5.775   2.668   4.104
 5951SOL     OW18751   2.055   6.986   4.247
 5951SOL    HW118752   2.064   6.985   4.347
 5951SOL    HW218753   2.026   0.060   4.217
 5952SOL     OW18754   0.359   5.721   5.087
 5952SOL    HW118755   0.313   5.764   5.010
 5952SOL    HW218756   0.430   5.781   5.122
 5953SOL     OW18757   1.203   3.163   6.101
 5953SOL    HW118758   1.224   3.119   6.013
 5953SOL    HW218759   1.107   3.193   6.100
 5954SOL     OW18760   1.022   4.973   6.533
 5954SOL    HW118761   1.023   5.040   6.607
 5954SOL    HW218762   0.929   4.961   6.500
 5955SOL     OW18763   5.045   5.010   2.928
 5955SOL    HW118764   5.075   5.038   2.837
 5955SOL    HW218765   5.123   5.009   2.990
 5956SOL     OW18766   0.120   2.327   6.778
 5956SOL    HW118767   0.054   2.280   6.719
 5956SOL    HW218768   0.073   2.392   6.837
 5957SOL     OW18769   4.458   6.529   5.540
 5957SOL    HW118770   4.469   6.511   5.637
 5957SOL    HW218771   4.433   6.625   5.526
 5958SOL     OW18772   0.720   5.417   2.430
 5958SOL    HW118773   0.741   5.358   2.352
 5958SOL    HW218774   0.647   5.480   2.406
 5959SOL     OW18775   1.154   0.675   6.463
 5959SOL    HW118776   1.150   0.649   6.559
 5959SOL    HW218777   1.238   0.725   6.445
 5960SOL     OW18778   3.624   6.331   5.228
 5960SOL    HW118779   3.649   6.263   5.159
 5960SOL    HW218780   3.621   6.422   5.185
 5961SOL     OW18781   2.401   0.977   5.561
 5961SOL    HW118782   2.482   0.938   5.603
 5961SOL    HW218783   2.380   0.928   5.476
 5962SOL     OW18784   5.095   4.060   2.482
 5962SOL    HW118785   5.054   4.139   2.437
 5962SOL    HW218786   5.027   3.988   2.492
 5963SOL     OW18787   4.249   3.809   1.696
 5963SOL    HW118788   4.199   3.895   1.687
 5963SOL    HW218789   4.221   3.761   1.779
 5964SOL     OW18790   2.009   3.757   5.675
 5964SOL    HW118791   1.953   3.782   5.596
 5964SOL    HW218792   1.999   3.826   5.747
 5965SOL     OW18793   2.013   1.464   3.831
 5965SOL    HW118794   1.969   1.457   3.921
 5965SOL    HW218795   2.079   1.540   3.833
 5966SOL     OW18796   2.185   5.898   3.695
 5966SOL    HW118797   2.187   5.957   3.776
 5966SOL    HW218798   2.240   5.939   3.622
 5967SOL     OW18799   4.562   5.755   2.210
 5967SOL    HW118800   4.648   5.790   2.175
 5967SOL    HW218801   4.539   5.803   2.295
 5968SOL     OW18802   0.271   1.584   3.674
 5968SOL    HW118803   0.210   1.624   3.606
 5968SOL    HW218804   0.261   1.634   3.761
 5969SOL     OW18805   5.934   2.901   2.693
 5969SOL    HW118806   5.913   2.841   2.770
 5969SOL    HW218807   5.953   2.845   2.612
 5970SOL     OW18808   2.112   3.422   3.542
 5970SOL    HW118809   2.041   3.398   3.475
 5970SOL    HW218810   2.069   3.443   3.629
 5971SOL     OW18811   2.823   6.512   2.883
 5971SOL    HW118812   2.768   6.436   2.848
 5971SOL    HW218813   2.907   6.476   2.924
 5972SOL     OW18814   5.168   0.098   1.804
 5972SOL    HW118815   5.234   0.046   1.749
 5972SOL    HW218816   5.138   0.178   1.752
 5973SOL     OW18817   1.677   4.384   2.929
 5973SOL    HW118818   1.670   4.285   2.927
 5973SOL    HW218819   1.590   4.423   2.961
 5974SOL     OW18820   1.225   3.543   6.214
 5974SOL    HW118821   1.293   3.492   6.161
 5974SOL    HW218822   1.178   3.480   6.276
 5975SOL     OW18823   2.374   2.810   6.693
 5975SOL    HW118824   2.276   2.830   6.699
 5975SOL    HW218825   2.421   2.887   6.650
 5976SOL     OW18826   3.266   3.026   4.694
 5976SOL    HW118827   3.279   3.021   4.595
 5976SOL    HW218828   3.334   2.969   4.740
 5977SOL     OW18829   0.549   3.670   3.312
 5977SOL    HW118830   0.482   3.596   3.319
 5977SOL    HW218831   0.520   3.735   3.242
 5978SOL     OW18832   4.954   5.183   2.327
 5978SOL    HW118833   5.032   5.226   2.372
 5978SOL    HW218834   4.914   5.247   2.261
 5979SOL     OW18835   0.904   1.426   1.760
 5979SOL    HW118836   0.818   1.433   1.810
 5979SOL    HW218837   0.935   1.331   1.760
 5980SOL     OW18838   6.401   3.282   6.009
 5980SOL    HW118839   6.318   3.296   6.062
 5980SOL    HW218840   6.393   3.198   5.955
 5981SOL     OW18841   4.135   1.848   1.010
 5981SOL    HW118842   4.213   1.894   0.968
 5981SOL    HW218843   4.060   1.913   1.021
 5982SOL     OW18844   5.858   2.232   0.016
 5982SOL    HW118845   5.816   2.311   6.989
 5982SOL    HW218846   5.848   2.151   6.975
 5983SOL     OW18847   1.055   0.697   4.520
 5983SOL    HW118848   0.973   0.640   4.515
 5983SOL    HW218849   1.049   0.769   4.451
 5984SOL     OW18850   0.675   6.784   5.921
 5984SOL    HW118851   0.752   6.765   5.859
 5984SOL    HW218852   0.589   6.770   5.873
 5985SOL     OW18853   5.011   3.308   4.214
 5985SOL    HW118854   5.091   3.326   4.156
 5985SOL    HW218855   5.043   3.280   4.305
 5986SOL     OW18856   3.148   2.997   2.839
 5986SOL    HW118857   3.097   2.994   2.753
 5986SOL    HW218858   3.242   2.966   2.823
 5987SOL     OW18859   4.575   0.008   5.765
 5987SOL    HW118860   4.523   0.059   5.834
 5987SOL    HW218861   4.593   0.067   5.686
 5988SOL     OW18862   3.660   0.315   5.454
 5988SOL    HW118863   3.673   0.288   5.359
 5988SOL    HW218864   3.562   0.324   5.473
 5989SOL     OW18865   2.855   1.890   6.764
 5989SOL    HW118866   2.773   1.899   6.821
 5989SOL    HW218867   2.831   1.841   6.680
 5990SOL     OW18868   3.491   4.934   2.365
 5990SOL    HW118869   3.409   4.945   2.308
 5990SOL    HW218870   3.532   5.023   2.382
 5991SOL     OW18871   2.966   5.417   3.952
 5991SOL    HW118872   3.054   5.454   3.923
 5991SOL    HW218873   2.975   5.320   3.971
 5992SOL     OW18874   4.278   2.223   4.151
 5992SOL    HW118875   4.334   2.287   4.203
 5992SOL    HW218876   4.217   2.173   4.212
 5993SOL     OW18877   3.458   5.693   3.836
 5993SOL    HW118878   3.521   5.752   3.886
 5993SOL    HW218879   3.364   5.711   3.865
 5994SOL     OW18880   6.094   2.015   1.564
 5994SOL    HW118881   6.167   2.071   1.604
 5994SOL    HW218882   6.089   1.928   1.613
 5995SOL     OW18883   0.834   4.307   1.325
 5995SOL    HW118884   0.737   4.326   1.312
 5995SOL    HW218885   0.845   4.218   1.371
 5996SOL     OW18886   0.695   5.619   5.357
 5996SOL    HW118887   0.641   5.696   5.392
 5996SOL    HW218888   0.772   5.603   5.418
 5997SOL     OW18889   0.622   0.654   1.483
 5997SOL    HW118890   0.598   0.750   1.495
 5997SOL    HW218891   0.541   0.602   1.457
 5998SOL     OW18892   4.197   2.305   3.531
 5998SOL    HW118893   4.252   2.321   3.449
 5998SOL    HW218894   4.205   2.384   3.592
 5999SOL     OW18895   2.325   2.646   3.383
 5999SOL    HW118896   2.364   2.590   3.456
 5999SOL    HW218897   2.353   2.741   3.394
 6000SOL     OW18898   4.797   0.294   3.417
 6000SOL    HW118899   4.795   0.201   3.454
 6000SOL    HW218900   4.887   0.312   3.377
 6001SOL     OW18901   6.416   2.208   0.092
 6001SOL    HW118902   6.450   2.142   0.025
 6001SOL    HW218903   6.463   2.295   0.079
 6002SOL     OW18904   1.781   0.651   1.944
 6002SOL    HW118905   1.762   0.745   1.971
 6002SOL    HW218906   1.708   0.591   1.978
 6003SOL     OW18907   5.533   4.527   3.779
 6003SOL    HW118908   5.584   4.501   3.862
 6003SOL    HW218909   5.475   4.450   3.751
 6004SOL     OW18910   0.035   3.333   1.542
 6004SOL    HW118911   0.115   3.393   1.543
 6004SOL    HW218912   0.064   3.238   1.536
 6005SOL     OW18913   2.033   5.992   2.162
 6005SOL    HW118914   2.080   5.910   2.128
 6005SOL    HW218915   2.068   6.073   2.116
 6006SOL     OW18916   2.168   5.620   0.712
 6006SOL    HW118917   2.182   5.694   0.647
 6006SOL    HW218918   2.146   5.658   0.802
 6007SOL     OW18919   4.957   3.108   4.970
 6007SOL    HW118920   4.913   3.085   4.884
 6007SOL    HW218921   4.996   3.201   4.965
 6008SOL     OW18922   4.683   4.107   1.331
 6008SOL    HW118923   4.608   4.171   1.349
 6008SOL    HW218924   4.761   4.129   1.391
 6009SOL     OW18925   4.047   1.565   4.747
 6009SOL    HW118926   4.029   1.564   4.846
 6009SOL    HW218927   3.965   1.535   4.698
 6010SOL     OW18928   1.153   3.935   3.204
 6010SOL    HW118929   1.180   4.026   3.235
 6010SOL    HW218930   1.195   3.916   3.115
 6011SOL     OW18931   6.649   2.454   1.837
 6011SOL    HW118932   6.738   2.435   1.795
 6011SOL    HW218933   6.576   2.430   1.774
 6012SOL     OW18934   0.457   2.647   1.734
 6012SOL    HW118935   0.452   2.572   1.668
 6012SOL    HW218936   0.436   2.733   1.688
 6013SOL     OW18937   5.807   0.634   2.296
 6013SOL    HW118938   5.751   0.580   2.233
 6013SOL    HW218939   5.820   0.726   2.258
 6014SOL     OW18940   6.208   0.369   1.189
 6014SOL    HW118941   6.123   0.419   1.201
 6014SOL    HW218942   6.278   0.430   1.152
 6015SOL     OW18943   5.725   0.493   4.525
 6015SOL    HW118944   5.798   0.549   4.564
 6015SOL    HW218945   5.762   0.404   4.499
 6016SOL     OW18946   2.156   6.956   5.209
 6016SOL    HW118947   2.066   6.923   5.181
 6016SOL    HW218948   2.186   6.907   5.290
 6017SOL     OW18949   0.101   3.690   2.662
 6017SOL    HW118950   0.007   3.703   2.628
 6017SOL    HW218951   0.100   3.632   2.743
 6018SOL     OW18952   2.628   5.104   1.345
 6018SOL    HW118953   2.561   5.087   1.273
 6018SOL    HW218954   2.717   5.066   1.318
 6019SOL     OW18955   5.712   6.264   3.186
 6019SOL    HW118956   5.787   6.316   3.228
 6019SOL    HW218957   5.644   6.243   3.256
 6020SOL     OW18958   2.721   6.829   2.616
 6020SOL    HW118959   2.708   6.927   2.631
 6020SOL    HW218960   2.647   6.793   2.560
 6021SOL     OW18961   4.015   0.765   4.142
 6021SOL    HW118962   4.030   0.842   4.080
 6021SOL    HW218963   3.936   0.784   4.200
 6022SOL     OW18964   4.806   0.868   5.857
 6022SOL    HW118965   4.885   0.874   5.918
 6022SOL    HW218966   4.724   0.847   5.911
 6023SOL     OW18967   0.587   1.976   2.712
 6023SOL    HW118968   0.508   2.034   2.733
 6023SOL    HW218969   0.589   1.957   2.614
 6024SOL     OW18970   0.085   5.721   2.682
 6024SOL    HW118971   0.042   5.644   2.729
 6024SOL    HW218972   0.058   5.719   2.585
 6025SOL     OW18973   4.067   2.212   2.592
 6025SOL    HW118974   4.125   2.251   2.521
 6025SOL    HW218975   3.991   2.162   2.549
 6026SOL     OW18976   0.473   4.204   5.692
 6026SOL    HW118977   0.445   4.108   5.685
 6026SOL    HW218978   0.446   4.240   5.782
 6027SOL     OW18979   3.497   3.321   0.086
 6027SOL    HW118980   3.545   3.248   0.037
 6027SOL    HW218981   3.451   3.283   0.166
 6028SOL     OW18982   1.105   4.387   0.241
 6028SOL    HW118983   1.022   4.421   0.196
 6028SOL    HW218984   1.130   4.449   0.316
 6029SOL     OW18985   0.735   4.519   1.996
 6029SOL    HW118986   0.707   4.426   2.020
 6029SOL    HW218987   0.653   4.574   1.976
 6030SOL     OW18988   1.867   6.795   1.083
 6030SOL    HW118989   1.908   6.767   1.169
 6030SOL    HW218990   1.877   6.722   1.015
 6031SOL     OW18991   5.123   0.586   4.003
 6031SOL    HW118992   5.048   0.583   3.937
 6031SOL    HW218993   5.114   0.668   4.060
 6032SOL     OW18994   0.364   3.426   2.618
 6032SOL    HW118995   0.363   3.504   2.682
 6032SOL    HW218996   0.438   3.363   2.644
 6033SOL     OW18997   0.237   6.717   4.528
 6033SOL    HW118998   0.167   6.652   4.498
 6033SOL    HW218999   0.227   6.733   4.626
 6034SOL     OW19000   2.282   4.274   5.101
 6034SOL    HW119001   2.303   4.179   5.125
 6034SOL    HW219002   2.305   4.290   5.005
 6035SOL     OW19003   5.467   6.850   3.885
 6035SOL    HW119004   5.545   6.851   3.822
 6035SOL    HW219005   5.384   6.827   3.835
 6036SOL     OW19006   0.174   0.752   4.404
 6036SOL    HW119007   0.100   0.811   4.438
 6036SOL    HW219008   0.138   0.692   4.333
 6037SOL     OW19009   0.502   5.514   4.980
 6037SOL    HW119010   0.433   5.584   5.003
 6037SOL    HW219011   0.556   5.546   4.903
 6038SOL     OW19012   6.079   3.867   6.521
 6038SOL    HW119013   6.155   3.816   6.560
 6038SOL    HW219014   6.107   3.961   6.504
 6039SOL     OW19015   4.052   3.178   4.668
 6039SOL    HW119016   3.988   3.142   4.599
 6039SOL    HW219017   4.088   3.103   4.723
 6040SOL     OW19018   1.388   1.129   0.806
 6040SOL    HW119019   1.392   1.156   0.902
 6040SOL    HW219020   1.372   1.210   0.749
 6041SOL     OW19021   0.629   2.510   0.316
 6041SOL    HW119022   0.725   2.494   0.297
 6041SOL    HW219023   0.618   2.598   0.363
 6042SOL     OW19024   5.637   5.607   4.876
 6042SOL    HW119025   5.540   5.620   4.857
 6042SOL    HW219026   5.648   5.549   4.957
 6043SOL     OW19027   0.043   4.361   4.026
 6043SOL    HW119028   7.016   4.381   3.939
 6043SOL    HW219029   7.003   4.299   4.080
 6044SOL     OW19030   1.246   0.685   1.540
 6044SOL    HW119031   1.306   0.685   1.460
 6044SOL    HW219032   1.195   0.599   1.544
 6045SOL     OW19033   6.614   4.239   0.887
 6045SOL    HW119034   6.612   4.142   0.862
 6045SOL    HW219035   6.530   4.263   0.936
 6046SOL     OW19036   2.393   3.245   0.465
 6046SOL    HW119037   2.370   3.192   0.547
 6046SOL    HW219038   2.352   3.336   0.471
 6047SOL     OW19039   0.480   6.258   4.673
 6047SOL    HW119040   0.459   6.316   4.752
 6047SOL    HW219041   0.567   6.212   4.688
 6048SOL     OW19042   5.022   6.266   4.867
 6048SOL    HW119043   5.039   6.308   4.778
 6048SOL    HW219044   4.925   6.278   4.890
 6049SOL     OW19045   6.345   5.771   0.217
 6049SOL    HW119046   6.404   5.734   0.146
 6049SOL    HW219047   6.398   5.788   0.300
 6050SOL     OW19048   5.691   4.533   5.668
 6050SOL    HW119049   5.662   4.513   5.575
 6050SOL    HW219050   5.791   4.534   5.672
 6051SOL     OW19051   2.777   1.689   3.007
 6051SOL    HW119052   2.701   1.704   2.944
 6051SOL    HW219053   2.746   1.639   3.087
 6052SOL     OW19054   6.607   1.548   0.506
 6052SOL    HW119055   6.600   1.467   0.447
 6052SOL    HW219056   6.516   1.572   0.539
 6053SOL     OW19057   2.187   0.310   6.259
 6053SOL    HW119058   2.263   0.252   6.287
 6053SOL    HW219059   2.135   0.338   6.340
 6054SOL     OW19060   1.882   4.259   6.490
 6054SOL    HW119061   1.899   4.282   6.394
 6054SOL    HW219062   1.795   4.299   6.519
 6055SOL     OW19063   5.113   0.114   3.759
 6055SOL    HW119064   5.176   0.170   3.705
 6055SOL    HW219065   5.105   0.152   3.851
 6056SOL     OW19066   5.138   3.636   6.317
 6056SOL    HW119067   5.178   3.602   6.232
 6056SOL    HW219068   5.122   3.734   6.309
 6057SOL     OW19069   3.632   0.729   6.187
 6057SOL    HW119070   3.590   0.678   6.263
 6057SOL    HW219071   3.670   0.814   6.222
 6058SOL     OW19072   5.239   1.763   4.830
 6058SOL    HW119073   5.192   1.851   4.832
 6058SOL    HW219074   5.207   1.705   4.904
 6059SOL     OW19075   6.464   6.443   5.949
 6059SOL    HW119076   6.499   6.515   6.010
 6059SOL    HW219077   6.394   6.391   5.997
 6060SOL     OW19078   3.162   6.418   6.501
 6060SOL    HW119079   3.101   6.398   6.578
 6060SOL    HW219080   3.117   6.481   6.438
 6061SOL     OW19081   2.079   1.767   6.863
 6061SOL    HW119082   2.027   1.732   6.941
 6061SOL    HW219083   2.101   1.863   6.879
 6062SOL     OW19084   1.256   0.190   4.135
 6062SOL    HW119085   1.245   0.139   4.220
 6062SOL    HW219086   1.231   0.286   4.149
 6063SOL     OW19087   5.445   5.923   0.210
 6063SOL    HW119088   5.510   5.884   0.145
 6063SOL    HW219089   5.391   5.994   0.164
 6064SOL     OW19090   0.548   5.236   2.608
 6064SOL    HW119091   0.464   5.257   2.557
 6064SOL    HW219092   0.588   5.321   2.643
 6065SOL     OW19093   5.951   6.539   1.854
 6065SOL    HW119094   6.043   6.561   1.886
 6065SOL    HW219095   5.926   6.602   1.780
 6066SOL     OW19096   4.624   1.916   6.051
 6066SOL    HW119097   4.586   2.007   6.030
 6066SOL    HW219098   4.600   1.892   6.145
 6067SOL     OW19099   4.870   2.221   6.578
 6067SOL    HW119100   4.950   2.280   6.568
 6067SOL    HW219101   4.844   2.184   6.489
 6068SOL     OW19102   5.427   1.832   5.666
 6068SOL    HW119103   5.341   1.852   5.618
 6068SOL    HW219104   5.408   1.811   5.762
 6069SOL     OW19105   5.887   4.370   4.636
 6069SOL    HW119106   5.967   4.385   4.577
 6069SOL    HW219107   5.817   4.321   4.585
 6070SOL     OW19108   4.301   2.819   6.516
 6070SOL    HW119109   4.359   2.883   6.566
 6070SOL    HW219110   4.300   2.731   6.563
 6071SOL     OW19111   4.999   6.723   5.486
 6071SOL    HW119112   4.937   6.714   5.564
 6071SOL    HW219113   5.066   6.649   5.487
 6072SOL     OW19114   7.004   1.660   0.739
 6072SOL    HW119115   6.904   1.669   0.747
 6072SOL    HW219116   0.014   1.682   0.645
 6073SOL     OW19117   6.567   1.738   1.268
 6073SOL    HW119118   6.567   1.754   1.169
 6073SOL    HW219119   6.615   1.652   1.287
 6074SOL     OW19120   0.860   0.125   5.484
 6074SOL    HW119121   0.883   0.205   5.540
 6074SOL    HW219122   0.885   0.042   5.533
 6075SOL     OW19123   4.568   4.110   6.505
 6075SOL    HW119124   4.486   4.088   6.556
 6075SOL    HW219125   4.643   4.050   6.534
 6076SOL     OW19126   2.688   0.257   4.032
 6076SOL    HW119127   2.602   0.249   4.082
 6076SOL    HW219128   2.698   0.350   3.997
 6077SOL     OW19129   5.365   5.040   2.771
 6077SOL    HW119130   5.331   5.117   2.825
 6077SOL    HW219131   5.366   4.958   2.828
 6078SOL     OW19132   2.124   4.474   3.564
 6078SOL    HW119133   2.106   4.566   3.600
 6078SOL    HW219134   2.123   4.409   3.640
 6079SOL     OW19135   2.864   1.804   0.552
 6079SOL    HW119136   2.921   1.734   0.594
 6079SOL    HW219137   2.815   1.765   0.473
 6080SOL     OW19138   5.834   2.745   2.901
 6080SOL    HW119139   5.884   2.684   2.963
 6080SOL    HW219140   5.748   2.774   2.943
 6081SOL     OW19141   0.831   3.986   2.814
 6081SOL    HW119142   0.780   4.016   2.734
 6081SOL    HW219143   0.769   3.938   2.877
 6082SOL     OW19144   3.246   1.777   4.329
 6082SOL    HW119145   3.193   1.851   4.369
 6082SOL    HW219146   3.254   1.702   4.395
 6083SOL     OW19147   1.942   6.970   0.505
 6083SOL    HW119148   1.937   6.976   0.605
 6083SOL    HW219149   1.858   7.006   0.466
 6084SOL     OW19150   0.363   5.222   5.680
 6084SOL    HW119151   0.276   5.176   5.696
 6084SOL    HW219152   0.346   5.313   5.641
 6085SOL     OW19153   5.440   5.461   1.423
 6085SOL    HW119154   5.433   5.499   1.515
 6085SOL    HW219155   5.472   5.367   1.429
 6086SOL     OW19156   2.737   1.855   2.720
 6086SOL    HW119157   2.777   1.887   2.807
 6086SOL    HW219158   2.810   1.844   2.653
 6087SOL     OW19159   3.459   0.570   1.199
 6087SOL    HW119160   3.450   0.484   1.149
 6087SOL    HW219161   3.469   0.646   1.135
 6088SOL     OW19162   0.208   6.851   5.688
 6088SOL    HW119163   0.253   6.778   5.637
 6088SOL    HW219164   0.238   6.940   5.654
 6089SOL     OW19165   6.618   3.791   0.541
 6089SOL    HW119166   6.566   3.815   0.459
 6089SOL    HW219167   6.555   3.778   0.618
 6090SOL     OW19168   0.226   5.863   4.271
 6090SOL    HW119169   0.231   5.902   4.179
 6090SOL    HW219170   0.302   5.897   4.325
 6091SOL     OW19171   6.512   2.125   1.242
 6091SOL    HW119172   6.563   2.130   1.157
 6091SOL    HW219173   6.568   2.159   1.317
 6092SOL     OW19174   1.471   3.236   0.857
 6092SOL    HW119175   1.555   3.244   0.910
 6092SOL    HW219176   1.424   3.325   0.856
 6093SOL     OW19177   1.163   3.891   0.624
 6093SOL    HW119178   1.247   3.909   0.573
 6093SOL    HW219179   1.085   3.928   0.574
 6094SOL     OW19180   0.769   1.184   0.714
 6094SOL    HW119181   0.716   1.185   0.629
 6094SOL    HW219182   0.824   1.267   0.719
 6095SOL     OW19183   6.832   3.775   5.185
 6095SOL    HW119184   6.780   3.833   5.247
 6095SOL    HW219185   6.886   3.833   5.123
 6096SOL     OW19186   4.356   1.856   2.688
 6096SOL    HW119187   4.438   1.898   2.727
 6096SOL    HW219188   4.281   1.865   2.753
 6097SOL     OW19189   3.207   2.026   2.099
 6097SOL    HW119190   3.139   2.060   2.035
 6097SOL    HW219191   3.171   1.947   2.148
 6098SOL     OW19192   1.279   0.447   6.337
 6098SOL    HW119193   1.366   0.406   6.365
 6098SOL    HW219194   1.262   0.529   6.392
 6099SOL     OW19195   5.902   4.457   5.390
 6099SOL    HW119196   5.861   4.368   5.410
 6099SOL    HW219197   6.000   4.445   5.373
 6100SOL     OW19198   6.679   2.396   7.001
 6100SOL    HW119199   6.676   2.375   0.082
 6100SOL    HW219200   6.599   2.450   6.977
 6101SOL     OW19201   6.060   7.005   3.610
 6101SOL    HW119202   6.019   0.041   3.536
 6101SOL    HW219203   6.148   0.028   3.635
 6102SOL     OW19204   3.141   6.797   4.931
 6102SOL    HW119205   3.215   6.812   4.995
 6102SOL    HW219206   3.058   6.772   4.981
 6103SOL     OW19207   5.991   1.347   5.391
 6103SOL    HW119208   5.915   1.311   5.445
 6103SOL    HW219209   6.063   1.380   5.452
 6104SOL     OW19210   1.348   3.463   0.829
 6104SOL    HW119211   1.369   3.494   0.737
 6104SOL    HW219212   1.256   3.424   0.830
 6105SOL     OW19213   3.399   4.937   4.788
 6105SOL    HW119214   3.304   4.914   4.769
 6105SOL    HW219215   3.452   4.933   4.703
 6106SOL     OW19216   3.036   4.901   4.013
 6106SOL    HW119217   2.949   4.853   3.998
 6106SOL    HW219218   3.056   4.904   4.110
 6107SOL     OW19219   2.106   5.086   5.399
 6107SOL    HW119220   2.184   5.053   5.453
 6107SOL    HW219221   2.021   5.055   5.441
 6108SOL     OW19222   5.792   1.613   4.378
 6108SOL    HW119223   5.710   1.590   4.430
 6108SOL    HW219224   5.857   1.537   4.383
 6109SOL     OW19225   6.831   4.045   2.097
 6109SOL    HW119226   6.843   4.122   2.034
 6109SOL    HW219227   6.739   4.049   2.137
 6110SOL     OW19228   3.311   1.992   3.263
 6110SOL    HW119229   3.327   1.969   3.359
 6110SOL    HW219230   3.398   1.985   3.213
 6111SOL     OW19231   0.436   4.614   3.667
 6111SOL    HW119232   0.527   4.574   3.656
 6111SOL    HW219233   0.422   4.638   3.763
 6112SOL     OW19234   1.080   2.409   1.024
 6112SOL    HW119235   1.013   2.480   1.002
 6112SOL    HW219236   1.043   2.319   0.999
 6113SOL     OW19237   1.782   5.200   5.323
 6113SOL    HW119238   1.848   5.269   5.291
 6113SOL    HW219239   1.743   5.152   5.244
 6114SOL     OW19240   5.016   4.742   0.880
 6114SOL    HW119241   4.954   4.671   0.847
 6114SOL    HW219242   4.999   4.758   0.977
 6115SOL     OW19243   6.442   4.278   2.351
 6115SOL    HW119244   6.518   4.279   2.416
 6115SOL    HW219245   6.405   4.371   2.342
 6116SOL     OW19246   3.501   2.007   0.972
 6116SOL    HW119247   3.531   2.101   0.985
 6116SOL    HW219248   3.428   1.986   1.037
 6117SOL     OW19249   5.704   6.443   4.052
 6117SOL    HW119250   5.783   6.382   4.063
 6117SOL    HW219251   5.715   6.497   3.968
 6118SOL     OW19252   6.372   0.231   3.267
 6118SOL    HW119253   6.348   0.140   3.233
 6118SOL    HW219254   6.444   0.223   3.337
 6119SOL     OW19255   5.968   5.763   4.399
 6119SOL    HW119256   5.997   5.740   4.492
 6119SOL    HW219257   5.990   5.688   4.337
 6120SOL     OW19258   2.459   1.600   3.527
 6120SOL    HW119259   2.473   1.695   3.555
 6120SOL    HW219260   2.504   1.539   3.592
 6121SOL     OW19261   6.452   1.831   4.381
 6121SOL    HW119262   6.477   1.739   4.408
 6121SOL    HW219263   6.529   1.873   4.332
 6122SOL     OW19264   4.211   6.450   4.103
 6122SOL    HW119265   4.169   6.478   4.017
 6122SOL    HW219266   4.298   6.499   4.115
 6123SOL     OW19267   6.038   1.652   2.835
 6123SOL    HW119268   5.951   1.700   2.830
 6123SOL    HW219269   6.039   1.578   2.769
 6124SOL     OW19270   2.891   0.077   4.641
 6124SOL    HW119271   2.970   0.015   4.633
 6124SOL    HW219272   2.867   0.112   4.551
 6125SOL     OW19273   0.826   4.564   2.262
 6125SOL    HW119274   0.872   4.477   2.280
 6125SOL    HW219275   0.780   4.560   2.174
 6126SOL     OW19276   3.931   5.859   2.435
 6126SOL    HW119277   3.923   5.917   2.355
 6126SOL    HW219278   3.902   5.909   2.516
 6127SOL     OW19279   1.974   4.856   1.774
 6127SOL    HW119280   1.969   4.763   1.813
 6127SOL    HW219281   2.054   4.862   1.715
 6128SOL     OW19282   4.955   3.191   1.237
 6128SOL    HW119283   4.973   3.099   1.273
 6128SOL    HW219284   4.865   3.192   1.194
 6129SOL     OW19285   6.260   3.839   3.365
 6129SOL    HW119286   6.353   3.827   3.331
 6129SOL    HW219287   6.198   3.859   3.289
 6130SOL     OW19288   5.210   4.625   2.101
 6130SOL    HW119289   5.307   4.618   2.078
 6130SOL    HW219290   5.185   4.721   2.113
 6131SOL     OW19291   6.286   1.503   4.990
 6131SOL    HW119292   6.229   1.498   5.071
 6131SOL    HW219293   6.382   1.494   5.016
 6132SOL     OW19294   6.583   2.907   0.559
 6132SOL    HW119295   6.652   2.960   0.609
 6132SOL    HW219296   6.511   2.968   0.527
 6133SOL     OW19297   1.098   4.617   0.729
 6133SOL    HW119298   1.037   4.575   0.795
 6133SOL    HW219299   1.180   4.561   0.719
 6134SOL     OW19300   4.466   3.531   0.040
 6134SOL    HW119301   4.380   3.506   7.012
 6134SOL    HW219302   4.461   3.627   0.069
 6135SOL     OW19303   5.604   0.206   2.662
 6135SOL    HW119304   5.516   0.160   2.658
 6135SOL    HW219305   5.671   0.145   2.704
 6136SOL     OW19306   0.604   1.196   2.564
 6136SOL    HW119307   0.591   1.179   2.466
 6136SOL    HW219308   0.698   1.224   2.581
 6137SOL     OW19309   2.977   6.878   6.498
 6137SOL    HW119310   2.971   6.863   6.596
 6137SOL    HW219311   2.976   6.977   6.479
 6138SOL     OW19312   5.256   0.252   2.979
 6138SOL    HW119313   5.171   0.200   2.986
 6138SOL    HW219314   5.325   0.196   2.933
 6139SOL     OW19315   2.345   6.091   3.527
 6139SOL    HW119316   2.283   6.062   3.454
 6139SOL    HW219317   2.431   6.039   3.521
 6140SOL     OW19318   1.412   5.185   1.006
 6140SOL    HW119319   1.389   5.122   1.081
 6140SOL    HW219320   1.510   5.204   1.008
 6141SOL     OW19321   6.772   5.919   5.458
 6141SOL    HW119322   6.848   5.917   5.523
 6141SOL    HW219323   6.802   5.960   5.372
 6142SOL     OW19324   0.491   4.289   3.260
 6142SOL    HW119325   0.528   4.208   3.306
 6142SOL    HW219326   0.526   4.293   3.167
 6143SOL     OW19327   6.488   4.318   6.618
 6143SOL    HW119328   6.436   4.284   6.540
 6143SOL    HW219329   6.579   4.279   6.617
 6144SOL     OW19330   6.953   4.459   4.527
 6144SOL    HW119331   6.958   4.428   4.622
 6144SOL    HW219332   0.004   4.530   4.510
 6145SOL     OW19333   5.800   5.337   3.406
 6145SOL    HW119334   5.867   5.265   3.424
 6145SOL    HW219335   5.755   5.364   3.491
 6146SOL     OW19336   5.492   2.772   3.386
 6146SOL    HW119337   5.497   2.867   3.418
 6146SOL    HW219338   5.469   2.712   3.463
 6147SOL     OW19339   1.250   4.188   2.905
 6147SOL    HW119340   1.273   4.092   2.890
 6147SOL    HW219341   1.166   4.211   2.856
 6148SOL     OW19342   6.000   5.680   2.976
 6148SOL    HW119343   6.047   5.669   3.063
 6148SOL    HW219344   5.901   5.684   2.992
 6149SOL     OW19345   1.814   6.160   4.857
 6149SOL    HW119346   1.839   6.085   4.797
 6149SOL    HW219347   1.897   6.204   4.892
 6150SOL     OW19348   4.544   6.308   6.025
 6150SOL    HW119349   4.582   6.215   6.031
 6150SOL    HW219350   4.582   6.364   6.098
 6151SOL     OW19351   4.824   0.464   5.603
 6151SOL    HW119352   4.859   0.376   5.635
 6151SOL    HW219353   4.728   0.473   5.628
 6152SOL     OW19354   6.643   4.558   5.485
 6152SOL    HW119355   6.624   4.655   5.494
 6152SOL    HW219356   6.700   4.542   5.405
 6153SOL     OW19357   4.386   4.730   6.380
 6153SOL    HW119358   4.292   4.706   6.404
 6153SOL    HW219359   4.392   4.829   6.364
 6154SOL     OW19360   5.281   3.143   3.812
 6154SOL    HW119361   5.265   3.099   3.723
 6154SOL    HW219362   5.341   3.085   3.868
 6155SOL     OW19363   2.320   4.829   4.657
 6155SOL    HW119364   2.380   4.807   4.733
 6155SOL    HW219365   2.226   4.839   4.690
 6156SOL     OW19366   5.951   0.616   4.635
 6156SOL    HW119367   5.944   0.683   4.709
 6156SOL    HW219368   6.018   0.647   4.568
 6157SOL     OW19369   1.073   1.428   3.941
 6157SOL    HW119370   1.145   1.380   3.890
 6157SOL    HW219371   1.006   1.464   3.877
 6158SOL     OW19372   5.478   6.828   0.392
 6158SOL    HW119373   5.476   6.840   0.292
 6158SOL    HW219374   5.385   6.813   0.425
 6159SOL     OW19375   5.110   3.337   6.742
 6159SOL    HW119376   5.195   3.345   6.794
 6159SOL    HW219377   5.126   3.364   6.647
 6160SOL     OW19378   6.505   4.483   0.823
 6160SOL    HW119379   6.571   4.545   0.865
 6160SOL    HW219380   6.547   4.392   0.813
 6161SOL     OW19381   5.904   0.212   6.169
 6161SOL    HW119382   5.887   0.115   6.152
 6161SOL    HW219383   5.986   0.223   6.224
 6162SOL     OW19384   5.442   5.149   4.310
 6162SOL    HW119385   5.466   5.179   4.403
 6162SOL    HW219386   5.521   5.102   4.270
 6163SOL     OW19387   6.709   3.981   2.495
 6163SOL    HW119388   6.798   3.937   2.486
 6163SOL    HW219389   6.672   4.001   2.404
 6164SOL     OW19390   4.754   2.881   0.604
 6164SOL    HW119391   4.790   2.968   0.569
 6164SOL    HW219392   4.804   2.856   0.687
 6165SOL     OW19393   3.961   0.505   1.557
 6165SOL    HW119394   4.007   0.423   1.593
 6165SOL    HW219395   3.864   0.486   1.543
 6166SOL     OW19396   3.963   1.289   0.669
 6166SOL    HW119397   3.907   1.371   0.654
 6166SOL    HW219398   3.904   1.210   0.685
 6167SOL     OW19399   7.006   5.436   3.814
 6167SOL    HW119400   0.073   5.426   3.867
 6167SOL    HW219401   7.001   5.363   3.745
 6168SOL     OW19402   0.703   3.046   0.996
 6168SOL    HW119403   0.745   3.066   1.085
 6168SOL    HW219404   0.613   3.090   0.991
 6169SOL     OW19405   2.035   4.600   1.327
 6169SOL    HW119406   1.997   4.661   1.257
 6169SOL    HW219407   2.002   4.628   1.417
 6170SOL     OW19408   6.671   1.917   3.418
 6170SOL    HW119409   6.618   1.833   3.405
 6170SOL    HW219410   6.611   1.996   3.405
 6171SOL     OW19411   6.075   1.093   5.841
 6171SOL    HW119412   6.088   1.015   5.779
 6171SOL    HW219413   6.132   1.081   5.922
 6172SOL     OW19414   1.148   4.689   4.263
 6172SOL    HW119415   1.182   4.606   4.308
 6172SOL    HW219416   1.190   4.769   4.306
 6173SOL     OW19417   5.503   6.236   3.020
 6173SOL    HW119418   5.528   6.221   2.924
 6173SOL    HW219419   5.583   6.272   3.069
 6174SOL     OW19420   6.441   2.459   2.823
 6174SOL    HW119421   6.418   2.556   2.827
 6174SOL    HW219422   6.539   2.447   2.812
 6175SOL     OW19423   3.962   1.636   6.928
 6175SOL    HW119424   4.047   1.601   6.967
 6175SOL    HW219425   3.975   1.731   6.898
 6176SOL     OW19426   2.989   3.804   6.133
 6176SOL    HW119427   3.053   3.834   6.203
 6176SOL    HW219428   3.001   3.706   6.117
 6177SOL     OW19429   5.676   5.574   1.277
 6177SOL    HW119430   5.747   5.634   1.315
 6177SOL    HW219431   5.718   5.487   1.251
 6178SOL     OW19432   4.028   4.800   2.138
 6178SOL    HW119433   4.032   4.705   2.170
 6178SOL    HW219434   3.959   4.808   2.065
 6179SOL     OW19435   5.490   5.049   5.295
 6179SOL    HW119436   5.472   5.027   5.200
 6179SOL    HW219437   5.469   4.969   5.352
 6180SOL     OW19438   2.170   3.917   6.286
 6180SOL    HW119439   2.184   3.892   6.190
 6180SOL    HW219440   2.083   3.966   6.295
 6181SOL     OW19441   6.117   6.270   0.132
 6181SOL    HW119442   6.209   6.243   0.161
 6181SOL    HW219443   6.120   6.301   0.037
 6182SOL     OW19444   2.716   2.466   6.569
 6182SOL    HW119445   2.734   2.459   6.667
 6182SOL    HW219446   2.698   2.375   6.532
 6183SOL     OW19447   0.138   0.766   0.562
 6183SOL    HW119448   0.049   0.730   0.590
 6183SOL    HW219449   0.135   0.865   0.557
 6184SOL     OW19450   3.322   6.726   5.440
 6184SOL    HW119451   3.354   6.664   5.367
 6184SOL    HW219452   3.322   6.820   5.405
 6185SOL     OW19453   3.428   3.163   5.442
 6185SOL    HW119454   3.376   3.167   5.357
 6185SOL    HW219455   3.489   3.241   5.448
 6186SOL     OW19456   1.199   2.262   2.692
 6186SOL    HW119457   1.125   2.261   2.759
 6186SOL    HW219458   1.277   2.211   2.727
 6187SOL     OW19459   3.169   1.864   6.272
 6187SOL    HW119460   3.135   1.946   6.225
 6187SOL    HW219461   3.258   1.884   6.313
 6188SOL     OW19462   2.102   1.521   5.815
 6188SOL    HW119463   2.044   1.578   5.872
 6188SOL    HW219464   2.063   1.514   5.723
 6189SOL     OW19465   6.629   5.147   0.148
 6189SOL    HW119466   6.656   5.131   0.243
 6189SOL    HW219467   6.688   5.217   0.108
 6190SOL     OW19468   0.347   3.033   3.716
 6190SOL    HW119469   0.433   3.038   3.667
 6190SOL    HW219470   0.348   3.099   3.792
 6191SOL     OW19471   2.488   4.054   0.621
 6191SOL    HW119472   2.429   4.128   0.590
 6191SOL    HW219473   2.440   3.967   0.609
 6192SOL     OW19474   3.155   1.831   1.438
 6192SOL    HW119475   3.081   1.764   1.440
 6192SOL    HW219476   3.225   1.802   1.373
 6193SOL     OW19477   4.072   6.069   6.830
 6193SOL    HW119478   4.171   6.075   6.841
 6193SOL    HW219479   4.033   6.023   6.911
 6194SOL     OW19480   5.175   0.053   6.197
 6194SOL    HW119481   5.202   6.989   6.146
 6194SOL    HW219482   5.160   0.028   6.293
 6195SOL     OW19483   4.885   5.876   5.816
 6195SOL    HW119484   4.793   5.878   5.855
 6195SOL    HW219485   4.893   5.800   5.752
 6196SOL     OW19486   6.245   3.417   3.499
 6196SOL    HW119487   6.323   3.433   3.438
 6196SOL    HW219488   6.209   3.325   3.483
 6197SOL     OW19489   1.038   4.923   0.984
 6197SOL    HW119490   1.046   4.958   1.078
 6197SOL    HW219491   0.953   4.957   0.944
 6198SOL     OW19492   6.299   1.300   6.462
 6198SOL    HW119493   6.302   1.390   6.505
 6198SOL    HW219494   6.257   1.235   6.525
 6199SOL     OW19495   2.399   6.787   6.290
 6199SOL    HW119496   2.324   6.811   6.228
 6199SOL    HW219497   2.471   6.742   6.239
 6200SOL     OW19498   1.126   0.161   0.709
 6200SOL    HW119499   1.204   0.193   0.656
 6200SOL    HW219500   1.144   0.069   0.743
 6201SOL     OW19501   0.255   5.294   3.484
 6201SOL    HW119502   0.193   5.264   3.557
 6201SOL    HW219503   0.214   5.371   3.435
 6202SOL     OW19504   5.642   0.463   2.165
 6202SOL    HW119505   5.585   0.529   2.116
 6202SOL    HW219506   5.597   0.374   2.166
 6203SOL     OW19507   6.597   0.622   2.010
 6203SOL    HW119508   6.688   0.606   1.972
 6203SOL    HW219509   6.554   0.698   1.962
 6204SOL     OW19510   1.271   5.613   4.683
 6204SOL    HW119511   1.183   5.661   4.683
 6204SOL    HW219512   1.256   5.515   4.675
 6205SOL     OW19513   5.903   4.768   3.493
 6205SOL    HW119514   5.824   4.771   3.555
 6205SOL    HW219515   5.916   4.674   3.461
 6206SOL     OW19516   5.611   2.142   3.655
 6206SOL    HW119517   5.570   2.226   3.690
 6206SOL    HW219518   5.616   2.147   3.555
 6207SOL     OW19519   1.650   5.732   3.384
 6207SOL    HW119520   1.594   5.673   3.441
 6207SOL    HW219521   1.745   5.701   3.387
 6208SOL     OW19522   3.949   4.576   6.300
 6208SOL    HW119523   3.975   4.484   6.269
 6208SOL    HW219524   3.857   4.573   6.340
 6209SOL     OW19525   3.803   1.188   1.781
 6209SOL    HW119526   3.735   1.155   1.846
 6209SOL    HW219527   3.820   1.285   1.797
 6210SOL     OW19528   5.730   0.893   4.101
 6210SOL    HW119529   5.743   0.814   4.162
 6210SOL    HW219530   5.695   0.862   4.013
 6211SOL     OW19531   5.211   3.379   5.260
 6211SOL    HW119532   5.123   3.342   5.230
 6211SOL    HW219533   5.268   3.306   5.296
 6212SOL     OW19534   5.312   4.470   5.007
 6212SOL    HW119535   5.303   4.387   4.952
 6212SOL    HW219536   5.285   4.549   4.951
 6213SOL     OW19537   5.120   6.049   0.505
 6213SOL    HW119538   5.031   6.025   0.542
 6213SOL    HW219539   5.108   6.098   0.418
 6214SOL     OW19540   6.107   0.240   6.340
 6214SOL    HW119541   6.152   0.152   6.357
 6214SOL    HW219542   6.133   0.305   6.411
 6215SOL     OW19543   5.781   1.688   5.312
 6215SOL    HW119544   5.752   1.595   5.333
 6215SOL    HW219545   5.739   1.751   5.377
 6216SOL     OW19546   4.793   1.749   5.361
 6216SOL    HW119547   4.752   1.688   5.294
 6216SOL    HW219548   4.841   1.823   5.313
 6217SOL     OW19549   7.006   4.089   2.549
 6217SOL    HW119550   0.083   4.120   2.560
 6217SOL    HW219551   6.962   4.138   2.474
 6218SOL     OW19552   4.846   6.609   0.641
 6218SOL    HW119553   4.855   6.708   0.651
 6218SOL    HW219554   4.765   6.588   0.585
 6219SOL     OW19555   2.051   0.238   6.808
 6219SOL    HW119556   2.053   0.328   6.851
 6219SOL    HW219557   2.140   0.192   6.822
 6220SOL     OW19558   3.299   0.065   1.964
 6220SOL    HW119559   3.307   6.986   1.991
 6220SOL    HW219560   3.206   0.097   1.984
 6221SOL     OW19561   4.638   5.343   5.429
 6221SOL    HW119562   4.723   5.308   5.390
 6221SOL    HW219563   4.610   5.426   5.381
 6222SOL     OW19564   6.412   1.055   2.250
 6222SOL    HW119565   6.401   0.960   2.278
 6222SOL    HW219566   6.367   1.068   2.162
 6223SOL     OW19567   6.558   4.954   4.538
 6223SOL    HW119568   6.513   4.899   4.609
 6223SOL    HW219569   6.546   4.909   4.449
 6224SOL     OW19570   4.139   6.618   0.261
 6224SOL    HW119571   4.159   6.624   0.358
 6224SOL    HW219572   4.071   6.687   0.236
 6225SOL     OW19573   5.152   6.321   6.282
 6225SOL    HW119574   5.190   6.258   6.214
 6225SOL    HW219575   5.120   6.269   6.361
 6226SOL     OW19576   0.839   0.980   3.788
 6226SOL    HW119577   0.802   1.026   3.707
 6226SOL    HW219578   0.852   1.046   3.861
 6227SOL     OW19579   2.523   5.148   5.884
 6227SOL    HW119580   2.471   5.187   5.960
 6227SOL    HW219581   2.614   5.121   5.915
 6228SOL     OW19582   0.777   3.612   3.745
 6228SOL    HW119583   0.738   3.522   3.765
 6228SOL    HW219584   0.798   3.618   3.647
 6229SOL     OW19585   0.514   3.969   4.310
 6229SOL    HW119586   0.554   4.037   4.371
 6229SOL    HW219587   0.534   3.994   4.215
 6230SOL     OW19588   0.741   0.999   1.720
 6230SOL    HW119589   0.662   1.024   1.664
 6230SOL    HW219590   0.718   0.921   1.778
 6231SOL     OW19591   2.209   5.262   6.053
 6231SOL    HW119592   2.178   5.230   5.964
 6231SOL    HW219593   2.301   5.301   6.044
 6232SOL     OW19594   4.355   0.208   6.866
 6232SOL    HW119595   4.395   0.137   6.807
 6232SOL    HW219596   4.295   0.266   6.811
 6233SOL     OW19597   0.208   3.659   1.122
 6233SOL    HW119598   0.208   3.599   1.042
 6233SOL    HW219599   0.125   3.644   1.175
 6234SOL     OW19600   4.965   5.584   3.932
 6234SOL    HW119601   4.994   5.679   3.924
 6234SOL    HW219602   4.974   5.553   4.027
 6235SOL     OW19603   0.627   0.932   2.026
 6235SOL    HW119604   0.720   0.956   2.055
 6235SOL    HW219605   0.631   0.858   1.958
 6236SOL     OW19606   6.751   5.929   1.368
 6236SOL    HW119607   6.652   5.940   1.371
 6236SOL    HW219608   6.791   6.001   1.310
 6237SOL     OW19609   3.597   1.020   2.381
 6237SOL    HW119610   3.501   0.990   2.381
 6237SOL    HW219611   3.620   1.058   2.471
 6238SOL     OW19612   2.818   0.696   3.557
 6238SOL    HW119613   2.817   0.793   3.535
 6238SOL    HW219614   2.765   0.679   3.640
 6239SOL     OW19615   4.602   1.680   4.323
 6239SOL    HW119616   4.541   1.732   4.383
 6239SOL    HW219617   4.585   1.582   4.337
 6240SOL     OW19618   3.889   3.044   4.460
 6240SOL    HW119619   3.851   3.005   4.376
 6240SOL    HW219620   3.815   3.062   4.524
 6241SOL     OW19621   3.675   0.042   3.618
 6241SOL    HW119622   3.726   0.029   3.533
 6241SOL    HW219623   3.738   0.036   3.695
 6242SOL     OW19624   2.922   2.204   4.294
 6242SOL    HW119625   2.898   2.237   4.385
 6242SOL    HW219626   2.840   2.204   4.236
 6243SOL     OW19627   4.139   1.439   0.082
 6243SOL    HW119628   4.236   1.417   0.094
 6243SOL    HW219629   4.100   1.380   0.012
 6244SOL     OW19630   4.319   2.255   2.104
 6244SOL    HW119631   4.353   2.216   2.189
 6244SOL    HW219632   4.381   2.326   2.072
 6245SOL     OW19633   6.830   5.030   1.969
 6245SOL    HW119634   6.813   5.031   1.870
 6245SOL    HW219635   6.747   5.055   2.017
 6246SOL     OW19636   0.725   6.620   4.997
 6246SOL    HW119637   0.791   6.550   4.969
 6246SOL    HW219638   0.771   6.709   5.001
 6247SOL     OW19639   5.666   5.197   2.981
 6247SOL    HW119640   5.643   5.124   3.046
 6247SOL    HW219641   5.711   5.157   2.901
 6248SOL     OW19642   4.514   2.679   5.518
 6248SOL    HW119643   4.462   2.694   5.434
 6248SOL    HW219644   4.592   2.742   5.521
 6249SOL     OW19645   5.799   3.533   3.488
 6249SOL    HW119646   5.742   3.590   3.547
 6249SOL    HW219647   5.864   3.591   3.438
 6250SOL     OW19648   5.435   0.081   5.937
 6250SOL    HW119649   5.457   0.026   6.018
 6250SOL    HW219650   5.520   0.108   5.891
 6251SOL     OW19651   2.730   0.661   4.294
 6251SOL    HW119652   2.732   0.760   4.288
 6251SOL    HW219653   2.780   0.622   4.216
 6252SOL     OW19654   3.194   5.493   0.844
 6252SOL    HW119655   3.227   5.399   0.833
 6252SOL    HW219656   3.118   5.494   0.910
 6253SOL     OW19657   4.932   6.006   4.001
 6253SOL    HW119658   4.991   5.940   3.954
 6253SOL    HW219659   4.854   5.958   4.041
 6254SOL     OW19660   0.685   0.282   1.606
 6254SOL    HW119661   0.625   0.302   1.683
 6254SOL    HW219662   0.672   0.187   1.577
 6255SOL     OW19663   1.659   0.978   0.909
 6255SOL    HW119664   1.737   0.952   0.853
 6255SOL    HW219665   1.590   0.906   0.906
 6256SOL     OW19666   6.224   5.341   2.338
 6256SOL    HW119667   6.238   5.346   2.436
 6256SOL    HW219668   6.131   5.308   2.319
 6257SOL     OW19669   3.712   3.494   0.953
 6257SOL    HW119670   3.740   3.487   0.857
 6257SOL    HW219671   3.731   3.586   0.986
 6258SOL     OW19672   4.111   5.162   5.044
 6258SOL    HW119673   4.013   5.151   5.061
 6258SOL    HW219674   4.129   5.251   5.003
 6259SOL     OW19675   4.425   0.820   4.940
 6259SOL    HW119676   4.435   0.776   5.030
 6259SOL    HW219677   4.410   0.918   4.953
 6260SOL     OW19678   3.001   1.958   0.975
 6260SOL    HW119679   2.926   1.993   1.031
 6260SOL    HW219680   3.085   1.955   1.029
 6261SOL     OW19681   3.889   6.999   0.916
 6261SOL    HW119682   3.846   6.928   0.860
 6261SOL    HW219683   3.861   6.987   1.011
 6262SOL     OW19684   5.996   1.066   2.539
 6262SOL    HW119685   6.096   1.074   2.542
 6262SOL    HW219686   5.965   1.009   2.615
 6263SOL     OW19687   6.236   6.087   6.241
 6263SOL    HW119688   6.159   6.076   6.178
 6263SOL    HW219689   6.294   6.006   6.236
 6264SOL     OW19690   1.066   5.933   0.401
 6264SOL    HW119691   1.013   5.960   0.320
 6264SOL    HW219692   1.023   5.854   0.444
 6265SOL     OW19693   3.854   6.787   6.669
 6265SOL    HW119694   3.809   6.795   6.580
 6265SOL    HW219695   3.907   6.870   6.688
 6266SOL     OW19696   3.323   5.297   2.862
 6266SOL    HW119697   3.256   5.339   2.923
 6266SOL    HW219698   3.412   5.292   2.909
 6267SOL     OW19699   0.399   6.010   4.440
 6267SOL    HW119700   0.462   6.019   4.517
 6267SOL    HW219701   0.342   6.092   4.433
 6268SOL     OW19702   3.792   1.668   1.280
 6268SOL    HW119703   3.794   1.584   1.226
 6268SOL    HW219704   3.733   1.735   1.236
 6269SOL     OW19705   6.498   6.261   6.937
 6269SOL    HW119706   6.592   6.241   6.908
 6269SOL    HW219707   6.499   6.336   7.002
 6270SOL     OW19708   1.218   6.080   0.842
 6270SOL    HW119709   1.165   6.150   0.794
 6270SOL    HW219710   1.301   6.121   0.880
 6271SOL     OW19711   6.737   3.240   6.062
 6271SOL    HW119712   6.737   3.218   5.964
 6271SOL    HW219713   6.692   3.165   6.112
 6272SOL     OW19714   0.663   1.306   6.994
 6272SOL    HW119715   0.678   1.356   6.909
 6272SOL    HW219716   0.599   1.357   0.034
 6273SOL     OW19717   0.231   6.427   3.107
 6273SOL    HW119718   0.243   6.354   3.040
 6273SOL    HW219719   0.302   6.497   3.093
 6274SOL     OW19720   2.905   6.392   4.000
 6274SOL    HW119721   2.972   6.391   4.075
 6274SOL    HW219722   2.868   6.485   3.991
 6275SOL     OW19723   2.512   5.736   0.573
 6275SOL    HW119724   2.579   5.800   0.534
 6275SOL    HW219725   2.423   5.752   0.532
 6276SOL     OW19726   2.043   5.372   2.522
 6276SOL    HW119727   2.076   5.279   2.539
 6276SOL    HW219728   1.958   5.369   2.469
 6277SOL     OW19729   5.139   2.555   0.941
 6277SOL    HW119730   5.190   2.486   0.992
 6277SOL    HW219731   5.066   2.592   0.999
 6278SOL     OW19732   3.760   2.468   0.452
 6278SOL    HW119733   3.843   2.474   0.508
 6278SOL    HW219734   3.785   2.447   0.358
 6279SOL     OW19735   1.876   6.450   1.997
 6279SOL    HW119736   1.916   6.538   1.971
 6279SOL    HW219737   1.794   6.466   2.052
 6280SOL     OW19738   4.990   1.168   6.417
 6280SOL    HW119739   5.062   1.164   6.348
 6280SOL    HW219740   4.927   1.243   6.396
 6281SOL     OW19741   4.940   4.157   6.064
 6281SOL    HW119742   4.908   4.240   6.020
 6281SOL    HW219743   4.906   4.153   6.158
 6282SOL     OW19744   0.832   3.628   5.816
 6282SOL    HW119745   0.913   3.581   5.850
 6282SOL    HW219746   0.838   3.725   5.837
 6283SOL     OW19747   2.624   0.293   4.371
 6283SOL    HW119748   2.564   0.351   4.315
 6283SOL    HW219749   2.582   0.278   4.460
 6284SOL     OW19750   1.689   3.209   5.703
 6284SOL    HW119751   1.720   3.295   5.745
 6284SOL    HW219752   1.769   3.158   5.671
 6285SOL     OW19753   1.043   4.090   2.704
 6285SOL    HW119754   0.971   4.028   2.735
 6285SOL    HW219755   1.125   4.038   2.681
 6286SOL     OW19756   0.891   2.424   6.794
 6286SOL    HW119757   0.840   2.377   6.721
 6286SOL    HW219758   0.961   2.482   6.754
 6287SOL     OW19759   4.404   4.615   4.672
 6287SOL    HW119760   4.373   4.654   4.759
 6287SOL    HW219761   4.332   4.625   4.604
 6288SOL     OW19762   3.058   3.533   6.090
 6288SOL    HW119763   3.148   3.498   6.066
 6288SOL    HW219764   3.008   3.555   6.006
 6289SOL     OW19765   2.439   4.736   4.883
 6289SOL    HW119766   2.514   4.707   4.823
 6289SOL    HW219767   2.445   4.686   4.969
 6290SOL     OW19768   6.585   0.016   3.720
 6290SOL    HW119769   6.638   0.034   3.803
 6290SOL    HW219770   6.647   0.007   3.642
 6291SOL     OW19771   3.393   3.535   2.103
 6291SOL    HW119772   3.426   3.508   2.194
 6291SOL    HW219773   3.319   3.601   2.114
 6292SOL     OW19774   1.454   4.424   4.693
 6292SOL    HW119775   1.415   4.363   4.624
 6292SOL    HW219776   1.434   4.519   4.669
 6293SOL     OW19777   2.871   1.298   6.394
 6293SOL    HW119778   2.840   1.393   6.390
 6293SOL    HW219779   2.897   1.268   6.302
 6294SOL     OW19780   2.049   1.353   2.303
 6294SOL    HW119781   2.131   1.303   2.275
 6294SOL    HW219782   1.973   1.330   2.241
 6295SOL     OW19783   4.538   3.390   6.412
 6295SOL    HW119784   4.573   3.458   6.476
 6295SOL    HW219785   4.614   3.353   6.359
 6296SOL     OW19786   0.367   2.991   0.173
 6296SOL    HW119787   0.328   3.038   0.252
 6296SOL    HW219788   0.332   3.031   0.089
 6297SOL     OW19789   6.456   1.249   4.055
 6297SOL    HW119790   6.393   1.219   4.127
 6297SOL    HW219791   6.525   1.178   4.039
 6298SOL     OW19792   7.016   6.674   0.136
 6298SOL    HW119793   0.075   6.667   0.200
 6298SOL    HW219794   0.033   6.691   0.044
 6299SOL     OW19795   3.406   2.039   4.008
 6299SOL    HW119796   3.395   2.069   3.913
 6299SOL    HW219797   3.483   1.975   4.014
 6300SOL     OW19798   2.809   1.927   1.297
 6300SOL    HW119799   2.715   1.896   1.279
 6300SOL    HW219800   2.858   1.856   1.347
 6301SOL     OW19801   3.926   6.436   0.214
 6301SOL    HW119802   4.005   6.494   0.231
 6301SOL    HW219803   3.922   6.364   0.283
 6302SOL     OW19804   1.818   3.470   0.062
 6302SOL    HW119805   1.773   3.385   0.089
 6302SOL    HW219806   1.765   3.514   7.006
 6303SOL     OW19807   6.839   5.095   4.586
 6303SOL    HW119808   6.740   5.089   4.573
 6303SOL    HW219809   6.885   5.085   4.498
 6304SOL     OW19810   2.619   0.945   4.021
 6304SOL    HW119811   2.531   0.938   4.070
 6304SOL    HW219812   2.605   0.920   3.925
 6305SOL     OW19813   0.782   5.427   5.823
 6305SOL    HW119814   0.708   5.462   5.766
 6305SOL    HW219815   0.868   5.435   5.773
 6306SOL     OW19816   0.985   4.267   4.388
 6306SOL    HW119817   0.942   4.206   4.455
 6306SOL    HW219818   1.053   4.324   4.433
 6307SOL     OW19819   3.238   3.270   2.784
 6307SOL    HW119820   3.316   3.245   2.726
 6307SOL    HW219821   3.212   3.192   2.840
 6308SOL     OW19822   1.386   2.048   0.853
 6308SOL    HW119823   1.303   2.081   0.808
 6308SOL    HW219824   1.425   2.121   0.909
 6309SOL     OW19825   1.895   5.919   4.761
 6309SOL    HW119826   1.973   5.955   4.711
 6309SOL    HW219827   1.919   5.909   4.858
 6310SOL     OW19828   0.325   0.011   3.318
 6310SOL    HW119829   0.229   0.014   3.346
 6310SOL    HW219830   0.359   6.935   3.328
 6311SOL     OW19831   6.498   1.225   6.680
 6311SOL    HW119832   6.486   1.260   6.588
 6311SOL    HW219833   6.533   1.131   6.675
 6312SOL     OW19834   3.392   5.540   1.110
 6312SOL    HW119835   3.372   5.457   1.059
 6312SOL    HW219836   3.352   5.619   1.062
 6313SOL     OW19837   5.544   4.921   3.908
 6313SOL    HW119838   5.492   5.006   3.896
 6313SOL    HW219839   5.486   4.843   3.884
 6314SOL     OW19840   2.161   6.880   3.086
 6314SOL    HW119841   2.150   6.841   3.178
 6314SOL    HW219842   2.228   6.827   3.035
 6315SOL     OW19843   2.700   2.278   3.362
 6315SOL    HW119844   2.660   2.187   3.378
 6315SOL    HW219845   2.655   2.320   3.283
 6316SOL     OW19846   4.463   0.430   5.199
 6316SOL    HW119847   4.468   0.385   5.288
 6316SOL    HW219848   4.515   0.377   5.132
 6317SOL     OW19849   4.754   4.833   2.671
 6317SOL    HW119850   4.795   4.745   2.649
 6317SOL    HW219851   4.770   4.854   2.768
 6318SOL     OW19852   6.358   6.994   0.006
 6318SOL    HW119853   6.262   6.966   0.004
 6318SOL    HW219854   6.369   0.050   0.073
 6319SOL     OW19855   4.794   2.231   4.476
 6319SOL    HW119856   4.890   2.218   4.452
 6319SOL    HW219857   4.741   2.152   4.446
 6320SOL     OW19858   6.817   1.458   6.240
 6320SOL    HW119859   6.845   1.553   6.259
 6320SOL    HW219860   6.745   1.458   6.171
 6321SOL     OW19861   0.793   3.319   0.093
 6321SOL    HW119862   0.793   3.268   0.006
 6321SOL    HW219863   0.700   3.319   0.130
 6322SOL     OW19864   1.354   1.942   3.031
 6322SOL    HW119865   1.328   1.893   3.114
 6322SOL    HW219866   1.414   1.884   2.976
 6323SOL     OW19867   2.062   5.594   1.282
 6323SOL    HW119868   2.048   5.693   1.288
 6323SOL    HW219869   2.150   5.571   1.323
 6324SOL     OW19870   4.686   2.982   1.294
 6324SOL    HW119871   4.734   2.981   1.207
 6324SOL    HW219872   4.599   3.031   1.284
 6325SOL     OW19873   1.336   3.467   3.386
 6325SOL    HW119874   1.399   3.401   3.427
 6325SOL    HW219875   1.349   3.556   3.428
 6326SOL     OW19876   4.851   4.971   5.459
 6326SOL    HW119877   4.758   4.997   5.485
 6326SOL    HW219878   4.848   4.908   5.381
 6327SOL     OW19879   0.466   0.797   2.793
 6327SOL    HW119880   0.566   0.799   2.789
 6327SOL    HW219881   0.430   0.890   2.781
 6328SOL     OW19882   4.212   3.476   5.461
 6328SOL    HW119883   4.137   3.540   5.444
 6328SOL    HW219884   4.295   3.510   5.416
 6329SOL     OW19885   0.686   3.034   5.096
 6329SOL    HW119886   0.744   2.953   5.099
 6329SOL    HW219887   0.702   3.084   5.011
 6330SOL     OW19888   4.356   2.159   3.710
 6330SOL    HW119889   4.283   2.215   3.672
 6330SOL    HW219890   4.393   2.100   3.638
 6331SOL     OW19891   1.473   3.710   3.965
 6331SOL    HW119892   1.561   3.755   3.977
 6331SOL    HW219893   1.400   3.778   3.971
 6332SOL     OW19894   4.392   1.652   0.416
 6332SOL    HW119895   4.435   1.605   0.493
 6332SOL    HW219896   4.441   1.631   0.332
 6333SOL     OW19897   5.603   0.820   0.495
 6333SOL    HW119898   5.662   0.842   0.573
 6333SOL    HW219899   5.610   0.722   0.475
 6334SOL     OW19900   2.501   1.084   2.039
 6334SOL    HW119901   2.491   1.165   2.096
 6334SOL    HW219902   2.415   1.064   1.993
 6335SOL     OW19903   6.610   3.582   5.668
 6335SOL    HW119904   6.702   3.549   5.688
 6335SOL    HW219905   6.543   3.514   5.697
 6336SOL     OW19906   1.323   4.512   5.501
 6336SOL    HW119907   1.267   4.430   5.516
 6336SOL    HW219908   1.274   4.575   5.441
 6337SOL     OW19909   5.892   6.965   4.961
 6337SOL    HW119910   5.793   6.955   4.959
 6337SOL    HW219911   5.916   0.045   4.956
 6338SOL     OW19912   0.951   0.618   2.930
 6338SOL    HW119913   0.858   0.644   2.954
 6338SOL    HW219914   0.986   0.681   2.860
 6339SOL     OW19915   0.298   3.615   3.416
 6339SOL    HW119916   0.349   3.628   3.501
 6339SOL    HW219917   0.209   3.661   3.423
 6340SOL     OW19918   2.631   5.274   6.571
 6340SOL    HW119919   2.573   5.331   6.513
 6340SOL    HW219920   2.597   5.180   6.572
 6341SOL     OW19921   0.198   4.531   2.864
 6341SOL    HW119922   0.287   4.547   2.906
 6341SOL    HW219923   0.148   4.617   2.858
 6342SOL     OW19924   2.091   0.743   1.687
 6342SOL    HW119925   2.189   0.762   1.675
 6342SOL    HW219926   2.039   0.793   1.619
 6343SOL     OW19927   1.441   5.497   0.057
 6343SOL    HW119928   1.342   5.483   0.051
 6343SOL    HW219929   1.466   5.581   0.007
 6344SOL     OW19930   1.454   1.592   4.691
 6344SOL    HW119931   1.432   1.562   4.598
 6344SOL    HW219932   1.387   1.660   4.721
 6345SOL     OW19933   6.621   2.896   3.062
 6345SOL    HW119934   6.587   2.890   2.969
 6345SOL    HW219935   6.721   2.887   3.061
 6346SOL     OW19936   0.434   4.867   4.783
 6346SOL    HW119937   0.518   4.841   4.832
 6346SOL    HW219938   0.361   4.885   4.849
 6347SOL     OW19939   1.934   2.200   3.776
 6347SOL    HW119940   2.014   2.249   3.743
 6347SOL    HW219941   1.937   2.196   3.876
 6348SOL     OW19942   0.807   2.842   6.833
 6348SOL    HW119943   0.761   2.927   6.860
 6348SOL    HW219944   0.738   2.771   6.816
 6349SOL     OW19945   5.787   0.818   1.005
 6349SOL    HW119946   5.759   0.731   1.045
 6349SOL    HW219947   5.753   0.825   0.912
 6350SOL     OW19948   0.826   5.824   1.301
 6350SOL    HW119949   0.871   5.802   1.214
 6350SOL    HW219950   0.858   5.912   1.333
 6351SOL     OW19951   6.053   2.861   1.976
 6351SOL    HW119952   6.094   2.792   1.916
 6351SOL    HW219953   6.062   2.951   1.934
 6352SOL     OW19954   4.700   0.653   4.334
 6352SOL    HW119955   4.621   0.708   4.362
 6352SOL    HW219956   4.669   0.565   4.298
 6353SOL     OW19957   3.500   6.721   6.049
 6353SOL    HW119958   3.446   6.638   6.061
 6353SOL    HW219959   3.450   6.799   6.086
 6354SOL     OW19960   5.381   5.100   2.492
 6354SOL    HW119961   5.384   5.085   2.591
 6354SOL    HW219962   5.305   5.161   2.470
 6355SOL     OW19963   4.618   6.091   0.395
 6355SOL    HW119964   4.540   6.109   0.336
 6355SOL    HW219965   4.702   6.093   0.341
 6356SOL     OW19966   6.594   6.668   6.056
 6356SOL    HW119967   6.597   6.732   5.978
 6356SOL    HW219968   6.667   6.691   6.120
 6357SOL     OW19969   4.899   1.983   3.237
 6357SOL    HW119970   4.958   1.937   3.170
 6357SOL    HW219971   4.843   2.051   3.190
 6358SOL     OW19972   1.326   1.482   4.451
 6358SOL    HW119973   1.256   1.430   4.500
 6358SOL    HW219974   1.310   1.473   4.352
 6359SOL     OW19975   5.756   5.114   0.967
 6359SOL    HW119976   5.782   5.122   1.064
 6359SOL    HW219977   5.660   5.138   0.956
 6360SOL     OW19978   2.021   2.992   0.881
 6360SOL    HW119979   1.991   2.948   0.966
 6360SOL    HW219980   1.975   3.081   0.873
 6361SOL     OW19981   0.390   2.086   2.290
 6361SOL    HW119982   0.426   2.000   2.256
 6361SOL    HW219983   0.290   2.086   2.283
 6362SOL     OW19984   1.473   5.134   0.337
 6362SOL    HW119985   1.558   5.154   0.290
 6362SOL    HW219986   1.487   5.058   0.402
 6363SOL     OW19987   0.952   2.623   2.088
 6363SOL    HW119988   0.884   2.636   2.161
 6363SOL    HW219989   1.043   2.640   2.125
 6364SOL     OW19990   3.024   1.272   4.166
 6364SOL    HW119991   2.949   1.261   4.232
 6364SOL    HW219992   3.032   1.368   4.142
 6365SOL     OW19993   6.598   6.894   3.041
 6365SOL    HW119994   6.683   6.867   3.086
 6365SOL    HW219995   6.562   6.817   2.988
 6366SOL     OW19996   6.078   1.555   5.206
 6366SOL    HW119997   6.008   1.589   5.143
 6366SOL    HW219998   6.052   1.464   5.238
 6367SOL     OW19999   1.022   2.404   4.426
 6367SOL    HW120000   1.011   2.478   4.493
 6367SOL    HW220001   1.019   2.316   4.472
 6368SOL     OW20002   5.008   3.412   5.017
 6368SOL    HW120003   4.940   3.417   5.090
 6368SOL    HW220004   5.055   3.501   5.010
 6369SOL     OW20005   3.460   4.204   0.666
 6369SOL    HW120006   3.483   4.140   0.592
 6369SOL    HW220007   3.540   4.216   0.725
 6370SOL     OW20008   6.037   4.184   4.786
 6370SOL    HW120009   5.998   4.255   4.728
 6370SOL    HW220010   6.002   4.192   4.879
 6371SOL     OW20011   5.661   3.928   0.769
 6371SOL    HW120012   5.759   3.933   0.788
 6371SOL    HW220013   5.633   4.007   0.715
 6372SOL     OW20014   6.668   1.361   0.905
 6372SOL    HW120015   6.711   1.288   0.958
 6372SOL    HW220016   6.706   1.450   0.933
 6373SOL     OW20017   5.168   2.580   1.558
 6373SOL    HW120018   5.195   2.645   1.629
 6373SOL    HW220019   5.068   2.577   1.551
 6374SOL     OW20020   4.150   3.659   6.662
 6374SOL    HW120021   4.229   3.684   6.606
 6374SOL    HW220022   4.095   3.592   6.613
 6375SOL     OW20023   4.849   0.834   1.708
 6375SOL    HW120024   4.943   0.837   1.674
 6375SOL    HW220025   4.847   0.865   1.803
 6376SOL     OW20026   2.786   6.579   0.450
 6376SOL    HW120027   2.820   6.485   0.443
 6376SOL    HW220028   2.769   6.601   0.546
 6377SOL     OW20029   0.467   0.848   0.174
 6377SOL    HW120030   0.561   0.882   0.182
 6377SOL    HW220031   0.440   0.850   0.077
 6378SOL     OW20032   5.743   4.378   2.665
 6378SOL    HW120033   5.818   4.390   2.599
 6378SOL    HW220034   5.727   4.280   2.679
 6379SOL     OW20035   2.841   5.470   0.091
 6379SOL    HW120036   2.787   5.553   0.101
 6379SOL    HW220037   2.883   5.446   0.178
 6380SOL     OW20038   1.982   3.139   4.801
 6380SOL    HW120039   2.022   3.048   4.808
 6380SOL    HW220040   2.041   3.205   4.848
 6381SOL     OW20041   3.684   3.790   0.848
 6381SOL    HW120042   3.633   3.771   0.932
 6381SOL    HW220043   3.620   3.799   0.772
 6382SOL     OW20044   1.534   1.364   1.231
 6382SOL    HW120045   1.601   1.400   1.166
 6382SOL    HW220046   1.450   1.339   1.182
 6383SOL     OW20047   2.324   2.236   2.620
 6383SOL    HW120048   2.310   2.233   2.521
 6383SOL    HW220049   2.393   2.169   2.647
 6384SOL     OW20050   6.432   1.811   2.195
 6384SOL    HW120051   6.528   1.784   2.186
 6384SOL    HW220052   6.420   1.866   2.278
 6385SOL     OW20053   6.920   3.549   1.073
 6385SOL    HW120054   6.831   3.509   1.050
 6385SOL    HW220055   6.953   3.510   1.159
 6386SOL     OW20056   3.275   3.636   0.125
 6386SOL    HW120057   3.314   3.571   0.060
 6386SOL    HW220058   3.265   3.592   0.214
 6387SOL     OW20059   6.507   0.891   6.114
 6387SOL    HW120060   6.423   0.839   6.094
 6387SOL    HW220061   6.568   0.888   6.035
 6388SOL     OW20062   5.972   5.158   1.224
 6388SOL    HW120063   6.017   5.235   1.268
 6388SOL    HW220064   5.979   5.077   1.282
 6389SOL     OW20065   6.728   6.616   0.561
 6389SOL    HW120066   6.718   6.649   0.655
 6389SOL    HW220067   6.746   6.518   0.562
 6390SOL     OW20068   5.250   6.664   6.516
 6390SOL    HW120069   5.194   6.628   6.441
 6390SOL    HW220070   5.191   6.706   6.585
 6391SOL     OW20071   1.714   2.266   4.722
 6391SOL    HW120072   1.707   2.349   4.667
 6391SOL    HW220073   1.806   2.258   4.759
 6392SOL     OW20074   4.967   6.585   4.043
 6392SOL    HW120075   5.026   6.517   3.999
 6392SOL    HW220076   4.989   6.676   4.007
 6393SOL     OW20077   2.084   5.147   0.732
 6393SOL    HW120078   1.986   5.164   0.738
 6393SOL    HW220079   2.128   5.223   0.684
 6394SOL     OW20080   1.767   5.522   2.177
 6394SOL    HW120081   1.705   5.557   2.247
 6394SOL    HW220082   1.715   5.465   2.113
 6395SOL     OW20083   1.531   3.963   4.523
 6395SOL    HW120084   1.629   3.972   4.537
 6395SOL    HW220085   1.513   3.925   4.432
 6396SOL     OW20086   1.930   3.487   5.015
 6396SOL    HW120087   1.965   3.429   5.088
 6396SOL    HW220088   1.832   3.472   5.005
 6397SOL     OW20089   6.714   2.716   5.134
 6397SOL    HW120090   6.652   2.640   5.115
 6397SOL    HW220091   6.695   2.791   5.070
 6398SOL     OW20092   1.675   0.115   2.655
 6398SOL    HW120093   1.720   0.180   2.594
 6398SOL    HW220094   1.734   0.098   2.734
 6399SOL     OW20095   2.427   6.956   6.897
 6399SOL    HW120096   2.476   6.961   6.985
 6399SOL    HW220097   2.331   6.978   6.912
 6400SOL     OW20098   0.658   6.438   2.828
 6400SOL    HW120099   0.745   6.402   2.794
 6400SOL    HW220100   0.602   6.362   2.861
 6401SOL     OW20101   3.859   5.106   1.989
 6401SOL    HW120102   3.800   5.049   2.046
 6401SOL    HW220103   3.904   5.049   1.920
 6402SOL     OW20104   3.763   3.841   6.031
 6402SOL    HW120105   3.700   3.915   6.008
 6402SOL    HW220106   3.822   3.870   6.106
 6403SOL     OW20107   4.727   5.432   5.761
 6403SOL    HW120108   4.821   5.439   5.795
 6403SOL    HW220109   4.728   5.404   5.665
 6404SOL     OW20110   4.991   5.654   6.617
 6404SOL    HW120111   4.964   5.735   6.669
 6404SOL    HW220112   5.089   5.638   6.629
 6405SOL     OW20113   4.503   1.022   2.472
 6405SOL    HW120114   4.581   0.961   2.487
 6405SOL    HW220115   4.426   0.969   2.436
 6406SOL     OW20116   0.665   3.449   1.931
 6406SOL    HW120117   0.709   3.488   1.851
 6406SOL    HW220118   0.567   3.469   1.929
 6407SOL     OW20119   0.485   6.967   2.073
 6407SOL    HW120120   0.553   6.906   2.029
 6407SOL    HW220121   0.533   0.023   2.121
 6408SOL     OW20122   0.500   1.243   1.765
 6408SOL    HW120123   0.466   1.191   1.844
 6408SOL    HW220124   0.580   1.296   1.792
 6409SOL     OW20125   6.072   4.235   3.375
 6409SOL    HW120126   6.057   4.323   3.421
 6409SOL    HW220127   6.135   4.179   3.429
 6410SOL     OW20128   1.713   0.889   0.442
 6410SOL    HW120129   1.736   0.967   0.384
 6410SOL    HW220130   1.753   0.901   0.533
 6411SOL     OW20131   0.922   2.606   3.625
 6411SOL    HW120132   0.996   2.539   3.620
 6411SOL    HW220133   0.933   2.674   3.553
 6412SOL     OW20134   3.783   0.153   7.002
 6412SOL    HW120135   3.770   0.182   0.079
 6412SOL    HW220136   3.881   0.157   6.979
 6413SOL     OW20137   4.833   5.810   3.093
 6413SOL    HW120138   4.789   5.797   3.182
 6413SOL    HW220139   4.903   5.741   3.080
 6414SOL     OW20140   3.102   6.981   0.021
 6414SOL    HW120141   3.185   6.948   6.993
 6414SOL    HW220142   3.110   0.062   0.036
 6415SOL     OW20143   0.808   1.787   3.470
 6415SOL    HW120144   0.757   1.874   3.472
 6415SOL    HW220145   0.776   1.729   3.544
 6416SOL     OW20146   3.260   4.816   0.556
 6416SOL    HW120147   3.229   4.788   0.648
 6416SOL    HW220148   3.308   4.739   0.513
 6417SOL     OW20149   4.587   3.516   6.679
 6417SOL    HW120150   4.539   3.596   6.645
 6417SOL    HW220151   4.521   3.451   6.718
 6418SOL     OW20152   4.965   5.766   0.388
 6418SOL    HW120153   5.058   5.760   0.424
 6418SOL    HW220154   4.938   5.679   0.347
 6419SOL     OW20155   0.921   6.891   6.548
 6419SOL    HW120156   1.004   6.840   6.568
 6419SOL    HW220157   0.919   6.915   6.451
 6420SOL     OW20158   2.658   4.701   3.383
 6420SOL    HW120159   2.647   4.611   3.341
 6420SOL    HW220160   2.569   4.745   3.394
 6421SOL     OW20161   5.513   6.442   1.778
 6421SOL    HW120162   5.500   6.541   1.785
 6421SOL    HW220163   5.454   6.405   1.706
 6422SOL     OW20164   0.487   2.099   4.670
 6422SOL    HW120165   0.528   2.169   4.727
 6422SOL    HW220166   0.398   2.130   4.636
 6423SOL     OW20167   1.247   4.442   4.408
 6423SOL    HW120168   1.323   4.378   4.416
 6423SOL    HW220169   1.239   4.495   4.492
 6424SOL     OW20170   6.626   4.049   5.816
 6424SOL    HW120171   6.627   4.099   5.729
 6424SOL    HW220172   6.534   4.014   5.833
 6425SOL     OW20173   0.631   6.601   4.673
 6425SOL    HW120174   0.567   6.568   4.603
 6425SOL    HW220175   0.598   6.576   4.764
 6426SOL     OW20176   3.959   5.155   4.061
 6426SOL    HW120177   3.945   5.143   3.962
 6426SOL    HW220178   4.016   5.081   4.095
 6427SOL     OW20179   3.898   2.993   3.958
 6427SOL    HW120180   3.912   3.086   3.990
 6427SOL    HW220181   3.854   2.994   3.868
 6428SOL     OW20182   5.957   2.528   0.563
 6428SOL    HW120183   5.868   2.558   0.597
 6428SOL    HW220184   5.949   2.435   0.528
 6429SOL     OW20185   2.428   1.373   5.211
 6429SOL    HW120186   2.338   1.417   5.212
 6429SOL    HW220187   2.495   1.435   5.170
 6430SOL     OW20188   5.472   1.381   4.918
 6430SOL    HW120189   5.485   1.412   5.012
 6430SOL    HW220190   5.532   1.433   4.857
 6431SOL     OW20191   3.292   5.452   2.640
 6431SOL    HW120192   3.313   5.393   2.717
 6431SOL    HW220193   3.255   5.397   2.565
 6432SOL     OW20194   4.239   3.409   6.377
 6432SOL    HW120195   4.307   3.371   6.440
 6432SOL    HW220196   4.249   3.365   6.288
 6433SOL     OW20197   3.446   5.349   6.274
 6433SOL    HW120198   3.393   5.355   6.358
 6433SOL    HW220199   3.478   5.440   6.247
 6434SOL     OW20200   6.432   5.248   6.108
 6434SOL    HW120201   6.529   5.272   6.111
 6434SOL    HW220202   6.421   5.162   6.058
 6435SOL     OW20203   4.608   1.475   1.119
 6435SOL    HW120204   4.611   1.413   1.041
 6435SOL    HW220205   4.516   1.513   1.128
 6436SOL     OW20206   0.554   3.276   3.754
 6436SOL    HW120207   0.645   3.235   3.768
 6436SOL    HW220208   0.526   3.322   3.838
 6437SOL     OW20209   1.618   2.630   5.596
 6437SOL    HW120210   1.623   2.536   5.630
 6437SOL    HW220211   1.650   2.693   5.666
 6438SOL     OW20212   0.349   5.382   1.032
 6438SOL    HW120213   0.252   5.407   1.032
 6438SOL    HW220214   0.358   5.284   1.013
 6439SOL     OW20215   5.387   6.669   3.099
 6439SOL    HW120216   5.339   6.755   3.082
 6439SOL    HW220217   5.332   6.593   3.064
 6440SOL     OW20218   2.394   1.617   5.983
 6440SOL    HW120219   2.300   1.613   5.950
 6440SOL    HW220220   2.457   1.607   5.905
 6441SOL     OW20221   0.921   2.368   1.899
 6441SOL    HW120222   0.923   2.445   1.836
 6441SOL    HW220223   0.865   2.391   1.978
 6442SOL     OW20224   2.512   1.869   4.518
 6442SOL    HW120225   2.480   1.953   4.562
 6442SOL    HW220226   2.434   1.809   4.501
 6443SOL     OW20227   2.907   2.639   6.472
 6443SOL    HW120228   2.837   2.584   6.518
 6443SOL    HW220229   2.944   2.588   6.394
 6444SOL     OW20230   0.062   3.460   5.101
 6444SOL    HW120231   6.980   3.475   5.101
 6444SOL    HW220232   0.097   3.469   5.194
 6445SOL     OW20233   3.088   3.181   3.436
 6445SOL    HW120234   3.027   3.234   3.376
 6445SOL    HW220235   3.039   3.154   3.518
 6446SOL     OW20236   1.276   1.316   1.176
 6446SOL    HW120237   1.228   1.229   1.185
 6446SOL    HW220238   1.210   1.389   1.158
 6447SOL     OW20239   6.075   3.665   1.144
 6447SOL    HW120240   6.099   3.615   1.061
 6447SOL    HW220241   5.995   3.722   1.128
 6448SOL     OW20242   4.421   4.258   1.398
 6448SOL    HW120243   4.370   4.255   1.483
 6448SOL    HW220244   4.364   4.227   1.323
 6449SOL     OW20245   4.472   5.024   0.557
 6449SOL    HW120246   4.391   5.059   0.604
 6449SOL    HW220247   4.482   4.926   0.576
 6450SOL     OW20248   5.054   3.744   6.997
 6450SOL    HW120249   5.052   3.660   0.034
 6450SOL    HW220250   5.093   3.724   6.907
 6451SOL     OW20251   4.304   2.705   1.680
 6451SOL    HW120252   4.259   2.651   1.608
 6451SOL    HW220253   4.242   2.777   1.712
 6452SOL     OW20254   4.148   1.843   4.833
 6452SOL    HW120255   4.169   1.787   4.914
 6452SOL    HW220256   4.063   1.894   4.849
 6453SOL     OW20257   2.480   0.582   2.902
 6453SOL    HW120258   2.435   0.520   2.967
 6453SOL    HW220259   2.508   0.666   2.950
 6454SOL     OW20260   5.199   3.803   4.703
 6454SOL    HW120261   5.101   3.786   4.718
 6454SOL    HW220262   5.249   3.783   4.787
 6455SOL     OW20263   0.478   2.894   4.433
 6455SOL    HW120264   0.529   2.954   4.372
 6455SOL    HW220265   0.380   2.910   4.420
 6456SOL     OW20266   6.122   2.144   3.140
 6456SOL    HW120267   6.102   2.189   3.053
 6456SOL    HW220268   6.052   2.076   3.159
 6457SOL     OW20269   1.954   6.292   2.704
 6457SOL    HW120270   2.044   6.259   2.675
 6457SOL    HW220271   1.936   6.263   2.798
 6458SOL     OW20272   0.771   0.159   4.340
 6458SOL    HW120273   0.673   0.139   4.336
 6458SOL    HW220274   0.820   0.097   4.278
 6459SOL     OW20275   0.543   3.163   3.114
 6459SOL    HW120276   0.634   3.201   3.098
 6459SOL    HW220277   0.498   3.214   3.187
 6460SOL     OW20278   1.891   4.859   6.087
 6460SOL    HW120279   1.818   4.857   6.155
 6460SOL    HW220280   1.946   4.941   6.100
 6461SOL     OW20281   0.459   6.476   1.659
 6461SOL    HW120282   0.483   6.421   1.738
 6461SOL    HW220283   0.504   6.439   1.577
 6462SOL     OW20284   2.133   3.968   5.256
 6462SOL    HW120285   2.160   4.033   5.327
 6462SOL    HW220286   2.207   3.958   5.190
 6463SOL     OW20287   4.377   2.798   1.219
 6463SOL    HW120288   4.367   2.889   1.259
 6463SOL    HW220289   4.313   2.787   1.144
 6464SOL     OW20290   0.681   3.823   2.958
 6464SOL    HW120291   0.742   3.806   3.035
 6464SOL    HW220292   0.669   3.739   2.905
 6465SOL     OW20293   2.621   0.950   3.739
 6465SOL    HW120294   2.607   1.048   3.757
 6465SOL    HW220295   2.615   0.934   3.640
 6466SOL     OW20296   6.532   4.937   6.368
 6466SOL    HW120297   6.531   5.031   6.404
 6466SOL    HW220298   6.503   4.874   6.440
 6467SOL     OW20299   2.930   3.003   5.984
 6467SOL    HW120300   2.930   3.029   5.887
 6467SOL    HW220301   2.904   2.907   5.993
 6468SOL     OW20302   1.105   0.870   1.350
 6468SOL    HW120303   1.013   0.877   1.390
 6468SOL    HW220304   1.167   0.829   1.417
 6469SOL     OW20305   1.976   1.193   1.150
 6469SOL    HW120306   1.893   1.139   1.160
 6469SOL    HW220307   2.056   1.133   1.154
 6470SOL     OW20308   5.924   1.708   6.411
 6470SOL    HW120309   5.953   1.782   6.351
 6470SOL    HW220310   5.984   1.704   6.491
 6471SOL     OW20311   0.513   6.188   6.224
 6471SOL    HW120312   0.589   6.125   6.210
 6471SOL    HW220313   0.528   6.272   6.172
 6472SOL     OW20314   0.406   6.265   1.994
 6472SOL    HW120315   0.494   6.220   2.007
 6472SOL    HW220316   0.332   6.200   2.013
 6473SOL     OW20317   2.702   1.587   3.329
 6473SOL    HW120318   2.611   1.606   3.365
 6473SOL    HW220319   2.771   1.628   3.388
 6474SOL     OW20320   4.189   6.815   4.384
 6474SOL    HW120321   4.212   6.850   4.294
 6474SOL    HW220322   4.265   6.832   4.447
 6475SOL     OW20323   5.123   5.684   3.268
 6475SOL    HW120324   5.168   5.773   3.258
 6475SOL    HW220325   5.154   5.640   3.352
 6476SOL     OW20326   4.503   4.039   6.057
 6476SOL    HW120327   4.564   3.971   6.018
 6476SOL    HW220328   4.555   4.101   6.116
 6477SOL     OW20329   0.613   6.238   1.132
 6477SOL    HW120330   0.547   6.169   1.165
 6477SOL    HW220331   0.574   6.329   1.144
 6478SOL     OW20332   1.552   6.364   0.700
 6478SOL    HW120333   1.554   6.464   0.691
 6478SOL    HW220334   1.495   6.325   0.628
 6479SOL     OW20335   4.657   5.424   3.539
 6479SOL    HW120336   4.686   5.470   3.623
 6479SOL    HW220337   4.564   5.453   3.516
 6480SOL     OW20338   3.464   1.258   5.467
 6480SOL    HW120339   3.432   1.274   5.560
 6480SOL    HW220340   3.403   1.194   5.421
 6481SOL     OW20341   4.469   3.138   1.617
 6481SOL    HW120342   4.494   3.100   1.706
 6481SOL    HW220343   4.403   3.078   1.573
 6482SOL     OW20344   5.037   3.080   5.337
 6482SOL    HW120345   5.070   3.027   5.259
 6482SOL    HW220346   4.947   3.119   5.315
 6483SOL     OW20347   1.969   5.818   5.722
 6483SOL    HW120348   1.869   5.816   5.729
 6483SOL    HW220349   2.004   5.725   5.733
 6484SOL     OW20350   3.679   1.420   2.647
 6484SOL    HW120351   3.700   1.450   2.740
 6484SOL    HW220352   3.760   1.378   2.606
 6485SOL     OW20353   2.740   4.963   4.653
 6485SOL    HW120354   2.798   5.044   4.639
 6485SOL    HW220355   2.774   4.888   4.597
 6486SOL     OW20356   0.172   4.001   2.142
 6486SOL    HW120357   0.135   3.947   2.066
 6486SOL    HW220358   0.128   3.972   2.227
 6487SOL     OW20359   6.217   4.929   4.629
 6487SOL    HW120360   6.204   5.019   4.670
 6487SOL    HW220361   6.304   4.890   4.659
 6488SOL     OW20362   4.018   5.145   3.637
 6488SOL    HW120363   4.114   5.126   3.654
 6488SOL    HW220364   4.009   5.211   3.563
 6489SOL     OW20365   6.523   2.982   5.090
 6489SOL    HW120366   6.585   3.000   5.167
 6489SOL    HW220367   6.574   2.984   5.004
 6490SOL     OW20368   2.026   2.748   0.718
 6490SOL    HW120369   2.075   2.693   0.785
 6490SOL    HW220370   2.045   2.845   0.734
 6491SOL     OW20371   1.715   0.808   1.651
 6491SOL    HW120372   1.719   0.761   1.563
 6491SOL    HW220373   1.625   0.792   1.693
 6492SOL     OW20374   4.121   3.576   3.979
 6492SOL    HW120375   4.090   3.649   4.041
 6492SOL    HW220376   4.137   3.493   4.031
 6493SOL     OW20377   1.135   4.882   3.942
 6493SOL    HW120378   1.104   4.949   4.010
 6493SOL    HW220379   1.064   4.814   3.927
 6494SOL     OW20380   6.493   0.875   1.460
 6494SOL    HW120381   6.492   0.842   1.554
 6494SOL    HW220382   6.527   0.969   1.457
 6495SOL     OW20383   6.746   6.641   3.014
 6495SOL    HW120384   6.771   6.667   2.921
 6495SOL    HW220385   6.796   6.559   3.041
 6496SOL     OW20386   3.044   2.297   1.701
 6496SOL    HW120387   3.131   2.247   1.701
 6496SOL    HW220388   3.027   2.334   1.792
 6497SOL     OW20389   0.644   2.057   0.974
 6497SOL    HW120390   0.719   2.074   0.911
 6497SOL    HW220391   0.631   2.137   1.033
 6498SOL     OW20392   1.987   4.860   4.207
 6498SOL    HW120393   2.022   4.777   4.164
 6498SOL    HW220394   2.024   4.940   4.158
 6499SOL     OW20395   5.015   2.465   3.045
 6499SOL    HW120396   4.941   2.503   2.989
 6499SOL    HW220397   5.102   2.505   3.017
 6500SOL     OW20398   1.544   3.847   3.065
 6500SOL    HW120399   1.632   3.882   3.098
 6500SOL    HW220400   1.506   3.784   3.133
 6501SOL     OW20401   6.626   0.703   2.773
 6501SOL    HW120402   6.631   0.756   2.857
 6501SOL    HW220403   6.716   0.664   2.753
 6502SOL     OW20404   0.800   3.062   2.155
 6502SOL    HW120405   0.742   2.983   2.171
 6502SOL    HW220406   0.896   3.032   2.150
 6503SOL     OW20407   0.058   2.799   5.591
 6503SOL    HW120408   0.034   2.769   5.683
 6503SOL    HW220409   0.097   2.722   5.540
 6504SOL     OW20410   4.454   6.923   6.240
 6504SOL    HW120411   4.418   6.872   6.162
 6504SOL    HW220412   4.516   6.995   6.208
 6505SOL     OW20413   0.221   6.373   0.489
 6505SOL    HW120414   0.127   6.343   0.506
 6505SOL    HW220415   0.281   6.293   0.481
 6506SOL     OW20416   6.796   3.724   1.835
 6506SOL    HW120417   6.783   3.760   1.742
 6506SOL    HW220418   6.881   3.673   1.839
 6507SOL     OW20419   4.013   5.496   1.238
 6507SOL    HW120420   4.096   5.511   1.185
 6507SOL    HW220421   4.024   5.537   1.329
 6508SOL     OW20422   6.719   0.553   3.910
 6508SOL    HW120423   6.753   0.638   3.950
 6508SOL    HW220424   6.748   0.547   3.814
 6509SOL     OW20425   2.084   1.522   0.313
 6509SOL    HW120426   2.097   1.532   0.411
 6509SOL    HW220427   2.155   1.571   0.264
 6510SOL     OW20428   3.407   4.886   4.217
 6510SOL    HW120429   3.490   4.940   4.198
 6510SOL    HW220430   3.360   4.867   4.131
 6511SOL     OW20431   3.176   2.816   0.078
 6511SOL    HW120432   3.106   2.826   0.148
 6511SOL    HW220433   3.132   2.806   7.006
 6512SOL     OW20434   5.006   0.862   0.801
 6512SOL    HW120435   4.938   0.842   0.872
 6512SOL    HW220436   5.098   0.848   0.838
 6513SOL     OW20437   3.053   4.872   2.813
 6513SOL    HW120438   3.005   4.959   2.809
 6513SOL    HW220439   3.147   4.884   2.784
 6514SOL     OW20440   5.174   5.547   5.612
 6514SOL    HW120441   5.213   5.639   5.611
 6514SOL    HW220442   5.176   5.512   5.706
 6515SOL     OW20443   0.696   4.884   2.383
 6515SOL    HW120444   0.700   4.795   2.429
 6515SOL    HW220445   0.685   4.869   2.284
 6516SOL     OW20446   6.113   1.409   3.693
 6516SOL    HW120447   6.065   1.497   3.705
 6516SOL    HW220448   6.046   1.335   3.690
 6517SOL     OW20449   6.604   3.945   0.843
 6517SOL    HW120450   6.699   3.921   0.861
 6517SOL    HW220451   6.560   3.872   0.789
 6518SOL     OW20452   0.878   1.454   2.365
 6518SOL    HW120453   0.932   1.534   2.341
 6518SOL    HW220454   0.781   1.478   2.363
 6519SOL     OW20455   1.289   1.532   3.172
 6519SOL    HW120456   1.219   1.500   3.107
 6519SOL    HW220457   1.306   1.461   3.240
 6520SOL     OW20458   6.266   5.446   7.001
 6520SOL    HW120459   6.304   5.443   0.076
 6520SOL    HW220460   6.336   5.481   6.938
 6521SOL     OW20461   1.732   4.423   4.577
 6521SOL    HW120462   1.639   4.453   4.599
 6521SOL    HW220463   1.737   4.323   4.583
 6522SOL     OW20464   2.164   3.219   4.963
 6522SOL    HW120465   2.150   3.220   5.062
 6522SOL    HW220466   2.234   3.152   4.940
 6523SOL     OW20467   5.551   6.614   0.528
 6523SOL    HW120468   5.633   6.598   0.473
 6523SOL    HW220469   5.491   6.679   0.481
 6524SOL     OW20470   3.330   2.860   1.414
 6524SOL    HW120471   3.362   2.892   1.504
 6524SOL    HW220472   3.232   2.840   1.420
 6525SOL     OW20473   2.156   4.924   3.739
 6525SOL    HW120474   2.120   4.854   3.800
 6525SOL    HW220475   2.094   4.936   3.661
 6526SOL     OW20476   6.421   6.675   0.529
 6526SOL    HW120477   6.472   6.703   0.447
 6526SOL    HW220478   6.323   6.677   0.510
 6527SOL     OW20479   5.228   1.544   1.295
 6527SOL    HW120480   5.169   1.565   1.217
 6527SOL    HW220481   5.188   1.581   1.378
 6528SOL     OW20482   4.627   6.621   0.083
 6528SOL    HW120483   4.530   6.609   0.062
 6528SOL    HW220484   4.638   6.639   0.181
 6529SOL     OW20485   4.401   0.349   1.713
 6529SOL    HW120486   4.332   0.289   1.754
 6529SOL    HW220487   4.381   0.361   1.616
 6530SOL     OW20488   6.782   2.848   3.826
 6530SOL    HW120489   6.824   2.925   3.874
 6530SOL    HW220490   6.765   2.873   3.731
 6531SOL     OW20491   4.029   3.230   3.690
 6531SOL    HW120492   4.032   3.204   3.787
 6531SOL    HW220493   4.001   3.151   3.635
 6532SOL     OW20494   0.662   5.661   6.972
 6532SOL    HW120495   0.565   5.662   6.946
 6532SOL    HW220496   0.707   5.743   6.936
 6533SOL     OW20497   5.217   5.452   1.236
 6533SOL    HW120498   5.258   5.445   1.145
 6533SOL    HW220499   5.290   5.461   1.304
 6534SOL     OW20500   6.817   3.482   4.050
 6534SOL    HW120501   6.862   3.509   4.136
 6534SOL    HW220502   6.870   3.409   4.007
 6535SOL     OW20503   5.339   3.870   5.869
 6535SOL    HW120504   5.374   3.881   5.776
 6535SOL    HW220505   5.280   3.948   5.891
 6536SOL     OW20506   0.484   4.703   5.300
 6536SOL    HW120507   0.538   4.780   5.334
 6536SOL    HW220508   0.520   4.618   5.338
 6537SOL     OW20509   6.962   5.484   4.421
 6537SOL    HW120510   0.025   5.531   4.385
 6537SOL    HW220511   6.892   5.478   4.351
 6538SOL     OW20512   1.771   3.341   3.594
 6538SOL    HW120513   1.795   3.281   3.671
 6538SOL    HW220514   1.696   3.402   3.621
 6539SOL     OW20515   4.859   0.248   6.586
 6539SOL    HW120516   4.838   0.212   6.496
 6539SOL    HW220517   4.955   0.230   6.608
 6540SOL     OW20518   0.451   2.566   4.847
 6540SOL    HW120519   0.504   2.482   4.839
 6540SOL    HW220520   0.383   2.570   4.773
 6541SOL     OW20521   3.832   1.643   5.445
 6541SOL    HW120522   3.753   1.583   5.444
 6541SOL    HW220523   3.909   1.596   5.489
 6542SOL     OW20524   1.762   4.551   2.191
 6542SOL    HW120525   1.716   4.463   2.192
 6542SOL    HW220526   1.713   4.614   2.131
 6543SOL     OW20527   4.579   1.384   4.262
 6543SOL    HW120528   4.643   1.408   4.189
 6543SOL    HW220529   4.624   1.320   4.325
 6544SOL     OW20530   0.749   0.387   0.947
 6544SOL    HW120531   0.761   0.481   0.917
 6544SOL    HW220532   0.681   0.384   1.021
 6545SOL     OW20533   5.756   6.005   0.635
 6545SOL    HW120534   5.737   6.032   0.729
 6545SOL    HW220535   5.679   6.029   0.576
 6546SOL     OW20536   4.602   5.059   5.286
 6546SOL    HW120537   4.551   5.011   5.356
 6546SOL    HW220538   4.563   5.038   5.196
 6547SOL     OW20539   0.916   6.255   5.387
 6547SOL    HW120540   0.851   6.219   5.454
 6547SOL    HW220541   0.906   6.204   5.301
 6548SOL     OW20542   1.350   1.682   6.350
 6548SOL    HW120543   1.414   1.755   6.325
 6548SOL    HW220544   1.277   1.677   6.281
 6549SOL     OW20545   3.901   1.276   2.555
 6549SOL    HW120546   3.938   1.218   2.628
 6549SOL    HW220547   3.912   1.229   2.467
 6550SOL     OW20548   6.276   6.480   1.839
 6550SOL    HW120549   6.273   6.571   1.796
 6550SOL    HW220550   6.371   6.451   1.848
 6551SOL     OW20551   2.791   4.937   0.862
 6551SOL    HW120552   2.870   4.897   0.816
 6551SOL    HW220553   2.750   5.008   0.804
 6552SOL     OW20554   1.952   4.161   6.921
 6552SOL    HW120555   1.956   4.260   6.933
 6552SOL    HW220556   1.870   4.136   6.869
 6553SOL     OW20557   6.922   1.900   3.571
 6553SOL    HW120558   6.835   1.885   3.525
 6553SOL    HW220559   6.916   1.868   3.666
 6554SOL     OW20560   1.060   2.346   3.499
 6554SOL    HW120561   1.081   2.337   3.402
 6554SOL    HW220562   1.142   2.370   3.550
 6555SOL     OW20563   1.512   4.323   3.223
 6555SOL    HW120564   1.468   4.398   3.174
 6555SOL    HW220565   1.443   4.268   3.270
 6556SOL     OW20566   4.888   3.363   3.026
 6556SOL    HW120567   4.986   3.344   3.027
 6556SOL    HW220568   4.846   3.327   3.109
 6557SOL     OW20569   2.390   0.493   2.420
 6557SOL    HW120570   2.303   0.542   2.420
 6557SOL    HW220571   2.449   0.530   2.492
 6558SOL     OW20572   5.301   5.678   0.820
 6558SOL    HW120573   5.352   5.621   0.756
 6558SOL    HW220574   5.364   5.744   0.862
 6559SOL     OW20575   0.615   2.074   6.103
 6559SOL    HW120576   0.523   2.078   6.064
 6559SOL    HW220577   0.617   2.008   6.178
 6560SOL     OW20578   6.811   5.026   6.631
 6560SOL    HW120579   6.819   5.065   6.723
 6560SOL    HW220580   6.769   4.935   6.637
 6561SOL     OW20581   2.557   5.317   0.874
 6561SOL    HW120582   2.520   5.388   0.813
 6561SOL    HW220583   2.586   5.238   0.819
 6562SOL     OW20584   4.895   2.513   1.855
 6562SOL    HW120585   4.964   2.482   1.920
 6562SOL    HW220586   4.852   2.596   1.888
 6563SOL     OW20587   6.142   5.298   5.521
 6563SOL    HW120588   6.043   5.310   5.511
 6563SOL    HW220589   6.189   5.379   5.488
 6564SOL     OW20590   5.260   3.181   2.506
 6564SOL    HW120591   5.183   3.141   2.556
 6564SOL    HW220592   5.232   3.205   2.413
 6565SOL     OW20593   5.254   5.728   2.457
 6565SOL    HW120594   5.339   5.730   2.509
 6565SOL    HW220595   5.184   5.780   2.505
 6566SOL     OW20596   5.376   5.345   3.710
 6566SOL    HW120597   5.354   5.427   3.763
 6566SOL    HW220598   5.384   5.266   3.771
 6567SOL     OW20599   3.419   0.917   2.952
 6567SOL    HW120600   3.353   0.886   3.020
 6567SOL    HW220601   3.384   0.998   2.905
 6568SOL     OW20602   5.598   0.779   0.798
 6568SOL    HW120603   5.555   0.825   0.876
 6568SOL    HW220604   5.560   0.686   0.789
 6569SOL     OW20605   1.601   4.777   3.162
 6569SOL    HW120606   1.589   4.763   3.064
 6569SOL    HW220607   1.611   4.874   3.182
 6570SOL     OW20608   4.471   0.206   2.461
 6570SOL    HW120609   4.394   0.188   2.521
 6570SOL    HW220610   4.496   0.123   2.411
 6571SOL     OW20611   2.647   6.325   2.788
 6571SOL    HW120612   2.644   6.240   2.736
 6571SOL    HW220613   2.586   6.392   2.746
 6572SOL     OW20614   1.937   6.091   3.776
 6572SOL    HW120615   1.862   6.074   3.712
 6572SOL    HW220616   1.941   6.018   3.844
 6573SOL     OW20617   0.066   2.124   3.569
 6573SOL    HW120618   6.998   2.074   3.561
 6573SOL    HW220619   0.142   2.067   3.537
 6574SOL     OW20620   0.352   5.316   1.994
 6574SOL    HW120621   0.286   5.373   2.044
 6574SOL    HW220622   0.316   5.223   1.986
 6575SOL     OW20623   6.986   1.554   3.523
 6575SOL    HW120624   0.021   1.632   3.490
 6575SOL    HW220625   6.972   1.489   3.448
 6576SOL     OW20626   3.801   6.919   1.523
 6576SOL    HW120627   3.807   7.008   1.478
 6576SOL    HW220628   3.713   6.877   1.501
 6577SOL     OW20629   3.745   1.138   4.928
 6577SOL    HW120630   3.657   1.104   4.894
 6577SOL    HW220631   3.804   1.161   4.851
 6578SOL     OW20632   0.877   5.400   0.154
 6578SOL    HW120633   0.811   5.392   0.079
 6578SOL    HW220634   0.919   5.311   0.170
 6579SOL     OW20635   1.438   1.948   3.721
 6579SOL    HW120636   1.435   1.861   3.772
 6579SOL    HW220637   1.510   1.943   3.652
 6580SOL     OW20638   3.192   2.452   0.315
 6580SOL    HW120639   3.138   2.477   0.395
 6580SOL    HW220640   3.290   2.456   0.338
 6581SOL     OW20641   0.663   2.772   2.451
 6581SOL    HW120642   0.660   2.746   2.355
 6581SOL    HW220643   0.678   2.870   2.459
 6582SOL     OW20644   4.701   0.496   2.925
 6582SOL    HW120645   4.620   0.553   2.934
 6582SOL    HW220646   4.781   0.546   2.958
 6583SOL     OW20647   2.692   4.579   1.008
 6583SOL    HW120648   2.640   4.660   1.036
 6583SOL    HW220649   2.790   4.595   1.023
 6584SOL     OW20650   3.958   2.988   6.212
 6584SOL    HW120651   3.884   2.931   6.246
 6584SOL    HW220652   4.045   2.941   6.225
 6585SOL     OW20653   5.201   6.747   1.614
 6585SOL    HW120654   5.139   6.723   1.689
 6585SOL    HW220655   5.171   6.832   1.571
 6586SOL     OW20656   6.708   1.409   6.759
 6586SOL    HW120657   6.643   1.360   6.701
 6586SOL    HW220658   6.736   1.351   6.835
 6587SOL     OW20659   3.279   5.124   4.978
 6587SOL    HW120660   3.254   5.102   5.072
 6587SOL    HW220661   3.285   5.040   4.925
 6588SOL     OW20662   1.091   1.358   0.228
 6588SOL    HW120663   1.058   1.425   0.162
 6588SOL    HW220664   1.014   1.311   0.271
 6589SOL     OW20665   6.109   6.842   1.678
 6589SOL    HW120666   6.105   6.941   1.688
 6589SOL    HW220667   6.203   6.811   1.691
 6590SOL     OW20668   1.418   6.370   4.552
 6590SOL    HW120669   1.409   6.271   4.538
 6590SOL    HW220670   1.337   6.404   4.599
 6591SOL     OW20671   6.316   3.123   3.504
 6591SOL    HW120672   6.412   3.110   3.479
 6591SOL    HW220673   6.258   3.095   3.428
 6592SOL     OW20674   0.170   1.079   4.028
 6592SOL    HW120675   0.087   1.026   4.043
 6592SOL    HW220676   0.190   1.084   3.931
 6593SOL     OW20677   1.707   0.646   2.839
 6593SOL    HW120678   1.610   0.635   2.818
 6593SOL    HW220679   1.761   0.585   2.780
 6594SOL     OW20680   5.737   0.157   6.870
 6594SOL    HW120681   5.768   0.251   6.887
 6594SOL    HW220682   5.663   0.158   6.803
 6595SOL     OW20683   1.379   1.616   5.068
 6595SOL    HW120684   1.442   1.543   5.043
 6595SOL    HW220685   1.286   1.592   5.038
 6596SOL     OW20686   5.748   0.474   2.978
 6596SOL    HW120687   5.686   0.396   2.965
 6596SOL    HW220688   5.796   0.493   2.893
 6597SOL     OW20689   0.892   4.672   1.080
 6597SOL    HW120690   0.935   4.599   1.028
 6597SOL    HW220691   0.920   4.761   1.042
 6598SOL     OW20692   0.959   5.033   2.375
 6598SOL    HW120693   0.953   4.933   2.368
 6598SOL    HW220694   1.054   5.059   2.390
 6599SOL     OW20695   0.945   5.389   6.427
 6599SOL    HW120696   0.848   5.411   6.443
 6599SOL    HW220697   0.999   5.416   6.507
 6600SOL     OW20698   4.445   6.275   4.997
 6600SOL    HW120699   4.545   6.281   4.997
 6600SOL    HW220700   4.412   6.264   4.903
 6601SOL     OW20701   1.115   2.928   2.160
 6601SOL    HW120702   1.198   2.958   2.207
 6601SOL    HW220703   1.139   2.864   2.087
 6602SOL     OW20704   6.402   5.483   0.849
 6602SOL    HW120705   6.328   5.490   0.782
 6602SOL    HW220706   6.401   5.562   0.909
 6603SOL     OW20707   6.923   4.224   2.323
 6603SOL    HW120708   6.861   4.296   2.291
 6603SOL    HW220709   6.919   4.147   2.260
 6604SOL     OW20710   1.281   5.246   2.616
 6604SOL    HW120711   1.250   5.165   2.567
 6604SOL    HW220712   1.218   5.322   2.597
 6605SOL     OW20713   0.159   5.166   0.834
 6605SOL    HW120714   0.249   5.130   0.861
 6605SOL    HW220715   0.098   5.165   0.913
 6606SOL     OW20716   1.722   4.003   2.517
 6606SOL    HW120717   1.626   3.992   2.544
 6606SOL    HW220718   1.756   4.092   2.547
 6607SOL     OW20719   6.481   3.547   4.225
 6607SOL    HW120720   6.446   3.503   4.143
 6607SOL    HW220721   6.404   3.580   4.280
 6608SOL     OW20722   1.011   0.501   5.443
 6608SOL    HW120723   0.996   0.429   5.510
 6608SOL    HW220724   0.959   0.480   5.360
 6609SOL     OW20725   3.062   2.532   6.815
 6609SOL    HW120726   3.081   2.482   6.900
 6609SOL    HW220727   3.121   2.612   6.810
 6610SOL     OW20728   2.642   6.869   1.337
 6610SOL    HW120729   2.727   6.850   1.386
 6610SOL    HW220730   2.654   6.846   1.240
 6611SOL     OW20731   3.244   1.343   4.577
 6611SOL    HW120732   3.192   1.260   4.556
 6611SOL    HW220733   3.291   1.332   4.664
 6612SOL     OW20734   0.389   7.005   0.212
 6612SOL    HW120735   0.325   6.971   0.280
 6612SOL    HW220736   0.339   0.022   0.132
 6613SOL     OW20737   3.799   6.481   1.618
 6613SOL    HW120738   3.873   6.504   1.554
 6613SOL    HW220739   3.750   6.400   1.585
 6614SOL     OW20740   3.601   4.694   0.893
 6614SOL    HW120741   3.554   4.712   0.980
 6614SOL    HW220742   3.653   4.609   0.901
 6615SOL     OW20743   3.195   5.590   6.091
 6615SOL    HW120744   3.202   5.507   6.035
 6615SOL    HW220745   3.286   5.629   6.106
 6616SOL     OW20746   4.224   1.737   6.786
 6616SOL    HW120747   4.241   1.700   6.695
 6616SOL    HW220748   4.147   1.800   6.784
 6617SOL     OW20749   3.361   1.663   3.910
 6617SOL    HW120750   3.455   1.654   3.879
 6617SOL    HW220751   3.348   1.754   3.951
 6618SOL     OW20752   5.714   3.235   4.168
 6618SOL    HW120753   5.716   3.201   4.074
 6618SOL    HW220754   5.625   3.216   4.208
 6619SOL     OW20755   5.014   5.083   4.210
 6619SOL    HW120756   4.985   5.065   4.304
 6619SOL    HW220757   5.097   5.031   4.190
 6620SOL     OW20758   1.328   3.106   3.389
 6620SOL    HW120759   1.266   3.031   3.412
 6620SOL    HW220760   1.373   3.087   3.302
 6621SOL     OW20761   3.609   3.619   3.643
 6621SOL    HW120762   3.570   3.688   3.582
 6621SOL    HW220763   3.676   3.564   3.593
 6622SOL     OW20764   0.408   5.117   1.014
 6622SOL    HW120765   0.374   5.106   1.108
 6622SOL    HW220766   0.437   5.028   0.979
 6623SOL     OW20767   3.823   3.568   3.375
 6623SOL    HW120768   3.757   3.524   3.314
 6623SOL    HW220769   3.857   3.502   3.441
 6624SOL     OW20770   2.295   2.322   3.124
 6624SOL    HW120771   2.315   2.228   3.096
 6624SOL    HW220772   2.379   2.368   3.150
 6625SOL     OW20773   0.165   4.160   5.001
 6625SOL    HW120774   0.194   4.135   5.093
 6625SOL    HW220775   0.244   4.163   4.940
 6626SOL     OW20776   3.202   5.844   5.421
 6626SOL    HW120777   3.188   5.800   5.510
 6626SOL    HW220778   3.294   5.884   5.417
 6627SOL     OW20779   2.593   6.825   4.157
 6627SOL    HW120780   2.510   6.801   4.107
 6627SOL    HW220781   2.573   6.899   4.221
 6628SOL     OW20782   3.379   0.653   3.265
 6628SOL    HW120783   3.311   0.639   3.337
 6628SOL    HW220784   3.411   0.748   3.268
 6629SOL     OW20785   4.165   5.574   5.163
 6629SOL    HW120786   4.204   5.662   5.191
 6629SOL    HW220787   4.169   5.566   5.063
 6630SOL     OW20788   1.727   0.130   0.407
 6630SOL    HW120789   1.744   0.228   0.417
 6630SOL    HW220790   1.653   0.103   0.470
 6631SOL     OW20791   1.619   2.391   5.692
 6631SOL    HW120792   1.542   2.327   5.695
 6631SOL    HW220793   1.696   2.353   5.742
 6632SOL     OW20794   1.300   0.158   6.551
 6632SOL    HW120795   1.365   0.217   6.503
 6632SOL    HW220796   1.238   0.214   6.605
 6633SOL     OW20797   4.526   6.352   5.763
 6633SOL    HW120798   4.532   6.334   5.861
 6633SOL    HW220799   4.438   6.320   5.728
 6634SOL     OW20800   2.898   1.991   3.498
 6634SOL    HW120801   2.853   1.960   3.581
 6634SOL    HW220802   2.829   2.024   3.433
 6635SOL     OW20803   5.101   5.772   5.953
 6635SOL    HW120804   5.045   5.849   5.922
 6635SOL    HW220805   5.198   5.797   5.946
 6636SOL     OW20806   4.278   1.028   0.907
 6636SOL    HW120807   4.308   1.112   0.862
 6636SOL    HW220808   4.345   0.956   0.892
 6637SOL     OW20809   0.394   1.931   6.997
 6637SOL    HW120810   0.329   1.998   0.017
 6637SOL    HW220811   0.366   1.906   6.905
 6638SOL     OW20812   3.236   3.548   3.719
 6638SOL    HW120813   3.171   3.498   3.777
 6638SOL    HW220814   3.269   3.488   3.646
 6639SOL     OW20815   4.736   2.727   1.375
 6639SOL    HW120816   4.697   2.819   1.364
 6639SOL    HW220817   4.687   2.663   1.316
 6640SOL     OW20818   1.378   4.205   4.516
 6640SOL    HW120819   1.316   4.149   4.461
 6640SOL    HW220820   1.445   4.145   4.561
 6641SOL     OW20821   6.245   2.449   0.026
 6641SOL    HW120822   6.238   2.536   6.993
 6641SOL    HW220823   6.300   2.462   0.108
 6642SOL     OW20824   1.161   5.187   5.981
 6642SOL    HW120825   1.084   5.132   6.015
 6642SOL    HW220826   1.230   5.127   5.943
 6643SOL     OW20827   4.012   5.692   6.052
 6643SOL    HW120828   4.057   5.699   6.141
 6643SOL    HW220829   3.957   5.609   6.049
 6644SOL     OW20830   2.184   0.296   3.680
 6644SOL    HW120831   2.242   0.299   3.599
 6644SOL    HW220832   2.215   0.222   3.741
 6645SOL     OW20833   4.346   2.323   5.883
 6645SOL    HW120834   4.394   2.370   5.809
 6645SOL    HW220835   4.274   2.381   5.919
 6646SOL     OW20836   4.598   0.261   5.968
 6646SOL    HW120837   4.569   0.350   5.935
 6646SOL    HW220838   4.543   0.235   6.048
 6647SOL     OW20839   4.090   4.562   1.361
 6647SOL    HW120840   4.099   4.524   1.269
 6647SOL    HW220841   4.037   4.500   1.418
 6648SOL     OW20842   3.303   5.499   5.710
 6648SOL    HW120843   3.344   5.506   5.618
 6648SOL    HW220844   3.349   5.564   5.771
 6649SOL     OW20845   4.936   2.712   6.028
 6649SOL    HW120846   4.882   2.697   5.945
 6649SOL    HW220847   4.875   2.740   6.102
 6650SOL     OW20848   2.603   1.267   5.423
 6650SOL    HW120849   2.540   1.212   5.477
 6650SOL    HW220850   2.552   1.329   5.364
 6651SOL     OW20851   6.919   1.689   4.582
 6651SOL    HW120852   6.943   1.635   4.662
 6651SOL    HW220853   6.869   1.632   4.517
 6652SOL     OW20854   0.078   4.413   6.672
 6652SOL    HW120855   0.010   4.367   6.615
 6652SOL    HW220856   0.085   4.366   6.760
 6653SOL     OW20857   5.595   4.221   6.937
 6653SOL    HW120858   5.514   4.276   6.915
 6653SOL    HW220859   5.568   4.146   6.998
 6654SOL     OW20860   6.397   2.103   3.146
 6654SOL    HW120861   6.297   2.098   3.148
 6654SOL    HW220862   6.434   2.070   3.232
 6655SOL     OW20863   6.496   5.906   1.358
 6655SOL    HW120864   6.457   5.989   1.398
 6655SOL    HW220865   6.441   5.827   1.385
 6656SOL     OW20866   4.200   0.948   2.494
 6656SOL    HW120867   4.240   0.992   2.574
 6656SOL    HW220868   4.105   0.978   2.483
 6657SOL     OW20869   4.747   1.815   4.846
 6657SOL    HW120870   4.672   1.877   4.869
 6657SOL    HW220871   4.718   1.754   4.772
 6658SOL     OW20872   6.924   5.655   4.830
 6658SOL    HW120873   6.857   5.716   4.787
 6658SOL    HW220874   7.005   5.649   4.773
 6659SOL     OW20875   0.411   5.484   0.750
 6659SOL    HW120876   0.496   5.514   0.705
 6659SOL    HW220877   0.429   5.402   0.804
 6660SOL     OW20878   0.881   0.390   4.272
 6660SOL    HW120879   0.893   0.450   4.351
 6660SOL    HW220880   0.858   0.298   4.303
 6661SOL     OW20881   4.112   6.092   3.787
 6661SOL    HW120882   4.205   6.128   3.797
 6661SOL    HW220883   4.116   5.994   3.768
 6662SOL     OW20884   3.140   0.320   2.491
 6662SOL    HW120885   3.118   0.312   2.588
 6662SOL    HW220886   3.151   0.229   2.452
 6663SOL     OW20887   2.027   4.204   5.399
 6663SOL    HW120888   1.960   4.171   5.465
 6663SOL    HW220889   2.068   4.289   5.431
 6664SOL     OW20890   3.499   0.054   1.789
 6664SOL    HW120891   3.453   0.069   1.877
 6664SOL    HW220892   3.469   6.984   1.750
 6665SOL     OW20893   2.683   0.446   0.207
 6665SOL    HW120894   2.743   0.490   0.274
 6665SOL    HW220895   2.644   0.516   0.147
 6666SOL     OW20896   2.775   5.954   5.743
 6666SOL    HW120897   2.848   5.995   5.797
 6666SOL    HW220898   2.796   5.964   5.645
 6667SOL     OW20899   1.546   5.692   6.943
 6667SOL    HW120900   1.507   5.778   6.977
 6667SOL    HW220901   1.578   5.705   6.849
 6668SOL     OW20902   6.948   3.977   6.919
 6668SOL    HW120903   0.003   3.964   6.852
 6668SOL    HW220904   6.859   3.980   6.873
 6669SOL     OW20905   1.234   2.847   3.447
 6669SOL    HW120906   1.277   2.823   3.360
 6669SOL    HW220907   1.291   2.817   3.523
 6670SOL     OW20908   3.276   3.472   0.351
 6670SOL    HW120909   3.329   3.461   0.436
 6670SOL    HW220910   3.180   3.451   0.369
 6671SOL     OW20911   4.661   4.824   0.814
 6671SOL    HW120912   4.597   4.805   0.739
 6671SOL    HW220913   4.722   4.745   0.826
 6672SOL     OW20914   1.834   3.005   1.272
 6672SOL    HW120915   1.830   2.924   1.214
 6672SOL    HW220916   1.871   2.980   1.362
 6673SOL     OW20917   5.812   3.625   4.198
 6673SOL    HW120918   5.743   3.664   4.260
 6673SOL    HW220919   5.770   3.553   4.143
 6674SOL     OW20920   0.001   0.075   0.544
 6674SOL    HW120921   7.014   0.175   0.549
 6674SOL    HW220922   6.953   0.036   0.609
 6675SOL     OW20923   4.684   1.377   0.083
 6675SOL    HW120924   4.766   1.404   0.032
 6675SOL    HW220925   4.703   1.291   0.132
 6676SOL     OW20926   1.014   4.082   5.144
 6676SOL    HW120927   0.957   4.161   5.169
 6676SOL    HW220928   1.109   4.100   5.167
 6677SOL     OW20929   0.349   2.177   6.675
 6677SOL    HW120930   0.263   2.210   6.714
 6677SOL    HW220931   0.423   2.190   6.742
 6678SOL     OW20932   3.059   4.448   6.568
 6678SOL    HW120933   3.026   4.519   6.506
 6678SOL    HW220934   2.982   4.392   6.599
 6679SOL     OW20935   1.336   0.615   4.082
 6679SOL    HW120936   1.381   0.605   4.171
 6679SOL    HW220937   1.274   0.538   4.068
 6680SOL     OW20938   6.228   4.797   1.603
 6680SOL    HW120939   6.232   4.804   1.703
 6680SOL    HW220940   6.303   4.848   1.563
 6681SOL     OW20941   2.740   5.861   1.500
 6681SOL    HW120942   2.750   5.762   1.514
 6681SOL    HW220943   2.820   5.908   1.539
 6682SOL     OW20944   2.263   5.625   6.610
 6682SOL    HW120945   2.363   5.627   6.607
 6682SOL    HW220946   2.228   5.608   6.518
 6683SOL     OW20947   6.820   5.478   5.540
 6683SOL    HW120948   6.907   5.445   5.503
 6683SOL    HW220949   6.828   5.489   5.639
 6684SOL     OW20950   2.950   5.756   6.510
 6684SOL    HW120951   2.940   5.672   6.457
 6684SOL    HW220952   2.873   5.764   6.574
 6685SOL     OW20953   4.216   2.785   0.997
 6685SOL    HW120954   4.163   2.703   1.018
 6685SOL    HW220955   4.157   2.853   0.953
 6686SOL     OW20956   4.993   4.508   5.468
 6686SOL    HW120957   5.011   4.577   5.397
 6686SOL    HW220958   4.938   4.434   5.429
 6687SOL     OW20959   0.332   2.149   1.132
 6687SOL    HW120960   0.236   2.167   1.154
 6687SOL    HW220961   0.356   2.196   1.048
 6688SOL     OW20962   4.691   6.183   0.837
 6688SOL    HW120963   4.601   6.222   0.857
 6688SOL    HW220964   4.686   6.129   0.753
 6689SOL     OW20965   3.379   5.012   6.293
 6689SOL    HW120966   3.443   5.051   6.227
 6689SOL    HW220967   3.428   4.948   6.353
 6690SOL     OW20968   0.891   0.763   0.388
 6690SOL    HW120969   0.878   0.804   0.478
 6690SOL    HW220970   0.882   0.664   0.395
 6691SOL     OW20971   2.609   1.750   2.093
 6691SOL    HW120972   2.678   1.702   2.039
 6691SOL    HW220973   2.613   1.718   2.188
 6692SOL     OW20974   4.417   6.489   2.086
 6692SOL    HW120975   4.421   6.416   2.017
 6692SOL    HW220976   4.328   6.533   2.083
 6693SOL     OW20977   3.392   1.316   5.724
 6693SOL    HW120978   3.343   1.401   5.745
 6693SOL    HW220979   3.382   1.253   5.801
 6694SOL     OW20980   4.519   3.764   1.702
 6694SOL    HW120981   4.578   3.816   1.640
 6694SOL    HW220982   4.427   3.802   1.701
 6695SOL     OW20983   2.820   2.471   0.591
 6695SOL    HW120984   2.888   2.520   0.536
 6695SOL    HW220985   2.831   2.372   0.578
 6696SOL     OW20986   3.828   3.028   5.198
 6696SOL    HW120987   3.778   2.982   5.272
 6696SOL    HW220988   3.766   3.091   5.151
 6697SOL     OW20989   4.689   1.835   2.433
 6697SOL    HW120990   4.725   1.772   2.364
 6697SOL    HW220991   4.589   1.827   2.436
 6698SOL     OW20992   3.087   3.689   1.586
 6698SOL    HW120993   3.092   3.595   1.621
 6698SOL    HW220994   3.072   3.687   1.487
 6699SOL     OW20995   1.446   3.247   5.835
 6699SOL    HW120996   1.454   3.177   5.907
 6699SOL    HW220997   1.513   3.227   5.763
 6700SOL     OW20998   5.648   0.533   1.357
 6700SOL    HW120999   5.644   0.434   1.345
 6700SOL    HW221000   5.559   0.566   1.390
 6701SOL     OW21001   5.932   6.872   1.919
 6701SOL    HW121002   6.011   6.840   1.972
 6701SOL    HW221003   5.957   6.874   1.822
 6702SOL     OW21004   3.957   3.044   0.564
 6702SOL    HW121005   4.050   3.044   0.527
 6702SOL    HW221006   3.893   3.012   0.495
 6703SOL     OW21007   0.402   1.385   0.338
 6703SOL    HW121008   0.322   1.420   0.387
 6703SOL    HW221009   0.470   1.458   0.328
 6704SOL     OW21010   3.161   0.019   5.844
 6704SOL    HW121011   3.105   0.101   5.839
 6704SOL    HW221012   3.257   0.045   5.853
 6705SOL     OW21013   6.765   4.407   2.186
 6705SOL    HW121014   6.759   4.439   2.092
 6705SOL    HW221015   6.716   4.470   2.246
 6706SOL     OW21016   7.013   6.667   0.503
 6706SOL    HW121017   6.926   6.651   0.455
 6706SOL    HW221018   0.054   6.726   0.447
 6707SOL     OW21019   4.227   1.179   3.061
 6707SOL    HW121020   4.242   1.101   3.000
 6707SOL    HW221021   4.274   1.163   3.148
 6708SOL     OW21022   0.727   3.025   0.265
 6708SOL    HW121023   0.718   3.096   0.196
 6708SOL    HW221024   0.700   3.061   0.354
 6709SOL     OW21025   2.181   4.171   2.303
 6709SOL    HW121026   2.186   4.099   2.233
 6709SOL    HW221027   2.096   4.223   2.291
 6710SOL     OW21028   4.931   1.755   1.002
 6710SOL    HW121029   4.920   1.680   1.068
 6710SOL    HW221030   4.931   1.719   0.909
 6711SOL     OW21031   3.736   6.005   6.068
 6711SOL    HW121032   3.665   5.948   6.027
 6711SOL    HW221033   3.733   5.996   6.168
 6712SOL     OW21034   4.898   4.182   1.483
 6712SOL    HW121035   4.975   4.241   1.506
 6712SOL    HW221036   4.905   4.097   1.535
 6713SOL     OW21037   1.742   4.178   4.277
 6713SOL    HW121038   1.643   4.190   4.269
 6713SOL    HW221039   1.786   4.268   4.279
 6714SOL     OW21040   5.577   1.321   1.537
 6714SOL    HW121041   5.590   1.325   1.438
 6714SOL    HW221042   5.546   1.410   1.570
 6715SOL     OW21043   0.955   0.077   6.182
 6715SOL    HW121044   0.965   0.158   6.125
 6715SOL    HW221045   0.888   0.015   6.141
 6716SOL     OW21046   1.040   5.487   1.288
 6716SOL    HW121047   1.003   5.510   1.378
 6716SOL    HW221048   1.069   5.391   1.288
 6717SOL     OW21049   6.447   1.803   5.823
 6717SOL    HW121050   6.400   1.877   5.775
 6717SOL    HW221051   6.451   1.723   5.763
 6718SOL     OW21052   4.760   1.891   1.214
 6718SOL    HW121053   4.747   1.845   1.302
 6718SOL    HW221054   4.823   1.838   1.158
 6719SOL     OW21055   1.589   1.630   0.364
 6719SOL    HW121056   1.617   1.621   0.459
 6719SOL    HW221057   1.490   1.639   0.359
 6720SOL     OW21058   1.654   1.150   5.550
 6720SOL    HW121059   1.627   1.227   5.607
 6720SOL    HW221060   1.670   1.182   5.456
 6721SOL     OW21061   6.165   6.732   0.446
 6721SOL    HW121062   6.070   6.732   0.478
 6721SOL    HW221063   6.174   6.668   0.369
 6722SOL     OW21064   5.646   4.408   0.637
 6722SOL    HW121065   5.571   4.461   0.678
 6722SOL    HW221066   5.620   4.312   0.632
 6723SOL     OW21067   1.801   3.176   4.361
 6723SOL    HW121068   1.713   3.194   4.317
 6723SOL    HW221069   1.829   3.256   4.415
 6724SOL     OW21070   2.104   4.309   4.356
 6724SOL    HW121071   2.114   4.227   4.300
 6724SOL    HW221072   2.193   4.354   4.365
 6725SOL     OW21073   4.896   3.097   4.097
 6725SOL    HW121074   4.855   3.038   4.167
 6725SOL    HW221075   4.919   3.185   4.137
 6726SOL     OW21076   0.294   1.381   6.527
 6726SOL    HW121077   0.274   1.453   6.594
 6726SOL    HW221078   0.317   1.296   6.575
 6727SOL     OW21079   0.888   4.599   5.371
 6727SOL    HW121080   0.848   4.645   5.292
 6727SOL    HW221081   0.986   4.615   5.374
 6728SOL     OW21082   3.307   1.235   4.157
 6728SOL    HW121083   3.208   1.226   4.173
 6728SOL    HW221084   3.332   1.331   4.152
 6729SOL     OW21085   4.000   0.857   2.159
 6729SOL    HW121086   3.958   0.846   2.069
 6729SOL    HW221087   4.078   0.794   2.167
 6730SOL     OW21088   6.877   2.114   0.717
 6730SOL    HW121089   6.962   2.095   0.667
 6730SOL    HW221090   6.899   2.129   0.814
 6731SOL     OW21091   4.447   0.200   6.199
 6731SOL    HW121092   4.431   0.217   6.296
 6731SOL    HW221093   4.361   0.175   6.155
 6732SOL     OW21094   6.798   4.982   5.547
 6732SOL    HW121095   6.855   4.902   5.567
 6732SOL    HW221096   6.808   5.050   5.620
 6733SOL     OW21097   4.804   4.987   5.012
 6733SOL    HW121098   4.873   4.955   4.948
 6733SOL    HW221099   4.813   5.086   5.024
 6734SOL     OW21100   5.657   1.986   5.091
 6734SOL    HW121101   5.740   1.952   5.046
 6734SOL    HW221102   5.588   1.913   5.094
 6735SOL     OW21103   5.458   2.655   4.400
 6735SOL    HW121104   5.476   2.580   4.338
 6735SOL    HW221105   5.539   2.714   4.406
 6736SOL     OW21106   3.428   3.902   0.778
 6736SOL    HW121107   3.377   3.869   0.857
 6736SOL    HW221108   3.403   3.997   0.760
 6737SOL     OW21109   6.439   3.633   1.065
 6737SOL    HW121110   6.534   3.603   1.066
 6737SOL    HW221111   6.406   3.642   1.159
 6738SOL     OW21112   2.108   6.790   4.702
 6738SOL    HW121113   2.149   6.788   4.793
 6738SOL    HW221114   2.107   6.698   4.663
 6739SOL     OW21115   6.785   6.642   5.714
 6739SOL    HW121116   6.880   6.612   5.719
 6739SOL    HW221117   6.771   6.718   5.776
 6740SOL     OW21118   0.304   6.713   1.880
 6740SOL    HW121119   0.301   6.794   1.938
 6740SOL    HW221120   0.388   6.713   1.827
 6741SOL     OW21121   3.336   1.618   0.221
 6741SOL    HW121122   3.295   1.680   0.155
 6741SOL    HW221123   3.285   1.622   0.307
 6742SOL     OW21124   6.488   4.303   2.998
 6742SOL    HW121125   6.586   4.282   2.993
 6742SOL    HW221126   6.451   4.312   2.906
 6743SOL     OW21127   3.738   3.684   6.692
 6743SOL    HW121128   3.731   3.634   6.605
 6743SOL    HW221129   3.755   3.781   6.673
 6744SOL     OW21130   6.635   6.712   5.508
 6744SOL    HW121131   6.702   6.676   5.573
 6744SOL    HW221132   6.614   6.642   5.440
 6745SOL     OW21133   6.761   4.201   5.355
 6745SOL    HW121134   6.757   4.260   5.274
 6745SOL    HW221135   6.695   4.233   5.423
 6746SOL     OW21136   0.871   2.345   3.126
 6746SOL    HW121137   0.964   2.341   3.162
 6746SOL    HW221138   0.831   2.434   3.150
 6747SOL     OW21139   0.890   6.386   5.005
 6747SOL    HW121140   0.979   6.425   5.027
 6747SOL    HW221141   0.867   6.314   5.071
 6748SOL     OW21142   1.890   0.892   5.017
 6748SOL    HW121143   1.853   0.834   4.944
 6748SOL    HW221144   1.814   0.939   5.063
 6749SOL     OW21145   4.094   4.983   2.383
 6749SOL    HW121146   4.044   5.064   2.414
 6749SOL    HW221147   4.045   4.900   2.410
 6750SOL     OW21148   3.482   0.876   6.002
 6750SOL    HW121149   3.555   0.835   6.056
 6750SOL    HW221150   3.517   0.899   5.911
 6751SOL     OW21151   4.130   0.500   4.324
 6751SOL    HW121152   4.098   0.549   4.243
 6751SOL    HW221153   4.072   0.524   4.403
 6752SOL     OW21154   2.325   4.808   2.761
 6752SOL    HW121155   2.367   4.829   2.673
 6752SOL    HW221156   2.349   4.714   2.788
 6753SOL     OW21157   3.885   3.363   6.895
 6753SOL    HW121158   3.848   3.456   6.895
 6753SOL    HW221159   3.944   3.350   6.815
 6754SOL     OW21160   6.514   0.945   0.367
 6754SOL    HW121161   6.562   0.864   0.333
 6754SOL    HW221162   6.557   0.976   0.451
 6755SOL     OW21163   3.164   5.916   5.846
 6755SOL    HW121164   3.123   5.893   5.933
 6755SOL    HW221165   3.191   6.013   5.846
 6756SOL     OW21166   3.528   3.295   6.585
 6756SOL    HW121167   3.438   3.297   6.628
 6756SOL    HW221168   3.518   3.272   6.488
 6757SOL     OW21169   4.287   0.078   1.634
 6757SOL    HW121170   4.242   7.007   1.645
 6757SOL    HW221171   4.222   0.144   1.596
 6758SOL     OW21172   5.042   3.161   3.498
 6758SOL    HW121173   5.127   3.110   3.500
 6758SOL    HW221174   4.971   3.108   3.452
 6759SOL     OW21175   0.998   1.605   2.755
 6759SOL    HW121176   1.032   1.636   2.844
 6759SOL    HW221177   0.963   1.512   2.762
 6760SOL     OW21178   5.291   2.113   5.468
 6760SOL    HW121179   5.250   2.022   5.457
 6760SOL    HW221180   5.233   2.182   5.425
 6761SOL     OW21181   3.489   1.488   4.995
 6761SOL    HW121182   3.536   1.436   5.066
 6761SOL    HW221183   3.491   1.586   5.018
 6762SOL     OW21184   5.592   4.914   4.869
 6762SOL    HW121185   5.576   4.984   4.800
 6762SOL    HW221186   5.690   4.906   4.886
 6763SOL     OW21187   5.769   6.972   4.276
 6763SOL    HW121188   5.698   6.916   4.232
 6763SOL    HW221189   5.817   6.918   4.344
 6764SOL     OW21190   0.344   4.723   1.771
 6764SOL    HW121191   0.407   4.649   1.748
 6764SOL    HW221192   0.310   4.766   1.687
 6765SOL     OW21193   0.409   3.591   1.912
 6765SOL    HW121194   0.379   3.634   1.827
 6765SOL    HW221195   0.423   3.660   1.982
 6766SOL     OW21196   5.693   0.018   1.578
 6766SOL    HW121197   5.769   0.002   1.515
 6766SOL    HW221198   5.729   0.048   1.667
 6767SOL     OW21199   3.178   0.204   0.946
 6767SOL    HW121200   3.154   0.214   1.043
 6767SOL    HW221201   3.105   0.154   0.899
 6768SOL     OW21202   1.625   6.744   0.083
 6768SOL    HW121203   1.615   6.839   0.110
 6768SOL    HW221204   1.688   6.698   0.146
 6769SOL     OW21205   4.988   2.891   1.408
 6769SOL    HW121206   4.921   2.839   1.354
 6769SOL    HW221207   4.951   2.910   1.498
 6770SOL     OW21208   0.296   1.572   1.939
 6770SOL    HW121209   0.380   1.579   1.993
 6770SOL    HW221210   0.317   1.584   1.842
 6771SOL     OW21211   4.783   1.752   3.033
 6771SOL    HW121212   4.727   1.763   3.115
 6771SOL    HW221213   4.879   1.752   3.059
 6772SOL     OW21214   3.904   1.582   4.172
 6772SOL    HW121215   3.896   1.611   4.076
 6772SOL    HW221216   3.984   1.523   4.182
 6773SOL     OW21217   0.521   3.628   1.421
 6773SOL    HW121218   0.528   3.531   1.399
 6773SOL    HW221219   0.510   3.681   1.337
 6774SOL     OW21220   0.866   2.554   6.351
 6774SOL    HW121221   0.886   2.561   6.449
 6774SOL    HW221222   0.938   2.600   6.299
 6775SOL     OW21223   1.292   4.223   6.846
 6775SOL    HW121224   1.360   4.150   6.840
 6775SOL    HW221225   1.200   4.183   6.846
 6776SOL     OW21226   5.792   5.630   6.900
 6776SOL    HW121227   5.869   5.577   6.935
 6776SOL    HW221228   5.826   5.708   6.847
 6777SOL     OW21229   4.878   5.801   0.095
 6777SOL    HW121230   4.978   5.807   0.105
 6777SOL    HW221231   4.838   5.773   0.183
 6778SOL     OW21232   6.392   5.466   3.345
 6778SOL    HW121233   6.485   5.497   3.368
 6778SOL    HW221234   6.365   5.504   3.257
 6779SOL     OW21235   6.212   3.553   6.211
 6779SOL    HW121236   6.137   3.608   6.248
 6779SOL    HW221237   6.184   3.457   6.204
 6780SOL     OW21238   1.023   3.037   2.433
 6780SOL    HW121239   1.054   3.072   2.345
 6780SOL    HW221240   1.058   2.945   2.446
 6781SOL     OW21241   5.755   5.072   5.734
 6781SOL    HW121242   5.785   5.037   5.645
 6781SOL    HW221243   5.683   5.013   5.771
 6782SOL     OW21244   5.949   0.745   2.976
 6782SOL    HW121245   6.040   0.721   3.010
 6782SOL    HW221246   5.881   0.684   3.018
 6783SOL     OW21247   0.398   5.864   6.537
 6783SOL    HW121248   0.493   5.862   6.505
 6783SOL    HW221249   0.346   5.791   6.493
 6784SOL     OW21250   4.179   3.114   0.151
 6784SOL    HW121251   4.080   3.129   0.153
 6784SOL    HW221252   4.200   3.041   0.085
 6785SOL     OW21253   6.112   5.823   2.166
 6785SOL    HW121254   6.182   5.752   2.175
 6785SOL    HW221255   6.038   5.790   2.107
 6786SOL     OW21256   1.675   3.709   5.765
 6786SOL    HW121257   1.624   3.731   5.849
 6786SOL    HW221258   1.611   3.696   5.690
 6787SOL     OW21259   1.062   3.471   1.595
 6787SOL    HW121260   1.042   3.424   1.682
 6787SOL    HW221261   1.130   3.418   1.544
 6788SOL     OW21262   2.975   4.624   0.976
 6788SOL    HW121263   3.012   4.532   0.966
 6788SOL    HW221264   3.023   4.686   0.913
 6789SOL     OW21265   0.548   5.811   3.278
 6789SOL    HW121266   0.647   5.794   3.283
 6789SOL    HW221267   0.508   5.796   3.369
 6790SOL     OW21268   1.621   2.771   0.727
 6790SOL    HW121269   1.634   2.862   0.767
 6790SOL    HW221270   1.545   2.773   0.663
 6791SOL     OW21271   3.433   4.182   6.154
 6791SOL    HW121272   3.383   4.122   6.215
 6791SOL    HW221273   3.488   4.127   6.091
 6792SOL     OW21274   0.233   4.777   6.935
 6792SOL    HW121275   0.249   4.681   6.914
 6792SOL    HW221276   0.136   4.798   6.924
 6793SOL     OW21277   5.691   1.605   1.574
 6793SOL    HW121278   5.615   1.670   1.569
 6793SOL    HW221279   5.749   1.615   1.493
 6794SOL     OW21280   4.405   1.177   4.684
 6794SOL    HW121281   4.307   1.165   4.671
 6794SOL    HW221282   4.453   1.094   4.654
 6795SOL     OW21283   3.229   6.164   6.806
 6795SOL    HW121284   3.251   6.067   6.800
 6795SOL    HW221285   3.310   6.218   6.786
 6796SOL     OW21286   3.881   2.070   2.968
 6796SOL    HW121287   3.846   2.016   3.045
 6796SOL    HW221288   3.816   2.066   2.892
 6797SOL     OW21289   6.950   2.663   2.101
 6797SOL    HW121290   6.957   2.735   2.171
 6797SOL    HW221291   6.980   2.576   2.140
 6798SOL     OW21292   6.402   0.400   2.500
 6798SOL    HW121293   6.458   0.351   2.567
 6798SOL    HW221294   6.321   0.346   2.478
 6799SOL     OW21295   4.851   5.660   1.930
 6799SOL    HW121296   4.935   5.624   1.889
 6799SOL    HW221297   4.850   5.638   2.028
 6800SOL     OW21298   3.495   3.815   6.687
 6800SOL    HW121299   3.585   3.805   6.729
 6800SOL    HW221300   3.459   3.726   6.661
 6801SOL     OW21301   0.984   2.252   2.862
 6801SOL    HW121302   1.032   2.189   2.923
 6801SOL    HW221303   0.973   2.341   2.908
 6802SOL     OW21304   2.687   4.810   2.756
 6802SOL    HW121305   2.649   4.870   2.827
 6802SOL    HW221306   2.755   4.749   2.797
 6803SOL     OW21307   4.100   2.106   0.330
 6803SOL    HW121308   4.071   2.145   0.418
 6803SOL    HW221309   4.038   2.031   0.305
 6804SOL     OW21310   1.038   0.192   3.510
 6804SOL    HW121311   1.112   0.259   3.519
 6804SOL    HW221312   1.076   0.100   3.509
 6805SOL     OW21313   5.117   0.855   4.770
 6805SOL    HW121314   5.026   0.823   4.744
 6805SOL    HW221315   5.184   0.823   4.703
 6806SOL     OW21316   5.387   6.113   5.298
 6806SOL    HW121317   5.477   6.101   5.341
 6806SOL    HW221318   5.325   6.156   5.364
 6807SOL     OW21319   3.289   3.293   6.723
 6807SOL    HW121320   3.276   3.216   6.659
 6807SOL    HW221321   3.283   3.259   6.817
 6808SOL     OW21322   2.062   3.197   3.896
 6808SOL    HW121323   2.080   3.182   3.993
 6808SOL    HW221324   2.132   3.152   3.841
 6809SOL     OW21325   1.967   3.712   6.485
 6809SOL    HW121326   1.938   3.797   6.440
 6809SOL    HW221327   1.994   3.646   6.415
 6810SOL     OW21328   5.596   1.698   3.060
 6810SOL    HW121329   5.560   1.785   3.026
 6810SOL    HW221330   5.643   1.650   2.986
 6811SOL     OW21331   4.597   5.542   1.834
 6811SOL    HW121332   4.537   5.574   1.908
 6811SOL    HW221333   4.692   5.561   1.859
 6812SOL     OW21334   3.528   2.911   2.435
 6812SOL    HW121335   3.481   2.877   2.354
 6812SOL    HW221336   3.594   2.981   2.408
 6813SOL     OW21337   5.174   3.297   1.109
 6813SOL    HW121338   5.080   3.272   1.133
 6813SOL    HW221339   5.190   3.276   1.013
 6814SOL     OW21340   2.730   3.164   0.456
 6814SOL    HW121341   2.794   3.094   0.424
 6814SOL    HW221342   2.649   3.164   0.396
 6815SOL     OW21343   1.394   6.938   1.471
 6815SOL    HW121344   1.342   7.008   1.520
 6815SOL    HW221345   1.454   6.982   1.404
 6816SOL     OW21346   6.302   3.671   1.293
 6816SOL    HW121347   6.313   3.750   1.354
 6816SOL    HW221348   6.209   3.671   1.256
 6817SOL     OW21349   0.960   2.348   6.196
 6817SOL    HW121350   1.039   2.301   6.235
 6817SOL    HW221351   0.927   2.416   6.262
 6818SOL     OW21352   3.558   5.347   1.584
 6818SOL    HW121353   3.488   5.393   1.529
 6818SOL    HW221354   3.649   5.370   1.548
 6819SOL     OW21355   3.208   1.428   3.872
 6819SOL    HW121356   3.259   1.348   3.842
 6819SOL    HW221357   3.266   1.509   3.865
 6820SOL     OW21358   1.761   5.362   3.769
 6820SOL    HW121359   1.833   5.319   3.713
 6820SOL    HW221360   1.803   5.407   3.848
 6821SOL     OW21361   2.583   2.550   4.367
 6821SOL    HW121362   2.635   2.530   4.284
 6821SOL    HW221363   2.592   2.474   4.431
 6822SOL     OW21364   5.023   1.958   5.722
 6822SOL    HW121365   5.079   2.041   5.728
 6822SOL    HW221366   4.928   1.983   5.705
 6823SOL     OW21367   3.791   3.665   2.474
 6823SOL    HW121368   3.859   3.701   2.409
 6823SOL    HW221369   3.825   3.579   2.513
 6824SOL     OW21370   1.618   4.868   6.229
 6824SOL    HW121371   1.519   4.882   6.235
 6824SOL    HW221372   1.647   4.811   6.306
 6825SOL     OW21373   5.579   6.810   4.164
 6825SOL    HW121374   5.581   6.793   4.066
 6825SOL    HW221375   5.515   6.747   4.208
 6826SOL     OW21376   0.688   2.941   2.805
 6826SOL    HW121377   0.594   2.969   2.825
 6826SOL    HW221378   0.752   3.008   2.842
 6827SOL     OW21379   5.981   6.204   4.911
 6827SOL    HW121380   5.950   6.200   5.006
 6827SOL    HW221381   5.908   6.243   4.855
 6828SOL     OW21382   1.997   1.547   1.599
 6828SOL    HW121383   1.898   1.557   1.585
 6828SOL    HW221384   2.045   1.579   1.518
 6829SOL     OW21385   5.335   4.797   3.537
 6829SOL    HW121386   5.371   4.792   3.630
 6829SOL    HW221387   5.402   4.838   3.476
 6830SOL     OW21388   5.073   2.235   4.412
 6830SOL    HW121389   5.064   2.334   4.400
 6830SOL    HW221390   5.167   2.213   4.441
 6831SOL     OW21391   6.964   1.201   5.771
 6831SOL    HW121392   6.944   1.147   5.690
 6831SOL    HW221393   7.007   1.143   5.840
 6832SOL     OW21394   2.940   5.417   1.839
 6832SOL    HW121395   2.847   5.432   1.872
 6832SOL    HW221396   2.940   5.339   1.776
 6833SOL     OW21397   4.267   5.657   6.996
 6833SOL    HW121398   4.170   5.680   7.005
 6833SOL    HW221399   4.279   5.559   7.008
 6834SOL     OW21400   3.717   5.581   2.494
 6834SOL    HW121401   3.754   5.525   2.420
 6834SOL    HW221402   3.792   5.619   2.548
 6835SOL     OW21403   3.861   0.029   4.755
 6835SOL    HW121404   3.956   0.013   4.785
 6835SOL    HW221405   3.801   6.981   4.802
 6836SOL     OW21406   3.943   5.851   6.426
 6836SOL    HW121407   3.982   5.934   6.385
 6836SOL    HW221408   3.848   5.841   6.396
 6837SOL     OW21409   0.571   2.672   2.692
 6837SOL    HW121410   0.520   2.751   2.725
 6837SOL    HW221411   0.619   2.695   2.607
 6838SOL     OW21412   2.616   1.833   0.724
 6838SOL    HW121413   2.695   1.817   0.665
 6838SOL    HW221414   2.634   1.913   0.782
 6839SOL     OW21415   4.439   0.841   1.606
 6839SOL    HW121416   4.405   0.910   1.670
 6839SOL    HW221417   4.530   0.867   1.573
 6840SOL     OW21418   0.704   1.196   6.585
 6840SOL    HW121419   0.768   1.226   6.515
 6840SOL    HW221420   0.694   1.097   6.582
 6841SOL     OW21421   0.112   3.489   5.885
 6841SOL    HW121422   0.111   3.390   5.869
 6841SOL    HW221423   0.154   3.535   5.807
 6842SOL     OW21424   2.644   4.598   2.968
 6842SOL    HW121425   2.726   4.655   2.956
 6842SOL    HW221426   2.671   4.502   2.975
 6843SOL     OW21427   4.076   0.216   0.932
 6843SOL    HW121428   4.003   0.150   0.946
 6843SOL    HW221429   4.071   0.251   0.838
 6844SOL     OW21430   5.419   0.626   6.175
 6844SOL    HW121431   5.447   0.688   6.102
 6844SOL    HW221432   5.477   0.545   6.174
 6845SOL     OW21433   5.011   2.172   2.801
 6845SOL    HW121434   5.090   2.168   2.863
 6845SOL    HW221435   4.973   2.080   2.789
 6846SOL     OW21436   2.362   3.683   6.983
 6846SOL    HW121437   2.402   3.591   6.984
 6846SOL    HW221438   2.296   3.691   0.041
 6847SOL     OW21439   6.899   2.660   4.734
 6847SOL    HW121440   6.967   2.595   4.768
 6847SOL    HW221441   6.808   2.619   4.743
 6848SOL     OW21442   6.937   4.936   3.425
 6848SOL    HW121443   7.015   4.914   3.482
 6848SOL    HW221444   6.891   5.017   3.461
 6849SOL     OW21445   3.180   4.205   5.843
 6849SOL    HW121446   3.215   4.216   5.750
 6849SOL    HW221447   3.179   4.108   5.867
 6850SOL     OW21448   4.853   0.081   3.834
 6850SOL    HW121449   4.854   0.142   3.913
 6850SOL    HW221450   4.938   0.091   3.782
 6851SOL     OW21451   1.767   3.953   3.187
 6851SOL    HW121452   1.762   4.039   3.238
 6851SOL    HW221453   1.792   3.879   3.249
 6852SOL     OW21454   4.104   4.640   0.138
 6852SOL    HW121455   4.108   4.567   0.206
 6852SOL    HW221456   4.111   4.728   0.185
 6853SOL     OW21457   4.144   4.714   6.547
 6853SOL    HW121458   4.057   4.690   6.503
 6853SOL    HW221459   4.190   4.631   6.577
 6854SOL     OW21460   5.165   5.502   6.184
 6854SOL    HW121461   5.255   5.531   6.217
 6854SOL    HW221462   5.150   5.406   6.208
 6855SOL     OW21463   4.362   5.123   2.962
 6855SOL    HW121464   4.394   5.067   3.038
 6855SOL    HW221465   4.397   5.217   2.973
 6856SOL     OW21466   0.059   2.752   6.883
 6856SOL    HW121467   6.976   2.757   6.883
 6856SOL    HW221468   0.094   2.777   6.974
 6857SOL     OW21469   1.037   4.207   5.804
 6857SOL    HW121470   0.960   4.243   5.752
 6857SOL    HW221471   1.067   4.120   5.764
 6858SOL     OW21472   1.831   4.084   1.870
 6858SOL    HW121473   1.823   4.069   1.771
 6858SOL    HW221474   1.865   4.176   1.887
 6859SOL     OW21475   2.039   2.034   1.783
 6859SOL    HW121476   2.139   2.035   1.784
 6859SOL    HW221477   2.006   1.940   1.777
 6860SOL     OW21478   0.351   6.257   0.769
 6860SOL    HW121479   0.367   6.236   0.672
 6860SOL    HW221480   0.373   6.176   0.824
 6861SOL     OW21481   6.140   3.260   6.086
 6861SOL    HW121482   6.050   3.282   6.123
 6861SOL    HW221483   6.163   3.166   6.111
 6862SOL     OW21484   0.990   4.682   3.850
 6862SOL    HW121485   0.966   4.670   3.753
 6862SOL    HW221486   1.019   4.595   3.888
 6863SOL     OW21487   5.504   1.397   5.192
 6863SOL    HW121488   5.559   1.439   5.264
 6863SOL    HW221489   5.460   1.315   5.228
 6864SOL     OW21490   1.454   3.391   6.147
 6864SOL    HW121491   1.424   3.319   6.084
 6864SOL    HW221492   1.433   3.363   6.241
 6865SOL     OW21493   2.261   0.697   4.319
 6865SOL    HW121494   2.181   0.714   4.377
 6865SOL    HW221495   2.231   0.661   4.231
 6866SOL     OW21496   1.512   4.671   0.633
 6866SOL    HW121497   1.504   4.688   0.535
 6866SOL    HW221498   1.594   4.717   0.669
 6867SOL     OW21499   2.073   3.385   6.550
 6867SOL    HW121500   2.099   3.295   6.515
 6867SOL    HW221501   2.104   3.395   6.645
 6868SOL     OW21502   3.413   5.275   3.458
 6868SOL    HW121503   3.414   5.188   3.409
 6868SOL    HW221504   3.319   5.308   3.466
 6869SOL     OW21505   2.579   0.856   5.743
 6869SOL    HW121506   2.655   0.917   5.764
 6869SOL    HW221507   2.509   0.864   5.814
 6870SOL     OW21508   5.336   1.984   6.968
 6870SOL    HW121509   5.345   1.947   0.043
 6870SOL    HW221510   5.309   2.080   6.973
 6871SOL     OW21511   6.809   3.154   2.270
 6871SOL    HW121512   6.869   3.146   2.190
 6871SOL    HW221513   6.797   3.251   2.293
 6872SOL     OW21514   1.842   4.331   0.913
 6872SOL    HW121515   1.829   4.358   1.008
 6872SOL    HW221516   1.757   4.342   0.862
 6873SOL     OW21517   0.639   4.370   2.984
 6873SOL    HW121518   0.728   4.332   2.960
 6873SOL    HW221519   0.566   4.313   2.945
 6874SOL     OW21520   4.621   6.361   2.757
 6874SOL    HW121521   4.586   6.374   2.850
 6874SOL    HW221522   4.573   6.422   2.695
 6875SOL     OW21523   2.672   1.054   0.487
 6875SOL    HW121524   2.625   1.095   0.409
 6875SOL    HW221525   2.768   1.040   0.464
 6876SOL     OW21526   5.526   5.374   3.330
 6876SOL    HW121527   5.595   5.413   3.269
 6876SOL    HW221528   5.571   5.338   3.412
 6877SOL     OW21529   0.732   4.095   1.944
 6877SOL    HW121530   0.743   4.124   1.849
 6877SOL    HW221531   0.645   4.048   1.954
 6878SOL     OW21532   1.822   0.738   4.738
 6878SOL    HW121533   1.828   0.652   4.688
 6878SOL    HW221534   1.802   0.812   4.673
 6879SOL     OW21535   1.306   1.898   1.146
 6879SOL    HW121536   1.371   1.856   1.083
 6879SOL    HW221537   1.274   1.985   1.108
 6880SOL     OW21538   1.456   5.864   0.323
 6880SOL    HW121539   1.475   5.962   0.318
 6880SOL    HW221540   1.531   5.814   0.281
 6881SOL     OW21541   6.835   3.486   0.426
 6881SOL    HW121542   6.888   3.498   0.510
 6881SOL    HW221543   6.812   3.389   0.415
 6882SOL     OW21544   3.238   6.126   0.306
 6882SOL    HW121545   3.232   6.188   0.384
 6882SOL    HW221546   3.275   6.038   0.337
 6883SOL     OW21547   5.398   0.641   1.453
 6883SOL    HW121548   5.310   0.665   1.411
 6883SOL    HW221549   5.383   0.571   1.523
 6884SOL     OW21550   2.085   4.714   3.396
 6884SOL    HW121551   2.090   4.730   3.297
 6884SOL    HW221552   2.003   4.661   3.417
 6885SOL     OW21553   5.976   4.488   5.081
 6885SOL    HW121554   5.943   4.506   5.173
 6885SOL    HW221555   5.899   4.484   5.018
 6886SOL     OW21556   5.358   3.270   0.154
 6886SOL    HW121557   5.359   3.293   0.252
 6886SOL    HW221558   5.349   3.171   0.144
 6887SOL     OW21559   5.680   5.902   5.858
 6887SOL    HW121560   5.749   5.975   5.865
 6887SOL    HW221561   5.713   5.831   5.796
 6888SOL     OW21562   6.209   4.166   0.278
 6888SOL    HW121563   6.187   4.130   0.187
 6888SOL    HW221564   6.130   4.157   0.338
 6889SOL     OW21565   0.230   1.856   5.474
 6889SOL    HW121566   0.257   1.813   5.561
 6889SOL    HW221567   0.311   1.873   5.419
 6890SOL     OW21568   4.849   4.578   3.651
 6890SOL    HW121569   4.943   4.582   3.684
 6890SOL    HW221570   4.848   4.574   3.551
 6891SOL     OW21571   1.439   1.684   1.026
 6891SOL    HW121572   1.523   1.739   1.024
 6891SOL    HW221573   1.453   1.601   0.972
 6892SOL     OW21574   3.001   0.833   4.860
 6892SOL    HW121575   2.989   0.743   4.900
 6892SOL    HW221576   2.965   0.834   4.767
 6893SOL     OW21577   6.164   2.949   0.318
 6893SOL    HW121578   6.110   2.916   0.240
 6893SOL    HW221579   6.102   2.982   0.389
 6894SOL     OW21580   5.793   4.777   0.282
 6894SOL    HW121581   5.874   4.722   0.297
 6894SOL    HW221582   5.781   4.793   0.183
 6895SOL     OW21583   0.808   5.967   2.373
 6895SOL    HW121584   0.752   5.978   2.291
 6895SOL    HW221585   0.785   6.038   2.439
 6896SOL     OW21586   4.736   1.492   5.734
 6896SOL    HW121587   4.764   1.409   5.783
 6896SOL    HW221588   4.770   1.489   5.640
 6897SOL     OW21589   4.363   2.687   5.296
 6897SOL    HW121590   4.300   2.610   5.281
 6897SOL    HW221591   4.423   2.697   5.216
 6898SOL     OW21592   1.611   6.718   1.380
 6898SOL    HW121593   1.517   6.730   1.350
 6898SOL    HW221594   1.670   6.704   1.300
 6899SOL     OW21595   5.780   6.163   2.546
 6899SOL    HW121596   5.826   6.236   2.596
 6899SOL    HW221597   5.733   6.201   2.467
 6900SOL     OW21598   6.475   3.473   4.813
 6900SOL    HW121599   6.570   3.505   4.814
 6900SOL    HW221600   6.420   3.534   4.870
 6901SOL     OW21601   5.611   5.116   6.031
 6901SOL    HW121602   5.601   5.215   6.017
 6901SOL    HW221603   5.525   5.071   6.009
 6902SOL     OW21604   0.616   5.774   5.688
 6902SOL    HW121605   0.691   5.807   5.631
 6902SOL    HW221606   0.637   5.791   5.785
 6903SOL     OW21607   1.524   6.230   5.044
 6903SOL    HW121608   1.437   6.217   5.091
 6903SOL    HW221609   1.510   6.228   4.945
 6904SOL     OW21610   0.278   0.456   5.866
 6904SOL    HW121611   0.200   0.399   5.840
 6904SOL    HW221612   0.351   0.445   5.799
 6905SOL     OW21613   5.021   6.115   5.730
 6905SOL    HW121614   4.969   6.159   5.656
 6905SOL    HW221615   4.966   6.042   5.770
 6906SOL     OW21616   2.629   0.636   3.744
 6906SOL    HW121617   2.590   0.544   3.736
 6906SOL    HW221618   2.557   0.704   3.734
 6907SOL     OW21619   5.978   1.896   0.679
 6907SOL    HW121620   5.901   1.857   0.730
 6907SOL    HW221621   6.045   1.932   0.744
 6908SOL     OW21622   3.666   5.403   0.574
 6908SOL    HW121623   3.695   5.321   0.524
 6908SOL    HW221624   3.675   5.386   0.673
 6909SOL     OW21625   5.391   4.661   2.540
 6909SOL    HW121626   5.447   4.579   2.526
 6909SOL    HW221627   5.423   4.710   2.621
 6910SOL     OW21628   0.939   2.512   2.747
 6910SOL    HW121629   0.841   2.494   2.752
 6910SOL    HW221630   0.989   2.426   2.744
 6911SOL     OW21631   2.782   6.625   5.617
 6911SOL    HW121632   2.836   6.677   5.684
 6911SOL    HW221633   2.717   6.687   5.572
 6912SOL     OW21634   2.935   4.081   6.784
 6912SOL    HW121635   2.872   4.113   6.855
 6912SOL    HW221636   2.920   3.983   6.768
 6913SOL     OW21637   4.639   5.819   5.941
 6913SOL    HW121638   4.620   5.730   5.982
 6913SOL    HW221639   4.583   5.831   5.859
 6914SOL     OW21640   6.027   2.234   2.047
 6914SOL    HW121641   6.080   2.286   2.114
 6914SOL    HW221642   5.944   2.199   2.090
 6915SOL     OW21643   7.004   3.429   3.434
 6915SOL    HW121644   0.074   3.388   3.463
 6915SOL    HW221645   6.939   3.357   3.413
 6916SOL     OW21646   4.791   6.393   5.673
 6916SOL    HW121647   4.836   6.420   5.758
 6916SOL    HW221648   4.694   6.377   5.691
 6917SOL     OW21649   3.356   6.000   2.000
 6917SOL    HW121650   3.319   5.966   2.086
 6917SOL    HW221651   3.453   5.980   1.994
 6918SOL     OW21652   2.252   3.517   0.434
 6918SOL    HW121653   2.186   3.500   0.361
 6918SOL    HW221654   2.207   3.566   0.509
 6919SOL     OW21655   6.165   6.133   3.245
 6919SOL    HW121656   6.228   6.066   3.284
 6919SOL    HW221657   6.216   6.196   3.187
 6920SOL     OW21658   6.594   1.907   5.310
 6920SOL    HW121659   6.692   1.888   5.319
 6920SOL    HW221660   6.561   1.873   5.222
 6921SOL     OW21661   4.319   0.074   4.032
 6921SOL    HW121662   4.384   0.148   4.050
 6921SOL    HW221663   4.346   0.025   3.949
 6922SOL     OW21664   2.854   5.278   6.784
 6922SOL    HW121665   2.793   5.239   6.715
 6922SOL    HW221666   2.817   5.258   6.876
 6923SOL     OW21667   5.310   0.127   2.644
 6923SOL    HW121668   5.263   0.044   2.615
 6923SOL    HW221669   5.254   0.207   2.621
 6924SOL     OW21670   3.287   5.701   1.773
 6924SOL    HW121671   3.239   5.624   1.731
 6924SOL    HW221672   3.250   5.786   1.738
 6925SOL     OW21673   6.050   6.572   4.714
 6925SOL    HW121674   6.018   6.647   4.656
 6925SOL    HW221675   6.062   6.606   4.808
 6926SOL     OW21676   2.891   2.227   0.526
 6926SOL    HW121677   2.872   2.200   0.432
 6926SOL    HW221678   2.989   2.237   0.539
 6927SOL     OW21679   3.666   0.444   0.249
 6927SOL    HW121680   3.749   0.390   0.262
 6927SOL    HW221681   3.593   0.408   0.308
 6928SOL     OW21682   3.635   5.144   6.922
 6928SOL    HW121683   3.666   5.220   6.865
 6928SOL    HW221684   3.578   5.179   6.997
 6929SOL     OW21685   4.889   4.867   2.430
 6929SOL    HW121686   4.817   4.869   2.499
 6929SOL    HW221687   4.925   4.959   2.416
 6930SOL     OW21688   1.025   6.499   1.610
 6930SOL    HW121689   1.075   6.488   1.524
 6930SOL    HW221690   1.085   6.477   1.687
 6931SOL     OW21691   3.064   3.581   0.999
 6931SOL    HW121692   3.041   3.560   1.094
 6931SOL    HW221693   3.089   3.497   0.951
 6932SOL     OW21694   4.008   0.298   6.294
 6932SOL    HW121695   3.909   0.288   6.285
 6932SOL    HW221696   4.031   0.392   6.319
 6933SOL     OW21697   2.979   5.770   6.003
 6933SOL    HW121698   2.914   5.740   5.933
 6933SOL    HW221699   3.023   5.689   6.044
 6934SOL     OW21700   4.875   5.022   0.068
 6934SOL    HW121701   4.899   4.936   0.113
 6934SOL    HW221702   4.950   5.051   0.008
 6935SOL     OW21703   3.887   6.252   1.856
 6935SOL    HW121704   3.866   6.314   1.931
 6935SOL    HW221705   3.844   6.286   1.772
 6936SOL     OW21706   0.831   1.665   5.954
 6936SOL    HW121707   0.886   1.699   5.878
 6936SOL    HW221708   0.878   1.587   5.996
 6937SOL     OW21709   5.981   5.295   0.513
 6937SOL    HW121710   5.971   5.323   0.417
 6937SOL    HW221711   5.898   5.247   0.542
 6938SOL     OW21712   2.925   0.798   4.612
 6938SOL    HW121713   2.855   0.857   4.570
 6938SOL    HW221714   2.907   0.703   4.586
 6939SOL     OW21715   5.678   3.704   3.665
 6939SOL    HW121716   5.758   3.736   3.716
 6939SOL    HW221717   5.609   3.670   3.728
 6940SOL     OW21718   2.420   6.465   0.899
 6940SOL    HW121719   2.478   6.509   0.830
 6940SOL    HW221720   2.345   6.526   0.924
 6941SOL     OW21721   3.707   2.972   2.661
 6941SOL    HW121722   3.710   2.915   2.579
 6941SOL    HW221723   3.771   3.049   2.651
 6942SOL     OW21724   6.526   5.069   2.715
 6942SOL    HW121725   6.559   5.065   2.621
 6942SOL    HW221726   6.477   5.155   2.730
 6943SOL     OW21727   4.661   5.043   6.217
 6943SOL    HW121728   4.596   5.016   6.146
 6943SOL    HW221729   4.737   4.979   6.220
 6944SOL     OW21730   1.163   4.723   5.340
 6944SOL    HW121731   1.176   4.713   5.241
 6944SOL    HW221732   1.222   4.797   5.374
 6945SOL     OW21733   5.463   2.076   1.116
 6945SOL    HW121734   5.444   1.983   1.085
 6945SOL    HW221735   5.561   2.089   1.127
 6946SOL     OW21736   5.135   6.313   2.651
 6946SOL    HW121737   5.198   6.386   2.680
 6946SOL    HW221738   5.049   6.322   2.700
 6947SOL     OW21739   6.416   4.387   5.157
 6947SOL    HW121740   6.464   4.300   5.144
 6947SOL    HW221741   6.471   4.462   5.120
 6948SOL     OW21742   6.865   4.340   6.566
 6948SOL    HW121743   6.911   4.257   6.536
 6948SOL    HW221744   6.819   4.324   6.653
 6949SOL     OW21745   2.934   1.312   2.769
 6949SOL    HW121746   2.849   1.337   2.723
 6949SOL    HW221747   2.947   1.371   2.849
 6950SOL     OW21748   1.263   1.124   3.564
 6950SOL    HW121749   1.362   1.112   3.555
 6950SOL    HW221750   1.218   1.035   3.556
 6951SOL     OW21751   1.336   3.773   6.726
 6951SOL    HW121752   1.418   3.795   6.672
 6951SOL    HW221753   1.263   3.836   6.701
 6952SOL     OW21754   4.974   5.450   3.529
 6952SOL    HW121755   4.986   5.545   3.502
 6952SOL    HW221756   4.879   5.434   3.557
 6953SOL     OW21757   6.320   1.241   1.424
 6953SOL    HW121758   6.316   1.144   1.448
 6953SOL    HW221759   6.378   1.254   1.344
 6954SOL     OW21760   6.875   4.335   6.061
 6954SOL    HW121761   6.845   4.240   6.064
 6954SOL    HW221762   6.848   4.381   6.146
 6955SOL     OW21763   4.923   5.399   2.850
 6955SOL    HW121764   4.940   5.462   2.925
 6955SOL    HW221765   4.929   5.448   2.763
 6956SOL     OW21766   5.266   5.342   1.730
 6956SOL    HW121767   5.236   5.272   1.664
 6956SOL    HW221768   5.285   5.299   1.818
 6957SOL     OW21769   6.040   5.260   5.177
 6957SOL    HW121770   6.055   5.166   5.206
 6957SOL    HW221771   6.125   5.312   5.185
 6958SOL     OW21772   3.486   3.210   2.641
 6958SOL    HW121773   3.555   3.139   2.656
 6958SOL    HW221774   3.530   3.300   2.640
 6959SOL     OW21775   1.640   4.011   2.871
 6959SOL    HW121776   1.593   3.946   2.930
 6959SOL    HW221777   1.739   4.005   2.887
 6960SOL     OW21778   5.048   4.773   1.407
 6960SOL    HW121779   5.052   4.866   1.371
 6960SOL    HW221780   4.971   4.725   1.365
 6961SOL     OW21781   4.697   2.916   5.508
 6961SOL    HW121782   4.776   2.949   5.559
 6961SOL    HW221783   4.723   2.835   5.456
 6962SOL     OW21784   2.713   6.074   7.017
 6962SOL    HW121785   2.791   6.035   6.969
 6962SOL    HW221786   2.744   6.123   0.081
 6963SOL     OW21787   0.222   6.389   6.788
 6963SOL    HW121788   0.294   6.456   6.805
 6963SOL    HW221789   0.162   6.384   6.867
 6964SOL     OW21790   2.008   1.712   4.963
 6964SOL    HW121791   2.064   1.646   4.913
 6964SOL    HW221792   1.936   1.663   5.013
 6965SOL     OW21793   1.889   1.705   0.029
 6965SOL    HW121794   1.856   1.612   0.010
 6965SOL    HW221795   1.899   1.716   0.128
 6966SOL     OW21796   1.366   6.568   1.041
 6966SOL    HW121797   1.334   6.638   1.106
 6966SOL    HW221798   1.344   6.477   1.076
 6967SOL     OW21799   3.552   0.690   6.894
 6967SOL    HW121800   3.593   0.777   6.920
 6967SOL    HW221801   3.455   0.690   6.920
 6968SOL     OW21802   3.223   0.488   3.112
 6968SOL    HW121803   3.218   0.501   3.013
 6968SOL    HW221804   3.296   0.545   3.150
 6969SOL     OW21805   1.754   2.664   1.629
 6969SOL    HW121806   1.761   2.690   1.725
 6969SOL    HW221807   1.715   2.740   1.577
 6970SOL     OW21808   3.501   5.701   5.771
 6970SOL    HW121809   3.490   5.793   5.735
 6970SOL    HW221810   3.560   5.648   5.710
 6971SOL     OW21811   5.838   3.998   0.019
 6971SOL    HW121812   5.756   3.942   0.012
 6971SOL    HW221813   5.912   3.956   6.984
 6972SOL     OW21814   5.893   3.848   1.525
 6972SOL    HW121815   5.868   3.805   1.438
 6972SOL    HW221816   5.928   3.940   1.508
 6973SOL     OW21817   0.727   1.283   3.036
 6973SOL    HW121818   0.629   1.287   3.055
 6973SOL    HW221819   0.778   1.331   3.108
 6974SOL     OW21820   3.933   3.188   3.071
 6974SOL    HW121821   3.889   3.272   3.103
 6974SOL    HW221822   3.895   3.110   3.121
 6975SOL     OW21823   3.117   5.465   4.395
 6975SOL    HW121824   3.042   5.494   4.454
 6975SOL    HW221825   3.099   5.493   4.301
 6976SOL     OW21826   4.410   5.265   6.057
 6976SOL    HW121827   4.509   5.280   6.046
 6976SOL    HW221828   4.361   5.347   6.030
 6977SOL     OW21829   4.989   4.559   2.256
 6977SOL    HW121830   4.973   4.648   2.299
 6977SOL    HW221831   5.071   4.564   2.198
 6978SOL     OW21832   0.791   3.533   0.578
 6978SOL    HW121833   0.793   3.463   0.506
 6978SOL    HW221834   0.698   3.538   0.616
 6979SOL     OW21835   1.119   3.735   2.609
 6979SOL    HW121836   1.063   3.723   2.527
 6979SOL    HW221837   1.099   3.663   2.675
 6980SOL     OW21838   2.430   5.057   3.253
 6980SOL    HW121839   2.352   5.119   3.244
 6980SOL    HW221840   2.411   4.972   3.204
 6981SOL     OW21841   4.459   3.049   6.646
 6981SOL    HW121842   4.528   3.058   6.574
 6981SOL    HW221843   4.505   3.051   6.735
 6982SOL     OW21844   0.389   0.631   1.724
 6982SOL    HW121845   0.301   0.627   1.677
 6982SOL    HW221846   0.409   0.542   1.765
 6983SOL     OW21847   6.521   0.187   4.235
 6983SOL    HW121848   6.548   0.273   4.193
 6983SOL    HW221849   6.452   0.142   4.178
 6984SOL     OW21850   1.425   3.607   3.134
 6984SOL    HW121851   1.385   3.600   3.225
 6984SOL    HW221852   1.454   3.516   3.103
 6985SOL     OW21853   5.066   2.991   0.234
 6985SOL    HW121854   5.041   2.944   0.318
 6985SOL    HW221855   5.017   2.949   0.157
 6986SOL     OW21856   4.509   5.163   5.600
 6986SOL    HW121857   4.548   5.224   5.531
 6986SOL    HW221858   4.569   5.163   5.681
 6987SOL     OW21859   6.918   1.056   6.665
 6987SOL    HW121860   6.822   1.040   6.641
 6987SOL    HW221861   6.941   1.151   6.647
 6988SOL     OW21862   2.472   1.573   6.670
 6988SOL    HW121863   2.430   1.556   6.580
 6988SOL    HW221864   2.455   1.495   6.729
 6989SOL     OW21865   0.624   4.022   2.580
 6989SOL    HW121866   0.596   3.976   2.496
 6989SOL    HW221867   0.623   4.121   2.565
 6990SOL     OW21868   3.845   3.645   6.285
 6990SOL    HW121869   3.838   3.594   6.200
 6990SOL    HW221870   3.755   3.682   6.310
 6991SOL     OW21871   5.645   3.562   2.931
 6991SOL    HW121872   5.715   3.527   2.869
 6991SOL    HW221873   5.610   3.488   2.988
 6992SOL     OW21874   1.455   4.685   6.801
 6992SOL    HW121875   1.525   4.755   6.812
 6992SOL    HW221876   1.429   4.678   6.705
 6993SOL     OW21877   3.757   2.254   1.598
 6993SOL    HW121878   3.731   2.289   1.688
 6993SOL    HW221879   3.817   2.319   1.552
 6994SOL     OW21880   2.718   1.343   3.230
 6994SOL    HW121881   2.720   1.434   3.270
 6994SOL    HW221882   2.810   1.320   3.196
 6995SOL     OW21883   0.259   4.301   0.731
 6995SOL    HW121884   0.264   4.400   0.729
 6995SOL    HW221885   0.341   4.263   0.686
 6996SOL     OW21886   0.908   1.242   6.393
 6996SOL    HW121887   0.881   1.226   6.299
 6996SOL    HW221888   0.963   1.165   6.426
 6997SOL     OW21889   6.202   6.349   6.088
 6997SOL    HW121890   6.170   6.274   6.030
 6997SOL    HW221891   6.212   6.316   6.182
 6998SOL     OW21892   0.093   0.350   0.556
 6998SOL    HW121893   0.025   0.419   0.580
 6998SOL    HW221894   0.175   0.364   0.611
 6999SOL     OW21895   6.497   2.862   6.756
 6999SOL    HW121896   6.579   2.902   6.796
 6999SOL    HW221897   6.474   2.911   6.671
 7000SOL     OW21898   0.479   5.842   3.544
 7000SOL    HW121899   0.476   5.809   3.638
 7000SOL    HW221900   0.484   5.942   3.543
 7001SOL     OW21901   6.808   1.556   4.360
 7001SOL    HW121902   6.714   1.557   4.392
 7001SOL    HW221903   6.815   1.600   4.271
 7002SOL     OW21904   0.977   4.860   2.680
 7002SOL    HW121905   1.073   4.879   2.662
 7002SOL    HW221906   0.920   4.909   2.614
 7003SOL     OW21907   0.661   4.870   6.705
 7003SOL    HW121908   0.746   4.816   6.712
 7003SOL    HW221909   0.583   4.807   6.705
 7004SOL     OW21910   1.859   6.622   6.493
 7004SOL    HW121911   1.766   6.659   6.498
 7004SOL    HW221912   1.923   6.694   6.466
 7005SOL     OW21913   1.356   5.570   0.360
 7005SOL    HW121914   1.359   5.609   0.268
 7005SOL    HW221915   1.284   5.500   0.364
 7006SOL     OW21916   0.352   0.301   3.514
 7006SOL    HW121917   0.370   0.384   3.462
 7006SOL    HW221918   0.399   0.224   3.471
 7007SOL     OW21919   1.961   0.566   6.275
 7007SOL    HW121920   1.924   0.501   6.341
 7007SOL    HW221921   2.055   0.541   6.252
 7008SOL     OW21922   5.211   3.392   3.640
 7008SOL    HW121923   5.236   3.299   3.669
 7008SOL    HW221924   5.112   3.401   3.639
 7009SOL     OW21925   4.979   5.572   2.199
 7009SOL    HW121926   4.938   5.497   2.146
 7009SOL    HW221927   4.922   5.591   2.279
 7010SOL     OW21928   5.030   3.066   2.594
 7010SOL    HW121929   4.971   3.099   2.668
 7010SOL    HW221930   5.015   2.969   2.579
 7011SOL     OW21931   2.581   6.655   6.107
 7011SOL    HW121932   2.506   6.588   6.115
 7011SOL    HW221933   2.586   6.689   6.013
 7012SOL     OW21934   7.007   3.444   0.648
 7012SOL    HW121935   7.015   3.361   0.702
 7012SOL    HW221936   0.027   3.522   0.699
 7013SOL     OW21937   3.424   2.711   0.063
 7013SOL    HW121938   3.455   2.685   0.155
 7013SOL    HW221939   3.325   2.698   0.057
 7014SOL     OW21940   6.079   3.290   0.353
 7014SOL    HW121941   6.033   3.209   0.391
 7014SOL    HW221942   6.140   3.262   0.279
 7015SOL     OW21943   6.404   6.131   1.452
 7015SOL    HW121944   6.441   6.185   1.377
 7015SOL    HW221945   6.319   6.173   1.485
 7016SOL     OW21946   3.233   4.826   1.235
 7016SOL    HW121947   3.275   4.867   1.316
 7016SOL    HW221948   3.147   4.782   1.261
 7017SOL     OW21949   6.048   4.726   5.898
 7017SOL    HW121950   6.126   4.732   5.960
 7017SOL    HW221951   6.027   4.817   5.863
 7018SOL     OW21952   4.976   3.753   5.186
 7018SOL    HW121953   4.925   3.759   5.272
 7018SOL    HW221954   4.924   3.702   5.119
 7019SOL     OW21955   3.811   5.356   2.229
 7019SOL    HW121956   3.892   5.378   2.176
 7019SOL    HW221957   3.729   5.383   2.178
 7020SOL     OW21958   0.917   1.863   6.380
 7020SOL    HW121959   0.996   1.804   6.365
 7020SOL    HW221960   0.884   1.897   6.292
 7021SOL     OW21961   0.931   1.575   4.769
 7021SOL    HW121962   0.998   1.523   4.716
 7021SOL    HW221963   0.858   1.606   4.709
 7022SOL     OW21964   2.451   3.689   0.842
 7022SOL    HW121965   2.451   3.718   0.747
 7022SOL    HW221966   2.524   3.623   0.858
 7023SOL     OW21967   0.437   1.666   0.595
 7023SOL    HW121968   0.506   1.594   0.586
 7023SOL    HW221969   0.483   1.754   0.609
 7024SOL     OW21970   3.262   4.105   5.164
 7024SOL    HW121971   3.184   4.147   5.211
 7024SOL    HW221972   3.266   4.138   5.070
 7025SOL     OW21973   2.883   0.694   1.357
 7025SOL    HW121974   2.977   0.674   1.331
 7025SOL    HW221975   2.822   0.666   1.283
 7026SOL     OW21976   3.273   1.983   1.122
 7026SOL    HW121977   3.285   1.912   1.191
 7026SOL    HW221978   3.266   2.072   1.168
 7027SOL     OW21979   3.213   4.860   1.999
 7027SOL    HW121980   3.257   4.781   1.955
 7027SOL    HW221981   3.114   4.846   2.001
 7028SOL     OW21982   3.516   0.452   3.559
 7028SOL    HW121983   3.473   0.542   3.571
 7028SOL    HW221984   3.533   0.412   3.649
 7029SOL     OW21985   3.539   3.830   3.520
 7029SOL    HW121986   3.571   3.832   3.425
 7029SOL    HW221987   3.565   3.916   3.565
 7030SOL     OW21988   6.214   6.970   4.876
 7030SOL    HW121989   6.139   7.005   4.932
 7030SOL    HW221990   6.271   0.028   4.846
 7031SOL     OW21991   4.599   6.011   0.637
 7031SOL    HW121992   4.511   5.976   0.669
 7031SOL    HW221993   4.588   6.053   0.547
 7032SOL     OW21994   4.346   5.017   4.487
 7032SOL    HW121995   4.405   4.982   4.414
 7032SOL    HW221996   4.390   5.004   4.576
 7033SOL     OW21997   1.744   1.672   5.615
 7033SOL    HW121998   1.717   1.769   5.614
 7033SOL    HW221999   1.663   1.615   5.633
 7034SOL     OW22000   6.203   1.302   2.197
 7034SOL    HW122001   6.266   1.366   2.241
 7034SOL    HW222002   6.250   1.215   2.180
 7035SOL     OW22003   2.775   1.708   1.780
 7035SOL    HW122004   2.809   1.789   1.731
 7035SOL    HW222005   2.810   1.709   1.874
 7036SOL     OW22006   5.899   1.424   1.666
 7036SOL    HW122007   5.835   1.500   1.651
 7036SOL    HW222008   5.935   1.428   1.759
 7037SOL     OW22009   1.721   0.220   6.289
 7037SOL    HW122010   1.748   0.218   6.192
 7037SOL    HW222011   1.796   0.183   6.344
 7038SOL     OW22012   0.692   4.789   0.663
 7038SOL    HW122013   0.659   4.762   0.573
 7038SOL    HW222014   0.781   4.834   0.654
 7039SOL     OW22015   6.810   0.045   1.394
 7039SOL    HW122016   6.769   7.004   1.465
 7039SOL    HW222017   6.806   7.015   1.306
 7040SOL     OW22018   5.754   2.232   5.097
 7040SOL    HW122019   5.839   2.212   5.049
 7040SOL    HW222020   5.695   2.151   5.096
 7041SOL     OW22021   1.341   0.204   3.626
 7041SOL    HW122022   1.398   0.164   3.554
 7041SOL    HW222023   1.294   0.130   3.675
 7042SOL     OW22024   5.942   6.032   5.409
 7042SOL    HW122025   5.982   5.949   5.370
 7042SOL    HW222026   6.004   6.069   5.478
 7043SOL     OW22027   1.617   5.805   0.990
 7043SOL    HW122028   1.685   5.851   0.933
 7043SOL    HW222029   1.587   5.866   1.063
 7044SOL     OW22030   4.351   6.041   5.111
 7044SOL    HW122031   4.403   6.113   5.065
 7044SOL    HW222032   4.291   6.082   5.179
 7045SOL     OW22033   5.887   5.709   1.694
 7045SOL    HW122034   5.899   5.691   1.792
 7045SOL    HW222035   5.797   5.678   1.666
 7046SOL     OW22036   2.158   1.787   3.252
 7046SOL    HW122037   2.214   1.870   3.253
 7046SOL    HW222038   2.075   1.804   3.199
 7047SOL     OW22039   1.114   6.949   0.892
 7047SOL    HW122040   1.036   7.011   0.898
 7047SOL    HW222041   1.174   6.964   0.970
 7048SOL     OW22042   0.737   6.363   3.708
 7048SOL    HW122043   0.756   6.456   3.677
 7048SOL    HW222044   0.785   6.298   3.649
 7049SOL     OW22045   3.530   1.567   4.428
 7049SOL    HW122046   3.455   1.595   4.487
 7049SOL    HW222047   3.493   1.530   4.342
 7050SOL     OW22048   3.836   4.125   0.435
 7050SOL    HW122049   3.799   4.043   0.393
 7050SOL    HW222050   3.934   4.112   0.453
 7051SOL     OW22051   1.384   2.366   1.853
 7051SOL    HW122052   1.310   2.391   1.790
 7051SOL    HW222053   1.391   2.266   1.858
 7052SOL     OW22054   4.846   2.507   2.627
 7052SOL    HW122055   4.883   2.447   2.556
 7052SOL    HW222056   4.841   2.457   2.714
 7053SOL     OW22057   1.288   4.856   3.481
 7053SOL    HW122058   1.325   4.815   3.398
 7053SOL    HW222059   1.364   4.891   3.536
 7054SOL     OW22060   5.336   0.025   6.932
 7054SOL    HW122061   5.315   7.008   0.007
 7054SOL    HW222062   5.306   0.119   6.924
 7055SOL     OW22063   2.436   0.083   0.410
 7055SOL    HW122064   2.463   7.004   0.409
 7055SOL    HW222065   2.426   0.116   0.316
 7056SOL     OW22066   6.846   5.470   0.888
 7056SOL    HW122067   6.776   5.541   0.879
 7056SOL    HW222068   6.898   5.485   0.973
 7057SOL     OW22069   3.304   5.812   4.806
 7057SOL    HW122070   3.398   5.805   4.772
 7057SOL    HW222071   3.257   5.725   4.791
 7058SOL     OW22072   6.468   1.967   6.466
 7058SOL    HW122073   6.458   1.874   6.432
 7058SOL    HW222074   6.422   2.031   6.404
 7059SOL     OW22075   1.954   0.353   5.190
 7059SOL    HW122076   1.921   0.342   5.284
 7059SOL    HW222077   1.969   0.262   5.150
 7060SOL     OW22078   3.335   2.453   1.572
 7060SOL    HW122079   3.337   2.495   1.481
 7060SOL    HW222080   3.316   2.523   1.640
 7061SOL     OW22081   1.629   1.037   1.464
 7061SOL    HW122082   1.688   0.962   1.433
 7061SOL    HW222083   1.682   1.098   1.523
 7062SOL     OW22084   3.188   0.789   4.605
 7062SOL    HW122085   3.090   0.802   4.620
 7062SOL    HW222086   3.202   0.740   4.519
 7063SOL     OW22087   0.238   1.318   1.844
 7063SOL    HW122088   0.248   1.406   1.892
 7063SOL    HW222089   0.324   1.297   1.797
 7064SOL     OW22090   3.121   1.223   5.622
 7064SOL    HW122091   3.076   1.309   5.598
 7064SOL    HW222092   3.220   1.238   5.628
 7065SOL     OW22093   3.745   6.316   4.965
 7065SOL    HW122094   3.735   6.267   4.878
 7065SOL    HW222095   3.823   6.278   5.016
 7066SOL     OW22096   3.277   0.112   1.392
 7066SOL    HW122097   3.371   0.113   1.359
 7066SOL    HW222098   3.226   0.187   1.348
 7067SOL     OW22099   2.301   4.037   6.002
 7067SOL    HW122100   2.296   3.952   5.949
 7067SOL    HW222101   2.377   4.031   6.067
 7068SOL     OW22102   5.148   4.178   4.513
 7068SOL    HW122103   5.091   4.178   4.596
 7068SOL    HW222104   5.125   4.097   4.459
 7069SOL     OW22105   4.995   0.728   5.670
 7069SOL    HW122106   4.933   0.787   5.721
 7069SOL    HW222107   4.959   0.634   5.670
 7070SOL     OW22108   0.435   0.784   5.585
 7070SOL    HW122109   0.365   0.768   5.656
 7070SOL    HW222110   0.479   0.873   5.602
 7071SOL     OW22111   4.606   6.033   6.692
 7071SOL    HW122112   4.567   5.943   6.675
 7071SOL    HW222113   4.613   6.084   6.606
 7072SOL     OW22114   0.779   3.722   6.527
 7072SOL    HW122115   0.787   3.727   6.627
 7072SOL    HW222116   0.696   3.770   6.498
 7073SOL     OW22117   4.769   1.001   3.538
 7073SOL    HW122118   4.681   0.954   3.535
 7073SOL    HW222119   4.755   1.097   3.562
 7074SOL     OW22120   5.805   4.127   2.450
 7074SOL    HW122121   5.857   4.044   2.432
 7074SOL    HW222122   5.820   4.193   2.377
 7075SOL     OW22123   2.364   5.236   2.821
 7075SOL    HW122124   2.352   5.295   2.742
 7075SOL    HW222125   2.429   5.277   2.885
 7076SOL     OW22126   5.663   1.896   1.389
 7076SOL    HW122127   5.737   1.830   1.378
 7076SOL    HW222128   5.627   1.891   1.482
 7077SOL     OW22129   3.439   6.111   1.387
 7077SOL    HW122130   3.446   6.013   1.408
 7077SOL    HW222131   3.500   6.133   1.312
 7078SOL     OW22132   6.901   1.036   6.324
 7078SOL    HW122133   6.923   1.114   6.265
 7078SOL    HW222134   6.803   1.020   6.324
 7079SOL     OW22135   1.979   5.545   4.714
 7079SOL    HW122136   1.897   5.598   4.692
 7079SOL    HW222137   1.984   5.466   4.654
 7080SOL     OW22138   4.185   1.597   6.282
 7080SOL    HW122139   4.150   1.519   6.231
 7080SOL    HW222140   4.145   1.681   6.245
 7081SOL     OW22141   2.275   6.418   0.239
 7081SOL    HW122142   2.302   6.371   0.155
 7081SOL    HW222143   2.357   6.442   0.291
 7082SOL     OW22144   0.737   3.821   2.067
 7082SOL    HW122145   0.645   3.782   2.076
 7082SOL    HW222146   0.731   3.907   2.016
 7083SOL     OW22147   5.158   3.004   2.945
 7083SOL    HW122148   5.148   3.102   2.927
 7083SOL    HW222149   5.218   2.991   3.024
 7084SOL     OW22150   1.088   5.144   0.526
 7084SOL    HW122151   1.000   5.181   0.499
 7084SOL    HW222152   1.129   5.204   0.595
 7085SOL     OW22153   0.474   3.941   2.353
 7085SOL    HW122154   0.447   4.024   2.304
 7085SOL    HW222155   0.393   3.901   2.397
 7086SOL     OW22156   4.916   0.648   3.476
 7086SOL    HW122157   5.005   0.606   3.456
 7086SOL    HW222158   4.904   0.729   3.419
 7087SOL     OW22159   5.405   2.572   3.549
 7087SOL    HW122160   5.360   2.590   3.636
 7087SOL    HW222161   5.354   2.501   3.500
 7088SOL     OW22162   5.794   2.694   5.239
 7088SOL    HW122163   5.758   2.773   5.190
 7088SOL    HW222164   5.746   2.683   5.326
 7089SOL     OW22165   2.810   5.535   0.782
 7089SOL    HW122166   2.774   5.628   0.775
 7089SOL    HW222167   2.815   5.495   0.691
 7090SOL     OW22168   4.437   2.966   0.982
 7090SOL    HW122169   4.337   2.963   0.986
 7090SOL    HW222170   4.474   2.909   1.055
 7091SOL     OW22171   5.972   6.679   0.123
 7091SOL    HW122172   6.025   6.643   0.199
 7091SOL    HW222173   6.011   6.766   0.093
 7092SOL     OW22174   4.078   0.149   6.520
 7092SOL    HW122175   4.055   0.181   6.428
 7092SOL    HW222176   4.123   0.059   6.514
 7093SOL     OW22177   3.613   3.473   0.272
 7093SOL    HW122178   3.622   3.401   0.341
 7093SOL    HW222179   3.558   3.439   0.195
 7094SOL     OW22180   4.578   1.075   5.425
 7094SOL    HW122181   4.664   1.116   5.456
 7094SOL    HW222182   4.577   0.977   5.448
 7095SOL     OW22183   2.759   4.829   3.950
 7095SOL    HW122184   2.776   4.919   3.909
 7095SOL    HW222185   2.725   4.766   3.880
 7096SOL     OW22186   6.477   6.375   0.469
 7096SOL    HW122187   6.473   6.467   0.510
 7096SOL    HW222188   6.534   6.316   0.526
 7097SOL     OW22189   5.394   1.701   2.715
 7097SOL    HW122190   5.376   1.605   2.694
 7097SOL    HW222191   5.391   1.755   2.631
 7098SOL     OW22192   0.469   1.308   3.111
 7098SOL    HW122193   0.377   1.293   3.074
 7098SOL    HW222194   0.462   1.324   3.210
 7099SOL     OW22195   3.455   2.079   4.537
 7099SOL    HW122196   3.437   2.000   4.479
 7099SOL    HW222197   3.374   2.100   4.592
 7100SOL     OW22198   0.168   4.149   1.317
 7100SOL    HW122199   0.138   4.237   1.353
 7100SOL    HW222200   0.177   4.154   1.218
 7101SOL     OW22201   2.942   5.929   4.366
 7101SOL    HW122202   2.871   5.877   4.413
 7101SOL    HW222203   3.006   5.966   4.433
 7102SOL     OW22204   5.368   1.401   2.956
 7102SOL    HW122205   5.370   1.454   3.041
 7102SOL    HW222206   5.450   1.345   2.949
 7103SOL     OW22207   5.533   3.908   4.077
 7103SOL    HW122208   5.562   3.882   4.169
 7103SOL    HW222209   5.559   4.003   4.058
 7104SOL     OW22210   5.166   2.870   4.702
 7104SOL    HW122211   5.193   2.776   4.681
 7104SOL    HW222212   5.246   2.923   4.729
 7105SOL     OW22213   3.705   4.114   2.659
 7105SOL    HW122214   3.785   4.098   2.602
 7105SOL    HW222215   3.710   4.058   2.742
 7106SOL     OW22216   2.882   1.936   2.182
 7106SOL    HW122217   2.911   1.990   2.103
 7106SOL    HW222218   2.784   1.918   2.175
 7107SOL     OW22219   3.754   1.296   6.540
 7107SOL    HW122220   3.744   1.328   6.635
 7107SOL    HW222221   3.729   1.199   6.535
 7108SOL     OW22222   3.623   0.277   1.789
 7108SOL    HW122223   3.577   0.190   1.769
 7108SOL    HW222224   3.564   0.333   1.847
 7109SOL     OW22225   3.287   5.270   5.833
 7109SOL    HW122226   3.281   5.359   5.787
 7109SOL    HW222227   3.337   5.206   5.775
 7110SOL     OW22228   2.538   5.960   5.581
 7110SOL    HW122229   2.597   5.939   5.659
 7110SOL    HW222230   2.495   5.875   5.549
 7111SOL     OW22231   6.657   1.096   4.885
 7111SOL    HW122232   6.679   1.006   4.847
 7111SOL    HW222233   6.560   1.099   4.908
 7112SOL     OW22234   0.260   5.166   5.347
 7112SOL    HW122235   0.278   5.095   5.415
 7112SOL    HW222236   0.338   5.229   5.343
 7113SOL     OW22237   3.490   6.746   4.838
 7113SOL    HW122238   3.470   6.841   4.863
 7113SOL    HW222239   3.407   6.692   4.842
 7114SOL     OW22240   5.806   3.804   1.072
 7114SOL    HW122241   5.741   3.742   1.116
 7114SOL    HW222242   5.768   3.896   1.070
 7115SOL     OW22243   4.707   2.924   6.086
 7115SOL    HW122244   4.778   2.929   6.015
 7115SOL    HW222245   4.620   2.898   6.044
 7116SOL     OW22246   6.449   4.567   4.937
 7116SOL    HW122247   6.502   4.626   4.999
 7116SOL    HW222248   6.351   4.584   4.950
 7117SOL     OW22249   4.799   0.063   2.947
 7117SOL    HW122250   4.824   7.008   2.883
 7117SOL    HW222251   4.762   0.141   2.896
 7118SOL     OW22252   4.401   4.281   5.926
 7118SOL    HW122253   4.437   4.194   5.960
 7118SOL    HW222254   4.474   4.350   5.929
 7119SOL     OW22255   2.888   6.415   4.791
 7119SOL    HW122256   2.982   6.398   4.763
 7119SOL    HW222257   2.855   6.339   4.846
 7120SOL     OW22258   4.182   1.353   1.256
 7120SOL    HW122259   4.121   1.349   1.177
 7120SOL    HW222260   4.239   1.271   1.259
 7121SOL     OW22261   0.905   6.215   2.191
 7121SOL    HW122262   0.906   6.247   2.285
 7121SOL    HW222263   0.839   6.268   2.138
 7122SOL     OW22264   3.961   1.865   6.742
 7122SOL    HW122265   3.959   1.826   6.650
 7122SOL    HW222266   3.993   1.960   6.738
 7123SOL     OW22267   4.953   4.661   5.978
 7123SOL    HW122268   4.926   4.575   5.935
 7123SOL    HW222269   4.910   4.737   5.929
 7124SOL     OW22270   2.955   2.986   0.440
 7124SOL    HW122271   2.973   2.940   0.353
 7124SOL    HW222272   2.932   2.918   0.510
 7125SOL     OW22273   1.033   6.719   2.076
 7125SOL    HW122274   0.990   6.629   2.076
 7125SOL    HW222275   1.128   6.710   2.046
 7126SOL     OW22276   4.399   4.581   1.346
 7126SOL    HW122277   4.302   4.570   1.327
 7126SOL    HW222278   4.449   4.500   1.316
 7127SOL     OW22279   2.666   5.862   6.102
 7127SOL    HW122280   2.733   5.798   6.064
 7127SOL    HW222281   2.642   5.930   6.033
 7128SOL     OW22282   3.411   4.129   6.991
 7128SOL    HW122283   3.405   4.032   7.013
 7128SOL    HW222284   3.402   4.183   0.058
 7129SOL     OW22285   0.204   0.305   6.795
 7129SOL    HW122286   0.149   0.284   6.876
 7129SOL    HW222287   0.228   0.402   6.796
 7130SOL     OW22288   3.584   0.420   4.164
 7130SOL    HW122289   3.562   0.479   4.086
 7130SOL    HW222290   3.611   0.477   4.242
 7131SOL     OW22291   2.211   1.696   2.161
 7131SOL    HW122292   2.155   1.664   2.085
 7131SOL    HW222293   2.272   1.769   2.128
 7132SOL     OW22294   4.714   4.436   1.859
 7132SOL    HW122295   4.679   4.366   1.921
 7132SOL    HW222296   4.753   4.512   1.912
 7133SOL     OW22297   4.875   6.066   3.037
 7133SOL    HW122298   4.792   6.109   3.000
 7133SOL    HW222299   4.854   5.972   3.064
 7134SOL     OW22300   4.579   5.105   0.121
 7134SOL    HW122301   4.660   5.059   0.084
 7134SOL    HW222302   4.571   5.196   0.081
 7135SOL     OW22303   2.192   4.400   1.128
 7135SOL    HW122304   2.146   4.443   1.051
 7135SOL    HW222305   2.148   4.428   1.214
 7136SOL     OW22306   1.204   2.610   1.653
 7136SOL    HW122307   1.240   2.522   1.623
 7136SOL    HW222308   1.195   2.671   1.575
 7137SOL     OW22309   2.986   1.123   2.383
 7137SOL    HW122310   3.021   1.086   2.470
 7137SOL    HW222311   3.040   1.204   2.357
 7138SOL     OW22312   0.230   3.390   6.894
 7138SOL    HW122313   0.259   3.486   6.888
 7138SOL    HW222314   0.131   3.386   6.904
 7139SOL     OW22315   5.684   5.899   1.213
 7139SOL    HW122316   5.750   5.863   1.147
 7139SOL    HW222317   5.592   5.897   1.173
 7140SOL     OW22318   0.019   5.111   0.176
 7140SOL    HW122319   7.008   5.015   0.174
 7140SOL    HW222320   6.956   5.170   0.181
 7141SOL     OW22321   3.509   1.467   1.213
 7141SOL    HW122322   3.433   1.521   1.177
 7141SOL    HW222323   3.477   1.411   1.290
 7142SOL     OW22324   4.863   0.116   5.329
 7142SOL    HW122325   4.852   0.074   5.239
 7142SOL    HW222326   4.955   0.157   5.335
 7143SOL     OW22327   3.285   2.583   6.211
 7143SOL    HW122328   3.271   2.586   6.310
 7143SOL    HW222329   3.333   2.666   6.182
 7144SOL     OW22330   6.857   1.111   5.529
 7144SOL    HW122331   6.786   1.102   5.460
 7144SOL    HW222332   6.922   1.035   5.520
 7145SOL     OW22333   6.350   2.437   5.984
 7145SOL    HW122334   6.333   2.466   6.078
 7145SOL    HW222335   6.294   2.491   5.921
 7146SOL     OW22336   0.221   1.743   4.690
 7146SOL    HW122337   0.199   1.820   4.750
 7146SOL    HW222338   0.137   1.703   4.653
 7147SOL     OW22339   6.814   6.922   1.170
 7147SOL    HW122340   6.900   6.892   1.128
 7147SOL    HW222341   6.776   6.998   1.117
 7148SOL     OW22342   5.954   6.866   0.910
 7148SOL    HW122343   5.979   6.947   0.963
 7148SOL    HW222344   5.867   6.882   0.863
 7149SOL     OW22345   5.343   4.316   6.090
 7149SOL    HW122346   5.324   4.362   6.177
 7149SOL    HW222347   5.415   4.247   6.103
 7150SOL     OW22348   2.815   2.391   6.830
 7150SOL    HW122349   2.776   2.313   6.781
 7150SOL    HW222350   2.904   2.414   6.792
 7151SOL     OW22351   5.467   1.188   6.903
 7151SOL    HW122352   5.415   1.133   6.967
 7151SOL    HW222353   5.422   1.187   6.814
 7152SOL     OW22354   4.640   0.155   5.486
 7152SOL    HW122355   4.663   0.233   5.544
 7152SOL    HW222356   4.718   0.132   5.428
 7153SOL     OW22357   3.815   5.804   0.792
 7153SOL    HW122358   3.903   5.838   0.825
 7153SOL    HW222359   3.753   5.792   0.869
 7154SOL     OW22360   5.174   0.886   1.663
 7154SOL    HW122361   5.196   0.971   1.712
 7154SOL    HW222362   5.168   0.905   1.565
 7155SOL     OW22363   1.683   0.393   1.163
 7155SOL    HW122364   1.756   0.356   1.106
 7155SOL    HW222365   1.710   0.385   1.259
 7156SOL     OW22366   6.319   3.711   5.594
 7156SOL    HW122367   6.254   3.764   5.647
 7156SOL    HW222368   6.409   3.715   5.637
 7157SOL     OW22369   0.137   4.062   5.829
 7157SOL    HW122370   0.143   4.161   5.826
 7157SOL    HW222371   0.225   4.022   5.801
 7158SOL     OW22372   5.499   0.201   3.852
 7158SOL    HW122373   5.566   0.233   3.785
 7158SOL    HW222374   5.522   0.240   3.942
 7159SOL     OW22375   0.615   6.378   3.145
 7159SOL    HW122376   0.549   6.327   3.089
 7159SOL    HW222377   0.707   6.345   3.125
 7160SOL     OW22378   5.924   6.876   2.510
 7160SOL    HW122379   5.861   6.944   2.473
 7160SOL    HW222380   6.017   6.895   2.478
 7161SOL     OW22381   3.804   3.666   2.129
 7161SOL    HW122382   3.854   3.748   2.100
 7161SOL    HW222383   3.734   3.645   2.062
 7162SOL     OW22384   6.960   6.089   0.805
 7162SOL    HW122385   6.998   6.073   0.897
 7162SOL    HW222386   6.862   6.068   0.806
 7163SOL     OW22387   6.727   0.110   1.030
 7163SOL    HW122388   6.636   0.068   1.037
 7163SOL    HW222389   6.724   0.203   1.068
 7164SOL     OW22390   1.639   0.448   6.914
 7164SOL    HW122391   1.700   0.377   6.878
 7164SOL    HW222392   1.660   0.464   7.010
 7165SOL     OW22393   4.965   1.983   6.733
 7165SOL    HW122394   4.948   2.074   6.696
 7165SOL    HW222395   4.928   1.976   6.825
 7166SOL     OW22396   6.793   5.687   5.286
 7166SOL    HW122397   6.760   5.762   5.345
 7166SOL    HW222398   6.717   5.624   5.268
 7167SOL     OW22399   0.339   3.223   5.581
 7167SOL    HW122400   0.425   3.173   5.589
 7167SOL    HW222401   0.264   3.159   5.566
 7168SOL     OW22402   1.156   1.340   2.402
 7168SOL    HW122403   1.082   1.313   2.463
 7168SOL    HW222404   1.182   1.435   2.421
 7169SOL     OW22405   1.476   4.350   5.882
 7169SOL    HW122406   1.528   4.301   5.812
 7169SOL    HW222407   1.414   4.414   5.838
 7170SOL     OW22408   4.001   1.352   1.049
 7170SOL    HW122409   3.907   1.377   1.070
 7170SOL    HW222410   4.005   1.257   1.019
 7171SOL     OW22411   0.059   4.433   0.943
 7171SOL    HW122412   0.013   4.470   1.024
 7171SOL    HW222413   7.016   4.368   0.897
 7172SOL     OW22414   0.491   2.368   3.576
 7172SOL    HW122415   0.590   2.356   3.572
 7172SOL    HW222416   0.451   2.333   3.491
 7173SOL     OW22417   3.774   5.435   5.048
 7173SOL    HW122418   3.685   5.401   5.076
 7173SOL    HW222419   3.839   5.425   5.124
 7174SOL     OW22420   6.572   4.039   2.263
 7174SOL    HW122421   6.511   4.115   2.285
 7174SOL    HW222422   6.518   3.963   2.226
 7175SOL     OW22423   6.276   3.569   5.941
 7175SOL    HW122424   6.366   3.605   5.914
 7175SOL    HW222425   6.267   3.572   6.040
 7176SOL     OW22426   0.282   0.824   6.400
 7176SOL    HW122427   0.330   0.899   6.354
 7176SOL    HW222428   0.273   0.747   6.337
 7177SOL     OW22429   1.631   5.605   3.111
 7177SOL    HW122430   1.669   5.664   3.040
 7177SOL    HW222431   1.651   5.643   3.201
 7178SOL     OW22432   1.337   6.355   5.414
 7178SOL    HW122433   1.386   6.435   5.380
 7178SOL    HW222434   1.250   6.384   5.455
 7179SOL     OW22435   4.491   5.014   5.987
 7179SOL    HW122436   4.553   5.055   5.921
 7179SOL    HW222437   4.440   5.086   6.034
 7180SOL     OW22438   1.438   2.957   1.909
 7180SOL    HW122439   1.532   2.940   1.880
 7180SOL    HW222440   1.426   3.054   1.931
 7181SOL     OW22441   2.603   0.655   0.001
 7181SOL    HW122442   2.517   0.667   6.969
 7181SOL    HW222443   2.615   0.729   0.066
 7182SOL     OW22444   1.863   1.486   3.183
 7182SOL    HW122445   1.841   1.422   3.256
 7182SOL    HW222446   1.778   1.516   3.139
 7183SOL     OW22447   1.241   0.083   1.721
 7183SOL    HW122448   1.201   0.133   1.797
 7183SOL    HW222449   1.206   7.006   1.720
 7184SOL     OW22450   6.966   0.855   3.848
 7184SOL    HW122451   6.907   0.911   3.790
 7184SOL    HW222452   6.914   0.820   3.925
 7185SOL     OW22453   3.768   0.329   3.951
 7185SOL    HW122454   3.838   0.400   3.949
 7185SOL    HW222455   3.716   0.335   4.036
 7186SOL     OW22456   6.639   1.085   6.271
 7186SOL    HW122457   6.558   1.034   6.240
 7186SOL    HW222458   6.670   1.146   6.198
 7187SOL     OW22459   3.599   3.273   4.063
 7187SOL    HW122460   3.575   3.337   3.989
 7187SOL    HW222461   3.670   3.211   4.031
 7188SOL     OW22462   4.818   4.548   0.771
 7188SOL    HW122463   4.812   4.449   0.787
 7188SOL    HW222464   4.793   4.568   0.676
 7189SOL     OW22465   6.971   2.189   5.899
 7189SOL    HW122466   6.897   2.134   5.860
 7189SOL    HW222467   6.932   2.257   5.962
 7190SOL     OW22468   6.119   5.279   6.824
 7190SOL    HW122469   6.129   5.184   6.852
 7190SOL    HW222470   6.154   5.339   6.896
 7191SOL     OW22471   6.566   4.793   2.145
 7191SOL    HW122472   6.614   4.783   2.232
 7191SOL    HW222473   6.572   4.707   2.094
 7192SOL     OW22474   2.735   3.910   5.300
 7192SOL    HW122475   2.635   3.911   5.298
 7192SOL    HW222476   2.770   3.912   5.206
 7193SOL     OW22477   3.609   1.557   3.861
 7193SOL    HW122478   3.677   1.624   3.890
 7193SOL    HW222479   3.619   1.474   3.917
 7194SOL     OW22480   2.873   2.135   5.763
 7194SOL    HW122481   2.895   2.117   5.859
 7194SOL    HW222482   2.855   2.232   5.750
 7195SOL     OW22483   1.054   3.486   5.825
 7195SOL    HW122484   1.024   3.398   5.788
 7195SOL    HW222485   1.149   3.503   5.799
 7196SOL     OW22486   3.306   3.797   1.516
 7196SOL    HW122487   3.236   3.732   1.544
 7196SOL    HW222488   3.294   3.819   1.419
 7197SOL     OW22489   3.478   4.962   0.227
 7197SOL    HW122490   3.381   4.986   0.221
 7197SOL    HW222491   3.509   4.973   0.322
 7198SOL     OW22492   0.890   0.507   1.766
 7198SOL    HW122493   0.881   0.520   1.667
 7198SOL    HW222494   0.912   0.412   1.786
 7199SOL     OW22495   5.882   0.993   3.181
 7199SOL    HW122496   5.879   0.893   3.182
 7199SOL    HW222497   5.977   1.023   3.182
 7200SOL     OW22498   1.054   3.011   6.795
 7200SOL    HW122499   0.977   2.957   6.761
 7200SOL    HW222500   1.036   3.038   6.889
 7201SOL     OW22501   6.134   6.081   3.995
 7201SOL    HW122502   6.168   6.009   4.055
 7201SOL    HW222503   6.201   6.098   3.923
 7202SOL     OW22504   4.705   7.014   6.132
 7202SOL    HW122505   4.754   6.939   6.086
 7202SOL    HW222506   4.754   0.083   6.116
 7203SOL     OW22507   0.596   1.845   1.177
 7203SOL    HW122508   0.562   1.893   1.258
 7203SOL    HW222509   0.601   1.908   1.100
 7204SOL     OW22510   5.914   0.894   2.281
 7204SOL    HW122511   5.886   0.956   2.354
 7204SOL    HW222512   5.974   0.944   2.218
 7205SOL     OW22513   3.058   1.526   4.077
 7205SOL    HW122514   3.106   1.488   3.998
 7205SOL    HW222515   3.038   1.623   4.060
 7206SOL     OW22516   2.105   3.443   6.842
 7206SOL    HW122517   2.172   3.402   6.905
 7206SOL    HW222518   2.024   3.385   6.839
 7207SOL     OW22519   1.994   1.537   2.951
 7207SOL    HW122520   1.969   1.450   2.909
 7207SOL    HW222521   1.965   1.538   3.047
 7208SOL     OW22522   3.861   0.586   3.960
 7208SOL    HW122523   3.938   0.642   3.992
 7208SOL    HW222524   3.788   0.646   3.928
 7209SOL     OW22525   3.694   0.902   2.074
 7209SOL    HW122526   3.768   0.915   2.009
 7209SOL    HW222527   3.721   0.936   2.164
 7210SOL     OW22528   3.664   1.317   4.026
 7210SOL    HW122529   3.677   1.339   4.123
 7210SOL    HW222530   3.664   1.217   4.015
 7211SOL     OW22531   4.290   6.208   5.746
 7211SOL    HW122532   4.282   6.151   5.664
 7211SOL    HW222533   4.204   6.204   5.798
 7212SOL     OW22534   0.831   5.236   5.504
 7212SOL    HW122535   0.743   5.279   5.484
 7212SOL    HW222536   0.822   5.173   5.581
 7213SOL     OW22537   4.268   2.557   0.184
 7213SOL    HW122538   4.279   2.576   0.282
 7213SOL    HW222539   4.212   2.629   0.142
 7214SOL     OW22540   6.089   0.942   6.144
 7214SOL    HW122541   6.000   0.965   6.184
 7214SOL    HW222542   6.143   1.026   6.133
 7215SOL     OW22543   6.596   1.670   2.453
 7215SOL    HW122544   6.658   1.629   2.386
 7215SOL    HW222545   6.596   1.769   2.442
 7216SOL     OW22546   5.325   6.680   3.650
 7216SOL    HW122547   5.421   6.658   3.662
 7216SOL    HW222548   5.313   6.779   3.648
 7217SOL     OW22549   1.582   3.252   3.385
 7217SOL    HW122550   1.522   3.173   3.400
 7217SOL    HW222551   1.646   3.260   3.462
 7218SOL     OW22552   6.464   2.153   5.221
 7218SOL    HW122553   6.497   2.075   5.274
 7218SOL    HW222554   6.541   2.202   5.181
 7219SOL     OW22555   2.711   6.260   2.010
 7219SOL    HW122556   2.803   6.288   2.036
 7219SOL    HW222557   2.712   6.221   1.918
 7220SOL     OW22558   6.315   4.139   3.455
 7220SOL    HW122559   6.386   4.077   3.489
 7220SOL    HW222560   6.328   4.155   3.357
 7221SOL     OW22561   4.148   5.276   3.389
 7221SOL    HW122562   4.079   5.257   3.319
 7221SOL    HW222563   4.124   5.360   3.437
 7222SOL     OW22564   7.004   6.322   3.956
 7222SOL    HW122565   0.031   6.412   3.956
 7222SOL    HW222566   6.910   6.331   3.989
 7223SOL     OW22567   7.004   4.879   1.746
 7223SOL    HW122568   6.943   4.812   1.789
 7223SOL    HW222569   6.954   4.928   1.674
 7224SOL     OW22570   4.320   2.128   2.626
 7224SOL    HW122571   4.341   2.031   2.612
 7224SOL    HW222572   4.221   2.142   2.620
 7225SOL     OW22573   0.818   6.045   0.205
 7225SOL    HW122574   0.750   6.049   0.132
 7225SOL    HW222575   0.828   6.136   0.247
 7226SOL     OW22576   6.060   6.448   0.340
 7226SOL    HW122577   6.057   6.375   0.271
 7226SOL    HW222578   6.103   6.413   0.423
 7227SOL     OW22579   1.686   1.566   2.629
 7227SOL    HW122580   1.655   1.656   2.598
 7227SOL    HW222581   1.784   1.570   2.649
 7228SOL     OW22582   5.669   3.000   2.546
 7228SOL    HW122583   5.651   3.082   2.492
 7228SOL    HW222584   5.760   3.007   2.588
 7229SOL     OW22585   5.745   0.300   5.017
 7229SOL    HW122586   5.804   0.321   4.939
 7229SOL    HW222587   5.662   0.254   4.985
 7230SOL     OW22588   2.181   5.618   4.553
 7230SOL    HW122589   2.116   5.606   4.629
 7230SOL    HW222590   2.233   5.533   4.541
 7231SOL     OW22591   3.931   3.377   5.796
 7231SOL    HW122592   3.973   3.466   5.778
 7231SOL    HW222593   3.959   3.344   5.886
 7232SOL     OW22594   4.589   5.983   3.402
 7232SOL    HW122595   4.533   6.034   3.337
 7232SOL    HW222596   4.532   5.953   3.479
 7233SOL     OW22597   0.762   0.991   5.675
 7233SOL    HW122598   0.691   1.003   5.605
 7233SOL    HW222599   0.852   0.996   5.632
 7234SOL     OW22600   5.671   4.717   3.626
 7234SOL    HW122601   5.648   4.699   3.530
 7234SOL    HW222602   5.623   4.651   3.684
 7235SOL     OW22603   6.295   0.019   1.968
 7235SOL    HW122604   6.381   0.063   1.942
 7235SOL    HW222605   6.219   0.080   1.947
 7236SOL     OW22606   1.267   3.944   2.628
 7236SOL    HW122607   1.222   3.860   2.599
 7236SOL    HW222608   1.355   3.953   2.581
 7237SOL     OW22609   5.623   1.295   0.493
 7237SOL    HW122610   5.645   1.392   0.491
 7237SOL    HW222611   5.636   1.256   0.402
 7238SOL     OW22612   3.940   3.431   0.189
 7238SOL    HW122613   4.023   3.483   0.209
 7238SOL    HW222614   3.860   3.491   0.194
 7239SOL     OW22615   5.605   2.650   2.163
 7239SOL    HW122616   5.624   2.740   2.201
 7239SOL    HW222617   5.580   2.587   2.237
 7240SOL     OW22618   0.113   1.756   0.504
 7240SOL    HW122619   0.194   1.806   0.475
 7240SOL    HW222620   0.051   1.744   0.426
 7241SOL     OW22621   2.126   0.600   2.462
 7241SOL    HW122622   2.099   0.547   2.382
 7241SOL    HW222623   2.057   0.670   2.481
 7242SOL     OW22624   6.794   4.573   5.254
 7242SOL    HW122625   6.825   4.658   5.211
 7242SOL    HW222626   6.812   4.496   5.193
 7243SOL     OW22627   5.232   4.773   6.052
 7243SOL    HW122628   5.140   4.734   6.048
 7243SOL    HW222629   5.298   4.699   6.069
 7244SOL     OW22630   0.409   5.837   6.993
 7244SOL    HW122631   0.327   5.783   6.979
 7244SOL    HW222632   0.410   5.915   6.931
 7245SOL     OW22633   1.483   3.047   0.076
 7245SOL    HW122634   1.434   3.048   0.163
 7245SOL    HW222635   1.564   2.988   0.084
 7246SOL     OW22636   4.218   6.902   3.133
 7246SOL    HW122637   4.165   6.876   3.052
 7246SOL    HW222638   4.274   6.982   3.112
 7247SOL     OW22639   3.067   3.870   4.129
 7247SOL    HW122640   3.153   3.819   4.123
 7247SOL    HW222641   3.054   3.922   4.045
 7248SOL     OW22642   3.006   1.215   5.877
 7248SOL    HW122643   3.064   1.187   5.800
 7248SOL    HW222644   2.927   1.265   5.842
 7249SOL     OW22645   3.849   5.213   2.596
 7249SOL    HW122646   3.916   5.275   2.556
 7249SOL    HW222647   3.825   5.142   2.530
 7250SOL     OW22648   5.830   5.479   5.604
 7250SOL    HW122649   5.762   5.551   5.588
 7250SOL    HW222650   5.826   5.411   5.532
 7251SOL     OW22651   0.966   5.101   4.828
 7251SOL    HW122652   0.969   5.201   4.830
 7251SOL    HW222653   0.877   5.070   4.862
 7252SOL     OW22654   4.146   3.559   2.471
 7252SOL    HW122655   4.234   3.528   2.506
 7252SOL    HW222656   4.100   3.484   2.424
 7253SOL     OW22657   2.627   5.342   4.428
 7253SOL    HW122658   2.533   5.367   4.407
 7253SOL    HW222659   2.686   5.422   4.417
 7254SOL     OW22660   6.117   3.552   4.111
 7254SOL    HW122661   6.073   3.474   4.155
 7254SOL    HW222662   6.099   3.635   4.165
 7255SOL     OW22663   4.452   3.781   0.119
 7255SOL    HW122664   4.493   3.772   0.210
 7255SOL    HW222665   4.508   3.844   0.064
 7256SOL     OW22666   3.121   0.305   4.730
 7256SOL    HW122667   3.041   0.245   4.732
 7256SOL    HW222668   3.169   0.299   4.818
 7257SOL     OW22669   1.098   1.403   4.660
 7257SOL    HW122670   1.034   1.348   4.606
 7257SOL    HW222671   1.181   1.350   4.678
 7258SOL     OW22672   5.907   3.290   2.287
 7258SOL    HW122673   5.954   3.277   2.374
 7258SOL    HW222674   5.813   3.319   2.303
 7259SOL     OW22675   1.397   4.519   2.506
 7259SOL    HW122676   1.482   4.519   2.559
 7259SOL    HW222677   1.374   4.425   2.480
 7260SOL     OW22678   5.723   3.014   0.515
 7260SOL    HW122679   5.652   3.054   0.574
 7260SOL    HW222680   5.699   2.919   0.494
 7261SOL     OW22681   6.718   4.294   6.795
 7261SOL    HW122682   6.721   4.210   6.849
 7261SOL    HW222683   6.744   4.372   6.852
 7262SOL     OW22684   5.073   1.363   5.138
 7262SOL    HW122685   5.008   1.376   5.063
 7262SOL    HW222686   5.158   1.324   5.102
 7263SOL     OW22687   6.802   5.497   5.829
 7263SOL    HW122688   6.774   5.411   5.873
 7263SOL    HW222689   6.789   5.573   5.892
 7264SOL     OW22690   5.581   1.284   1.258
 7264SOL    HW122691   5.551   1.190   1.241
 7264SOL    HW222692   5.676   1.294   1.230
 7265SOL     OW22693   4.112   0.657   5.567
 7265SOL    HW122694   4.031   0.665   5.625
 7265SOL    HW222695   4.112   0.730   5.499
 7266SOL     OW22696   0.204   0.851   2.995
 7266SOL    HW122697   0.224   0.774   2.934
 7266SOL    HW222698   0.154   0.818   3.075
 7267SOL     OW22699   6.357   4.356   4.560
 7267SOL    HW122700   6.400   4.435   4.516
 7267SOL    HW222701   6.373   4.359   4.658
 7268SOL     OW22702   6.206   6.389   4.587
 7268SOL    HW122703   6.162   6.470   4.623
 7268SOL    HW222704   6.137   6.330   4.544
 7269SOL     OW22705   2.491   4.464   4.637
 7269SOL    HW122706   2.549   4.543   4.654
 7269SOL    HW222707   2.522   4.386   4.692
 7270SOL     OW22708   0.670   0.776   4.972
 7270SOL    HW122709   0.622   0.861   4.993
 7270SOL    HW222710   0.764   0.781   5.008
 7271SOL     OW22711   0.541   4.698   3.227
 7271SOL    HW122712   0.464   4.733   3.281
 7271SOL    HW222713   0.585   4.623   3.276
 7272SOL     OW22714   6.275   3.913   1.574
 7272SOL    HW122715   6.212   3.835   1.566
 7272SOL    HW222716   6.369   3.881   1.577
 7273SOL     OW22717   0.686   1.922   5.602
 7273SOL    HW122718   0.737   1.995   5.557
 7273SOL    HW222719   0.607   1.960   5.649
 7274SOL     OW22720   0.455   5.162   6.168
 7274SOL    HW122721   0.523   5.214   6.220
 7274SOL    HW222722   0.496   5.128   6.083
 7275SOL     OW22723   0.814   6.009   3.561
 7275SOL    HW122724   0.785   5.913   3.550
 7275SOL    HW222725   0.912   6.017   3.542
 7276SOL     OW22726   5.194   5.779   3.586
 7276SOL    HW122727   5.267   5.717   3.557
 7276SOL    HW222728   5.105   5.739   3.564
 7277SOL     OW22729   4.788   0.731   0.180
 7277SOL    HW122730   4.706   0.758   0.231
 7277SOL    HW222731   4.763   0.669   0.106
 7278SOL     OW22732   3.160   2.986   2.523
 7278SOL    HW122733   3.197   3.055   2.460
 7278SOL    HW222734   3.235   2.944   2.574
 7279SOL     OW22735   3.288   6.642   6.249
 7279SOL    HW122736   3.331   6.732   6.261
 7279SOL    HW222737   3.196   6.643   6.288
 7280SOL     OW22738   4.690   1.758   5.707
 7280SOL    HW122739   4.635   1.743   5.625
 7280SOL    HW222740   4.689   1.676   5.764
 7281SOL     OW22741   5.047   0.857   5.993
 7281SOL    HW122742   5.098   0.871   6.078
 7281SOL    HW222743   5.099   0.892   5.916
 7282SOL     OW22744   5.294   5.615   1.952
 7282SOL    HW122745   5.301   5.705   1.996
 7282SOL    HW222746   5.368   5.556   1.985
 7283SOL     OW22747   1.971   0.796   4.430
 7283SOL    HW122748   1.938   0.890   4.436
 7283SOL    HW222749   1.910   0.743   4.371
 7284SOL     OW22750   0.582   2.173   4.942
 7284SOL    HW122751   0.584   2.273   4.934
 7284SOL    HW222752   0.675   2.138   4.948
 7285SOL     OW22753   5.508   4.779   1.438
 7285SOL    HW122754   5.592   4.730   1.462
 7285SOL    HW222755   5.504   4.793   1.339
 7286SOL     OW22756   2.169   4.197   0.731
 7286SOL    HW122757   2.164   4.206   0.831
 7286SOL    HW222758   2.215   4.110   0.709
 7287SOL     OW22759   5.577   1.245   5.809
 7287SOL    HW122760   5.653   1.181   5.815
 7287SOL    HW222761   5.611   1.338   5.817
 7288SOL     OW22762   2.659   6.602   6.852
 7288SOL    HW122763   2.566   6.639   6.854
 7288SOL    HW222764   2.669   6.541   6.774
 7289SOL     OW22765   5.474   2.273   4.051
 7289SOL    HW122766   5.413   2.200   4.083
 7289SOL    HW222767   5.448   2.299   3.958
 7290SOL     OW22768   2.770   4.839   4.238
 7290SOL    HW122769   2.772   4.829   4.138
 7290SOL    HW222770   2.749   4.934   4.261
 7291SOL     OW22771   3.318   5.326   1.760
 7291SOL    HW122772   3.410   5.316   1.722
 7291SOL    HW222773   3.287   5.237   1.794
 7292SOL     OW22774   3.326   6.955   4.592
 7292SOL    HW122775   3.412   6.910   4.571
 7292SOL    HW222776   3.317   0.021   4.537
 7293SOL     OW22777   2.086   2.174   6.352
 7293SOL    HW122778   2.130   2.236   6.416
 7293SOL    HW222779   1.998   2.144   6.389
 7294SOL     OW22780   4.296   5.873   0.455
 7294SOL    HW122781   4.387   5.835   0.441
 7294SOL    HW222782   4.280   5.947   0.388
 7295SOL     OW22783   5.458   0.169   1.499
 7295SOL    HW122784   5.386   0.106   1.469
 7295SOL    HW222785   5.539   0.117   1.528
 7296SOL     OW22786   4.270   5.093   2.124
 7296SOL    HW122787   4.206   5.114   2.049
 7296SOL    HW222788   4.318   5.176   2.151
 7297SOL     OW22789   5.290   6.685   2.255
 7297SOL    HW122790   5.277   6.645   2.346
 7297SOL    HW222791   5.388   6.700   2.239
 7298SOL     OW22792   6.503   3.846   3.809
 7298SOL    HW122793   6.410   3.818   3.832
 7298SOL    HW222794   6.568   3.783   3.852
 7299SOL     OW22795   5.140   3.426   6.498
 7299SOL    HW122796   5.221   3.385   6.455
 7299SOL    HW222797   5.105   3.498   6.438
 7300SOL     OW22798   4.707   5.042   1.338
 7300SOL    HW122799   4.644   4.971   1.370
 7300SOL    HW222800   4.660   5.131   1.337
 7301SOL     OW22801   6.754   0.971   5.821
 7301SOL    HW122802   6.825   1.004   5.883
 7301SOL    HW222803   6.689   1.045   5.803
 7302SOL     OW22804   5.216   0.851   6.225
 7302SOL    HW122805   5.271   0.934   6.234
 7302SOL    HW222806   5.272   0.771   6.246
 7303SOL     OW22807   3.374   0.869   0.961
 7303SOL    HW122808   3.383   0.927   0.880
 7303SOL    HW222809   3.465   0.840   0.992
 7304SOL     OW22810   3.680   3.781   4.977
 7304SOL    HW122811   3.669   3.693   5.023
 7304SOL    HW222812   3.743   3.839   5.029
 7305SOL     OW22813   5.620   1.198   0.226
 7305SOL    HW122814   5.535   1.244   0.203
 7305SOL    HW222815   5.685   1.208   0.151
 7306SOL     OW22816   4.944   4.901   1.762
 7306SOL    HW122817   4.849   4.878   1.784
 7306SOL    HW222818   4.990   4.821   1.725
 7307SOL     OW22819   4.212   6.676   2.513
 7307SOL    HW122820   4.117   6.670   2.546
 7307SOL    HW222821   4.211   6.693   2.415
 7308SOL     OW22822   6.238   1.563   4.446
 7308SOL    HW122823   6.235   1.521   4.355
 7308SOL    HW222824   6.329   1.601   4.462
 7309SOL     OW22825   4.391   5.616   1.994
 7309SOL    HW122826   4.326   5.681   1.955
 7309SOL    HW222827   4.445   5.661   2.064
 7310SOL     OW22828   1.716   5.594   1.552
 7310SOL    HW122829   1.688   5.688   1.531
 7310SOL    HW222830   1.777   5.561   1.481
 7311SOL     OW22831   2.708   2.347   2.170
 7311SOL    HW122832   2.777   2.362   2.099
 7311SOL    HW222833   2.750   2.300   2.247
 7312SOL     OW22834   6.954   1.835   5.574
 7312SOL    HW122835   6.987   1.778   5.499
 7312SOL    HW222836   0.013   1.863   5.631
 7313SOL     OW22837   3.818   2.528   6.854
 7313SOL    HW122838   3.751   2.592   6.894
 7313SOL    HW222839   3.774   2.440   6.839
 7314SOL     OW22840   0.758   2.810   4.421
 7314SOL    HW122841   0.793   2.726   4.379
 7314SOL    HW222842   0.658   2.804   4.428
 7315SOL     OW22843   6.970   0.516   5.497
 7315SOL    HW122844   6.988   0.590   5.562
 7315SOL    HW222845   6.882   0.532   5.452
 7316SOL     OW22846   3.768   3.780   5.308
 7316SOL    HW122847   3.705   3.818   5.376
 7316SOL    HW222848   3.777   3.843   5.231
 7317SOL     OW22849   2.985   1.133   3.540
 7317SOL    HW122850   3.033   1.154   3.625
 7317SOL    HW222851   3.052   1.109   3.469
 7318SOL     OW22852   1.443   2.036   1.351
 7318SOL    HW122853   1.437   1.990   1.440
 7318SOL    HW222854   1.377   1.994   1.288
 7319SOL     OW22855   7.011   4.106   6.449
 7319SOL    HW122856   0.089   4.121   6.477
 7319SOL    HW222857   7.002   4.015   6.408
 7320SOL     OW22858   6.530   2.392   2.278
 7320SOL    HW122859   6.492   2.414   2.368
 7320SOL    HW222860   6.551   2.477   2.229
 7321SOL     OW22861   2.967   1.394   4.722
 7321SOL    HW122862   3.003   1.338   4.648
 7321SOL    HW222863   3.042   1.439   4.770
 7322SOL     OW22864   0.309   3.425   1.654
 7322SOL    HW122865   0.264   3.419   1.743
 7322SOL    HW222866   0.393   3.371   1.656
 7323SOL     OW22867   2.063   3.667   3.019
 7323SOL    HW122868   2.140   3.721   2.987
 7323SOL    HW222869   2.064   3.665   3.119
 7324SOL     OW22870   5.198   5.940   2.232
 7324SOL    HW122871   5.180   6.016   2.294
 7324SOL    HW222872   5.201   5.854   2.283
 7325SOL     OW22873   3.359   6.560   0.481
 7325SOL    HW122874   3.363   6.505   0.397
 7325SOL    HW222875   3.448   6.605   0.494
 7326SOL     OW22876   2.896   0.209   4.384
 7326SOL    HW122877   2.909   0.182   4.288
 7326SOL    HW222878   2.804   0.245   4.396
 7327SOL     OW22879   1.419   2.481   5.081
 7327SOL    HW122880   1.483   2.549   5.046
 7327SOL    HW222881   1.450   2.389   5.055
 7328SOL     OW22882   2.390   6.678   6.927
 7328SOL    HW122883   2.315   6.661   6.863
 7328SOL    HW222884   2.419   6.774   6.919
 7329SOL     OW22885   4.319   3.341   1.311
 7329SOL    HW122886   4.376   3.326   1.392
 7329SOL    HW222887   4.377   3.338   1.229
 7330SOL     OW22888   4.634   2.074   0.793
 7330SOL    HW122889   4.605   2.020   0.714
 7330SOL    HW222890   4.731   2.096   0.786
 7331SOL     OW22891   5.396   1.257   1.956
 7331SOL    HW122892   5.338   1.193   2.008
 7331SOL    HW222893   5.394   1.346   2.000
 7332SOL     OW22894   3.562   5.206   1.282
 7332SOL    HW122895   3.494   5.278   1.300
 7332SOL    HW222896   3.649   5.231   1.324
 7333SOL     OW22897   0.417   4.964   2.541
 7333SOL    HW122898   0.477   5.020   2.484
 7333SOL    HW222899   0.442   4.974   2.637
 7334SOL     OW22900   3.932   6.650   4.738
 7334SOL    HW122901   3.902   6.733   4.785
 7334SOL    HW222902   4.032   6.647   4.735
 7335SOL     OW22903   2.090   3.021   2.681
 7335SOL    HW122904   2.147   3.067   2.749
 7335SOL    HW222905   2.035   2.950   2.727
 7336SOL     OW22906   1.910   6.091   4.370
 7336SOL    HW122907   1.837   6.121   4.431
 7336SOL    HW222908   1.870   6.044   4.292
 7337SOL     OW22909   5.027   2.424   2.126
 7337SOL    HW122910   5.047   2.509   2.175
 7337SOL    HW222911   4.980   2.361   2.186
 7338SOL     OW22912   6.332   3.693   0.046
 7338SOL    HW122913   6.354   3.613   0.101
 7338SOL    HW222914   6.253   3.740   0.086
 7339SOL     OW22915   1.370   5.869   4.659
 7339SOL    HW122916   1.465   5.880   4.690
 7339SOL    HW222917   1.341   5.775   4.677
 7340SOL     OW22918   2.045   6.782   6.441
 7340SOL    HW122919   2.095   6.711   6.391
 7340SOL    HW222920   2.094   6.868   6.435
 7341SOL     OW22921   6.685   1.982   0.351
 7341SOL    HW122922   6.589   2.001   0.371
 7341SOL    HW222923   6.695   1.885   0.328
 7342SOL     OW22924   0.352   6.530   2.231
 7342SOL    HW122925   0.416   6.520   2.307
 7342SOL    HW222926   0.391   6.490   2.149
 7343SOL     OW22927   5.505   3.152   0.608
 7343SOL    HW122928   5.452   3.194   0.534
 7343SOL    HW222929   5.444   3.093   0.662
 7344SOL     OW22930   1.577   6.266   6.243
 7344SOL    HW122931   1.560   6.236   6.149
 7344SOL    HW222932   1.512   6.338   6.268
 7345SOL     OW22933   3.495   5.138   6.603
 7345SOL    HW122934   3.510   5.047   6.565
 7345SOL    HW222935   3.416   5.180   6.559
 7346SOL     OW22936   4.150   4.771   2.651
 7346SOL    HW122937   4.185   4.716   2.727
 7346SOL    HW222938   4.208   4.852   2.640
 7347SOL     OW22939   6.299   1.783   7.002
 7347SOL    HW122940   6.272   1.690   6.975
 7347SOL    HW222941   6.357   1.779   0.066
 7348SOL     OW22942   6.400   4.474   0.571
 7348SOL    HW122943   6.350   4.388   0.561
 7348SOL    HW222944   6.448   4.475   0.658
 7349SOL     OW22945   3.803   1.764   2.125
 7349SOL    HW122946   3.779   1.788   2.219
 7349SOL    HW222947   3.810   1.665   2.116
 7350SOL     OW22948   3.398   0.759   4.239
 7350SOL    HW122949   3.463   0.707   4.185
 7350SOL    HW222950   3.432   0.852   4.252
 7351SOL     OW22951   2.480   4.427   3.699
 7351SOL    HW122952   2.432   4.353   3.746
 7351SOL    HW222953   2.463   4.421   3.601
 7352SOL     OW22954   5.937   3.572   4.564
 7352SOL    HW122955   5.905   3.519   4.486
 7352SOL    HW222956   5.867   3.573   4.635
 7353SOL     OW22957   6.643   0.492   5.573
 7353SOL    HW122958   6.665   0.565   5.639
 7353SOL    HW222959   6.606   0.414   5.623
 7354SOL     OW22960   0.270   1.392   3.352
 7354SOL    HW122961   0.194   1.448   3.318
 7354SOL    HW222962   0.255   1.297   3.324
 7355SOL     OW22963   2.813   1.700   0.298
 7355SOL    HW122964   2.753   1.660   0.228
 7355SOL    HW222965   2.850   1.787   0.265
 7356SOL     OW22966   4.085   3.749   6.226
 7356SOL    HW122967   4.004   3.703   6.264
 7356SOL    HW222968   4.067   3.777   6.132
 7357SOL     OW22969   4.931   5.926   2.111
 7357SOL    HW122970   5.024   5.954   2.136
 7357SOL    HW222971   4.935   5.846   2.052
 7358SOL     OW22972   5.471   0.836   3.236
 7358SOL    HW122973   5.533   0.757   3.232
 7358SOL    HW222974   5.410   0.826   3.314
 7359SOL     OW22975   4.778   7.008   1.566
 7359SOL    HW122976   4.696   0.042   1.537
 7359SOL    HW222977   4.766   6.978   1.660
 7360SOL     OW22978   2.923   3.519   4.758
 7360SOL    HW122979   2.939   3.609   4.718
 7360SOL    HW222980   2.854   3.470   4.704
 7361SOL     OW22981   6.947   0.380   2.859
 7361SOL    HW122982   6.885   0.357   2.934
 7361SOL    HW222983   0.008   0.431   2.896
 7362SOL     OW22984   3.474   5.514   0.393
 7362SOL    HW122985   3.530   5.589   0.356
 7362SOL    HW222986   3.534   5.450   0.442
 7363SOL     OW22987   4.025   0.980   0.475
 7363SOL    HW122988   4.054   0.930   0.556
 7363SOL    HW222989   4.027   0.920   0.396
 7364SOL     OW22990   5.811   6.303   1.695
 7364SOL    HW122991   5.731   6.245   1.703
 7364SOL    HW222992   5.807   6.376   1.763
 7365SOL     OW22993   5.054   3.863   2.025
 7365SOL    HW122994   5.066   3.794   2.097
 7365SOL    HW222995   4.970   3.915   2.041
 7366SOL     OW22996   1.910   0.616   4.074
 7366SOL    HW122997   1.895   0.584   4.167
 7366SOL    HW222998   1.822   0.620   4.025
 7367SOL     OW22999   3.848   1.260   0.059
 7367SOL    HW123000   3.843   1.360   0.064
 7367SOL    HW223001   3.851   1.222   0.151
 7368SOL     OW23002   3.626   3.316   3.445
 7368SOL    HW123003   3.693   3.357   3.507
 7368SOL    HW223004   3.609   3.379   3.368
 7369SOL     OW23005   4.994   2.871   0.479
 7369SOL    HW123006   4.906   2.824   0.487
 7369SOL    HW223007   5.069   2.806   0.489
 7370SOL     OW23008   1.911   1.072   4.513
 7370SOL    HW123009   1.972   1.141   4.473
 7370SOL    HW223010   1.950   1.039   4.599
 7371SOL     OW23011   4.190   1.167   4.090
 7371SOL    HW123012   4.248   1.248   4.088
 7371SOL    HW223013   4.176   1.138   4.184
 7372SOL     OW23014   5.540   1.106   5.106
 7372SOL    HW123015   5.606   1.082   5.177
 7372SOL    HW223016   5.581   1.172   5.043
 7373SOL     OW23017   6.268   3.054   4.967
 7373SOL    HW123018   6.365   3.031   4.970
 7373SOL    HW223019   6.223   2.998   4.898
 7374SOL     OW23020   6.716   2.164   6.125
 7374SOL    HW123021   6.808   2.185   6.159
 7374SOL    HW223022   6.697   2.067   6.142
 7375SOL     OW23023   1.753   3.872   1.352
 7375SOL    HW123024   1.792   3.780   1.364
 7375SOL    HW223025   1.789   3.933   1.423
 7376SOL     OW23026   7.006   3.686   0.834
 7376SOL    HW123027   0.023   3.621   0.903
 7376SOL    HW223028   0.062   3.748   0.808
 7377SOL     OW23029   2.414   5.861   1.248
 7377SOL    HW123030   2.461   5.930   1.303
 7377SOL    HW223031   2.375   5.792   1.309
 7378SOL     OW23032   1.874   5.604   4.281
 7378SOL    HW123033   1.957   5.550   4.294
 7378SOL    HW223034   1.806   5.579   4.350
 7379SOL     OW23035   4.327   1.290   2.442
 7379SOL    HW123036   4.311   1.307   2.539
 7379SOL    HW223037   4.362   1.198   2.429
 7380SOL     OW23038   5.255   3.615   1.607
 7380SOL    HW123039   5.353   3.627   1.592
 7380SOL    HW223040   5.220   3.690   1.663
 7381SOL     OW23041   3.778   6.951   1.814
 7381SOL    HW123042   3.721   0.015   1.820
 7381SOL    HW223043   3.782   6.920   1.719
 7382SOL     OW23044   6.529   1.419   5.844
 7382SOL    HW123045   6.592   1.476   5.898
 7382SOL    HW223046   6.582   1.349   5.795
 7383SOL     OW23047   1.908   0.436   0.995
 7383SOL    HW123048   1.846   0.474   0.925
 7383SOL    HW223049   1.959   0.511   1.037
 7384SOL     OW23050   6.664   6.666   0.835
 7384SOL    HW123051   6.749   6.688   0.884
 7384SOL    HW223052   6.608   6.749   0.827
 7385SOL     OW23053   6.041   4.315   2.716
 7385SOL    HW123054   6.013   4.348   2.626
 7385SOL    HW223055   6.047   4.215   2.715
 7386SOL     OW23056   5.402   3.656   0.244
 7386SOL    HW123057   5.340   3.723   0.286
 7386SOL    HW223058   5.364   3.564   0.255
 7387SOL     OW23059   6.565   5.608   4.570
 7387SOL    HW123060   6.617   5.675   4.623
 7387SOL    HW223061   6.575   5.627   4.473
 7388SOL     OW23062   2.239   4.273   2.646
 7388SOL    HW123063   2.315   4.304   2.589
 7388SOL    HW223064   2.200   4.190   2.605
 7389SOL     OW23065   6.422   2.901   0.204
 7389SOL    HW123066   6.478   2.974   0.165
 7389SOL    HW223067   6.331   2.936   0.225
 7390SOL     OW23068   2.356   2.424   3.820
 7390SOL    HW123069   2.442   2.373   3.828
 7390SOL    HW223070   2.362   2.506   3.877
 7391SOL     OW23071   3.725   3.925   2.856
 7391SOL    HW123072   3.654   3.862   2.887
 7391SOL    HW223073   3.814   3.895   2.890
 7392SOL     OW23074   3.123   6.680   6.809
 7392SOL    HW123075   3.180   6.635   6.877
 7392SOL    HW223076   3.026   6.666   6.831
 7393SOL     OW23077   5.170   5.346   3.915
 7393SOL    HW123078   5.133   5.439   3.927
 7393SOL    HW223079   5.147   5.313   3.824
 7394SOL     OW23080   2.264   1.858   5.563
 7394SOL    HW123081   2.312   1.808   5.491
 7394SOL    HW223082   2.202   1.925   5.521
 7395SOL     OW23083   2.789   5.901   1.078
 7395SOL    HW123084   2.741   5.962   1.141
 7395SOL    HW223085   2.747   5.810   1.082
 7396SOL     OW23086   1.863   5.305   2.292
 7396SOL    HW123087   1.797   5.240   2.331
 7396SOL    HW223088   1.813   5.383   2.255
 7397SOL     OW23089   5.946   4.541   3.804
 7397SOL    HW123090   5.887   4.622   3.800
 7397SOL    HW223091   5.994   4.540   3.892
 7398SOL     OW23092   3.025   4.981   2.414
 7398SOL    HW123093   2.938   4.933   2.409
 7398SOL    HW223094   3.028   5.052   2.343
 7399SOL     OW23095   5.301   1.434   6.018
 7399SOL    HW123096   5.206   1.460   6.006
 7399SOL    HW223097   5.359   1.515   6.009
 7400SOL     OW23098   4.865   2.976   5.847
 7400SOL    HW123099   4.959   2.994   5.819
 7400SOL    HW223100   4.807   3.053   5.822
 7401SOL     OW23101   1.260   2.389   4.284
 7401SOL    HW123102   1.176   2.392   4.340
 7401SOL    HW223103   1.276   2.295   4.253
 7402SOL     OW23104   3.341   5.122   4.570
 7402SOL    HW123105   3.398   5.040   4.564
 7402SOL    HW223106   3.394   5.201   4.538
 7403SOL     OW23107   1.853   4.432   4.304
 7403SOL    HW123108   1.814   4.453   4.394
 7403SOL    HW223109   1.952   4.419   4.313
 7404SOL     OW23110   3.323   3.654   0.671
 7404SOL    HW123111   3.368   3.743   0.672
 7404SOL    HW223112   3.244   3.656   0.733
 7405SOL     OW23113   3.808   6.795   5.587
 7405SOL    HW123114   3.740   6.723   5.576
 7405SOL    HW223115   3.773   6.880   5.548
 7406SOL     OW23116   0.678   2.125   4.481
 7406SOL    HW123117   0.740   2.202   4.467
 7406SOL    HW223118   0.626   2.140   4.565
 7407SOL     OW23119   1.099   6.081   5.557
 7407SOL    HW123120   1.090   6.156   5.492
 7407SOL    HW223121   1.189   6.084   5.599
 7408SOL     OW23122   4.456   5.265   4.868
 7408SOL    HW123123   4.364   5.272   4.909
 7408SOL    HW223124   4.525   5.279   4.939
 7409SOL     OW23125   6.954   3.764   1.538
 7409SOL    HW123126   6.963   3.793   1.443
 7409SOL    HW223127   6.888   3.689   1.543
 7410SOL     OW23128   6.855   0.840   0.672
 7410SOL    HW123129   6.902   0.901   0.609
 7410SOL    HW223130   6.756   0.852   0.663
 7411SOL     OW23131   2.897   1.505   5.150
 7411SOL    HW123132   2.990   1.484   5.180
 7411SOL    HW223133   2.855   1.569   5.216
 7412SOL     OW23134   3.758   7.011   0.517
 7412SOL    HW123135   3.713   0.069   0.563
 7412SOL    HW223136   3.689   6.948   0.480
 7413SOL     OW23137   4.773   0.866   3.299
 7413SOL    HW123138   4.682   0.845   3.263
 7413SOL    HW223139   4.764   0.921   3.382
 7414SOL     OW23140   2.803   0.971   3.440
 7414SOL    HW123141   2.870   1.026   3.490
 7414SOL    HW223142   2.726   1.028   3.413
 7415SOL     OW23143   4.151   6.730   6.604
 7415SOL    HW123144   4.164   6.760   6.509
 7415SOL    HW223145   4.057   6.701   6.618
 7416SOL     OW23146   1.665   1.102   2.098
 7416SOL    HW123147   1.686   1.082   2.003
 7416SOL    HW223148   1.581   1.055   2.124
 7417SOL     OW23149   0.646   0.712   2.485
 7417SOL    HW123150   0.681   0.786   2.543
 7417SOL    HW223151   0.575   0.662   2.535
 7418SOL     OW23152   1.280   3.914   6.060
 7418SOL    HW123153   1.346   3.989   6.058
 7418SOL    HW223154   1.310   3.841   5.998
 7419SOL     OW23155   6.898   3.542   4.322
 7419SOL    HW123156   6.982   3.512   4.368
 7419SOL    HW223157   6.822   3.484   4.352
 7420SOL     OW23158   0.033   6.544   0.744
 7420SOL    HW123159   0.087   6.469   0.705
 7420SOL    HW223160   0.013   6.611   0.673
 7421SOL     OW23161   5.965   3.927   0.843
 7421SOL    HW123162   5.930   3.898   0.932
 7421SOL    HW223163   6.060   3.958   0.853
 7422SOL     OW23164   5.853   2.767   1.823
 7422SOL    HW123165   5.899   2.796   1.907
 7422SOL    HW223166   5.838   2.668   1.827
 7423SOL     OW23167   4.642   2.442   5.796
 7423SOL    HW123168   4.599   2.507   5.858
 7423SOL    HW223169   4.718   2.397   5.843
 7424SOL     OW23170   0.110   2.537   3.237
 7424SOL    HW123171   0.117   2.617   3.297
 7424SOL    HW223172   0.112   2.454   3.291
 7425SOL     OW23173   5.705   1.186   0.849
 7425SOL    HW123174   5.790   1.141   0.820
 7425SOL    HW223175   5.666   1.237   0.772
 7426SOL     OW23176   3.100   2.619   5.811
 7426SOL    HW123177   3.114   2.525   5.841
 7426SOL    HW223178   3.097   2.679   5.891
 7427SOL     OW23179   3.123   0.730   3.429
 7427SOL    HW123180   3.080   0.726   3.339
 7427SOL    HW223181   3.058   0.699   3.498
 7428SOL     OW23182   3.607   6.543   5.025
 7428SOL    HW123183   3.680   6.479   5.003
 7428SOL    HW223184   3.575   6.587   4.941
 7429SOL     OW23185   0.882   0.094   2.251
 7429SOL    HW123186   0.931   0.070   2.336
 7429SOL    HW223187   0.887   0.017   2.187
 7430SOL     OW23188   6.612   4.750   3.284
 7430SOL    HW123189   6.670   4.800   3.220
 7430SOL    HW223190   6.546   4.812   3.325
 7431SOL     OW23191   0.915   1.464   3.714
 7431SOL    HW123192   0.985   1.467   3.644
 7431SOL    HW223193   0.843   1.400   3.687
 7432SOL     OW23194   1.889   1.270   2.929
 7432SOL    HW123195   1.844   1.211   2.995
 7432SOL    HW223196   1.886   1.228   2.838
 7433SOL     OW23197   2.890   6.437   6.624
 7433SOL    HW123198   2.871   6.356   6.568
 7433SOL    HW223199   2.914   6.409   6.716
 7434SOL     OW23200   4.668   6.918   3.772
 7434SOL    HW123201   4.722   6.995   3.807
 7434SOL    HW223202   4.571   6.936   3.788
 7435SOL     OW23203   4.713   4.155   3.171
 7435SOL    HW123204   4.682   4.125   3.262
 7435SOL    HW223205   4.772   4.085   3.131
 7436SOL     OW23206   5.659   3.090   5.962
 7436SOL    HW123207   5.742   3.062   5.914
 7436SOL    HW223208   5.680   3.104   6.059
 7437SOL     OW23209   3.453   0.335   1.073
 7437SOL    HW123210   3.360   0.298   1.070
 7437SOL    HW223211   3.517   0.260   1.086
 7438SOL     OW23212   1.962   0.102   0.051
 7438SOL    HW123213   1.958   0.131   6.973
 7438SOL    HW223214   1.876   0.058   0.076
 7439SOL     OW23215   0.767   4.851   5.992
 7439SOL    HW123216   0.700   4.816   5.927
 7439SOL    HW223217   0.853   4.801   5.982
 7440SOL     OW23218   5.656   4.188   4.084
 7440SOL    HW123219   5.578   4.172   4.024
 7440SOL    HW223220   5.676   4.286   4.087
 7441SOL     OW23221   5.066   5.927   0.881
 7441SOL    HW123222   5.048   5.832   0.855
 7441SOL    HW223223   5.138   5.965   0.822
 7442SOL     OW23224   5.259   0.603   6.682
 7442SOL    HW123225   5.341   0.643   6.724
 7442SOL    HW223226   5.283   0.562   6.594
 7443SOL     OW23227   0.405   0.462   0.946
 7443SOL    HW123228   0.403   0.415   1.034
 7443SOL    HW223229   0.416   0.560   0.960
 7444SOL     OW23230   1.455   6.316   0.260
 7444SOL    HW123231   1.418   6.311   0.353
 7444SOL    HW223232   1.488   6.226   0.232
 7445SOL     OW23233   3.935   5.770   2.020
 7445SOL    HW123234   3.879   5.702   1.972
 7445SOL    HW223235   3.883   5.855   2.031
 7446SOL     OW23236   5.734   4.525   6.920
 7446SOL    HW123237   5.652   4.468   6.929
 7446SOL    HW223238   5.815   4.467   6.923
 7447SOL     OW23239   0.570   4.717   0.438
 7447SOL    HW123240   0.563   4.810   0.403
 7447SOL    HW223241   0.584   4.653   0.362
 7448SOL     OW23242   4.755   5.464   6.811
 7448SOL    HW123243   4.852   5.439   6.809
 7448SOL    HW223244   4.747   5.561   6.833
 7449SOL     OW23245   6.505   4.510   5.809
 7449SOL    HW123246   6.585   4.449   5.812
 7449SOL    HW223247   6.455   4.503   5.895
 7450SOL     OW23248   5.320   2.326   6.385
 7450SOL    HW123249   5.346   2.415   6.422
 7450SOL    HW223250   5.260   2.339   6.306
 7451SOL     OW23251   4.508   4.525   3.069
 7451SOL    HW123252   4.606   4.542   3.077
 7451SOL    HW223253   4.474   4.565   2.983
 7452SOL     OW23254   6.483   5.336   5.640
 7452SOL    HW123255   6.530   5.409   5.589
 7452SOL    HW223256   6.389   5.363   5.658
 7453SOL     OW23257   3.965   5.935   5.953
 7453SOL    HW123258   3.916   5.990   6.021
 7453SOL    HW223259   3.977   5.842   5.987
 7454SOL     OW23260   3.654   2.483   1.357
 7454SOL    HW123261   3.649   2.488   1.456
 7454SOL    HW223262   3.719   2.412   1.330
 7455SOL     OW23263   6.566   1.242   3.502
 7455SOL    HW123264   6.470   1.260   3.525
 7455SOL    HW223265   6.571   1.159   3.447
 7456SOL     OW23266   2.994   2.127   6.027
 7456SOL    HW123267   2.943   2.041   6.035
 7456SOL    HW223268   3.087   2.114   6.060
 7457SOL     OW23269   1.053   1.696   2.328
 7457SOL    HW123270   1.113   1.667   2.402
 7457SOL    HW223271   0.983   1.758   2.364
 7458SOL     OW23272   1.616   5.454   5.561
 7458SOL    HW123273   1.697   5.395   5.562
 7458SOL    HW223274   1.557   5.431   5.639
 7459SOL     OW23275   5.714   0.167   3.226
 7459SOL    HW123276   5.683   0.087   3.277
 7459SOL    HW223277   5.673   0.166   3.134
 7460SOL     OW23278   1.135   0.235   1.334
 7460SOL    HW123279   1.088   0.285   1.262
 7460SOL    HW223280   1.233   0.235   1.317
 7461SOL     OW23281   2.131   4.712   5.142
 7461SOL    HW123282   2.094   4.679   5.055
 7461SOL    HW223283   2.231   4.709   5.139
 7462SOL     OW23284   1.721   3.884   1.062
 7462SOL    HW123285   1.715   3.830   1.146
 7462SOL    HW223286   1.804   3.939   1.062
 7463SOL     OW23287   4.139   5.045   1.227
 7463SOL    HW123288   4.111   4.962   1.276
 7463SOL    HW223289   4.066   5.113   1.232
 7464SOL     OW23290   6.535   6.091   5.306
 7464SOL    HW123291   6.449   6.083   5.255
 7464SOL    HW223292   6.590   6.008   5.291
 7465SOL     OW23293   1.287   4.431   0.047
 7465SOL    HW123294   1.217   4.412   0.116
 7465SOL    HW223295   1.271   4.373   6.985
 7466SOL     OW23296   0.233   0.395   5.134
 7466SOL    HW123297   0.156   0.336   5.108
 7466SOL    HW223298   0.240   0.398   5.234
 7467SOL     OW23299   0.827   3.865   4.784
 7467SOL    HW123300   0.750   3.821   4.830
 7467SOL    HW223301   0.837   3.959   4.818
 7468SOL     OW23302   5.530   2.840   6.078
 7468SOL    HW123303   5.483   2.782   6.012
 7468SOL    HW223304   5.513   2.936   6.057
 7469SOL     OW23305   0.518   2.197   0.579
 7469SOL    HW123306   0.490   2.229   0.489
 7469SOL    HW223307   0.479   2.256   0.650
 7470SOL     OW23308   5.752   2.735   3.704
 7470SOL    HW123309   5.719   2.659   3.760
 7470SOL    HW223310   5.679   2.803   3.695
 7471SOL     OW23311   3.728   0.212   6.548
 7471SOL    HW123312   3.760   0.202   6.642
 7471SOL    HW223313   3.779   0.148   6.489
 7472SOL     OW23314   6.730   0.089   5.837
 7472SOL    HW123315   6.704   0.122   5.928
 7472SOL    HW223316   6.732   0.167   5.774
 7473SOL     OW23317   3.844   5.950   3.613
 7473SOL    HW123318   3.797   5.887   3.551
 7473SOL    HW223319   3.937   5.917   3.631
 7474SOL     OW23320   5.909   2.174   0.660
 7474SOL    HW123321   5.941   2.186   0.566
 7474SOL    HW223322   5.904   2.076   0.681
 7475SOL     OW23323   4.793   2.481   0.802
 7475SOL    HW123324   4.878   2.491   0.751
 7475SOL    HW223325   4.793   2.393   0.849
 7476SOL     OW23326   2.277   0.989   3.187
 7476SOL    HW123327   2.216   0.987   3.266
 7476SOL    HW223328   2.235   1.044   3.115
 7477SOL     OW23329   1.909   3.040   5.722
 7477SOL    HW123330   1.956   3.096   5.790
 7477SOL    HW223331   1.976   2.982   5.675
 7478SOL     OW23332   0.252   1.310   5.850
 7478SOL    HW123333   0.249   1.229   5.791
 7478SOL    HW223334   0.313   1.378   5.809
 7479SOL     OW23335   4.925   2.471   1.301
 7479SOL    HW123336   4.862   2.393   1.300
 7479SOL    HW223337   4.900   2.533   1.375
 7480SOL     OW23338   3.950   5.660   2.646
 7480SOL    HW123339   4.023   5.728   2.657
 7480SOL    HW223340   3.875   5.683   2.708
 7481SOL     OW23341   0.169   3.934   6.741
 7481SOL    HW123342   0.182   3.957   6.644
 7481SOL    HW223343   0.247   3.968   6.793
 7482SOL     OW23344   5.669   2.527   3.856
 7482SOL    HW123345   5.753   2.473   3.850
 7482SOL    HW223346   5.679   2.595   3.928
 7483SOL     OW23347   4.498   1.814   6.268
 7483SOL    HW123348   4.432   1.876   6.310
 7483SOL    HW223349   4.463   1.721   6.269
 7484SOL     OW23350   3.422   0.129   3.683
 7484SOL    HW123351   3.435   0.220   3.721
 7484SOL    HW223352   3.508   0.097   3.642
 7485SOL     OW23353   3.814   0.012   6.369
 7485SOL    HW123354   3.767   6.951   6.410
 7485SOL    HW223355   3.901   6.999   6.330
 7486SOL     OW23356   3.623   0.188   0.658
 7486SOL    HW123357   3.580   0.226   0.576
 7486SOL    HW223358   3.559   0.123   0.701
 7487SOL     OW23359   3.386   6.365   3.943
 7487SOL    HW123360   3.401   6.438   4.010
 7487SOL    HW223361   3.460   6.298   3.949
 7488SOL     OW23362   1.049   5.700   4.031
 7488SOL    HW123363   1.058   5.604   4.004
 7488SOL    HW223364   0.974   5.710   4.097
 7489SOL     OW23365   5.411   2.653   0.238
 7489SOL    HW123366   5.381   2.722   0.172
 7489SOL    HW223367   5.505   2.626   0.218
 7490SOL     OW23368   1.411   2.995   2.277
 7490SOL    HW123369   1.473   2.987   2.199
 7490SOL    HW223370   1.441   2.933   2.349
 7491SOL     OW23371   4.239   4.021   6.976
 7491SOL    HW123372   4.197   4.014   6.885
 7491SOL    HW223373   4.291   3.938   6.995
 7492SOL     OW23374   1.463   0.511   3.802
 7492SOL    HW123375   1.510   0.428   3.829
 7492SOL    HW223376   1.494   0.588   3.858
 7493SOL     OW23377   6.168   4.645   4.945
 7493SOL    HW123378   6.113   4.587   5.005
 7493SOL    HW223379   6.167   4.739   4.980
 7494SOL     OW23380   6.401   1.173   2.536
 7494SOL    HW123381   6.373   1.101   2.472
 7494SOL    HW223382   6.324   1.197   2.595
 7495SOL     OW23383   1.490   3.231   4.993
 7495SOL    HW123384   1.530   3.141   4.975
 7495SOL    HW223385   1.405   3.219   5.044
 7496SOL     OW23386   6.397   4.132   2.728
 7496SOL    HW123387   6.322   4.087   2.679
 7496SOL    HW223388   6.469   4.064   2.748
 7497SOL     OW23389   6.463   6.473   1.492
 7497SOL    HW123390   6.385   6.425   1.452
 7497SOL    HW223391   6.504   6.533   1.423
 7498SOL     OW23392   3.287   6.437   3.346
 7498SOL    HW123393   3.274   6.488   3.260
 7498SOL    HW223394   3.234   6.352   3.342
 7499SOL     OW23395   3.162   1.408   3.350
 7499SOL    HW123396   3.094   1.450   3.410
 7499SOL    HW223397   3.184   1.471   3.275
 7500SOL     OW23398   3.979   0.922   3.703
 7500SOL    HW123399   3.925   0.986   3.649
 7500SOL    HW223400   3.970   0.830   3.664
 7501SOL     OW23401   6.662   1.989   4.904
 7501SOL    HW123402   6.666   1.945   4.814
 7501SOL    HW223403   6.745   2.043   4.918
 7502SOL     OW23404   4.306   0.986   3.704
 7502SOL    HW123405   4.252   1.010   3.623
 7502SOL    HW223406   4.246   0.954   3.777
 7503SOL     OW23407   1.756   5.808   1.871
 7503SOL    HW123408   1.853   5.806   1.846
 7503SOL    HW223409   1.731   5.901   1.899
 7504SOL     OW23410   5.830   6.278   4.285
 7504SOL    HW123411   5.850   6.185   4.256
 7504SOL    HW223412   5.731   6.292   4.291
 7505SOL     OW23413   0.307   6.336   5.020
 7505SOL    HW123414   0.351   6.253   4.988
 7505SOL    HW223415   0.217   6.345   4.977
 7506SOL     OW23416   3.115   1.900   3.675
 7506SOL    HW123417   3.096   1.877   3.771
 7506SOL    HW223418   3.075   1.990   3.655
 7507SOL     OW23419   6.460   4.097   6.346
 7507SOL    HW123420   6.529   4.059   6.408
 7507SOL    HW223421   6.370   4.065   6.374
 7508SOL     OW23422   3.243   6.329   0.561
 7508SOL    HW123423   3.144   6.320   0.576
 7508SOL    HW223424   3.263   6.419   0.524
 7509SOL     OW23425   5.903   4.388   2.097
 7509SOL    HW123426   5.884   4.399   2.195
 7509SOL    HW223427   5.995   4.422   2.078
 7510SOL     OW23428   3.612   4.143   2.307
 7510SOL    HW123429   3.611   4.186   2.398
 7510SOL    HW223430   3.572   4.052   2.314
 7511SOL     OW23431   4.398   5.823   4.054
 7511SOL    HW123432   4.400   5.900   4.118
 7511SOL    HW223433   4.385   5.738   4.104
 7512SOL     OW23434   4.031   1.098   1.017
 7512SOL    HW123435   4.029   1.062   1.110
 7512SOL    HW223436   4.120   1.080   0.975
 7513SOL     OW23437   1.330   1.749   2.221
 7513SOL    HW123438   1.399   1.682   2.195
 7513SOL    HW223439   1.239   1.711   2.203
 7514SOL     OW23440   0.113   6.558   1.762
 7514SOL    HW123441   0.181   6.619   1.805
 7514SOL    HW223442   0.088   6.486   1.827
 7515SOL     OW23443   0.175   4.112   5.304
 7515SOL    HW123444   0.262   4.156   5.328
 7515SOL    HW223445   0.104   4.140   5.369
 7516SOL     OW23446   1.792   6.321   5.588
 7516SOL    HW123447   1.844   6.245   5.627
 7516SOL    HW223448   1.707   6.287   5.549
 7517SOL     OW23449   0.805   1.247   5.774
 7517SOL    HW123450   0.784   1.149   5.770
 7517SOL    HW223451   0.901   1.261   5.750
 7518SOL     OW23452   4.863   1.687   4.296
 7518SOL    HW123453   4.880   1.784   4.283
 7518SOL    HW223454   4.768   1.667   4.273
 7519SOL     OW23455   3.865   6.898   4.077
 7519SOL    HW123456   3.880   6.876   4.173
 7519SOL    HW223457   3.897   6.991   4.058
 7520SOL     OW23458   1.613   1.288   0.236
 7520SOL    HW123459   1.531   1.279   0.179
 7520SOL    HW223460   1.609   1.375   0.286
 7521SOL     OW23461   4.295   1.558   4.591
 7521SOL    HW123462   4.222   1.597   4.648
 7521SOL    HW223463   4.356   1.503   4.649
 7522SOL     OW23464   2.318   0.006   3.346
 7522SOL    HW123465   2.249   6.957   3.375
 7522SOL    HW223466   2.406   6.977   3.337
 7523SOL     OW23467   6.002   0.837   0.616
 7523SOL    HW123468   6.074   0.822   0.683
 7523SOL    HW223469   5.939   0.759   0.617
 7524SOL     OW23470   0.621   4.233   4.350
 7524SOL    HW123471   0.714   4.225   4.385
 7524SOL    HW223472   0.597   4.329   4.339
 7525SOL     OW23473   3.345   4.639   6.190
 7525SOL    HW123474   3.318   4.563   6.130
 7525SOL    HW223475   3.407   4.700   6.140
 7526SOL     OW23476   2.588   3.963   0.875
 7526SOL    HW123477   2.529   3.883   0.885
 7526SOL    HW223478   2.563   4.014   0.793
 7527SOL     OW23479   3.552   5.222   2.966
 7527SOL    HW123480   3.536   5.153   3.036
 7527SOL    HW223481   3.650   5.240   2.958
 7528SOL     OW23482   6.524   2.234   5.940
 7528SOL    HW123483   6.449   2.300   5.951
 7528SOL    HW223484   6.567   2.218   6.029
 7529SOL     OW23485   6.613   3.517   3.828
 7529SOL    HW123486   6.696   3.472   3.862
 7529SOL    HW223487   6.543   3.517   3.899
 7530SOL     OW23488   1.080   3.102   2.949
 7530SOL    HW123489   1.150   3.173   2.938
 7530SOL    HW223490   1.116   3.014   2.917
 7531SOL     OW23491   3.583   1.734   4.115
 7531SOL    HW123492   3.634   1.661   4.161
 7531SOL    HW223493   3.610   1.823   4.153
 7532SOL     OW23494   4.458   5.881   6.291
 7532SOL    HW123495   4.433   5.785   6.275
 7532SOL    HW223496   4.510   5.888   6.377
 7533SOL     OW23497   4.269   4.293   1.602
 7533SOL    HW123498   4.191   4.352   1.622
 7533SOL    HW223499   4.331   4.292   1.680
 7534SOL     OW23500   4.773   6.125   5.271
 7534SOL    HW123501   4.713   6.195   5.232
 7534SOL    HW223502   4.831   6.088   5.199
 7535SOL     OW23503   0.667   6.400   4.004
 7535SOL    HW123504   0.635   6.370   3.914
 7535SOL    HW223505   0.602   6.372   4.073
 7536SOL     OW23506   6.336   6.054   3.756
 7536SOL    HW123507   6.312   6.142   3.716
 7536SOL    HW223508   6.424   6.062   3.804
 7537SOL     OW23509   2.054   6.674   2.865
 7537SOL    HW123510   2.148   6.701   2.883
 7537SOL    HW223511   2.040   6.665   2.766
 7538SOL     OW23512   0.675   4.395   0.372
 7538SOL    HW123513   0.744   4.393   0.299
 7538SOL    HW223514   0.713   4.352   0.454
 7539SOL     OW23515   6.822   0.116   4.611
 7539SOL    HW123516   6.805   0.207   4.648
 7539SOL    HW223517   6.803   0.116   4.512
 7540SOL     OW23518   5.787   4.635   3.072
 7540SOL    HW123519   5.860   4.643   3.139
 7540SOL    HW223520   5.824   4.602   2.985
 7541SOL     OW23521   2.840   4.046   5.746
 7541SOL    HW123522   2.771   4.108   5.709
 7541SOL    HW223523   2.859   3.974   5.679
 7542SOL     OW23524   6.371   5.572   4.781
 7542SOL    HW123525   6.311   5.652   4.776
 7542SOL    HW223526   6.445   5.581   4.714
 7543SOL     OW23527   2.544   1.235   0.308
 7543SOL    HW123528   2.503   1.309   0.362
 7543SOL    HW223529   2.631   1.266   0.270
 7544SOL     OW23530   6.532   1.575   4.406
 7544SOL    HW123531   6.500   1.551   4.314
 7544SOL    HW223532   6.544   1.491   4.459
 7545SOL     OW23533   2.153   5.434   5.507
 7545SOL    HW123534   2.075   5.399   5.455
 7545SOL    HW223535   2.237   5.399   5.468
 7546SOL     OW23536   2.341   2.779   1.876
 7546SOL    HW123537   2.287   2.851   1.832
 7546SOL    HW223538   2.418   2.755   1.817
 7547SOL     OW23539   3.887   0.282   1.838
 7547SOL    HW123540   3.792   0.254   1.825
 7547SOL    HW223541   3.889   0.380   1.860
 7548SOL     OW23542   2.996   2.513   6.209
 7548SOL    HW123543   3.076   2.570   6.189
 7548SOL    HW223544   2.933   2.516   6.131
 7549SOL     OW23545   5.413   0.463   4.733
 7549SOL    HW123546   5.400   0.438   4.828
 7549SOL    HW223547   5.435   0.382   4.679
 7550SOL     OW23548   2.211   5.750   4.321
 7550SOL    HW123549   2.184   5.669   4.270
 7550SOL    HW223550   2.189   5.738   4.418
 7551SOL     OW23551   6.268   2.148   6.374
 7551SOL    HW123552   6.186   2.171   6.322
 7551SOL    HW223553   6.276   2.210   6.452
 7552SOL     OW23554   2.601   6.604   4.723
 7552SOL    HW123555   2.529   6.674   4.724
 7552SOL    HW223556   2.562   6.516   4.696
 7553SOL     OW23557   6.091   6.548   5.953
 7553SOL    HW123558   6.152   6.481   5.997
 7553SOL    HW223559   6.006   6.503   5.926
 7554SOL     OW23560   4.432   1.529   0.672
 7554SOL    HW123561   4.466   1.442   0.635
 7554SOL    HW223562   4.506   1.575   0.721
 7555SOL     OW23563   4.617   4.973   4.319
 7555SOL    HW123564   4.695   5.008   4.371
 7555SOL    HW223565   4.648   4.946   4.227
 7556SOL     OW23566   1.152   6.399   1.371
 7556SOL    HW123567   1.211   6.376   1.294
 7556SOL    HW223568   1.058   6.412   1.337
 7557SOL     OW23569   4.238   6.803   1.303
 7557SOL    HW123570   4.232   6.850   1.216
 7557SOL    HW223571   4.329   6.815   1.342
 7558SOL     OW23572   0.541   1.641   3.605
 7558SOL    HW123573   0.511   1.644   3.510
 7558SOL    HW223574   0.464   1.616   3.663
 7559SOL     OW23575   2.631   1.503   5.067
 7559SOL    HW123576   2.712   1.480   5.121
 7559SOL    HW223577   2.659   1.521   4.973
 7560SOL     OW23578   1.430   1.509   5.812
 7560SOL    HW123579   1.432   1.417   5.852
 7560SOL    HW223580   1.395   1.503   5.718
 7561SOL     OW23581   5.653   1.456   5.417
 7561SOL    HW123582   5.608   1.508   5.490
 7561SOL    HW223583   5.696   1.375   5.456
 7562SOL     OW23584   2.384   5.518   3.042
 7562SOL    HW123585   2.462   5.578   3.053
 7562SOL    HW223586   2.299   5.569   3.059
 7563SOL     OW23587   3.856   6.061   2.646
 7563SOL    HW123588   3.776   6.115   2.619
 7563SOL    HW223589   3.924   6.121   2.686
 7564SOL     OW23590   3.882   1.494   5.175
 7564SOL    HW123591   3.861   1.544   5.259
 7564SOL    HW223592   3.879   1.556   5.097
 7565SOL     OW23593   6.117   3.518   5.606
 7565SOL    HW123594   6.089   3.526   5.702
 7565SOL    HW223595   6.176   3.595   5.583
 7566SOL     OW23596   4.607   4.570   1.654
 7566SOL    HW123597   4.509   4.588   1.651
 7566SOL    HW223598   4.630   4.522   1.738
 7567SOL     OW23599   1.027   6.763   4.419
 7567SOL    HW123600   0.962   6.700   4.377
 7567SOL    HW223601   0.986   6.805   4.500
 7568SOL     OW23602   5.858   5.103   1.637
 7568SOL    HW123603   5.887   5.008   1.640
 7568SOL    HW223604   5.935   5.162   1.662
 7569SOL     OW23605   4.681   3.437   0.367
 7569SOL    HW123606   4.736   3.443   0.283
 7569SOL    HW223607   4.638   3.526   0.385
 7570SOL     OW23608   0.965   3.552   1.928
 7570SOL    HW123609   1.058   3.586   1.942
 7570SOL    HW223610   0.921   3.538   2.016
 7571SOL     OW23611   4.307   1.825   3.066
 7571SOL    HW123612   4.315   1.906   3.009
 7571SOL    HW223613   4.229   1.770   3.035
 7572SOL     OW23614   4.636   6.652   3.882
 7572SOL    HW123615   4.692   6.581   3.838
 7572SOL    HW223616   4.667   6.742   3.851
 7573SOL     OW23617   4.321   6.613   6.235
 7573SOL    HW123618   4.402   6.635   6.289
 7573SOL    HW223619   4.242   6.606   6.296
 7574SOL     OW23620   0.425   2.489   4.079
 7574SOL    HW123621   0.459   2.396   4.062
 7574SOL    HW223622   0.461   2.551   4.009
 7575SOL     OW23623   0.165   6.291   2.299
 7575SOL    HW123624   0.085   6.349   2.319
 7575SOL    HW223625   0.248   6.346   2.303
 7576SOL     OW23626   4.565   2.311   6.563
 7576SOL    HW123627   4.518   2.308   6.651
 7576SOL    HW223628   4.658   2.343   6.575
 7577SOL     OW23629   0.792   0.408   6.992
 7577SOL    HW123630   0.720   0.367   6.936
 7577SOL    HW223631   0.750   0.455   0.053
 7578SOL     OW23632   6.292   6.281   3.590
 7578SOL    HW123633   6.371   6.245   3.541
 7578SOL    HW223634   6.321   6.352   3.654
 7579SOL     OW23635   0.635   1.944   6.610
 7579SOL    HW123636   0.687   1.888   6.674
 7579SOL    HW223637   0.538   1.935   6.629
 7580SOL     OW23638   2.805   5.423   3.267
 7580SOL    HW123639   2.785   5.365   3.188
 7580SOL    HW223640   2.788   5.372   3.351
 7581SOL     OW23641   0.062   0.565   1.811
 7581SOL    HW123642   0.096   0.504   1.883
 7581SOL    HW223643   0.073   0.522   1.722
 7582SOL     OW23644   2.522   1.707   6.239
 7582SOL    HW123645   2.473   1.788   6.271
 7582SOL    HW223646   2.492   1.684   6.146
 7583SOL     OW23647   5.634   3.227   2.392
 7583SOL    HW123648   5.627   3.303   2.457
 7583SOL    HW223649   5.545   3.213   2.348
 7584SOL     OW23650   0.769   1.062   3.536
 7584SOL    HW123651   0.812   0.975   3.515
 7584SOL    HW223652   0.741   1.107   3.450
 7585SOL     OW23653   1.107   1.272   5.758
 7585SOL    HW123654   1.132   1.248   5.852
 7585SOL    HW223655   1.123   1.370   5.743
 7586SOL     OW23656   2.022   6.681   3.275
 7586SOL    HW123657   2.034   6.612   3.346
 7586SOL    HW223658   1.951   6.746   3.304
 7587SOL     OW23659   4.505   0.064   1.497
 7587SOL    HW123660   4.430   0.075   1.562
 7587SOL    HW223661   4.494   0.128   1.421
 7588SOL     OW23662   2.214   2.653   4.770
 7588SOL    HW123663   2.154   2.573   4.762
 7588SOL    HW223664   2.278   2.654   4.693
 7589SOL     OW23665   6.762   0.468   2.681
 7589SOL    HW123666   6.832   0.451   2.751
 7589SOL    HW223667   6.793   0.429   2.594
 7590SOL     OW23668   6.246   1.004   0.321
 7590SOL    HW123669   6.256   1.065   0.243
 7590SOL    HW223670   6.336   0.973   0.351
 7591SOL     OW23671   3.139   3.424   4.920
 7591SOL    HW123672   3.084   3.408   5.002
 7591SOL    HW223673   3.085   3.473   4.852
 7592SOL     OW23674   0.157   6.082   3.563
 7592SOL    HW123675   0.074   6.026   3.564
 7592SOL    HW223676   0.132   6.179   3.560
 7593SOL     OW23677   0.069   0.966   5.548
 7593SOL    HW123678   0.148   0.976   5.607
 7593SOL    HW223679   0.097   0.969   5.452
 7594SOL     OW23680   6.853   3.830   6.116
 7594SOL    HW123681   6.916   3.844   6.039
 7594SOL    HW223682   6.906   3.815   6.199
 7595SOL     OW23683   0.949   3.324   6.704
 7595SOL    HW123684   0.903   3.369   6.628
 7595SOL    HW223685   0.893   3.248   6.737
 7596SOL     OW23686   2.805   1.281   0.154
 7596SOL    HW123687   2.830   1.277   0.057
 7596SOL    HW223688   2.865   1.345   0.201
 7597SOL     OW23689   2.030   4.902   1.326
 7597SOL    HW123690   1.984   4.962   1.260
 7597SOL    HW223691   2.112   4.863   1.284
 7598SOL     OW23692   6.059   0.735   2.124
 7598SOL    HW123693   5.982   0.775   2.174
 7598SOL    HW223694   6.024   0.677   2.050
 7599SOL     OW23695   3.089   3.998   1.039
 7599SOL    HW123696   3.070   4.094   1.018
 7599SOL    HW223697   3.002   3.949   1.047
 7600SOL     OW23698   1.171   0.025   3.914
 7600SOL    HW123699   1.247   6.999   3.865
 7600SOL    HW223700   1.205   0.103   3.966
 7601SOL     OW23701   2.471   6.975   1.819
 7601SOL    HW123702   2.417   6.971   1.903
 7601SOL    HW223703   2.444   0.038   1.766
 7602SOL     OW23704   0.502   1.362   1.084
 7602SOL    HW123705   0.557   1.350   1.167
 7602SOL    HW223706   0.492   1.459   1.064
 7603SOL     OW23707   4.195   1.050   6.041
 7603SOL    HW123708   4.271   1.068   6.104
 7603SOL    HW223709   4.127   0.993   6.087
 7604SOL     OW23710   1.275   2.541   4.754
 7604SOL    HW123711   1.351   2.476   4.759
 7604SOL    HW223712   1.309   2.633   4.773
 7605SOL     OW23713   2.414   6.112   0.226
 7605SOL    HW123714   2.352   6.054   0.175
 7605SOL    HW223715   2.390   6.109   0.324
 7606SOL     OW23716   6.882   0.416   3.231
 7606SOL    HW123717   6.833   0.445   3.313
 7606SOL    HW223718   6.931   0.330   3.250
 7607SOL     OW23719   1.826   6.186   5.944
 7607SOL    HW123720   1.798   6.282   5.954
 7607SOL    HW223721   1.853   6.169   5.849
 7608SOL     OW23722   6.932   2.251   6.627
 7608SOL    HW123723   6.839   2.260   6.665
 7608SOL    HW223724   6.927   2.254   6.527
 7609SOL     OW23725   3.198   1.608   4.563
 7609SOL    HW123726   3.271   1.647   4.620
 7609SOL    HW223727   3.213   1.510   4.554
 7610SOL     OW23728   4.053   5.166   4.630
 7610SOL    HW123729   3.977   5.214   4.674
 7610SOL    HW223730   4.058   5.072   4.665
 7611SOL     OW23731   4.729   2.492   0.519
 7611SOL    HW123732   4.669   2.568   0.497
 7611SOL    HW223733   4.758   2.499   0.615
 7612SOL     OW23734   3.774   2.029   3.251
 7612SOL    HW123735   3.767   2.064   3.344
 7612SOL    HW223736   3.865   2.050   3.214
 7613SOL     OW23737   0.800   0.472   0.364
 7613SOL    HW123738   0.833   0.384   0.329
 7613SOL    HW223739   0.747   0.518   0.293
 7614SOL     OW23740   5.321   4.173   0.257
 7614SOL    HW123741   5.358   4.143   0.345
 7614SOL    HW223742   5.388   4.231   0.210
 7615SOL     OW23743   6.185   3.342   5.130
 7615SOL    HW123744   6.119   3.336   5.054
 7615SOL    HW223745   6.176   3.261   5.188
 7616SOL     OW23746   0.026   6.751   2.822
 7616SOL    HW123747   0.092   6.678   2.843
 7616SOL    HW223748   0.016   6.810   2.902
 7617SOL     OW23749   6.342   4.159   3.170
 7617SOL    HW123750   6.384   4.226   3.108
 7617SOL    HW223751   6.411   4.094   3.200
 7618SOL     OW23752   2.561   2.428   0.419
 7618SOL    HW123753   2.644   2.480   0.437
 7618SOL    HW223754   2.583   2.331   0.410
 7619SOL     OW23755   1.927   1.332   4.739
 7619SOL    HW123756   1.927   1.416   4.685
 7619SOL    HW223757   2.004   1.335   4.804
 7620SOL     OW23758   3.582   4.212   1.149
 7620SOL    HW123759   3.529   4.294   1.128
 7620SOL    HW223760   3.522   4.140   1.183
 7621SOL     OW23761   6.077   4.173   0.027
 7621SOL    HW123762   5.990   4.125   0.040
 7621SOL    HW223763   6.128   4.129   6.970
 7622SOL     OW23764   3.313   3.794   1.783
 7622SOL    HW123765   3.236   3.840   1.828
 7622SOL    HW223766   3.318   3.823   1.687
 7623SOL     OW23767   5.787   4.178   1.949
 7623SOL    HW123768   5.813   4.082   1.957
 7623SOL    HW223769   5.830   4.230   2.022
 7624SOL     OW23770   1.007   3.606   2.389
 7624SOL    HW123771   0.923   3.562   2.420
 7624SOL    HW223772   1.078   3.537   2.376
 7625SOL     OW23773   5.320   0.436   2.391
 7625SOL    HW123774   5.341   0.511   2.329
 7625SOL    HW223775   5.382   0.438   2.469
 7626SOL     OW23776   4.000   0.016   0.181
 7626SOL    HW123777   3.971   6.937   0.186
 7626SOL    HW223778   4.074   0.024   0.114
 7627SOL     OW23779   3.977   2.823   6.497
 7627SOL    HW123780   3.991   2.813   6.595
 7627SOL    HW223781   4.062   2.804   6.449
 7628SOL     OW23782   3.028   2.597   0.477
 7628SOL    HW123783   3.096   2.649   0.427
 7628SOL    HW223784   3.017   2.636   0.569
 7629SOL     OW23785   5.954   2.554   3.088
 7629SOL    HW123786   6.028   2.568   3.154
 7629SOL    HW223787   5.867   2.544   3.137
 7630SOL     OW23788   1.567   6.279   3.912
 7630SOL    HW123789   1.552   6.374   3.941
 7630SOL    HW223790   1.480   6.236   3.893
 7631SOL     OW23791   0.773   0.776   5.308
 7631SOL    HW123792   0.871   0.783   5.287
 7631SOL    HW223793   0.724   0.849   5.260
 7632SOL     OW23794   4.460   5.714   1.303
 7632SOL    HW123795   4.526   5.645   1.331
 7632SOL    HW223796   4.504   5.804   1.303
 7633SOL     OW23797   6.189   0.966   1.317
 7633SOL    HW123798   6.180   0.966   1.417
 7633SOL    HW223799   6.098   0.971   1.276
 7634SOL     OW23800   0.310   2.404   6.464
 7634SOL    HW123801   0.269   2.362   6.545
 7634SOL    HW223802   0.368   2.337   6.418
 7635SOL     OW23803   2.215   2.907   5.251
 7635SOL    HW123804   2.265   2.934   5.333
 7635SOL    HW223805   2.269   2.930   5.170
 7636SOL     OW23806   6.918   3.687   3.869
 7636SOL    HW123807   6.881   3.616   3.928
 7636SOL    HW223808   6.923   3.773   3.920
 7637SOL     OW23809   0.718   4.549   5.011
 7637SOL    HW123810   0.772   4.626   5.047
 7637SOL    HW223811   0.666   4.579   4.931
 7638SOL     OW23812   0.062   6.047   1.074
 7638SOL    HW123813   0.044   5.965   1.128
 7638SOL    HW223814   0.151   6.085   1.100
 7639SOL     OW23815   1.335   0.248   0.572
 7639SOL    HW123816   1.297   0.299   0.495
 7639SOL    HW223817   1.389   0.171   0.538
 7640SOL     OW23818   3.401   1.360   0.839
 7640SOL    HW123819   3.314   1.311   0.835
 7640SOL    HW223820   3.476   1.295   0.839
 7641SOL     OW23821   0.385   4.487   4.580
 7641SOL    HW123822   0.304   4.514   4.528
 7641SOL    HW223823   0.434   4.416   4.529
 7642SOL     OW23824   5.246   0.832   3.418
 7642SOL    HW123825   5.239   0.900   3.491
 7642SOL    HW223826   5.196   0.863   3.337
 7643SOL     OW23827   5.349   3.734   4.958
 7643SOL    HW123828   5.311   3.676   5.031
 7643SOL    HW223829   5.448   3.737   4.966
 7644SOL     OW23830   4.855   3.883   1.043
 7644SOL    HW123831   4.821   3.974   1.066
 7644SOL    HW223832   4.884   3.882   0.947
 7645SOL     OW23833   4.145   4.843   0.334
 7645SOL    HW123834   4.137   4.834   0.433
 7645SOL    HW223835   4.134   4.939   0.308
 7646SOL     OW23836   0.168   2.328   0.400
 7646SOL    HW123837   0.267   2.342   0.399
 7646SOL    HW223838   0.146   2.242   0.354
 7647SOL     OW23839   6.768   2.571   4.090
 7647SOL    HW123840   6.670   2.559   4.076
 7647SOL    HW223841   6.815   2.561   4.002
 7648SOL     OW23842   2.058   2.215   1.992
 7648SOL    HW123843   2.090   2.147   2.057
 7648SOL    HW223844   2.022   2.170   1.910
 7649SOL     OW23845   3.850   0.778   6.999
 7649SOL    HW123846   3.787   0.855   7.014
 7649SOL    HW223847   3.888   0.784   6.907
 7650SOL     OW23848   3.550   2.256   0.183
 7650SOL    HW123849   3.632   2.198   0.175
 7650SOL    HW223850   3.562   2.338   0.126
 7651SOL     OW23851   3.637   5.576   6.244
 7651SOL    HW123852   3.715   5.557   6.185
 7651SOL    HW223853   3.652   5.534   6.334
 7652SOL     OW23854   0.937   0.930   4.320
 7652SOL    HW123855   0.950   1.028   4.307
 7652SOL    HW223856   0.976   0.880   4.243
 7653SOL     OW23857   2.378   0.261   0.206
 7653SOL    HW123858   2.283   0.232   0.202
 7653SOL    HW223859   2.423   0.243   0.119
 7654SOL     OW23860   6.748   1.835   5.947
 7654SOL    HW123861   6.811   1.874   6.014
 7654SOL    HW223862   6.716   1.906   5.885
 7655SOL     OW23863   3.715   2.078   4.799
 7655SOL    HW123864   3.708   2.161   4.855
 7655SOL    HW223865   3.700   2.102   4.703
 7656SOL     OW23866   5.785   4.185   0.218
 7656SOL    HW123867   5.797   4.110   0.153
 7656SOL    HW223868   5.828   4.268   0.183
 7657SOL     OW23869   1.127   4.131   4.808
 7657SOL    HW123870   1.185   4.201   4.850
 7657SOL    HW223871   1.185   4.060   4.768
 7658SOL     OW23872   2.860   0.506   0.619
 7658SOL    HW123873   2.807   0.431   0.578
 7658SOL    HW223874   2.925   0.468   0.685
 7659SOL     OW23875   5.004   4.313   5.675
 7659SOL    HW123876   4.986   4.229   5.624
 7659SOL    HW223877   5.002   4.391   5.612
 7660SOL     OW23878   6.817   6.263   5.728
 7660SOL    HW123879   6.858   6.229   5.643
 7660SOL    HW223880   6.885   6.261   5.801
 7661SOL     OW23881   3.842   0.849   5.486
 7661SOL    HW123882   3.850   0.795   5.402
 7661SOL    HW223883   3.791   0.933   5.467
 7662SOL     OW23884   6.798   5.754   1.138
 7662SOL    HW123885   6.779   5.817   1.213
 7662SOL    HW223886   6.896   5.754   1.118
 7663SOL     OW23887   1.006   5.361   4.999
 7663SOL    HW123888   0.958   5.343   5.085
 7663SOL    HW223889   0.939   5.387   4.929
 7664SOL     OW23890   4.173   2.282   2.353
 7664SOL    HW123891   4.219   2.302   2.266
 7664SOL    HW223892   4.083   2.241   2.335
 7665SOL     OW23893   3.610   0.735   5.597
 7665SOL    HW123894   3.707   0.736   5.572
 7665SOL    HW223895   3.558   0.684   5.529
 7666SOL     OW23896   5.297   5.018   4.116
 7666SOL    HW123897   5.348   5.068   4.186
 7666SOL    HW223898   5.348   5.022   4.030
 7667SOL     OW23899   4.551   6.461   2.317
 7667SOL    HW123900   4.625   6.394   2.312
 7667SOL    HW223901   4.512   6.475   2.226
 7668SOL     OW23902   1.199   5.623   0.610
 7668SOL    HW123903   1.139   5.574   0.546
 7668SOL    HW223904   1.294   5.606   0.586
 7669SOL     OW23905   2.700   1.652   6.791
 7669SOL    HW123906   2.608   1.636   6.756
 7669SOL    HW223907   2.698   1.725   6.859
 7670SOL     OW23908   0.784   0.630   0.834
 7670SOL    HW123909   0.758   0.724   0.855
 7670SOL    HW223910   0.884   0.624   0.829
 7671SOL     OW23911   3.034   0.013   1.477
 7671SOL    HW123912   3.035   7.016   1.576
 7671SOL    HW223913   3.129   0.018   1.444
 7672SOL     OW23914   5.433   3.487   2.209
 7672SOL    HW123915   5.411   3.519   2.117
 7672SOL    HW223916   5.442   3.388   2.209
 7673SOL     OW23917   1.292   6.851   4.759
 7673SOL    HW123918   1.294   6.832   4.661
 7673SOL    HW223919   1.205   6.819   4.797
 7674SOL     OW23920   3.801   5.748   4.519
 7674SOL    HW123921   3.811   5.714   4.426
 7674SOL    HW223922   3.890   5.747   4.565
 7675SOL     OW23923   4.601   6.193   3.081
 7675SOL    HW123924   4.570   6.286   3.066
 7675SOL    HW223925   4.527   6.139   3.122
 7676SOL     OW23926   3.413   2.799   5.154
 7676SOL    HW123927   3.513   2.807   5.150
 7676SOL    HW223928   3.387   2.744   5.233
 7677SOL     OW23929   6.532   4.595   6.740
 7677SOL    HW123930   6.627   4.626   6.736
 7677SOL    HW223931   6.525   4.500   6.709
 7678SOL     OW23932   3.592   1.658   5.709
 7678SOL    HW123933   3.561   1.593   5.779
 7678SOL    HW223934   3.551   1.635   5.621
 7679SOL     OW23935   3.498   5.287   4.427
 7679SOL    HW123936   3.594   5.271   4.403
 7679SOL    HW223937   3.469   5.375   4.390
 7680SOL     OW23938   2.126   6.802   4.030
 7680SOL    HW123939   2.105   6.862   4.107
 7680SOL    HW223940   2.076   6.716   4.039
 7681SOL     OW23941   1.907   2.419   5.445
 7681SOL    HW123942   1.977   2.458   5.385
 7681SOL    HW223943   1.913   2.462   5.535
 7682SOL     OW23944   3.195   0.751   2.162
 7682SOL    HW123945   3.144   0.748   2.076
 7682SOL    HW223946   3.132   0.764   2.238
 7683SOL     OW23947   0.864   4.625   4.666
 7683SOL    HW123948   0.845   4.650   4.571
 7683SOL    HW223949   0.861   4.525   4.675
 7684SOL     OW23950   5.239   2.922   1.075
 7684SOL    HW123951   5.291   2.847   1.035
 7684SOL    HW223952   5.212   2.898   1.169
 7685SOL     OW23953   2.815   0.196   0.623
 7685SOL    HW123954   2.736   0.198   0.683
 7685SOL    HW223955   2.784   0.196   0.527
 7686SOL     OW23956   6.771   0.109   4.336
 7686SOL    HW123957   6.776   0.011   4.318
 7686SOL    HW223958   6.678   0.141   4.325
 7687SOL     OW23959   5.125   3.115   6.358
 7687SOL    HW123960   5.214   3.162   6.351
 7687SOL    HW223961   5.065   3.150   6.286
 7688SOL     OW23962   5.616   2.811   6.516
 7688SOL    HW123963   5.571   2.758   6.444
 7688SOL    HW223964   5.694   2.760   6.552
 7689SOL     OW23965   5.654   6.897   1.908
 7689SOL    HW123966   5.744   6.860   1.930
 7689SOL    HW223967   5.660   6.997   1.901
 7690SOL     OW23968   5.712   4.983   2.041
 7690SOL    HW123969   5.640   4.970   2.109
 7690SOL    HW223970   5.754   5.072   2.054
 7691SOL     OW23971   4.869   2.838   4.305
 7691SOL    HW123972   4.948   2.895   4.281
 7691SOL    HW223973   4.838   2.861   4.398
 7692SOL     OW23974   2.978   6.567   2.042
 7692SOL    HW123975   2.916   6.620   2.100
 7692SOL    HW223976   3.047   6.628   2.003
 7693SOL     OW23977   3.264   1.470   1.767
 7693SOL    HW123978   3.215   1.383   1.766
 7693SOL    HW223979   3.350   1.461   1.717
 7694SOL     OW23980   4.548   1.988   6.565
 7694SOL    HW123981   4.611   2.065   6.575
 7694SOL    HW223982   4.599   1.904   6.551
 7695SOL     OW23983   5.027   6.684   3.716
 7695SOL    HW123984   4.953   6.617   3.707
 7695SOL    HW223985   5.115   6.640   3.697
 7696SOL     OW23986   2.453   2.204   5.696
 7696SOL    HW123987   2.448   2.262   5.778
 7696SOL    HW223988   2.364   2.162   5.680
 7697SOL     OW23989   5.891   6.817   3.830
 7697SOL    HW123990   5.823   6.885   3.805
 7697SOL    HW223991   5.982   6.848   3.801
 7698SOL     OW23992   6.329   2.799   0.999
 7698SOL    HW123993   6.374   2.877   0.956
 7698SOL    HW223994   6.288   2.741   0.929
 7699SOL     OW23995   4.300   6.000   5.578
 7699SOL    HW123996   4.360   6.021   5.501
 7699SOL    HW223997   4.236   5.927   5.552
 7700SOL     OW23998   5.727   5.317   1.198
 7700SOL    HW123999   5.674   5.233   1.204
 7700SOL    HW224000   5.820   5.300   1.230
 7701SOL     OW24001   1.980   2.052   6.692
 7701SOL    HW124002   2.060   1.995   6.673
 7701SOL    HW224003   1.920   2.005   6.758
 7702SOL     OW24004   5.336   6.489   5.185
 7702SOL    HW124005   5.259   6.427   5.206
 7702SOL    HW224006   5.301   6.581   5.168
 7703SOL     OW24007   0.056   6.505   5.448
 7703SOL    HW124008   0.068   6.511   5.547
 7703SOL    HW224009   0.140   6.471   5.406
 7704SOL     OW24010   1.680   1.689   4.933
 7704SOL    HW124011   1.640   1.601   4.955
 7704SOL    HW224012   1.734   1.681   4.849
 7705SOL     OW24013   0.856   4.420   0.134
 7705SOL    HW124014   0.846   4.519   0.123
 7705SOL    HW224015   0.902   4.382   0.054
 7706SOL     OW24016   3.358   3.154   2.400
 7706SOL    HW124017   3.419   3.164   2.479
 7706SOL    HW224018   3.412   3.155   2.316
 7707SOL     OW24019   6.541   4.477   6.306
 7707SOL    HW124020   6.446   4.509   6.307
 7707SOL    HW224021   6.556   4.419   6.225
 7708SOL     OW24022   1.544   0.202   4.070
 7708SOL    HW124023   1.445   0.191   4.079
 7708SOL    HW224024   1.581   0.244   4.153
 7709SOL     OW24025   6.739   4.665   1.231
 7709SOL    HW124026   6.695   4.670   1.321
 7709SOL    HW224027   6.766   4.757   1.202
 7710SOL     OW24028   6.272   2.979   1.762
 7710SOL    HW124029   6.320   2.990   1.848
 7710SOL    HW224030   6.254   2.882   1.745
 7711SOL     OW24031   0.761   4.792   4.059
 7711SOL    HW124032   0.826   4.749   3.997
 7711SOL    HW224033   0.671   4.751   4.047
 7712SOL     OW24034   0.507   4.754   4.429
 7712SOL    HW124035   0.586   4.816   4.441
 7712SOL    HW224036   0.446   4.764   4.508
 7713SOL     OW24037   0.925   4.916   0.613
 7713SOL    HW124038   0.998   4.855   0.645
 7713SOL    HW224039   0.962   4.979   0.545
 7714SOL     OW24040   6.254   1.737   5.295
 7714SOL    HW124041   6.177   1.693   5.249
 7714SOL    HW224042   6.239   1.736   5.394
 7715SOL     OW24043   3.586   3.030   6.276
 7715SOL    HW124044   3.616   2.941   6.310
 7715SOL    HW224045   3.658   3.098   6.290
 7716SOL     OW24046   1.211   6.669   6.281
 7716SOL    HW124047   1.151   6.673   6.201
 7716SOL    HW224048   1.256   6.580   6.285
 7717SOL     OW24049   0.340   2.066   6.014
 7717SOL    HW124050   0.314   2.158   6.045
 7717SOL    HW224051   0.283   1.998   6.059
 7718SOL     OW24052   0.212   2.852   2.894
 7718SOL    HW124053   0.298   2.870   2.845
 7718SOL    HW224054   0.136   2.890   2.842
 7719SOL     OW24055   2.024   5.504   4.983
 7719SOL    HW124056   2.011   5.593   5.026
 7719SOL    HW224057   2.047   5.516   4.887
 7720SOL     OW24058   4.491   1.094   6.874
 7720SOL    HW124059   4.497   1.194   6.882
 7720SOL    HW224060   4.495   1.069   6.777
 7721SOL     OW24061   6.106   5.896   2.530
 7721SOL    HW124062   6.069   5.919   2.620
 7721SOL    HW224063   6.132   5.800   2.529
 7722SOL     OW24064   0.920   6.182   4.129
 7722SOL    HW124065   0.915   6.146   4.036
 7722SOL    HW224066   0.886   6.276   4.130
 7723SOL     OW24067   4.473   4.249   0.014
 7723SOL    HW124068   4.432   4.327   6.984
 7723SOL    HW224069   4.414   4.222   0.090
 7724SOL     OW24070   1.652   4.030   0.290
 7724SOL    HW124071   1.643   3.961   0.362
 7724SOL    HW224072   1.738   4.015   0.240
 7725SOL     OW24073   5.447   3.428   4.487
 7725SOL    HW124074   5.443   3.438   4.388
 7725SOL    HW224075   5.541   3.409   4.515
 7726SOL     OW24076   2.094   3.686   6.730
 7726SOL    HW124077   2.132   3.597   6.753
 7726SOL    HW224078   2.053   3.682   6.638
 7727SOL     OW24079   4.811   0.396   2.109
 7727SOL    HW124080   4.721   0.441   2.104
 7727SOL    HW224081   4.879   0.461   2.141
 7728SOL     OW24082   1.856   3.802   4.687
 7728SOL    HW124083   1.952   3.780   4.669
 7728SOL    HW224084   1.843   3.815   4.785
 7729SOL     OW24085   6.921   0.632   2.459
 7729SOL    HW124086   6.836   0.676   2.430
 7729SOL    HW224087   6.923   0.626   2.559
 7730SOL     OW24088   6.251   4.763   5.551
 7730SOL    HW124089   6.183   4.834   5.569
 7730SOL    HW224090   6.295   4.736   5.637
 7731SOL     OW24091   6.514   6.940   5.434
 7731SOL    HW124092   6.553   6.957   5.343
 7731SOL    HW224093   6.558   6.861   5.475
 7732SOL     OW24094   4.603   1.076   0.274
 7732SOL    HW124095   4.606   1.030   0.186
 7732SOL    HW224096   4.520   1.051   0.323
 7733SOL     OW24097   6.871   5.370   1.233
 7733SOL    HW124098   6.929   5.366   1.315
 7733SOL    HW224099   6.782   5.407   1.257
 7734SOL     OW24100   4.023   3.777   3.357
 7734SOL    HW124101   3.938   3.732   3.385
 7734SOL    HW224102   4.077   3.715   3.300
 7735SOL     OW24103   0.741   5.836   1.014
 7735SOL    HW124104   0.803   5.811   0.939
 7735SOL    HW224105   0.669   5.897   0.979
 7736SOL     OW24106   1.687   2.097   0.049
 7736SOL    HW124107   1.714   2.090   0.145
 7736SOL    HW224108   1.659   2.191   0.029
 7737SOL     OW24109   4.344   4.491   6.961
 7737SOL    HW124110   4.377   4.586   6.960
 7737SOL    HW224111   4.249   4.489   6.994
 7738SOL     OW24112   1.781   0.547   4.965
 7738SOL    HW124113   1.831   0.514   4.884
 7738SOL    HW224114   1.845   0.591   5.028
 7739SOL     OW24115   1.609   2.748   0.426
 7739SOL    HW124116   1.622   2.839   0.388
 7739SOL    HW224117   1.522   2.744   0.474
 7740SOL     OW24118   2.454   1.141   4.475
 7740SOL    HW124119   2.481   1.189   4.559
 7740SOL    HW224120   2.470   1.043   4.486
 7741SOL     OW24121   0.209   4.595   5.938
 7741SOL    HW124122   0.142   4.653   5.891
 7741SOL    HW224123   0.241   4.641   6.021
 7742SOL     OW24124   4.782   2.371   4.220
 7742SOL    HW124125   4.763   2.467   4.201
 7742SOL    HW224126   4.793   2.358   4.318
 7743SOL     OW24127   4.155   1.141   5.769
 7743SOL    HW124128   4.172   1.094   5.856
 7743SOL    HW224129   4.148   1.239   5.785
 7744SOL     OW24130   0.843   0.038   4.570
 7744SOL    HW124131   0.785   6.974   4.561
 7744SOL    HW224132   0.834   0.095   4.489
 7745SOL     OW24133   2.681   6.822   1.050
 7745SOL    HW124134   2.716   6.852   0.961
 7745SOL    HW224135   2.640   6.731   1.041
 7746SOL     OW24136   0.048   6.259   1.416
 7746SOL    HW124137   0.075   6.354   1.401
 7746SOL    HW224138   0.013   6.249   1.509
 7747SOL     OW24139   0.171   5.639   0.779
 7747SOL    HW124140   0.268   5.618   0.766
 7747SOL    HW224141   0.117   5.555   0.772
 7748SOL     OW24142   4.382   1.101   6.228
 7748SOL    HW124143   4.424   1.189   6.251
 7748SOL    HW224144   4.378   1.043   6.309
 7749SOL     OW24145   3.623   2.992   3.386
 7749SOL    HW124146   3.602   3.088   3.404
 7749SOL    HW224147   3.540   2.937   3.393
 7750SOL     OW24148   5.339   5.019   6.023
 7750SOL    HW124149   5.251   5.065   6.012
 7750SOL    HW224150   5.323   4.923   6.044
 7751SOL     OW24151   6.597   1.332   4.600
 7751SOL    HW124152   6.613   1.356   4.696
 7751SOL    HW224153   6.657   1.256   4.575
 7752SOL     OW24154   6.338   4.866   5.259
 7752SOL    HW124155   6.260   4.804   5.257
 7752SOL    HW224156   6.375   4.870   5.352
 7753SOL     OW24157   2.795   0.532   4.805
 7753SOL    HW124158   2.828   0.504   4.715
 7753SOL    HW224159   2.873   0.534   4.869
 7754SOL     OW24160   5.996   0.449   1.388
 7754SOL    HW124161   6.028   0.486   1.476
 7754SOL    HW224162   5.994   0.523   1.321
 7755SOL     OW24163   1.771   6.083   5.161
 7755SOL    HW124164   1.708   6.034   5.220
 7755SOL    HW224165   1.727   6.101   5.073
 7756SOL     OW24166   4.106   5.807   2.981
 7756SOL    HW124167   4.201   5.777   2.973
 7756SOL    HW224168   4.077   5.851   2.896
 7757SOL     OW24169   3.628   0.017   6.177
 7757SOL    HW124170   3.610   0.073   6.096
 7757SOL    HW224171   3.681   0.069   6.243
 7758SOL     OW24172   3.229   2.660   6.490
 7758SOL    HW124173   3.144   2.714   6.494
 7758SOL    HW224174   3.304   2.713   6.529
 7759SOL     OW24175   1.791   0.481   4.658
 7759SOL    HW124176   1.694   0.467   4.637
 7759SOL    HW224177   1.833   0.394   4.683
 7760SOL     OW24178   5.077   2.339   3.570
 7760SOL    HW124179   5.011   2.278   3.526
 7760SOL    HW224180   5.147   2.365   3.504
 7761SOL     OW24181   4.481   0.714   6.780
 7761SOL    HW124182   4.409   0.697   6.847
 7761SOL    HW224183   4.569   0.717   6.826
 7762SOL     OW24184   1.946   2.381   0.354
 7762SOL    HW124185   1.957   2.429   0.267
 7762SOL    HW224186   2.001   2.426   0.424
 7763SOL     OW24187   2.307   2.222   1.331
 7763SOL    HW124188   2.402   2.248   1.343
 7763SOL    HW224189   2.247   2.294   1.367
 7764SOL     OW24190   4.013   3.440   2.162
 7764SOL    HW124191   4.040   3.396   2.248
 7764SOL    HW224192   3.923   3.482   2.173
 7765SOL     OW24193   6.835   1.782   2.515
 7765SOL    HW124194   6.802   1.742   2.601
 7765SOL    HW224195   6.758   1.798   2.454
 7766SOL     OW24196   6.866   3.745   0.288
 7766SOL    HW124197   6.832   3.658   0.324
 7766SOL    HW224198   6.853   3.816   0.357
 7767SOL     OW24199   5.672   3.980   5.518
 7767SOL    HW124200   5.687   3.988   5.419
 7767SOL    HW224201   5.605   4.048   5.546
 7768SOL     OW24202   4.016   5.355   2.015
 7768SOL    HW124203   3.971   5.270   1.987
 7768SOL    HW224204   4.049   5.403   1.934
 7769SOL     OW24205   5.972   1.957   2.317
 7769SOL    HW124206   5.906   1.929   2.247
 7769SOL    HW224207   5.926   1.971   2.404
 7770SOL     OW24208   3.393   6.172   0.939
 7770SOL    HW124209   3.370   6.250   0.996
 7770SOL    HW224210   3.346   6.091   0.974
 7771SOL     OW24211   2.141   1.504   4.855
 7771SOL    HW124212   2.180   1.443   4.923
 7771SOL    HW224213   2.214   1.552   4.807
 7772SOL     OW24214   5.612   0.692   4.904
 7772SOL    HW124215   5.578   0.613   4.854
 7772SOL    HW224216   5.555   0.708   4.985
 7773SOL     OW24217   3.841   4.179   6.041
 7773SOL    HW124218   3.867   4.232   5.961
 7773SOL    HW224219   3.742   4.188   6.057
 7774SOL     OW24220   5.174   1.475   6.912
 7774SOL    HW124221   5.243   1.532   6.958
 7774SOL    HW224222   5.189   1.479   6.813
 7775SOL     OW24223   1.694   0.257   1.951
 7775SOL    HW124224   1.629   0.333   1.944
 7775SOL    HW224225   1.695   0.207   1.864
 7776SOL     OW24226   3.523   3.805   1.063
 7776SOL    HW124227   3.501   3.872   1.134
 7776SOL    HW224228   3.450   3.736   1.060
 7777SOL     OW24229   1.038   0.139   6.434
 7777SOL    HW124230   1.133   0.151   6.462
 7777SOL    HW224231   1.034   0.118   6.336
 7778SOL     OW24232   5.026   1.346   1.896
 7778SOL    HW124233   4.967   1.332   1.975
 7778SOL    HW224234   4.987   1.417   1.837
 7779SOL     OW24235   4.537   2.742   0.568
 7779SOL    HW124236   4.478   2.756   0.648
 7779SOL    HW224237   4.621   2.795   0.580
 7780SOL     OW24238   0.929   0.400   5.205
 7780SOL    HW124239   0.829   0.388   5.198
 7780SOL    HW224240   0.971   0.312   5.226
 7781SOL     OW24241   1.685   4.701   5.293
 7781SOL    HW124242   1.782   4.675   5.288
 7781SOL    HW224243   1.638   4.642   5.358
 7782SOL     OW24244   4.424   4.737   0.365
 7782SOL    HW124245   4.514   4.764   0.332
 7782SOL    HW224246   4.359   4.811   0.348
 7783SOL     OW24247   2.450   5.539   0.137
 7783SOL    HW124248   2.459   5.628   0.183
 7783SOL    HW224249   2.467   5.466   0.203
 7784SOL     OW24250   6.764   3.224   0.396
 7784SOL    HW124251   6.800   3.211   0.303
 7784SOL    HW224252   6.795   3.149   0.454
 7785SOL     OW24253   2.112   5.575   5.767
 7785SOL    HW124254   2.134   5.533   5.679
 7785SOL    HW224255   2.195   5.585   5.822
 7786SOL     OW24256   3.634   4.168   4.308
 7786SOL    HW124257   3.664   4.166   4.403
 7786SOL    HW224258   3.712   4.154   4.248
 7787SOL     OW24259   2.877   2.274   5.175
 7787SOL    HW124260   2.972   2.269   5.146
 7787SOL    HW224261   2.821   2.312   5.101
 7788SOL     OW24262   0.791   1.824   0.654
 7788SOL    HW124263   0.755   1.761   0.724
 7788SOL    HW224264   0.791   1.917   0.690
 7789SOL     OW24265   2.267   0.640   1.275
 7789SOL    HW124266   2.305   0.727   1.244
 7789SOL    HW224267   2.305   0.617   1.364
 7790SOL     OW24268   6.007   3.840   2.960
 7790SOL    HW124269   5.981   3.771   3.028
 7790SOL    HW224270   6.055   3.915   3.006
 7791SOL     OW24271   0.335   4.531   5.117
 7791SOL    HW124272   0.236   4.528   5.131
 7791SOL    HW224273   0.374   4.604   5.173
 7792SOL     OW24274   2.067   5.548   6.780
 7792SOL    HW124275   2.022   5.476   6.727
 7792SOL    HW224276   2.142   5.587   6.727
 7793SOL     OW24277   1.771   1.099   6.249
 7793SOL    HW124278   1.816   1.171   6.302
 7793SOL    HW224279   1.821   1.014   6.259
 7794SOL     OW24280   5.413   5.404   2.658
 7794SOL    HW124281   5.318   5.401   2.690
 7794SOL    HW224282   5.440   5.499   2.642
 7795SOL     OW24283   1.211   4.619   6.098
 7795SOL    HW124284   1.274   4.692   6.125
 7795SOL    HW224285   1.184   4.567   6.179
 7796SOL     OW24286   4.110   3.731   4.614
 7796SOL    HW124287   4.181   3.740   4.544
 7796SOL    HW224288   4.078   3.636   4.617
 7797SOL     OW24289   1.061   6.881   3.178
 7797SOL    HW124290   1.035   6.803   3.235
 7797SOL    HW224291   1.033   6.865   3.084
 7798SOL     OW24292   4.326   6.468   5.976
 7798SOL    HW124293   4.379   6.542   6.016
 7798SOL    HW224294   4.373   6.381   5.992
 7799SOL     OW24295   6.367   4.778   1.256
 7799SOL    HW124296   6.323   4.847   1.198
 7799SOL    HW224297   6.308   4.699   1.265
 7800SOL     OW24298   0.582   6.307   2.225
 7800SOL    HW124299   0.631   6.323   2.139
 7800SOL    HW224300   0.634   6.347   2.301
 7801SOL     OW24301   3.842   2.236   5.270
 7801SOL    HW124302   3.881   2.145   5.284
 7801SOL    HW224303   3.750   2.239   5.310
 7802SOL     OW24304   5.396   1.877   0.183
 7802SOL    HW124305   5.405   1.968   0.224
 7802SOL    HW224306   5.411   1.808   0.253
 7803SOL     OW24307   2.680   4.222   5.304
 7803SOL    HW124308   2.594   4.187   5.340
 7803SOL    HW224309   2.731   4.148   5.260
 7804SOL     OW24310   4.670   0.880   6.269
 7804SOL    HW124311   4.597   0.843   6.326
 7804SOL    HW224312   4.756   0.876   6.318
 7805SOL     OW24313   5.339   3.332   1.701
 7805SOL    HW124314   5.252   3.311   1.745
 7805SOL    HW224315   5.322   3.372   1.611
 7806SOL     OW24316   4.889   3.263   6.554
 7806SOL    HW124317   4.856   3.296   6.642
 7806SOL    HW224318   4.978   3.303   6.534
 7807SOL     OW24319   6.994   3.593   6.580
 7807SOL    HW124320   0.066   3.593   6.536
 7807SOL    HW224321   6.926   3.556   6.517
 7808SOL     OW24322   1.134   1.219   5.432
 7808SOL    HW124323   1.092   1.133   5.459
 7808SOL    HW224324   1.063   1.286   5.410
 7809SOL     OW24325   1.489   5.287   5.729
 7809SOL    HW124326   1.553   5.240   5.790
 7809SOL    HW224327   1.500   5.254   5.636
 7810SOL     OW24328   2.103   1.075   6.984
 7810SOL    HW124329   2.056   1.024   6.912
 7810SOL    HW224330   2.196   1.040   6.994
 7811SOL     OW24331   0.575   4.511   4.285
 7811SOL    HW124332   0.672   4.493   4.268
 7811SOL    HW224333   0.566   4.584   4.352
 7812SOL     OW24334   0.684   2.151   3.835
 7812SOL    HW124335   0.654   2.075   3.779
 7812SOL    HW224336   0.698   2.232   3.778
 7813SOL     OW24337   6.788   2.443   1.123
 7813SOL    HW124338   6.803   2.406   1.214
 7813SOL    HW224339   6.710   2.505   1.124
 7814SOL     OW24340   2.101   4.069   4.138
 7814SOL    HW124341   2.167   4.049   4.066
 7814SOL    HW224342   2.034   4.135   4.104
 7815SOL     OW24343   0.110   1.790   5.932
 7815SOL    HW124344   0.109   1.843   5.847
 7815SOL    HW224345   0.195   1.736   5.936
 7816SOL     OW24346   1.353   4.414   5.140
 7816SOL    HW124347   1.418   4.367   5.201
 7816SOL    HW224348   1.266   4.427   5.188
 7817SOL     OW24349   5.316   3.126   5.347
 7817SOL    HW124350   5.375   3.052   5.381
 7817SOL    HW224351   5.220   3.101   5.361
 7818SOL     OW24352   5.091   4.290   2.759
 7818SOL    HW124353   5.115   4.386   2.742
 7818SOL    HW224354   5.023   4.260   2.692
 7819SOL     OW24355   0.410   1.572   1.429
 7819SOL    HW124356   0.371   1.515   1.356
 7819SOL    HW224357   0.506   1.592   1.407
 7820SOL     OW24358   2.182   7.009   6.426
 7820SOL    HW124359   2.257   0.048   6.391
 7820SOL    HW224360   2.198   6.987   6.522
 7821SOL     OW24361   3.216   5.249   1.206
 7821SOL    HW124362   3.290   5.261   1.140
 7821SOL    HW224363   3.128   5.253   1.158
 7822SOL     OW24364   2.006   6.495   5.631
 7822SOL    HW124365   2.004   6.557   5.552
 7822SOL    HW224366   1.925   6.435   5.627
 7823SOL     OW24367   1.665   4.000   5.182
 7823SOL    HW124368   1.665   3.902   5.204
 7823SOL    HW224369   1.759   4.033   5.178
 7824SOL     OW24370   0.645   3.399   5.388
 7824SOL    HW124371   0.682   3.307   5.375
 7824SOL    HW224372   0.556   3.405   5.344
 7825SOL     OW24373   3.286   0.714   6.943
 7825SOL    HW124374   3.253   0.642   7.005
 7825SOL    HW224375   3.223   0.791   6.946
 7826SOL     OW24376   0.391   3.319   5.314
 7826SOL    HW124377   0.343   3.235   5.290
 7826SOL    HW224378   0.365   3.346   5.407
 7827SOL     OW24379   6.150   5.149   4.792
 7827SOL    HW124380   6.084   5.223   4.805
 7827SOL    HW224381   6.157   5.095   4.876
 7828SOL     OW24382   0.770   4.938   6.462
 7828SOL    HW124383   0.723   4.904   6.544
 7828SOL    HW224384   0.758   4.873   6.387
 7829SOL     OW24385   3.746   4.313   0.616
 7829SOL    HW124386   3.768   4.244   0.547
 7829SOL    HW224387   3.650   4.337   0.610
 7830SOL     OW24388   2.823   5.833   3.950
 7830SOL    HW124389   2.780   5.759   3.899
 7830SOL    HW224390   2.894   5.876   3.894
 7831SOL     OW24391   1.812   6.906   6.237
 7831SOL    HW124392   1.739   6.972   6.219
 7831SOL    HW224393   1.888   6.952   6.284
 7832SOL     OW24394   6.384   1.088   4.951
 7832SOL    HW124395   6.370   0.995   4.984
 7832SOL    HW224396   6.310   1.114   4.889
 7833SOL     OW24397   1.061   0.781   2.729
 7833SOL    HW124398   1.008   0.775   2.645
 7833SOL    HW224399   1.144   0.835   2.712
 7834SOL     OW24400   6.715   3.089   5.311
 7834SOL    HW124401   6.660   3.132   5.382
 7834SOL    HW224402   6.812   3.103   5.331
 7835SOL     OW24403   3.965   2.175   5.636
 7835SOL    HW124404   4.021   2.190   5.718
 7835SOL    HW224405   3.976   2.080   5.605
 7836SOL     OW24406   3.229   4.149   4.852
 7836SOL    HW124407   3.199   4.244   4.847
 7836SOL    HW224408   3.284   4.127   4.772
 7837SOL     OW24409   0.653   5.752   6.462
 7837SOL    HW124410   0.731   5.767   6.401
 7837SOL    HW224411   0.590   5.687   6.419
 7838SOL     OW24412   4.151   5.427   2.246
 7838SOL    HW124413   4.139   5.526   2.257
 7838SOL    HW224414   4.107   5.398   2.160
 7839SOL     OW24415   6.130   3.663   4.715
 7839SOL    HW124416   6.144   3.628   4.808
 7839SOL    HW224417   6.048   3.621   4.675
 7840SOL     OW24418   2.240   2.984   3.735
 7840SOL    HW124419   2.324   2.929   3.738
 7840SOL    HW224420   2.165   2.932   3.775
 7841SOL     OW24421   3.903   1.960   6.342
 7841SOL    HW124422   3.803   1.969   6.334
 7841SOL    HW224423   3.936   2.025   6.410
 7842SOL     OW24424   0.962   1.158   1.678
 7842SOL    HW124425   0.956   1.196   1.585
 7842SOL    HW224426   0.876   1.112   1.701
 7843SOL     OW24427   0.056   6.375   2.603
 7843SOL    HW124428   7.011   6.342   2.674
 7843SOL    HW224429   0.006   6.387   2.517
 7844SOL     OW24430   4.088   6.878   2.884
 7844SOL    HW124431   4.010   6.831   2.927
 7844SOL    HW224432   4.067   6.975   2.877
 7845SOL     OW24433   6.360   3.078   1.280
 7845SOL    HW124434   6.284   3.077   1.345
 7845SOL    HW224435   6.328   3.116   1.193
 7846SOL     OW24436   0.872   1.249   1.044
 7846SOL    HW124437   0.794   1.190   1.024
 7846SOL    HW224438   0.878   1.320   0.974
 7847SOL     OW24439   5.422   4.585   6.099
 7847SOL    HW124440   5.446   4.509   6.038
 7847SOL    HW224441   5.497   4.601   6.164
 7848SOL     OW24442   3.884   4.404   0.344
 7848SOL    HW124443   3.803   4.452   0.310
 7848SOL    HW224444   3.866   4.305   0.344
 7849SOL     OW24445   4.120   5.167   6.953
 7849SOL    HW124446   4.073   5.080   6.938
 7849SOL    HW224447   4.075   5.239   6.902
 7850SOL     OW24448   7.005   0.468   4.020
 7850SOL    HW124449   6.931   0.449   3.955
 7850SOL    HW224450   0.065   0.508   3.971
 7851SOL     OW24451   6.970   4.985   0.803
 7851SOL    HW124452   0.025   5.037   0.758
 7851SOL    HW224453   6.892   5.045   0.820
 7852SOL     OW24454   1.249   2.988   5.887
 7852SOL    HW124455   1.314   2.953   5.820
 7852SOL    HW224456   1.190   2.913   5.919
 7853SOL     OW24457   4.139   2.929   1.772
 7853SOL    HW124458   4.039   2.936   1.776
 7853SOL    HW224459   4.179   2.978   1.849
 7854SOL     OW24460   4.757   1.162   0.693
 7854SOL    HW124461   4.850   1.164   0.730
 7854SOL    HW224462   4.761   1.157   0.593
 7855SOL     OW24463   5.497   6.338   3.846
 7855SOL    HW124464   5.434   6.324   3.770
 7855SOL    HW224465   5.450   6.318   3.932
 7856SOL     OW24466   2.283   6.406   5.572
 7856SOL    HW124467   2.198   6.402   5.625
 7856SOL    HW224468   2.361   6.392   5.633
 7857SOL     OW24469   6.226   4.555   0.946
 7857SOL    HW124470   6.181   4.639   0.918
 7857SOL    HW224471   6.325   4.563   0.932
 7858SOL     OW24472   6.891   3.822   6.401
 7858SOL    HW124473   6.837   3.748   6.360
 7858SOL    HW224474   6.959   3.782   6.463
 7859SOL     OW24475   5.082   1.982   0.941
 7859SOL    HW124476   5.071   2.052   1.011
 7859SOL    HW224477   5.024   1.904   0.962
 7860SOL     OW24478   2.798   1.262   4.293
 7860SOL    HW124479   2.782   1.311   4.379
 7860SOL    HW224480   2.766   1.318   4.216
 7861SOL     OW24481   1.958   6.149   1.093
 7861SOL    HW124482   2.057   6.160   1.094
 7861SOL    HW224483   1.922   6.171   1.184
 7862SOL     OW24484   1.348   6.692   0.019
 7862SOL    HW124485   1.448   6.701   0.015
 7862SOL    HW224486   1.313   6.668   6.945
 7863SOL     OW24487   1.153   4.515   4.043
 7863SOL    HW124488   1.146   4.581   4.118
 7863SOL    HW224489   1.234   4.535   3.989
 7864SOL     OW24490   2.806   5.822   4.873
 7864SOL    HW124491   2.711   5.790   4.863
 7864SOL    HW224492   2.818   5.862   4.963
 7865SOL     OW24493   5.744   4.064   3.663
 7865SOL    HW124494   5.657   4.014   3.657
 7865SOL    HW224495   5.726   4.161   3.680
 7866SOL     OW24496   0.877   0.662   5.734
 7866SOL    HW124497   0.833   0.698   5.816
 7866SOL    HW224498   0.806   0.640   5.666
 7867SOL     OW24499   4.357   5.049   4.005
 7867SOL    HW124500   4.359   5.102   4.090
 7867SOL    HW224501   4.264   5.020   3.986
 7868SOL     OW24502   3.253   6.306   1.414
 7868SOL    HW124503   3.312   6.226   1.397
 7868SOL    HW224504   3.167   6.295   1.365
 7869SOL     OW24505   6.393   4.972   0.156
 7869SOL    HW124506   6.431   4.910   0.226
 7869SOL    HW224507   6.457   5.046   0.139
 7870SOL     OW24508   5.973   6.596   3.510
 7870SOL    HW124509   5.959   6.633   3.418
 7870SOL    HW224510   5.977   6.671   3.576
 7871SOL     OW24511   4.401   1.205   0.744
 7871SOL    HW124512   4.460   1.156   0.680
 7871SOL    HW224513   4.338   1.264   0.693
 7872SOL     OW24514   0.233   5.506   3.066
 7872SOL    HW124515   0.226   5.427   3.005
 7872SOL    HW224516   0.296   5.573   3.027
 7873SOL     OW24517   4.850   2.013   6.995
 7873SOL    HW124518   4.750   2.017   6.984
 7873SOL    HW224519   4.879   2.086   0.039
 7874SOL     OW24520   5.681   2.554   0.276
 7874SOL    HW124521   5.735   2.512   0.203
 7874SOL    HW224522   5.697   2.506   0.362
 7875SOL     OW24523   6.449   4.739   6.544
 7875SOL    HW124524   6.507   4.707   6.619
 7875SOL    HW224525   6.406   4.660   6.499
 7876SOL     OW24526   1.530   6.779   3.398
 7876SOL    HW124527   1.563   6.717   3.327
 7876SOL    HW224528   1.496   6.726   3.476
 7877SOL     OW24529   6.963   3.059   2.482
 7877SOL    HW124530   6.891   3.081   2.417
 7877SOL    HW224531   0.007   3.137   2.494
 7878SOL     OW24532   3.921   6.648   2.505
 7878SOL    HW124533   3.877   6.667   2.417
 7878SOL    HW224534   3.915   6.550   2.526
 7879SOL     OW24535   3.311   5.960   3.229
 7879SOL    HW124536   3.303   5.978   3.327
 7879SOL    HW224537   3.275   6.038   3.178
 7880SOL     OW24538   1.032   4.756   2.390
 7880SOL    HW124539   1.081   4.721   2.470
 7880SOL    HW224540   0.940   4.716   2.387
 7881SOL     OW24541   4.781   4.020   3.496
 7881SOL    HW124542   4.780   3.951   3.424
 7881SOL    HW224543   4.839   3.988   3.571
 7882SOL     OW24544   0.256   3.092   6.957
 7882SOL    HW124545   0.257   3.192   6.952
 7882SOL    HW224546   0.278   3.054   6.868
 7883SOL     OW24547   1.055   0.155   5.226
 7883SOL    HW124548   1.021   0.095   5.298
 7883SOL    HW224549   1.118   0.105   5.166
 7884SOL     OW24550   1.108   3.123   4.270
 7884SOL    HW124551   1.098   3.211   4.316
 7884SOL    HW224552   1.205   3.109   4.248
 7885SOL     OW24553   0.388   6.021   6.812
 7885SOL    HW124554   0.317   6.051   6.748
 7885SOL    HW224555   0.470   6.077   6.799
 7886SOL     OW24556   5.348   4.164   1.114
 7886SOL    HW124557   5.343   4.075   1.068
 7886SOL    HW224558   5.276   4.170   1.183
 7887SOL     OW24559   4.716   3.093   6.422
 7887SOL    HW124560   4.794   3.133   6.469
 7887SOL    HW224561   4.709   3.130   6.329
 7888SOL     OW24562   4.662   6.035   4.968
 7888SOL    HW124563   4.595   5.966   4.938
 7888SOL    HW224564   4.752   5.992   4.976
 7889SOL     OW24565   6.508   5.194   3.419
 7889SOL    HW124566   6.501   5.274   3.479
 7889SOL    HW224567   6.453   5.209   3.337
 7890SOL     OW24568   1.913   3.380   2.152
 7890SOL    HW124569   1.879   3.316   2.221
 7890SOL    HW224570   1.928   3.470   2.194
 7891SOL     OW24571   0.917   4.901   2.961
 7891SOL    HW124572   0.925   4.876   2.865
 7891SOL    HW224573   0.911   5.001   2.969
 7892SOL     OW24574   2.348   2.177   4.893
 7892SOL    HW124575   2.300   2.248   4.944
 7892SOL    HW224576   2.307   2.088   4.913
 7893SOL     OW24577   5.874   6.680   1.642
 7893SOL    HW124578   5.945   6.749   1.630
 7893SOL    HW224579   5.792   6.707   1.592
 7894SOL     OW24580   2.971   0.530   1.658
 7894SOL    HW124581   2.923   0.617   1.643
 7894SOL    HW224582   3.020   0.533   1.744
 7895SOL     OW24583   0.269   1.319   3.632
 7895SOL    HW124584   0.271   1.319   3.532
 7895SOL    HW224585   0.251   1.412   3.665
 7896SOL     OW24586   3.895   1.717   6.514
 7896SOL    HW124587   3.910   1.779   6.437
 7896SOL    HW224588   3.839   1.640   6.485
 7897SOL     OW24589   3.035   2.844   6.556
 7897SOL    HW124590   2.978   2.773   6.515
 7897SOL    HW224591   3.037   2.924   6.495
 7898SOL     OW24592   5.078   1.211   4.243
 7898SOL    HW124593   5.031   1.127   4.215
 7898SOL    HW224594   5.011   1.275   4.282
 7899SOL     OW24595   4.035   1.240   1.991
 7899SOL    HW124596   4.022   1.333   1.956
 7899SOL    HW224597   4.089   1.243   2.075
 7900SOL     OW24598   1.184   5.688   1.206
 7900SOL    HW124599   1.275   5.650   1.222
 7900SOL    HW224600   1.115   5.618   1.222
 7901SOL     OW24601   6.203   5.375   0.687
 7901SOL    HW124602   6.213   5.312   0.764
 7901SOL    HW224603   6.110   5.369   0.650
 7902SOL     OW24604   5.041   4.714   5.692
 7902SOL    HW124605   5.017   4.640   5.629
 7902SOL    HW224606   4.960   4.740   5.745
 7903SOL     OW24607   6.886   3.024   0.526
 7903SOL    HW124608   6.874   2.945   0.586
 7903SOL    HW224609   6.936   2.996   0.444
 7904SOL     OW24610   5.919   2.219   2.679
 7904SOL    HW124611   5.920   2.303   2.625
 7904SOL    HW224612   5.902   2.141   2.620
 7905SOL     OW24613   1.732   2.068   1.850
 7905SOL    HW124614   1.723   2.151   1.905
 7905SOL    HW224615   1.824   2.063   1.811
 7906SOL     OW24616   0.285   4.481   6.897
 7906SOL    HW124617   0.374   4.451   6.863
 7906SOL    HW224618   0.239   4.404   6.942
 7907SOL     OW24619   6.624   2.589   2.114
 7907SOL    HW124620   6.689   2.544   2.054
 7907SOL    HW224621   6.650   2.685   2.127
 7908SOL     OW24622   6.693   1.074   2.998
 7908SOL    HW124623   6.608   1.103   2.953
 7908SOL    HW224624   6.743   1.012   2.937
 7909SOL     OW24625   4.213   6.461   4.970
 7909SOL    HW124626   4.296   6.419   5.007
 7909SOL    HW224627   4.140   6.456   5.038
 7910SOL     OW24628   6.289   2.820   5.917
 7910SOL    HW124629   6.323   2.912   5.893
 7910SOL    HW224630   6.306   2.758   5.842
 7911SOL     OW24631   6.794   5.561   6.676
 7911SOL    HW124632   6.796   5.641   6.736
 7911SOL    HW224633   6.886   5.542   6.642
 7912SOL     OW24634   0.282   4.876   5.456
 7912SOL    HW124635   0.350   4.803   5.450
 7912SOL    HW224636   0.217   4.868   5.380
 7913SOL     OW24637   1.223   6.252   6.418
 7913SOL    HW124638   1.274   6.167   6.432
 7913SOL    HW224639   1.210   6.298   6.506
 7914SOL     OW24640   6.448   4.165   1.170
 7914SOL    HW124641   6.426   4.161   1.267
 7914SOL    HW224642   6.408   4.086   1.124
 7915SOL     OW24643   3.573   1.091   2.685
 7915SOL    HW124644   3.629   1.161   2.730
 7915SOL    HW224645   3.481   1.092   2.725
 7916SOL     OW24646   4.399   3.907   5.704
 7916SOL    HW124647   4.388   3.812   5.732
 7916SOL    HW224648   4.309   3.950   5.694
 7917SOL     OW24649   3.856   3.509   3.873
 7917SOL    HW124650   3.950   3.520   3.904
 7917SOL    HW224651   3.815   3.599   3.857
 7918SOL     OW24652   6.133   2.259   2.854
 7918SOL    HW124653   6.051   2.246   2.798
 7918SOL    HW224654   6.185   2.337   2.818
 7919SOL     OW24655   5.491   4.279   1.700
 7919SOL    HW124656   5.578   4.230   1.699
 7919SOL    HW224657   5.498   4.362   1.644
 7920SOL     OW24658   0.030   0.063   1.757
 7920SOL    HW124659   0.012   6.982   1.764
 7920SOL    HW224660   0.101   0.088   1.824
 7921SOL     OW24661   2.148   6.060   1.889
 7921SOL    HW124662   2.247   6.049   1.894
 7921SOL    HW224663   2.125   6.157   1.898
 7922SOL     OW24664   0.806   5.059   5.742
 7922SOL    HW124665   0.837   5.120   5.815
 7922SOL    HW224666   0.861   4.975   5.743
 7923SOL     OW24667   0.485   1.814   3.143
 7923SOL    HW124668   0.530   1.788   3.058
 7923SOL    HW224669   0.421   1.889   3.125
 7924SOL     OW24670   1.788   1.309   3.390
 7924SOL    HW124671   1.783   1.210   3.405
 7924SOL    HW224672   1.861   1.348   3.446
 7925SOL     OW24673   0.183   1.426   6.867
 7925SOL    HW124674   0.185   1.477   6.781
 7925SOL    HW224675   0.247   1.468   6.932
 7926SOL     OW24676   3.077   0.006   1.762
 7926SOL    HW124677   3.038   6.938   1.798
 7926SOL    HW224678   3.077   0.075   1.834
 7927SOL     OW24679   4.670   4.271   4.638
 7927SOL    HW124680   4.685   4.282   4.736
 7927SOL    HW224681   4.679   4.359   4.592
 7928SOL     OW24682   0.546   4.417   6.826
 7928SOL    HW124683   0.615   4.433   6.755
 7928SOL    HW224684   0.539   4.499   6.883
 7929SOL     OW24685   3.970   3.976   4.542
 7929SOL    HW124686   3.957   3.987   4.444
 7929SOL    HW224687   3.990   3.880   4.563
 7930SOL     OW24688   5.043   6.287   3.009
 7930SOL    HW124689   5.021   6.191   2.992
 7930SOL    HW224690   5.000   6.344   2.939
 7931SOL     OW24691   2.991   3.557   6.347
 7931SOL    HW124692   3.042   3.507   6.277
 7931SOL    HW224693   2.955   3.642   6.309
 7932SOL     OW24694   3.122   0.363   0.497
 7932SOL    HW124695   3.052   0.357   0.567
 7932SOL    HW224696   3.175   0.447   0.510
 7933SOL     OW24697   1.471   0.816   6.078
 7933SOL    HW124698   1.447   0.730   6.034
 7933SOL    HW224699   1.569   0.834   6.066
 7934SOL     OW24700   4.048   2.518   5.656
 7934SOL    HW124701   3.989   2.599   5.660
 7934SOL    HW224702   4.017   2.451   5.723
 7935SOL     OW24703   4.453   5.364   2.078
 7935SOL    HW124704   4.447   5.463   2.085
 7935SOL    HW224705   4.404   5.333   1.996
 7936SOL     OW24706   4.531   5.951   2.423
 7936SOL    HW124707   4.564   5.983   2.512
 7936SOL    HW224708   4.463   6.016   2.388
 7937SOL     OW24709   6.097   0.811   5.734
 7937SOL    HW124710   6.178   0.752   5.730
 7937SOL    HW224711   6.051   0.810   5.645
 7938SOL     OW24712   6.091   4.547   4.074
 7938SOL    HW124713   6.122   4.509   4.161
 7938SOL    HW224714   6.171   4.575   4.020
 7939SOL     OW24715   0.219   6.889   3.997
 7939SOL    HW124716   0.185   6.877   4.090
 7939SOL    HW224717   0.319   6.887   3.998
 7940SOL     OW24718   1.458   5.593   0.683
 7940SOL    HW124719   1.412   5.553   0.763
 7940SOL    HW224720   1.509   5.674   0.711
 7941SOL     OW24721   0.343   0.663   0.712
 7941SOL    HW124722   0.286   0.714   0.648
 7941SOL    HW224723   0.342   0.566   0.687
 7942SOL     OW24724   1.421   1.008   1.275
 7942SOL    HW124725   1.497   1.021   1.339
 7942SOL    HW224726   1.373   1.095   1.264
 7943SOL     OW24727   6.464   2.500   0.174
 7943SOL    HW124728   6.516   2.581   0.201
 7943SOL    HW224729   6.433   2.452   0.256
 7944SOL     OW24730   0.016   3.603   1.921
 7944SOL    HW124731   0.094   3.610   1.859
 7944SOL    HW224732   0.027   3.522   1.979
 7945SOL     OW24733   4.983   0.133   0.898
 7945SOL    HW124734   5.034   0.141   0.813
 7945SOL    HW224735   4.934   0.218   0.916
 7946SOL     OW24736   1.523   1.237   5.951
 7946SOL    HW124737   1.468   1.157   5.930
 7946SOL    HW224738   1.535   1.245   6.050
 7947SOL     OW24739   4.548   5.591   6.312
 7947SOL    HW124740   4.572   5.565   6.219
 7947SOL    HW224741   4.630   5.586   6.370
 7948SOL     OW24742   0.902   5.095   6.014
 7948SOL    HW124743   0.862   5.005   5.997
 7948SOL    HW224744   0.883   5.123   6.108
 7949SOL     OW24745   6.895   4.101   3.610
 7949SOL    HW124746   6.816   4.161   3.596
 7949SOL    HW224747   6.890   4.060   3.701
 7950SOL     OW24748   3.844   5.057   3.815
 7950SOL    HW124749   3.909   5.096   3.749
 7950SOL    HW224750   3.754   5.098   3.801
 7951SOL     OW24751   2.651   3.436   0.443
 7951SOL    HW124752   2.635   3.341   0.469
 7951SOL    HW224753   2.722   3.475   0.501
 7952SOL     OW24754   5.433   4.576   0.694
 7952SOL    HW124755   5.444   4.674   0.679
 7952SOL    HW224756   5.335   4.555   0.700
 7953SOL     OW24757   1.889   3.613   2.833
 7953SOL    HW124758   1.949   3.660   2.898
 7953SOL    HW224759   1.932   3.612   2.742
 7954SOL     OW24760   5.278   5.477   4.573
 7954SOL    HW124761   5.374   5.485   4.546
 7954SOL    HW224762   5.264   5.390   4.621
 7955SOL     OW24763   2.019   6.087   6.099
 7955SOL    HW124764   2.065   6.020   6.040
 7955SOL    HW224765   1.952   6.138   6.045
 7956SOL     OW24766   6.499   6.383   3.082
 7956SOL    HW124767   6.423   6.319   3.084
 7956SOL    HW224768   6.486   6.448   3.007
 7957SOL     OW24769   0.937   2.168   0.910
 7957SOL    HW124770   0.921   2.181   0.812
 7957SOL    HW224771   0.943   2.070   0.929
 7958SOL     OW24772   2.771   6.035   3.610
 7958SOL    HW124773   2.691   6.004   3.559
 7958SOL    HW224774   2.756   6.128   3.643
 7959SOL     OW24775   4.960   5.492   1.191
 7959SOL    HW124776   5.016   5.426   1.241
 7959SOL    HW224777   5.015   5.573   1.171
 7960SOL     OW24778   2.058   2.405   1.142
 7960SOL    HW124779   2.066   2.382   1.239
 7960SOL    HW224780   2.132   2.467   1.117
 7961SOL     OW24781   1.272   5.790   0.145
 7961SOL    HW124782   1.327   5.819   0.223
 7961SOL    HW224783   1.233   5.870   0.099
 7962SOL     OW24784   1.654   6.496   2.141
 7962SOL    HW124785   1.647   6.494   2.241
 7962SOL    HW224786   1.644   6.590   2.109
 7963SOL     OW24787   0.942   6.550   4.645
 7963SOL    HW124788   0.923   6.641   4.610
 7963SOL    HW224789   0.886   6.483   4.596
 7964SOL     OW24790   6.137   5.477   3.854
 7964SOL    HW124791   6.129   5.568   3.894
 7964SOL    HW224792   6.067   5.465   3.783
 7965SOL     OW24793   5.294   1.969   0.742
 7965SOL    HW124794   5.236   1.915   0.680
 7965SOL    HW224795   5.260   1.960   0.835
 7966SOL     OW24796   0.047   0.214   3.269
 7966SOL    HW124797   0.058   0.138   3.333
 7966SOL    HW224798   0.135   0.259   3.255
 7967SOL     OW24799   3.244   0.265   3.411
 7967SOL    HW124800   3.255   0.243   3.508
 7967SOL    HW224801   3.333   0.292   3.373
 7968SOL     OW24802   2.539   0.756   1.491
 7968SOL    HW124803   2.486   0.672   1.505
 7968SOL    HW224804   2.532   0.785   1.396
 7969SOL     OW24805   3.258   1.596   3.171
 7969SOL    HW124806   3.320   1.643   3.232
 7969SOL    HW224807   3.230   1.658   3.097
 7970SOL     OW24808   0.111   4.902   3.607
 7970SOL    HW124809   0.080   4.841   3.679
 7970SOL    HW224810   0.186   4.860   3.556
 7971SOL     OW24811   3.294   1.581   2.347
 7971SOL    HW124812   3.277   1.508   2.413
 7971SOL    HW224813   3.391   1.587   2.327
 7972SOL     OW24814   6.422   5.096   1.595
 7972SOL    HW124815   6.450   5.053   1.509
 7972SOL    HW224816   6.357   5.170   1.576
 7973SOL     OW24817   4.855   2.194   3.044
 7973SOL    HW124818   4.757   2.176   3.038
 7973SOL    HW224819   4.885   2.248   2.965
 7974SOL     OW24820   5.678   6.241   3.675
 7974SOL    HW124821   5.648   6.285   3.760
 7974SOL    HW224822   5.771   6.270   3.653
 7975SOL     OW24823   1.437   1.556   2.733
 7975SOL    HW124824   1.523   1.555   2.682
 7975SOL    HW224825   1.434   1.637   2.792
 7976SOL     OW24826   1.074   6.527   5.844
 7976SOL    HW124827   1.096   6.430   5.839
 7976SOL    HW224828   1.151   6.577   5.885
 7977SOL     OW24829   4.845   6.515   1.343
 7977SOL    HW124830   4.919   6.448   1.345
 7977SOL    HW224831   4.851   6.575   1.423
 7978SOL     OW24832   3.620   2.205   5.439
 7978SOL    HW124833   3.543   2.210   5.377
 7978SOL    HW224834   3.649   2.109   5.449
 7979SOL     OW24835   5.163   6.405   3.940
 7979SOL    HW124836   5.189   6.408   3.844
 7979SOL    HW224837   5.246   6.397   3.996
 7980SOL     OW24838   2.863   0.514   2.757
 7980SOL    HW124839   2.789   0.484   2.696
 7980SOL    HW224840   2.937   0.447   2.755
 7981SOL     OW24841   0.706   6.098   2.593
 7981SOL    HW124842   0.615   6.077   2.556
 7981SOL    HW224843   0.710   6.072   2.689
 7982SOL     OW24844   6.845   2.669   0.265
 7982SOL    HW124845   6.752   2.674   0.301
 7982SOL    HW224846   6.881   2.577   0.278
 7983SOL     OW24847   4.743   2.746   1.917
 7983SOL    HW124848   4.672   2.737   1.847
 7983SOL    HW224849   4.737   2.836   1.960
 7984SOL     OW24850   6.780   0.237   0.276
 7984SOL    HW124851   6.771   0.198   0.367
 7984SOL    HW224852   6.869   0.212   0.237
 7985SOL     OW24853   0.631   1.099   0.964
 7985SOL    HW124854   0.659   1.102   0.868
 7985SOL    HW224855   0.551   1.157   0.977
 7986SOL     OW24856   4.960   3.268   0.145
 7986SOL    HW124857   5.001   3.177   0.135
 7986SOL    HW224858   4.885   3.277   0.080
 7987SOL     OW24859   1.268   2.973   5.008
 7987SOL    HW124860   1.314   2.957   5.096
 7987SOL    HW224861   1.171   2.991   5.024
 7988SOL     OW24862   3.000   1.456   5.599
 7988SOL    HW124863   2.943   1.521   5.650
 7988SOL    HW224864   2.999   1.479   5.502
 7989SOL     OW24865   3.594   3.346   6.281
 7989SOL    HW124866   3.583   3.342   6.182
 7989SOL    HW224867   3.680   3.301   6.307
 7990SOL     OW24868   2.200   2.946   4.852
 7990SOL    HW124869   2.282   2.959   4.907
 7990SOL    HW224870   2.179   2.848   4.847
 7991SOL     OW24871   1.714   3.009   5.934
 7991SOL    HW124872   1.647   3.053   5.994
 7991SOL    HW224873   1.729   3.067   5.854
 7992SOL     OW24874   2.794   1.601   0.791
 7992SOL    HW124875   2.702   1.636   0.806
 7992SOL    HW224876   2.851   1.622   0.870
 7993SOL     OW24877   2.504   6.322   6.381
 7993SOL    HW124878   2.531   6.228   6.362
 7993SOL    HW224879   2.425   6.323   6.442
 7994SOL     OW24880   5.695   1.002   4.431
 7994SOL    HW124881   5.727   0.918   4.387
 7994SOL    HW224882   5.604   0.987   4.470
 7995SOL     OW24883   4.214   5.486   3.092
 7995SOL    HW124884   4.186   5.552   3.161
 7995SOL    HW224885   4.278   5.420   3.133
 7996SOL     OW24886   4.516   1.133   5.164
 7996SOL    HW124887   4.589   1.159   5.100
 7996SOL    HW224888   4.550   1.142   5.257
 7997SOL     OW24889   5.266   2.658   2.082
 7997SOL    HW124890   5.177   2.681   2.043
 7997SOL    HW224891   5.313   2.742   2.108
 7998SOL     OW24892   6.287   4.799   6.239
 7998SOL    HW124893   6.332   4.863   6.301
 7998SOL    HW224894   6.287   4.708   6.281
 7999SOL     OW24895   1.838   1.072   5.748
 7999SOL    HW124896   1.766   1.109   5.689
 7999SOL    HW224897   1.896   1.010   5.695
 8000SOL     OW24898   5.162   0.444   5.555
 8000SOL    HW124899   5.262   0.445   5.549
 8000SOL    HW224900   5.135   0.432   5.651
 8001SOL     OW24901   2.372   5.307   1.078
 8001SOL    HW124902   2.432   5.298   0.999
 8001SOL    HW224903   2.363   5.404   1.103
 8002SOL     OW24904   5.198   2.171   5.774
 8002SOL    HW124905   5.237   2.154   5.683
 8002SOL    HW224906   5.178   2.268   5.783
 8003SOL     OW24907   4.181   5.854   3.440
 8003SOL    HW124908   4.149   5.916   3.368
 8003SOL    HW224909   4.279   5.836   3.427
 8004SOL     OW24910   1.149   4.415   3.174
 8004SOL    HW124911   1.203   4.462   3.243
 8004SOL    HW224912   1.195   4.329   3.150
 8005SOL     OW24913   1.911   0.786   2.514
 8005SOL    HW124914   1.931   0.878   2.478
 8005SOL    HW224915   1.829   0.791   2.571
 8006SOL     OW24916   3.548   6.389   1.993
 8006SOL    HW124917   3.477   6.321   2.013
 8006SOL    HW224918   3.526   6.436   1.908
 8007SOL     OW24919   0.430   0.917   3.797
 8007SOL    HW124920   0.490   0.847   3.758
 8007SOL    HW224921   0.472   0.955   3.879
 8008SOL     OW24922   5.712   5.427   0.733
 8008SOL    HW124923   5.654   5.450   0.811
 8008SOL    HW224924   5.713   5.328   0.721
 8009SOL     OW24925   6.829   0.321   3.826
 8009SOL    HW124926   6.887   0.242   3.806
 8009SOL    HW224927   6.754   0.292   3.887
 8010SOL     OW24928   1.687   2.934   6.840
 8010SOL    HW124929   1.748   2.947   6.918
 8010SOL    HW224930   1.687   2.838   6.813
 8011SOL     OW24931   2.104   2.864   0.485
 8011SOL    HW124932   2.188   2.912   0.510
 8011SOL    HW224933   2.074   2.806   0.561
 8012SOL     OW24934   3.074   0.284   3.218
 8012SOL    HW124935   3.113   0.278   3.311
 8012SOL    HW224936   3.132   0.344   3.163
 8013SOL     OW24937   5.764   5.584   4.616
 8013SOL    HW124938   5.833   5.650   4.586
 8013SOL    HW224939   5.745   5.597   4.714
 8014SOL     OW24940   1.985   6.711   0.053
 8014SOL    HW124941   2.036   6.630   0.023
 8014SOL    HW224942   1.915   6.683   0.118
 8015SOL     OW24943   1.760   2.044   5.984
 8015SOL    HW124944   1.749   2.143   5.987
 8015SOL    HW224945   1.791   2.011   6.073
 8016SOL     OW24946   4.279   6.038   1.850
 8016SOL    HW124947   4.241   6.131   1.846
 8016SOL    HW224948   4.379   6.043   1.849
 8017SOL     OW24949   6.290   3.190   5.593
 8017SOL    HW124950   6.276   3.280   5.550
 8017SOL    HW224951   6.266   3.119   5.527
 8018SOL     OW24952   5.806   2.745   4.856
 8018SOL    HW124953   5.730   2.810   4.849
 8018SOL    HW224954   5.779   2.669   4.915
 8019SOL     OW24955   2.419   5.068   1.165
 8019SOL    HW124956   2.353   4.996   1.189
 8019SOL    HW224957   2.371   5.151   1.139
 8020SOL     OW24958   5.840   6.308   6.453
 8020SOL    HW124959   5.848   6.350   6.363
 8020SOL    HW224960   5.759   6.344   6.500
 8021SOL     OW24961   7.006   1.048   0.591
 8021SOL    HW124962   6.967   1.134   0.621
 8021SOL    HW224963   0.057   1.065   0.520
 8022SOL     OW24964   4.348   5.047   3.372
 8022SOL    HW124965   4.388   4.997   3.296
 8022SOL    HW224966   4.270   5.100   3.340
 8023SOL     OW24967   6.869   6.240   3.293
 8023SOL    HW124968   6.804   6.205   3.227
 8023SOL    HW224969   6.907   6.164   3.347
 8024SOL     OW24970   4.666   5.777   5.149
 8024SOL    HW124971   4.720   5.708   5.196
 8024SOL    HW224972   4.640   5.849   5.213
 8025SOL     OW24973   3.071   5.622   0.643
 8025SOL    HW124974   3.137   5.582   0.707
 8025SOL    HW224975   2.993   5.659   0.694
 8026SOL     OW24976   2.470   3.436   7.002
 8026SOL    HW124977   2.527   3.418   0.064
 8026SOL    HW224978   2.503   3.384   6.924
 8027SOL     OW24979   4.525   3.595   5.568
 8027SOL    HW124980   4.498   3.554   5.482
 8027SOL    HW224981   4.623   3.581   5.583
 8028SOL     OW24982   5.075   5.668   0.641
 8028SOL    HW124983   5.153   5.660   0.702
 8028SOL    HW224984   5.039   5.577   0.621
 8029SOL     OW24985   2.837   4.354   0.135
 8029SOL    HW124986   2.848   4.434   0.193
 8029SOL    HW224987   2.922   4.337   0.085
 8030SOL     OW24988   6.129   2.996   0.808
 8030SOL    HW124989   6.220   2.958   0.822
 8030SOL    HW224990   6.064   2.923   0.785
 8031SOL     OW24991   3.578   6.560   1.402
 8031SOL    HW124992   3.483   6.573   1.429
 8031SOL    HW224993   3.638   6.607   1.467
 8032SOL     OW24994   4.811   4.813   5.791
 8032SOL    HW124995   4.712   4.801   5.782
 8032SOL    HW224996   4.839   4.896   5.743
 8033SOL     OW24997   6.180   1.997   0.855
 8033SOL    HW124998   6.246   1.957   0.919
 8033SOL    HW224999   6.192   2.096   0.851
 8034SOL     OW25000   6.518   1.385   4.878
 8034SOL    HW125001   6.455   1.317   4.840
 8034SOL    HW225002   6.584   1.340   4.938
 8035SOL     OW25003   5.555   5.668   6.808
 8035SOL    HW125004   5.643   5.657   6.853
 8035SOL    HW225005   5.494   5.721   6.867
 8036SOL     OW25006   1.247   4.514   1.312
 8036SOL    HW125007   1.179   4.460   1.262
 8036SOL    HW225008   1.310   4.451   1.359
 8037SOL     OW25009   2.051   3.191   1.560
 8037SOL    HW125010   2.034   3.264   1.493
 8037SOL    HW225011   2.146   3.196   1.590
 8038SOL     OW25012   6.027   1.155   4.220
 8038SOL    HW125013   6.024   1.066   4.175
 8038SOL    HW225014   5.956   1.214   4.181
 8039SOL     OW25015   2.905   6.208   4.527
 8039SOL    HW125016   3.001   6.224   4.503
 8039SOL    HW225017   2.853   6.292   4.514
 8040SOL     OW25018   5.905   5.899   0.243
 8040SOL    HW125019   5.898   5.841   0.324
 8040SOL    HW225020   5.890   5.994   0.269
 8041SOL     OW25021   3.967   2.092   1.062
 8041SOL    HW125022   3.892   2.056   1.007
 8041SOL    HW225023   3.970   2.044   1.149
 8042SOL     OW25024   2.341   4.559   0.339
 8042SOL    HW125025   2.414   4.527   0.279
 8042SOL    HW225026   2.255   4.564   0.288
 8043SOL     OW25027   2.759   0.578   1.156
 8043SOL    HW125028   2.783   0.482   1.141
 8043SOL    HW225029   2.721   0.616   1.072
 8044SOL     OW25030   3.381   3.525   1.729
 8044SOL    HW125031   3.294   3.476   1.726
 8044SOL    HW225032   3.364   3.623   1.744
 8045SOL     OW25033   6.083   3.101   3.858
 8045SOL    HW125034   6.075   3.042   3.938
 8045SOL    HW225035   6.064   3.049   3.775
 8046SOL     OW25036   0.473   5.328   5.271
 8046SOL    HW125037   0.555   5.319   5.214
 8046SOL    HW225038   0.446   5.424   5.274
 8047SOL     OW25039   2.918   0.141   4.131
 8047SOL    HW125040   2.840   0.192   4.096
 8047SOL    HW225041   2.919   0.049   4.090
 8048SOL     OW25042   6.326   0.831   5.498
 8048SOL    HW125043   6.317   0.925   5.531
 8048SOL    HW225044   6.349   0.771   5.575
 8049SOL     OW25045   1.151   6.982   0.475
 8049SOL    HW125046   1.241   6.944   0.497
 8049SOL    HW225047   1.138   6.980   0.376
 8050SOL     OW25048   0.407   3.045   1.164
 8050SOL    HW125049   0.313   3.032   1.132
 8050SOL    HW225050   0.442   3.132   1.130
 8051SOL     OW25051   3.355   1.865   3.517
 8051SOL    HW125052   3.266   1.900   3.545
 8051SOL    HW225053   3.402   1.827   3.596
 8052SOL     OW25054   3.558   1.904   3.119
 8052SOL    HW125055   3.543   1.947   3.029
 8052SOL    HW225056   3.646   1.934   3.155
 8053SOL     OW25057   4.362   3.388   1.611
 8053SOL    HW125058   4.288   3.399   1.678
 8053SOL    HW225059   4.395   3.294   1.614
 8054SOL     OW25060   4.694   5.908   4.121
 8054SOL    HW125061   4.681   5.809   4.124
 8054SOL    HW225062   4.619   5.950   4.070
 8055SOL     OW25063   0.518   6.895   5.369
 8055SOL    HW125064   0.483   6.818   5.423
 8055SOL    HW225065   0.462   6.906   5.286
 8056SOL     OW25066   4.212   1.263   2.194
 8056SOL    HW125067   4.289   1.274   2.131
 8056SOL    HW225068   4.243   1.286   2.287
 8057SOL     OW25069   2.955   0.068   3.495
 8057SOL    HW125070   2.943   0.167   3.482
 8057SOL    HW225071   3.053   0.047   3.499
 8058SOL     OW25072   2.442   0.194   3.139
 8058SOL    HW125073   2.438   0.294   3.147
 8058SOL    HW225074   2.358   0.155   3.177
 8059SOL     OW25075   2.551   1.102   3.306
 8059SOL    HW125076   2.464   1.099   3.259
 8059SOL    HW225077   2.618   1.151   3.250
 8060SOL     OW25078   0.979   2.946   5.232
 8060SOL    HW125079   0.980   2.991   5.143
 8060SOL    HW225080   0.891   2.900   5.245
 8061SOL     OW25081   6.457   5.808   2.272
 8061SOL    HW125082   6.480   5.874   2.200
 8061SOL    HW225083   6.428   5.857   2.354
 8062SOL     OW25084   1.717   3.540   2.052
 8062SOL    HW125085   1.629   3.530   2.100
 8062SOL    HW225086   1.774   3.461   2.070
 8063SOL     OW25087   2.469   2.919   6.262
 8063SOL    HW125088   2.532   2.847   6.234
 8063SOL    HW225089   2.475   2.932   6.361
 8064SOL     OW25090   6.563   2.524   6.600
 8064SOL    HW125091   6.633   2.595   6.602
 8064SOL    HW225092   6.606   2.435   6.619
 8065SOL     OW25093   4.402   7.015   6.652
 8065SOL    HW125094   4.332   6.969   6.597
 8065SOL    HW225095   4.486   6.960   6.652
 8066SOL     OW25096   2.062   0.031   1.905
 8066SOL    HW125097   1.970   0.009   1.872
 8066SOL    HW225098   2.077   0.130   1.898
 8067SOL     OW25099   4.734   2.321   2.225
 8067SOL    HW125100   4.759   2.252   2.157
 8067SOL    HW225101   4.705   2.404   2.177
 8068SOL     OW25102   6.251   4.534   4.304
 8068SOL    HW125103   6.346   4.503   4.298
 8068SOL    HW225104   6.247   4.634   4.304
 8069SOL     OW25105   1.711   6.529   2.404
 8069SOL    HW125106   1.754   6.439   2.411
 8069SOL    HW225107   1.712   6.574   2.493
 8070SOL     OW25108   3.841   0.270   2.665
 8070SOL    HW125109   3.798   0.360   2.669
 8070SOL    HW225110   3.804   0.218   2.589
 8071SOL     OW25111   4.424   6.121   0.192
 8071SOL    HW125112   4.435   6.216   0.163
 8071SOL    HW225113   4.333   6.110   0.232
 8072SOL     OW25114   4.893   0.173   2.490
 8072SOL    HW125115   4.889   0.087   2.438
 8072SOL    HW225116   4.842   0.164   2.575
 8073SOL     OW25117   5.092   0.132   5.894
 8073SOL    HW125118   5.191   0.140   5.909
 8073SOL    HW225119   5.063   0.038   5.910
 8074SOL     OW25120   3.209   4.169   6.778
 8074SOL    HW125121   3.139   4.117   6.728
 8074SOL    HW225122   3.239   4.116   6.858
 8075SOL     OW25123   5.722   2.505   3.262
 8075SOL    HW125124   5.668   2.581   3.297
 8075SOL    HW225125   5.664   2.446   3.206
 8076SOL     OW25126   4.511   2.617   6.347
 8076SOL    HW125127   4.519   2.594   6.444
 8076SOL    HW225128   4.589   2.673   6.320
 8077SOL     OW25129   1.222   0.109   6.992
 8077SOL    HW125130   1.315   0.147   7.002
 8077SOL    HW225131   1.156   0.183   7.001
 8078SOL     OW25132   6.004   2.575   0.959
 8078SOL    HW125133   5.968   2.512   1.028
 8078SOL    HW225134   6.100   2.555   0.942
 8079SOL     OW25135   1.245   2.327   1.577
 8079SOL    HW125136   1.179   2.278   1.520
 8079SOL    HW225137   1.338   2.302   1.550
 8080SOL     OW25138   4.136   5.070   0.688
 8080SOL    HW125139   4.098   5.134   0.622
 8080SOL    HW225140   4.140   4.978   0.647
 8081SOL     OW25141   5.890   1.952   4.915
 8081SOL    HW125142   5.984   1.984   4.905
 8081SOL    HW225143   5.854   1.925   4.825
 8082SOL     OW25144   6.435   3.518   4.537
 8082SOL    HW125145   6.449   3.529   4.635
 8082SOL    HW225146   6.385   3.598   4.502
 8083SOL     OW25147   6.391   2.378   4.890
 8083SOL    HW125148   6.320   2.326   4.937
 8083SOL    HW225149   6.448   2.315   4.837
 8084SOL     OW25150   6.822   0.317   0.658
 8084SOL    HW125151   6.724   0.299   0.666
 8084SOL    HW225152   6.839   0.415   0.673
 8085SOL     OW25153   5.664   2.250   0.747
 8085SOL    HW125154   5.646   2.265   0.844
 8085SOL    HW225155   5.761   2.229   0.734
 8086SOL     OW25156   2.390   5.798   5.972
 8086SOL    HW125157   2.396   5.748   6.059
 8086SOL    HW225158   2.464   5.864   5.967
 8087SOL     OW25159   2.998   3.866   0.568
 8087SOL    HW125160   3.079   3.830   0.522
 8087SOL    HW225161   2.976   3.809   0.647
 8088SOL     OW25162   4.438   0.695   2.710
 8088SOL    HW125163   4.403   0.674   2.802
 8088SOL    HW225164   4.394   0.636   2.643
 8089SOL     OW25165   6.203   2.629   0.477
 8089SOL    HW125166   6.109   2.602   0.498
 8089SOL    HW225167   6.201   2.710   0.418
 8090SOL     OW25168   4.171   2.152   5.200
 8090SOL    HW125169   4.165   2.218   5.124
 8090SOL    HW225170   4.258   2.165   5.248
 8091SOL     OW25171   2.441   4.800   5.274
 8091SOL    HW125172   2.434   4.875   5.208
 8091SOL    HW225173   2.537   4.778   5.288
 8092SOL     OW25174   6.471   2.135   4.284
 8092SOL    HW125175   6.399   2.066   4.289
 8092SOL    HW225176   6.478   2.168   4.190
 8093SOL     OW25177   5.718   5.539   0.492
 8093SOL    HW125178   5.726   5.482   0.574
 8093SOL    HW225179   5.793   5.517   0.429
 8094SOL     OW25180   0.793   3.885   4.373
 8094SOL    HW125181   0.821   3.791   4.393
 8094SOL    HW225182   0.709   3.884   4.319
 8095SOL     OW25183   6.411   3.355   5.374
 8095SOL    HW125184   6.485   3.412   5.337
 8095SOL    HW225185   6.358   3.316   5.299
 8096SOL     OW25186   4.216   0.684   0.671
 8096SOL    HW125187   4.253   0.593   0.692
 8096SOL    HW225188   4.131   0.674   0.619
 8097SOL     OW25189   4.864   1.308   4.557
 8097SOL    HW125190   4.830   1.343   4.644
 8097SOL    HW225191   4.891   1.212   4.567
 8098SOL     OW25192   2.164   1.227   4.416
 8098SOL    HW125193   2.170   1.320   4.452
 8098SOL    HW225194   2.253   1.181   4.428
 8099SOL     OW25195   3.928   6.211   5.147
 8099SOL    HW125196   3.894   6.168   5.231
 8099SOL    HW225197   4.026   6.196   5.139
 8100SOL     OW25198   6.792   6.322   0.642
 8100SOL    HW125199   6.841   6.330   0.729
 8100SOL    HW225200   6.718   6.256   0.651
 8101SOL     OW25201   0.440   4.674   2.517
 8101SOL    HW125202   0.458   4.773   2.519
 8101SOL    HW225203   0.526   4.624   2.528
 8102SOL     OW25204   6.507   0.469   5.870
 8102SOL    HW125205   6.501   0.483   5.969
 8102SOL    HW225206   6.492   0.373   5.849
 8103SOL     OW25207   1.910   2.399   2.145
 8103SOL    HW125208   1.943   2.492   2.161
 8103SOL    HW225209   1.984   2.343   2.109
 8104SOL     OW25210   3.179   6.948   6.095
 8104SOL    HW125211   3.087   6.955   6.135
 8104SOL    HW225212   3.171   6.941   5.996
 8105SOL     OW25213   2.134   2.924   3.084
 8105SOL    HW125214   2.147   3.021   3.105
 8105SOL    HW225215   2.061   2.915   3.016
 8106SOL     OW25216   0.061   3.859   5.293
 8106SOL    HW125217   0.103   3.950   5.290
 8106SOL    HW225218   6.987   3.866   5.331
 8107SOL     OW25219   1.022   5.529   6.655
 8107SOL    HW125220   1.062   5.617   6.630
 8107SOL    HW225221   0.937   5.543   6.706
 8108SOL     OW25222   2.189   3.598   5.119
 8108SOL    HW125223   2.208   3.537   5.042
 8108SOL    HW225224   2.119   3.557   5.178
 8109SOL     OW25225   1.337   5.366   5.214
 8109SOL    HW125226   1.287   5.331   5.293
 8109SOL    HW225227   1.275   5.377   5.137
 8110SOL     OW25228   1.627   4.617   0.984
 8110SOL    HW125229   1.550   4.671   1.017
 8110SOL    HW225230   1.659   4.654   0.897
 8111SOL     OW25231   3.384   5.521   4.342
 8111SOL    HW125232   3.392   5.620   4.344
 8111SOL    HW225233   3.290   5.495   4.364
 8112SOL     OW25234   4.667   1.149   4.373
 8112SOL    HW125235   4.705   1.139   4.465
 8112SOL    HW225236   4.570   1.126   4.374
 8113SOL     OW25237   3.214   3.050   5.788
 8113SOL    HW125238   3.121   3.081   5.771
 8113SOL    HW225239   3.258   3.111   5.854
 8114SOL     OW25240   3.105   3.465   1.720
 8114SOL    HW125241   3.076   3.543   1.775
 8114SOL    HW225242   3.065   3.381   1.757
 8115SOL     OW25243   3.394   2.605   1.297
 8115SOL    HW125244   3.380   2.684   1.356
 8115SOL    HW225245   3.481   2.562   1.320
 8116SOL     OW25246   4.851   1.222   5.258
 8116SOL    HW125247   4.930   1.284   5.259
 8116SOL    HW225248   4.835   1.188   5.351
 8117SOL     OW25249   2.899   1.645   5.749
 8117SOL    HW125250   2.972   1.711   5.767
 8117SOL    HW225251   2.816   1.693   5.723
 8118SOL     OW25252   1.716   2.325   4.126
 8118SOL    HW125253   1.639   2.379   4.093
 8118SOL    HW225254   1.767   2.378   4.194
 8119SOL     OW25255   0.992   6.446   2.032
 8119SOL    HW125256   1.077   6.441   1.979
 8119SOL    HW225257   0.966   6.354   2.061
 8120SOL     OW25258   4.750   4.155   2.145
 8120SOL    HW125259   4.748   4.153   2.245
 8120SOL    HW225260   4.669   4.202   2.111
 8121SOL     OW25261   6.682   6.157   3.081
 8121SOL    HW125262   6.673   6.118   2.989
 8121SOL    HW225263   6.641   6.248   3.083
 8122SOL     OW25264   7.001   5.313   1.459
 8122SOL    HW125265   6.903   5.301   1.475
 8122SOL    HW225266   0.034   5.290   1.543
 8123SOL     OW25267   1.229   5.142   0.179
 8123SOL    HW125268   1.292   5.136   0.256
 8123SOL    HW225269   1.245   5.067   0.116
 8124SOL     OW25270   1.255   6.326   3.570
 8124SOL    HW125271   1.316   6.255   3.606
 8124SOL    HW225272   1.195   6.359   3.643
 8125SOL     OW25273   5.730   4.949   3.110
 8125SOL    HW125274   5.645   4.947   3.163
 8125SOL    HW225275   5.751   4.857   3.076
 8126SOL     OW25276   6.854   4.329   2.638
 8126SOL    HW125277   6.760   4.309   2.611
 8126SOL    HW225278   6.907   4.245   2.642
 8127SOL     OW25279   3.898   5.650   1.512
 8127SOL    HW125280   3.956   5.575   1.544
 8127SOL    HW225281   3.898   5.724   1.579
 8128SOL     OW25282   3.621   1.926   5.618
 8128SOL    HW125283   3.532   1.935   5.574
 8128SOL    HW225284   3.640   1.829   5.635
 8129SOL     OW25285   4.886   6.075   6.399
 8129SOL    HW125286   4.812   6.009   6.411
 8129SOL    HW225287   4.869   6.130   6.317
 8130SOL     OW25288   0.444   0.014   6.756
 8130SOL    HW125289   0.523   6.985   6.715
 8130SOL    HW225290   0.420   0.093   6.700
 8131SOL     OW25291   2.366   1.396   0.701
 8131SOL    HW125292   2.380   1.429   0.794
 8131SOL    HW225293   2.397   1.301   0.694
 8132SOL     OW25294   5.896   4.557   2.843
 8132SOL    HW125295   5.963   4.489   2.813
 8132SOL    HW225296   5.805   4.531   2.810
 8133SOL     OW25297   0.405   5.961   1.712
 8133SOL    HW125298   0.481   6.026   1.706
 8133SOL    HW225299   0.441   5.868   1.710
 8134SOL     OW25300   1.932   2.674   2.200
 8134SOL    HW125301   1.837   2.644   2.204
 8134SOL    HW225302   1.944   2.739   2.125
 8135SOL     OW25303   3.956   6.349   2.506
 8135SOL    HW125304   4.019   6.277   2.536
 8135SOL    HW225305   3.874   6.307   2.467
 8136SOL     OW25306   2.171   5.904   1.601
 8136SOL    HW125307   2.132   5.861   1.682
 8136SOL    HW225308   2.098   5.925   1.535
 8137SOL     OW25309   2.918   3.763   5.152
 8137SOL    HW125310   2.889   3.685   5.097
 8137SOL    HW225311   2.940   3.840   5.092
 8138SOL     OW25312   4.702   1.473   3.290
 8138SOL    HW125313   4.622   1.513   3.246
 8138SOL    HW225314   4.781   1.533   3.279
 8139SOL     OW25315   1.343   3.171   5.547
 8139SOL    HW125316   1.395   3.183   5.463
 8139SOL    HW225317   1.388   3.103   5.605
 8140SOL     OW25318   4.397   0.485   0.775
 8140SOL    HW125319   4.339   0.451   0.849
 8140SOL    HW225320   4.487   0.509   0.811
 8141SOL     OW25321   5.849   0.849   5.590
 8141SOL    HW125322   5.771   0.826   5.649
 8141SOL    HW225323   5.839   0.802   5.502
 8142SOL     OW25324   2.510   5.719   0.844
 8142SOL    HW125325   2.513   5.733   0.745
 8142SOL    HW225326   2.578   5.650   0.869
 8143SOL     OW25327   6.258   4.651   0.407
 8143SOL    HW125328   6.212   4.701   0.481
 8143SOL    HW225329   6.318   4.581   0.447
 8144SOL     OW25330   1.098   5.668   6.955
 8144SOL    HW125331   1.101   5.575   6.919
 8144SOL    HW225332   1.072   5.666   0.034
 8145SOL     OW25333   5.442   5.341   6.470
 8145SOL    HW125334   5.520   5.388   6.513
 8145SOL    HW225335   5.381   5.305   6.540
 8146SOL     OW25336   6.721   6.074   4.872
 8146SOL    HW125337   6.663   6.097   4.794
 8146SOL    HW225338   6.712   6.145   4.942
 8147SOL     OW25339   2.512   0.629   5.527
 8147SOL    HW125340   2.562   0.640   5.613
 8147SOL    HW225341   2.554   0.686   5.457
 8148SOL     OW25342   5.159   4.557   0.592
 8148SOL    HW125343   5.154   4.470   0.544
 8148SOL    HW225344   5.098   4.555   0.671
 8149SOL     OW25345   1.559   7.016   5.415
 8149SOL    HW125346   1.540   0.015   5.318
 8149SOL    HW225347   1.473   0.001   5.466
 8150SOL     OW25348   0.438   3.855   0.577
 8150SOL    HW125349   0.383   3.859   0.493
 8150SOL    HW225350   0.489   3.940   0.586
 8151SOL     OW25351   6.602   5.058   2.975
 8151SOL    HW125352   6.571   5.149   3.002
 8151SOL    HW225353   6.595   5.049   2.876
 8152SOL     OW25354   5.371   1.561   3.170
 8152SOL    HW125355   5.326   1.625   3.233
 8152SOL    HW225356   5.453   1.605   3.132
 8153SOL     OW25357   0.101   1.709   1.673
 8153SOL    HW125358   0.194   1.677   1.686
 8153SOL    HW225359   0.041   1.631   1.657
 8154SOL     OW25360   1.176   0.730   3.054
 8154SOL    HW125361   1.147   0.820   3.022
 8154SOL    HW225362   1.118   0.659   3.012
 8155SOL     OW25363   1.821   5.110   3.986
 8155SOL    HW125364   1.916   5.133   3.966
 8155SOL    HW225365   1.777   5.188   4.032
 8156SOL     OW25366   1.345   3.919   0.807
 8156SOL    HW125367   1.264   3.906   0.749
 8156SOL    HW225368   1.321   3.896   0.901
 8157SOL     OW25369   6.440   4.811   4.762
 8157SOL    HW125370   6.442   4.800   4.862
 8157SOL    HW225371   6.485   4.733   4.719
 8158SOL     OW25372   6.066   4.996   6.193
 8158SOL    HW125373   6.102   5.087   6.213
 8158SOL    HW225374   6.132   4.927   6.225
 8159SOL     OW25375   2.773   7.006   4.873
 8159SOL    HW125376   2.814   0.020   4.959
 8159SOL    HW225377   2.807   0.046   4.798
 8160SOL     OW25378   5.598   2.150   2.761
 8160SOL    HW125379   5.670   2.082   2.758
 8160SOL    HW225380   5.627   2.227   2.819
 8161SOL     OW25381   6.520   2.801   1.828
 8161SOL    HW125382   6.500   2.704   1.841
 8161SOL    HW225383   6.542   2.818   1.732
 8162SOL     OW25384   1.279   5.908   5.303
 8162SOL    HW125385   1.325   5.956   5.378
 8162SOL    HW225386   1.315   5.942   5.216
 8163SOL     OW25387   3.977   4.761   5.500
 8163SOL    HW125388   3.879   4.747   5.483
 8163SOL    HW225389   4.014   4.822   5.431
 8164SOL     OW25390   5.476   2.093   0.559
 8164SOL    HW125391   5.428   2.030   0.620
 8164SOL    HW225392   5.553   2.134   0.608
 8165SOL     OW25393   0.644   1.466   5.861
 8165SOL    HW125394   0.696   1.549   5.842
 8165SOL    HW225395   0.697   1.386   5.833
 8166SOL     OW25396   2.653   1.596   4.799
 8166SOL    HW125397   2.690   1.674   4.848
 8166SOL    HW225398   2.676   1.603   4.702
 8167SOL     OW25399   2.003   2.775   3.276
 8167SOL    HW125400   2.043   2.765   3.367
 8167SOL    HW225401   2.057   2.841   3.223
 8168SOL     OW25402   1.534   6.639   2.882
 8168SOL    HW125403   1.475   6.562   2.860
 8168SOL    HW225404   1.586   6.666   2.800
 8169SOL     OW25405   4.638   3.810   0.722
 8169SOL    HW125406   4.650   3.712   0.711
 8169SOL    HW225407   4.709   3.859   0.671
 8170SOL     OW25408   0.247   4.158   2.539
 8170SOL    HW125409   0.306   4.138   2.461
 8170SOL    HW225410   0.262   4.252   2.568
 8171SOL     OW25411   2.520   1.818   1.312
 8171SOL    HW125412   2.530   1.819   1.412
 8171SOL    HW225413   2.468   1.898   1.283
 8172SOL     OW25414   1.466   3.751   1.274
 8172SOL    HW125415   1.528   3.760   1.352
 8172SOL    HW225416   1.423   3.661   1.275
 8173SOL     OW25417   6.000   0.368   1.775
 8173SOL    HW125418   5.940   0.357   1.696
 8173SOL    HW225419   5.958   0.432   1.840
 8174SOL     OW25420   2.156   6.513   3.507
 8174SOL    HW125421   2.109   6.452   3.571
 8174SOL    HW225422   2.249   6.532   3.540
 8175SOL     OW25423   0.512   2.419   5.591
 8175SOL    HW125424   0.543   2.324   5.603
 8175SOL    HW225425   0.431   2.420   5.533
 8176SOL     OW25426   2.553   4.938   0.300
 8176SOL    HW125427   2.475   4.946   0.362
 8176SOL    HW225428   2.626   4.888   0.345
 8177SOL     OW25429   2.372   1.302   2.980
 8177SOL    HW125430   2.418   1.327   3.065
 8177SOL    HW225431   2.302   1.233   2.999
 8178SOL     OW25432   2.124   6.431   0.813
 8178SOL    HW125433   2.025   6.429   0.826
 8178SOL    HW225434   2.146   6.458   0.720
 8179SOL     OW25435   5.600   0.287   3.588
 8179SOL    HW125436   5.596   0.377   3.631
 8179SOL    HW225437   5.693   0.251   3.594
 8180SOL     OW25438   4.644   5.740   0.534
 8180SOL    HW125439   4.612   5.769   0.444
 8180SOL    HW225440   4.740   5.712   0.528
 8181SOL     OW25441   6.442   0.798   6.373
 8181SOL    HW125442   6.343   0.791   6.382
 8181SOL    HW225443   6.465   0.830   6.281
 8182SOL     OW25444   3.564   3.831   3.214
 8182SOL    HW125445   3.539   3.789   3.127
 8182SOL    HW225446   3.589   3.927   3.199
 8183SOL     OW25447   6.485   0.238   5.639
 8183SOL    HW125448   6.454   0.205   5.729
 8183SOL    HW225449   6.541   0.168   5.595
 8184SOL     OW25450   0.423   5.830   5.448
 8184SOL    HW125451   0.478   5.876   5.378
 8184SOL    HW225452   0.440   5.874   5.537
 8185SOL     OW25453   0.538   5.928   5.161
 8185SOL    HW125454   0.628   5.896   5.132
 8185SOL    HW225455   0.549   6.010   5.217
 8186SOL     OW25456   1.452   5.316   0.560
 8186SOL    HW125457   1.441   5.258   0.479
 8186SOL    HW225458   1.434   5.262   0.642
 8187SOL     OW25459   1.882   6.698   4.835
 8187SOL    HW125460   1.897   6.599   4.834
 8187SOL    HW225461   1.953   6.743   4.780
 8188SOL     OW25462   1.867   3.280   2.403
 8188SOL    HW125463   1.960   3.311   2.426
 8188SOL    HW225464   1.801   3.346   2.437
 8189SOL     OW25465   5.753   4.888   4.073
 8189SOL    HW125466   5.669   4.899   4.021
 8189SOL    HW225467   5.751   4.947   4.154
 8190SOL     OW25468   6.428   3.782   2.929
 8190SOL    HW125469   6.347   3.732   2.898
 8190SOL    HW225470   6.449   3.855   2.864
 8191SOL     OW25471   4.093   4.791   0.919
 8191SOL    HW125472   4.141   4.856   0.978
 8191SOL    HW225473   4.160   4.729   0.878
 8192SOL     OW25474   0.799   6.052   3.858
 8192SOL    HW125475   0.748   6.037   3.773
 8192SOL    HW225476   0.840   6.143   3.857
 8193SOL     OW25477   0.521   5.091   3.819
 8193SOL    HW125478   0.569   5.077   3.905
 8193SOL    HW225479   0.525   5.007   3.764
 8194SOL     OW25480   5.129   0.427   1.387
 8194SOL    HW125481   5.070   0.399   1.312
 8194SOL    HW225482   5.121   0.526   1.400
 8195SOL     OW25483   6.268   6.807   3.792
 8195SOL    HW125484   6.286   6.904   3.777
 8195SOL    HW225485   6.295   6.755   3.710
 8196SOL     OW25486   5.106   1.059   2.187
 8196SOL    HW125487   5.108   1.158   2.191
 8196SOL    HW225488   5.185   1.026   2.135
 8197SOL     OW25489   4.535   2.081   3.339
 8197SOL    HW125490   4.524   2.176   3.311
 8197SOL    HW225491   4.552   2.077   3.438
 8198SOL     OW25492   1.442   6.077   1.354
 8198SOL    HW125493   1.500   6.020   1.413
 8198SOL    HW225494   1.350   6.039   1.351
 8199SOL     OW25495   5.746   2.228   0.260
 8199SOL    HW125496   5.656   2.187   0.244
 8199SOL    HW225497   5.791   2.246   0.172
 8200SOL     OW25498   5.049   4.013   0.743
 8200SOL    HW125499   5.044   4.112   0.760
 8200SOL    HW225500   5.081   3.967   0.826
 8201SOL     OW25501   5.612   6.856   5.276
 8201SOL    HW125502   5.604   6.897   5.185
 8201SOL    HW225503   5.561   6.912   5.342
 8202SOL     OW25504   1.358   6.373   1.536
 8202SOL    HW125505   1.354   6.273   1.546
 8202SOL    HW225506   1.281   6.403   1.479
 8203SOL     OW25507   1.987   3.392   0.985
 8203SOL    HW125508   1.988   3.319   1.054
 8203SOL    HW225509   1.897   3.437   0.986
 8204SOL     OW25510   2.098   3.416   0.720
 8204SOL    HW125511   2.181   3.360   0.726
 8204SOL    HW225512   2.048   3.411   0.807
 8205SOL     OW25513   0.401   4.109   6.775
 8205SOL    HW125514   0.371   4.193   6.730
 8205SOL    HW225515   0.452   4.132   6.858
 8206SOL     OW25516   3.176   1.452   1.416
 8206SOL    HW125517   3.232   1.474   1.496
 8206SOL    HW225518   3.119   1.373   1.436
 8207SOL     OW25519   3.941   3.739   4.150
 8207SOL    HW125520   3.888   3.717   4.232
 8207SOL    HW225521   3.923   3.833   4.123
 8208SOL     OW25522   1.984   0.495   6.898
 8208SOL    HW125523   1.900   0.546   6.884
 8208SOL    HW225524   2.023   0.518   6.987
 8209SOL     OW25525   5.848   1.955   4.360
 8209SOL    HW125526   5.789   1.908   4.425
 8209SOL    HW225527   5.907   2.019   4.410
 8210SOL     OW25528   2.247   2.498   6.189
 8210SOL    HW125529   2.195   2.427   6.141
 8210SOL    HW225530   2.226   2.587   6.149
 8211SOL     OW25531   4.651   4.421   1.393
 8211SOL    HW125532   4.564   4.392   1.434
 8211SOL    HW225533   4.724   4.412   1.460
 8212SOL     OW25534   2.227   2.674   2.783
 8212SOL    HW125535   2.209   2.576   2.792
 8212SOL    HW225536   2.223   2.717   2.874
 8213SOL     OW25537   5.851   4.646   1.037
 8213SOL    HW125538   5.898   4.715   0.981
 8213SOL    HW225539   5.914   4.614   1.109
 8214SOL     OW25540   5.383   3.615   2.820
 8214SOL    HW125541   5.353   3.535   2.768
 8214SOL    HW225542   5.477   3.600   2.853
 8215SOL     OW25543   3.216   5.260   2.435
 8215SOL    HW125544   3.273   5.301   2.364
 8215SOL    HW225545   3.253   5.170   2.459
 8216SOL     OW25546   5.330   3.390   3.288
 8216SOL    HW125547   5.393   3.404   3.364
 8216SOL    HW225548   5.236   3.397   3.322
 8217SOL     OW25549   1.853   6.408   0.890
 8217SOL    HW125550   1.781   6.455   0.941
 8217SOL    HW225551   1.892   6.336   0.947
 8218SOL     OW25552   5.978   2.222   0.409
 8218SOL    HW125553   5.894   2.219   0.355
 8218SOL    HW225554   6.057   2.213   0.348
 8219SOL     OW25555   5.518   1.456   6.966
 8219SOL    HW125556   5.534   1.478   6.870
 8219SOL    HW225557   5.491   1.360   6.973
 8220SOL     OW25558   4.281   3.618   1.489
 8220SOL    HW125559   4.312   3.535   1.535
 8220SOL    HW225560   4.237   3.679   1.554
 8221SOL     OW25561   5.143   4.345   3.032
 8221SOL    HW125562   5.079   4.403   3.082
 8221SOL    HW225563   5.104   4.321   2.943
 8222SOL     OW25564   6.193   1.224   2.736
 8222SOL    HW125565   6.127   1.162   2.777
 8222SOL    HW225566   6.172   1.318   2.763
 8223SOL     OW25567   6.908   5.223   6.296
 8223SOL    HW125568   6.837   5.287   6.268
 8223SOL    HW225569   6.885   5.131   6.265
 8224SOL     OW25570   1.093   3.548   2.811
 8224SOL    HW125571   0.995   3.533   2.801
 8224SOL    HW225572   1.115   3.569   2.906
 8225SOL     OW25573   4.408   0.899   0.627
 8225SOL    HW125574   4.340   0.826   0.626
 8225SOL    HW225575   4.481   0.877   0.691
 8226SOL     OW25576   3.959   0.391   0.491
 8226SOL    HW125577   3.979   0.315   0.553
 8226SOL    HW225578   3.905   0.359   0.413
 8227SOL     OW25579   5.634   3.786   3.121
 8227SOL    HW125580   5.610   3.875   3.081
 8227SOL    HW225581   5.620   3.714   3.053
 8228SOL     OW25582   6.750   1.915   4.305
 8228SOL    HW125583   6.783   1.927   4.399
 8228SOL    HW225584   6.762   2.000   4.254
 8229SOL     OW25585   4.029   5.591   0.920
 8229SOL    HW125586   3.975   5.524   0.971
 8229SOL    HW225587   4.066   5.659   0.983
 8230SOL     OW25588   4.935   6.832   3.929
 8230SOL    HW125589   4.901   6.920   3.897
 8230SOL    HW225590   4.973   6.781   3.852
 8231SOL     OW25591   3.940   5.945   1.544
 8231SOL    HW125592   3.919   5.938   1.446
 8231SOL    HW225593   4.029   5.990   1.555
 8232SOL     OW25594   2.369   1.828   6.761
 8232SOL    HW125595   2.359   1.810   6.859
 8232SOL    HW225596   2.397   1.744   6.715
 8233SOL     OW25597   0.215   5.054   6.051
 8233SOL    HW125598   0.312   5.043   6.032
 8233SOL    HW225599   0.203   5.099   6.139
 8234SOL     OW25600   2.932   3.568   0.248
 8234SOL    HW125601   2.855   3.600   0.194
 8234SOL    HW225602   2.901   3.501   0.314
 8235SOL     OW25603   4.496   2.550   0.007
 8235SOL    HW125604   4.574   2.589   0.058
 8235SOL    HW225605   4.421   2.533   0.070
 8236SOL     OW25606   5.682   2.331   1.005
 8236SOL    HW125607   5.781   2.326   1.018
 8236SOL    HW225608   5.638   2.336   1.095
 8237SOL     OW25609   4.018   6.359   5.451
 8237SOL    HW125610   3.976   6.287   5.506
 8237SOL    HW225611   3.995   6.448   5.489
 8238SOL     OW25612   1.839   0.911   0.084
 8238SOL    HW125613   1.931   0.879   0.104
 8238SOL    HW225614   1.812   0.981   0.151
 8239SOL     OW25615   6.447   0.965   6.992
 8239SOL    HW125616   6.409   0.882   6.951
 8239SOL    HW225617   6.544   0.953   7.008
 8240SOL     OW25618   4.127   3.474   3.560
 8240SOL    HW125619   4.071   3.402   3.601
 8240SOL    HW225620   4.221   3.466   3.591
 8241SOL     OW25621   4.432   6.502   1.743
 8241SOL    HW125622   4.359   6.564   1.771
 8241SOL    HW225623   4.512   6.554   1.715
 8242SOL     OW25624   1.004   3.536   5.402
 8242SOL    HW125625   0.925   3.565   5.456
 8242SOL    HW225626   0.990   3.442   5.371
 8243SOL     OW25627   0.947   3.563   5.067
 8243SOL    HW125628   0.967   3.489   5.130
 8243SOL    HW225629   1.027   3.622   5.059
 8244SOL     OW25630   1.697   5.520   4.463
 8244SOL    HW125631   1.599   5.514   4.448
 8244SOL    HW225632   1.717   5.588   4.534
 8245SOL     OW25633   3.651   3.322   0.690
 8245SOL    HW125634   3.657   3.232   0.735
 8245SOL    HW225635   3.728   3.332   0.628
 8246SOL     OW25636   4.764   3.760   5.363
 8246SOL    HW125637   4.678   3.801   5.392
 8246SOL    HW225638   4.747   3.695   5.289
 8247SOL     OW25639   0.963   6.577   1.001
 8247SOL    HW125640   1.044   6.521   1.020
 8247SOL    HW225641   0.938   6.567   0.905
 8248SOL     OW25642   0.273   4.608   3.930
 8248SOL    HW125643   0.261   4.516   3.893
 8248SOL    HW225644   0.185   4.656   3.926
 8249SOL     OW25645   1.378   5.442   3.033
 8249SOL    HW125646   1.449   5.508   3.059
 8249SOL    HW225647   1.296   5.491   3.004
 8250SOL     OW25648   3.588   3.631   1.949
 8250SOL    HW125649   3.622   3.571   1.876
 8250SOL    HW225650   3.512   3.586   1.996
 8251SOL     OW25651   5.905   1.473   4.873
 8251SOL    HW125652   5.900   1.556   4.929
 8251SOL    HW225653   5.969   1.489   4.798
 8252SOL     OW25654   1.202   3.646   4.171
 8252SOL    HW125655   1.200   3.698   4.257
 8252SOL    HW225656   1.293   3.608   4.157
 8253SOL     OW25657   2.611   2.814   5.306
 8253SOL    HW125658   2.687   2.860   5.351
 8253SOL    HW225659   2.552   2.883   5.262
 8254SOL     OW25660   4.378   5.600   3.407
 8254SOL    HW125661   4.301   5.608   3.344
 8254SOL    HW225662   4.375   5.510   3.451
 8255SOL     OW25663   4.060   5.004   3.399
 8255SOL    HW125664   3.980   5.062   3.381
 8255SOL    HW225665   4.085   5.010   3.495
 8256SOL     OW25666   6.030   2.919   4.086
 8256SOL    HW125667   5.956   2.932   4.153
 8256SOL    HW225668   6.071   2.829   4.099
 8257SOL     OW25669   6.040   4.777   4.749
 8257SOL    HW125670   6.112   4.840   4.721
 8257SOL    HW225671   6.077   4.712   4.815
 8258SOL     OW25672   4.984   1.557   0.363
 8258SOL    HW125673   4.933   1.620   0.304
 8258SOL    HW225674   4.998   1.599   0.452
 8259SOL     OW25675   4.004   1.040   1.296
 8259SOL    HW125676   3.979   0.959   1.348
 8259SOL    HW225677   4.078   1.088   1.342
 8260SOL     OW25678   2.780   5.776   0.218
 8260SOL    HW125679   2.771   5.797   0.315
 8260SOL    HW225680   2.867   5.813   0.184
 8261SOL     OW25681   5.520   0.833   1.730
 8261SOL    HW125682   5.436   0.785   1.708
 8261SOL    HW225683   5.501   0.931   1.738
 8262SOL     OW25684   0.884   2.263   0.474
 8262SOL    HW125685   0.866   2.358   0.498
 8262SOL    HW225686   0.977   2.255   0.439
 8263SOL     OW25687   6.054   1.648   0.668
 8263SOL    HW125688   6.043   1.747   0.658
 8263SOL    HW225689   6.005   1.601   0.594
 8264SOL     OW25690   1.719   4.628   2.465
 8264SOL    HW125691   1.682   4.555   2.523
 8264SOL    HW225692   1.708   4.603   2.369
 8265SOL     OW25693   1.998   1.047   2.430
 8265SOL    HW125694   2.069   1.053   2.360
 8265SOL    HW225695   1.961   1.138   2.448
 8266SOL     OW25696   3.032   0.706   3.173
 8266SOL    HW125697   3.092   0.626   3.164
 8266SOL    HW225698   2.954   0.696   3.112
 8267SOL     OW25699   0.485   3.576   0.620
 8267SOL    HW125700   0.472   3.674   0.607
 8267SOL    HW225701   0.482   3.529   0.532
 8268SOL     OW25702   3.634   5.942   6.317
 8268SOL    HW125703   3.559   5.897   6.366
 8268SOL    HW225704   3.640   6.037   6.348
 8269SOL     OW25705   6.329   1.912   1.059
 8269SOL    HW125706   6.424   1.897   1.030
 8269SOL    HW225707   6.327   1.963   1.144
 8270SOL     OW25708   3.498   6.479   4.350
 8270SOL    HW125709   3.517   6.526   4.264
 8270SOL    HW225710   3.492   6.380   4.334
 8271SOL     OW25711   6.437   2.475   2.514
 8271SOL    HW125712   6.487   2.437   2.592
 8271SOL    HW225713   6.340   2.483   2.537
 8272SOL     OW25714   4.095   1.389   4.412
 8272SOL    HW125715   4.184   1.424   4.441
 8272SOL    HW225716   4.023   1.433   4.465
 8273SOL     OW25717   1.977   6.919   1.421
 8273SOL    HW125718   2.074   6.920   1.444
 8273SOL    HW225719   1.948   7.009   1.389
 8274SOL     OW25720   5.375   4.331   3.683
 8274SOL    HW125721   5.278   4.310   3.700
 8274SOL    HW225722   5.393   4.326   3.585
 8275SOL     OW25723   4.787   2.112   6.354
 8275SOL    HW125724   4.705   2.145   6.307
 8275SOL    HW225725   4.785   2.012   6.360
 8276SOL     OW25726   0.090   1.900   2.964
 8276SOL    HW125727   0.114   1.803   2.958
 8276SOL    HW225728   7.008   1.910   2.959
 8277SOL     OW25729   6.424   0.626   6.792
 8277SOL    HW125730   6.490   0.620   6.867
 8277SOL    HW225731   6.395   0.533   6.766
 8278SOL     OW25732   1.795   2.546   6.598
 8278SOL    HW125733   1.781   2.592   6.686
 8278SOL    HW225734   1.768   2.607   6.524
 8279SOL     OW25735   0.019   6.061   3.917
 8279SOL    HW125736   0.099   6.034   3.862
 8279SOL    HW225737   0.014   6.161   3.921
 8280SOL     OW25738   3.302   1.977   5.918
 8280SOL    HW125739   3.287   2.029   6.003
 8280SOL    HW225740   3.390   1.932   5.922
 8281SOL     OW25741   5.491   5.693   2.602
 8281SOL    HW125742   5.484   5.710   2.700
 8281SOL    HW225743   5.557   5.756   2.561
 8282SOL     OW25744   5.430   2.522   6.528
 8282SOL    HW125745   5.470   2.573   6.452
 8282SOL    HW225746   5.438   2.575   6.612
 8283SOL     OW25747   2.127   2.524   5.705
 8283SOL    HW125748   2.207   2.554   5.652
 8283SOL    HW225749   2.047   2.578   5.677
 8284SOL     OW25750   6.532   4.078   1.747
 8284SOL    HW125751   6.481   4.008   1.796
 8284SOL    HW225752   6.515   4.167   1.789
 8285SOL     OW25753   4.167   3.370   4.134
 8285SOL    HW125754   4.260   3.348   4.165
 8285SOL    HW225755   4.102   3.312   4.182
 8286SOL     OW25756   0.089   1.743   6.479
 8286SOL    HW125757   0.029   1.772   6.554
 8286SOL    HW225758   0.035   1.727   6.397
 8287SOL     OW25759   1.338   6.015   4.258
 8287SOL    HW125760   1.277   5.991   4.182
 8287SOL    HW225761   1.421   6.058   4.223
 8288SOL     OW25762   2.916   2.212   3.105
 8288SOL    HW125763   2.929   2.256   3.195
 8288SOL    HW225764   2.998   2.159   3.083
 8289SOL     OW25765   0.175   5.981   6.623
 8289SOL    HW125766   0.263   5.940   6.596
 8289SOL    HW225767   0.102   5.941   6.567
 8290SOL     OW25768   6.606   2.513   0.521
 8290SOL    HW125769   6.621   2.560   0.434
 8290SOL    HW225770   6.693   2.475   0.553
 8291SOL     OW25771   4.007   6.989   1.283
 8291SOL    HW125772   4.058   0.043   1.235
 8291SOL    HW225773   4.069   6.931   1.333
 8292SOL     OW25774   2.912   6.990   6.173
 8292SOL    HW125775   2.933   7.003   6.270
 8292SOL    HW225776   2.892   0.061   6.131
 8293SOL     OW25777   5.405   5.525   5.120
 8293SOL    HW125778   5.381   5.503   5.215
 8293SOL    HW225779   5.351   5.603   5.090
 8294SOL     OW25780   5.267   2.767   0.029
 8294SOL    HW125781   5.267   2.670   0.003
 8294SOL    HW225782   5.176   2.805   0.015
 8295SOL     OW25783   4.757   3.500   0.043
 8295SOL    HW125784   4.665   3.539   0.037
 8295SOL    HW225785   4.825   3.574   0.043
 8296SOL     OW25786   1.427   4.988   6.540
 8296SOL    HW125787   1.379   5.024   6.460
 8296SOL    HW225788   1.522   5.019   6.539
 8297SOL     OW25789   0.916   2.573   4.013
 8297SOL    HW125790   0.863   2.636   3.956
 8297SOL    HW225791   0.914   2.604   4.108
 8298SOL     OW25792   5.128   1.430   2.236
 8298SOL    HW125793   5.178   1.459   2.155
 8298SOL    HW225794   5.031   1.424   2.215
 8299SOL     OW25795   6.809   2.281   1.396
 8299SOL    HW125796   6.767   2.269   1.486
 8299SOL    HW225797   6.852   2.195   1.367
 8300SOL     OW25798   0.506   5.126   3.457
 8300SOL    HW125799   0.585   5.161   3.508
 8300SOL    HW225800   0.422   5.162   3.498
 8301SOL     OW25801   3.460   2.733   6.614
 8301SOL    HW125802   3.542   2.790   6.623
 8301SOL    HW225803   3.486   2.637   6.604
 8302SOL     OW25804   5.768   5.771   6.090
 8302SOL    HW125805   5.714   5.815   6.019
 8302SOL    HW225806   5.860   5.752   6.055
 8303SOL     OW25807   6.947   0.556   6.245
 8303SOL    HW125808   7.000   0.575   6.162
 8303SOL    HW225809   6.868   0.500   6.222
 8304SOL     OW25810   6.844   3.081   0.122
 8304SOL    HW125811   6.910   3.136   0.070
 8304SOL    HW225812   6.767   3.057   0.062
 8305SOL     OW25813   3.128   5.738   3.449
 8305SOL    HW125814   3.161   5.660   3.395
 8305SOL    HW225815   3.079   5.704   3.530
 8306SOL     OW25816   0.831   3.493   4.168
 8306SOL    HW125817   0.851   3.466   4.074
 8306SOL    HW225818   0.898   3.451   4.230
 8307SOL     OW25819   2.958   5.514   0.991
 8307SOL    HW125820   2.886   5.477   1.049
 8307SOL    HW225821   2.923   5.529   0.899
 8308SOL     OW25822   3.491   0.362   3.302
 8308SOL    HW125823   3.518   0.382   3.396
 8308SOL    HW225824   3.447   0.443   3.263
 8309SOL     OW25825   5.572   5.949   1.895
 8309SOL    HW125826   5.658   5.999   1.905
 8309SOL    HW225827   5.498   6.014   1.876
 8310SOL     OW25828   6.564   4.578   0.084
 8310SOL    HW125829   6.471   4.550   0.063
 8310SOL    HW225830   6.628   4.532   0.023
 8311SOL     OW25831   6.652   0.664   6.460
 8311SOL    HW125832   6.571   0.707   6.418
 8311SOL    HW225833   6.733   0.718   6.438
 8312SOL     OW25834   5.523   6.620   1.286
 8312SOL    HW125835   5.586   6.617   1.208
 8312SOL    HW225836   5.566   6.668   1.362
 8313SOL     OW25837   3.436   1.356   2.577
 8313SOL    HW125838   3.522   1.400   2.605
 8313SOL    HW225839   3.453   1.259   2.558
 8314SOL     OW25840   0.066   6.453   3.676
 8314SOL    HW125841   7.009   6.457   3.609
 8314SOL    HW225842   0.040   6.506   3.757
 8315SOL     OW25843   5.033   4.732   6.380
 8315SOL    HW125844   5.103   4.672   6.340
 8315SOL    HW225845   5.076   4.792   6.447
 8316SOL     OW25846   2.527   5.700   6.903
 8316SOL    HW125847   2.494   5.694   6.998
 8316SOL    HW225848   2.557   5.610   6.873
 8317SOL     OW25849   2.158   4.526   2.482
 8317SOL    HW125850   2.084   4.459   2.479
 8317SOL    HW225851   2.243   4.483   2.451
 8318SOL     OW25852   3.604   0.935   5.757
 8318SOL    HW125853   3.593   0.852   5.702
 8318SOL    HW225854   3.702   0.957   5.764
 8319SOL     OW25855   3.604   0.791   4.909
 8319SOL    HW125856   3.680   0.791   4.844
 8319SOL    HW225857   3.624   0.731   4.985
 8320SOL     OW25858   4.074   4.685   1.665
 8320SOL    HW125859   4.043   4.591   1.676
 8320SOL    HW225860   3.997   4.743   1.640
 8321SOL     OW25861   0.465   0.872   1.590
 8321SOL    HW125862   0.388   0.911   1.539
 8321SOL    HW225863   0.434   0.792   1.642
 8322SOL     OW25864   5.660   6.676   0.054
 8322SOL    HW125865   5.740   6.662   7.014
 8322SOL    HW225866   5.639   6.774   0.060
 8323SOL     OW25867   1.456   2.072   1.846
 8323SOL    HW125868   1.454   2.012   1.927
 8323SOL    HW225869   1.549   2.080   1.812
 8324SOL     OW25870   6.847   1.334   2.044
 8324SOL    HW125871   6.821   1.380   1.959
 8324SOL    HW225872   6.765   1.301   2.090
 8325SOL     OW25873   3.050   4.002   3.884
 8325SOL    HW125874   3.082   3.911   3.859
 8325SOL    HW225875   3.104   4.071   3.835
 8326SOL     OW25876   3.281   3.440   5.968
 8326SOL    HW125877   3.321   3.444   5.877
 8326SOL    HW225878   3.337   3.493   6.032
 8327SOL     OW25879   4.760   2.045   5.675
 8327SOL    HW125880   4.746   2.116   5.743
 8327SOL    HW225881   4.709   1.963   5.701
 8328SOL     OW25882   2.430   2.082   4.649
 8328SOL    HW125883   2.374   2.125   4.579
 8328SOL    HW225884   2.410   2.124   4.738
 8329SOL     OW25885   6.858   2.378   5.182
 8329SOL    HW125886   6.958   2.384   5.184
 8329SOL    HW225887   6.820   2.427   5.261
 8330SOL     OW25888   2.706   6.857   0.755
 8330SOL    HW125889   2.635   6.924   0.738
 8330SOL    HW225890   2.785   6.875   0.696
 8331SOL     OW25891   2.494   0.023   0.702
 8331SOL    HW125892   2.428   0.022   0.627
 8331SOL    HW225893   2.522   0.118   0.720
 8332SOL     OW25894   4.982   5.537   3.093
 8332SOL    HW125895   5.030   5.579   3.170
 8332SOL    HW225896   4.925   5.462   3.127
 8333SOL     OW25897   1.357   5.683   6.301
 8333SOL    HW125898   1.330   5.591   6.328
 8333SOL    HW225899   1.277   5.744   6.304
 8334SOL     OW25900   5.585   0.484   3.793
 8334SOL    HW125901   5.611   0.579   3.775
 8334SOL    HW225902   5.659   0.437   3.841
 8335SOL     OW25903   5.842   6.724   5.308
 8335SOL    HW125904   5.909   6.770   5.250
 8335SOL    HW225905   5.760   6.779   5.315
 8336SOL     OW25906   0.834   2.148   2.348
 8336SOL    HW125907   0.904   2.178   2.412
 8336SOL    HW225908   0.877   2.117   2.263
 8337SOL     OW25909   0.735   6.229   1.956
 8337SOL    HW125910   0.720   6.131   1.972
 8337SOL    HW225911   0.764   6.243   1.862
 8338SOL     OW25912   1.849   4.983   0.842
 8338SOL    HW125913   1.937   4.964   0.887
 8338SOL    HW225914   1.836   5.082   0.833
 8339SOL     OW25915   5.642   0.623   3.204
 8339SOL    HW125916   5.648   0.597   3.107
 8339SOL    HW225917   5.684   0.550   3.259
 8340SOL     OW25918   4.816   3.447   0.926
 8340SOL    HW125919   4.760   3.483   1.001
 8340SOL    HW225920   4.802   3.348   0.919
 8341SOL     OW25921   1.995   0.184   0.969
 8341SOL    HW125922   2.077   0.166   1.023
 8341SOL    HW225923   1.967   0.280   0.983
 8342SOL     OW25924   4.582   0.540   1.115
 8342SOL    HW125925   4.501   0.594   1.138
 8342SOL    HW225926   4.613   0.490   1.196
 8343SOL     OW25927   1.620   4.888   5.950
 8343SOL    HW125928   1.692   4.833   5.907
 8343SOL    HW225929   1.618   4.868   6.048
 8344SOL     OW25930   3.754   0.337   5.201
 8344SOL    HW125931   3.768   0.241   5.178
 8344SOL    HW225932   3.838   0.375   5.239
 8345SOL     OW25933   6.430   1.386   2.333
 8345SOL    HW125934   6.425   1.316   2.405
 8345SOL    HW225935   6.458   1.473   2.373
 8346SOL     OW25936   3.146   5.498   1.685
 8346SOL    HW125937   3.198   5.418   1.716
 8346SOL    HW225938   3.054   5.494   1.723
 8347SOL     OW25939   3.497   5.433   3.756
 8347SOL    HW125940   3.507   5.498   3.681
 8347SOL    HW225941   3.482   5.482   3.842
 8348SOL     OW25942   1.214   0.341   0.359
 8348SOL    HW125943   1.186   0.423   0.309
 8348SOL    HW225944   1.133   0.287   0.383
 8349SOL     OW25945   6.100   5.249   1.644
 8349SOL    HW125946   6.142   5.264   1.554
 8349SOL    HW225947   6.017   5.305   1.650
 8350SOL     OW25948   6.506   0.455   4.613
 8350SOL    HW125949   6.487   0.553   4.610
 8350SOL    HW225950   6.473   0.418   4.700
 8351SOL     OW25951   3.069   6.306   2.085
 8351SOL    HW125952   3.051   6.246   2.006
 8351SOL    HW225953   3.051   6.401   2.059
 8352SOL     OW25954   6.685   6.233   1.533
 8352SOL    HW125955   6.780   6.244   1.502
 8352SOL    HW225956   6.623   6.246   1.456
 8353SOL     OW25957   0.436   3.796   2.091
 8353SOL    HW125958   0.397   3.817   2.181
 8353SOL    HW225959   0.433   3.877   2.033
 8354SOL     OW25960   2.364   0.538   0.204
 8354SOL    HW125961   2.383   0.451   0.247
 8354SOL    HW225962   2.360   0.610   0.273
 8355SOL     OW25963   2.857   1.439   0.409
 8355SOL    HW125964   2.826   1.533   0.393
 8355SOL    HW225965   2.822   1.407   0.496
 8356SOL     OW25966   2.278   5.367   0.674
 8356SOL    HW125967   2.358   5.381   0.615
 8356SOL    HW225968   2.238   5.456   0.698
 8357SOL     OW25969   5.089   5.854   3.835
 8357SOL    HW125970   5.151   5.825   3.909
 8357SOL    HW225971   5.130   5.830   3.747
 8358SOL     OW25972   2.681   2.095   5.013
 8358SOL    HW125973   2.688   2.191   4.987
 8358SOL    HW225974   2.640   2.088   5.104
 8359SOL     OW25975   4.762   4.961   4.084
 8359SOL    HW125976   4.821   5.041   4.071
 8359SOL    HW225977   4.697   4.955   4.008
 8360SOL     OW25978   4.479   0.648   3.014
 8360SOL    HW125979   4.391   0.654   3.062
 8360SOL    HW225980   4.527   0.735   3.021
 8361SOL     OW25981   1.658   0.905   2.730
 8361SOL    HW125982   1.735   0.963   2.701
 8361SOL    HW225983   1.693   0.826   2.781
 8362SOL     OW25984   2.379   3.115   0.226
 8362SOL    HW125985   2.449   3.152   0.166
 8362SOL    HW225986   2.373   3.171   0.309
 8363SOL     OW25987   0.195   3.460   0.907
 8363SOL    HW125988   0.182   3.385   0.972
 8363SOL    HW225989   0.291   3.464   0.880
 8364SOL     OW25990   6.437   4.782   4.367
 8364SOL    HW125991   6.431   4.831   4.279
 8364SOL    HW225992   6.474   4.691   4.351
 8365SOL     OW25993   0.989   3.914   5.938
 8365SOL    HW125994   1.077   3.956   5.958
 8365SOL    HW225995   0.990   3.818   5.966
 8366SOL     OW25996   2.832   6.922   3.313
 8366SOL    HW125997   2.875   6.832   3.327
 8366SOL    HW225998   2.849   6.979   3.393
 8367SOL     OW25999   5.292   5.792   4.011
 8367SOL    HW126000   5.338   5.744   4.086
 8367SOL    HW226001   5.326   5.886   4.006
 8368SOL     OW26002   3.261   5.542   6.423
 8368SOL    HW126003   3.227   5.498   6.339
 8368SOL    HW226004   3.237   5.639   6.421
 8369SOL     OW26005   2.717   1.448   1.429
 8369SOL    HW126006   2.719   1.519   1.358
 8369SOL    HW226007   2.625   1.443   1.467
 8370SOL     OW26008   1.668   1.464   6.986
 8370SOL    HW126009   1.617   1.550   6.976
 8370SOL    HW226010   1.604   1.389   7.002
 8371SOL     OW26011   2.250   2.852   0.195
 8371SOL    HW126012   2.215   2.806   0.276
 8371SOL    HW226013   2.271   2.947   0.217
 8372SOL     OW26014   0.165   0.868   1.262
 8372SOL    HW126015   0.181   0.770   1.255
 8372SOL    HW226016   0.070   0.889   1.241
 8373SOL     OW26017   1.650   6.777   5.010
 8373SOL    HW126018   1.718   6.803   4.942
 8373SOL    HW226019   1.665   6.682   5.038
 8374SOL     OW26020   6.461   0.440   6.191
 8374SOL    HW126021   6.372   0.473   6.159
 8374SOL    HW226022   6.458   0.428   6.290
 8375SOL     OW26023   3.871   0.992   6.489
 8375SOL    HW126024   3.969   1.004   6.501
 8375SOL    HW226025   3.839   0.918   6.548
 8376SOL     OW26026   4.329   0.323   4.375
 8376SOL    HW126027   4.380   0.339   4.459
 8376SOL    HW226028   4.259   0.394   4.364
 8377SOL     OW26029   5.832   4.731   0.651
 8377SOL    HW126030   5.768   4.678   0.707
 8377SOL    HW226031   5.926   4.710   0.679
 8378SOL     OW26032   5.042   3.037   3.859
 8378SOL    HW126033   4.996   3.069   3.942
 8378SOL    HW226034   5.130   3.083   3.850
 8379SOL     OW26035   5.161   2.473   2.435
 8379SOL    HW126036   5.091   2.402   2.438
 8379SOL    HW226037   5.130   2.548   2.377
 8380SOL     OW26038   5.470   1.898   3.651
 8380SOL    HW126039   5.525   1.973   3.686
 8380SOL    HW226040   5.478   1.893   3.552
 8381SOL     OW26041   2.156   5.514   4.175
 8381SOL    HW126042   2.152   5.489   4.079
 8381SOL    HW226043   2.230   5.465   4.220
 8382SOL     OW26044   0.695   4.273   2.559
 8382SOL    HW126045   0.748   4.245   2.479
 8382SOL    HW226046   0.747   4.341   2.611
 8383SOL     OW26047   3.484   1.679   6.390
 8383SOL    HW126048   3.443   1.664   6.300
 8383SOL    HW226049   3.563   1.618   6.402
 8384SOL     OW26050   0.669   6.751   1.854
 8384SOL    HW126051   0.701   6.747   1.759
 8384SOL    HW226052   0.613   6.670   1.873
 8385SOL     OW26053   4.808   2.260   1.014
 8385SOL    HW126054   4.729   2.295   1.063
 8385SOL    HW226055   4.872   2.218   1.079
 8386SOL     OW26056   0.881   4.239   2.941
 8386SOL    HW126057   0.941   4.287   2.877
 8386SOL    HW226058   0.857   4.149   2.903
 8387SOL     OW26059   0.968   1.886   1.005
 8387SOL    HW126060   1.025   1.816   0.963
 8387SOL    HW226061   0.879   1.846   1.030
 8388SOL     OW26062   0.672   6.669   3.129
 8388SOL    HW126063   0.672   6.569   3.125
 8388SOL    HW226064   0.744   6.704   3.069
 8389SOL     OW26065   5.643   2.333   2.951
 8389SOL    HW126066   5.693   2.404   2.902
 8389SOL    HW226067   5.576   2.375   3.012
 8390SOL     OW26068   5.646   1.500   5.872
 8390SOL    HW126069   5.576   1.526   5.939
 8390SOL    HW226070   5.735   1.533   5.904
 8391SOL     OW26071   6.659   6.626   1.635
 8391SOL    HW126072   6.720   6.585   1.703
 8391SOL    HW226073   6.573   6.576   1.632
 8392SOL     OW26074   4.441   3.051   5.706
 8392SOL    HW126075   4.370   3.121   5.698
 8392SOL    HW226076   4.411   2.968   5.659
 8393SOL     OW26077   5.295   7.000   1.394
 8393SOL    HW126078   5.308   6.985   1.296
 8393SOL    HW226079   5.200   0.009   1.411
 8394SOL     OW26080   5.657   2.888   2.254
 8394SOL    HW126081   5.673   2.886   2.353
 8394SOL    HW226082   5.732   2.937   2.209
 8395SOL     OW26083   2.428   1.091   5.161
 8395SOL    HW126084   2.352   1.058   5.106
 8395SOL    HW226085   2.427   1.191   5.164
 8396SOL     OW26086   4.641   5.605   4.884
 8396SOL    HW126087   4.570   5.655   4.834
 8396SOL    HW226088   4.707   5.670   4.922
 8397SOL     OW26089   6.085   0.272   3.236
 8397SOL    HW126090   6.182   0.247   3.237
 8397SOL    HW226091   6.076   0.369   3.213
 8398SOL     OW26092   5.138   2.399   6.177
 8398SOL    HW126093   5.044   2.402   6.144
 8398SOL    HW226094   5.196   2.357   6.108
 8399SOL     OW26095   0.479   4.216   1.184
 8399SOL    HW126096   0.383   4.232   1.162
 8399SOL    HW226097   0.489   4.131   1.235
 8400SOL     OW26098   1.628   1.312   4.686
 8400SOL    HW126099   1.728   1.324   4.684
 8400SOL    HW226100   1.584   1.399   4.707
 8401SOL     OW26101   2.168   0.246   5.498
 8401SOL    HW126102   2.244   0.305   5.525
 8401SOL    HW226103   2.121   0.213   5.581
 8402SOL     OW26104   3.068   0.592   6.482
 8402SOL    HW126105   3.101   0.519   6.542
 8402SOL    HW226106   3.105   0.578   6.390
 8403SOL     OW26107   5.918   4.791   5.165
 8403SOL    HW126108   5.830   4.743   5.167
 8403SOL    HW226109   5.979   4.752   5.233
 8404SOL     OW26110   0.652   1.647   6.508
 8404SOL    HW126111   0.640   1.746   6.516
 8404SOL    HW226112   0.749   1.626   6.501
 8405SOL     OW26113   4.317   0.320   5.589
 8405SOL    HW126114   4.273   0.338   5.501
 8405SOL    HW226115   4.295   0.227   5.619
 8406SOL     OW26116   5.460   0.224   6.295
 8406SOL    HW126117   5.468   0.171   6.380
 8406SOL    HW226118   5.365   0.221   6.263
 8407SOL     OW26119   3.886   6.774   4.334
 8407SOL    HW126120   3.984   6.791   4.348
 8407SOL    HW226121   3.834   6.822   4.404
 8408SOL     OW26122   3.761   1.194   1.277
 8408SOL    HW126123   3.702   1.184   1.357
 8408SOL    HW226124   3.840   1.133   1.286
 8409SOL     OW26125   4.465   2.139   2.315
 8409SOL    HW126126   4.487   2.223   2.363
 8409SOL    HW226127   4.444   2.067   2.381
 8410SOL     OW26128   6.966   1.770   1.989
 8410SOL    HW126129   0.030   1.793   1.936
 8410SOL    HW226130   6.942   1.674   1.973
 8411SOL     OW26131   1.205   6.346   1.019
 8411SOL    HW126132   1.181   6.262   1.068
 8411SOL    HW226133   1.152   6.351   0.934
 8412SOL     OW26134   2.499   2.023   0.153
 8412SOL    HW126135   2.493   2.118   0.120
 8412SOL    HW226136   2.524   2.023   0.250
 8413SOL     OW26137   3.803   5.311   4.419
 8413SOL    HW126138   3.894   5.339   4.388
 8413SOL    HW226139   3.763   5.384   4.475
 8414SOL     OW26140   1.071   0.420   1.116
 8414SOL    HW126141   1.051   0.403   1.019
 8414SOL    HW226142   1.064   0.518   1.134
 8415SOL     OW26143   2.792   1.481   6.139
 8415SOL    HW126144   2.826   1.550   6.075
 8415SOL    HW226145   2.847   1.398   6.130
 8416SOL     OW26146   6.778   2.334   5.594
 8416SOL    HW126147   6.790   2.238   5.569
 8416SOL    HW226148   6.839   2.391   5.539
 8417SOL     OW26149   2.043   3.207   5.912
 8417SOL    HW126150   2.079   3.300   5.900
 8417SOL    HW226151   1.981   3.205   5.990
 8418SOL     OW26152   0.412   6.080   2.244
 8418SOL    HW126153   0.475   6.010   2.213
 8418SOL    HW226154   0.456   6.170   2.238
 8419SOL     OW26155   4.299   1.663   4.059
 8419SOL    HW126156   4.384   1.708   4.033
 8419SOL    HW226157   4.255   1.716   4.132
 8420SOL     OW26158   3.495   0.849   1.906
 8420SOL    HW126159   3.532   0.792   1.833
 8420SOL    HW226160   3.561   0.855   1.981
 8421SOL     OW26161   4.567   6.674   6.371
 8421SOL    HW126162   4.576   6.768   6.337
 8421SOL    HW226163   4.616   6.664   6.457
 8422SOL     OW26164   5.190   2.795   3.922
 8422SOL    HW126165   5.146   2.882   3.896
 8422SOL    HW226166   5.125   2.740   3.974
 8423SOL     OW26167   6.803   5.357   0.026
 8423SOL    HW126168   6.877   5.399   6.992
 8423SOL    HW226169   6.783   5.411   0.107
 8424SOL     OW26170   3.292   0.223   4.949
 8424SOL    HW126171   3.376   0.263   4.913
 8424SOL    HW226172   3.278   0.254   5.043
 8425SOL     OW26173   3.740   4.036   2.101
 8425SOL    HW126174   3.661   4.000   2.051
 8425SOL    HW226175   3.708   4.097   2.174
 8426SOL     OW26176   3.887   2.953   1.815
 8426SOL    HW126177   3.922   3.020   1.881
 8426SOL    HW226178   3.789   2.968   1.801
 8427SOL     OW26179   3.831   3.419   3.621
 8427SOL    HW126180   3.815   3.465   3.708
 8427SOL    HW226181   3.898   3.346   3.633
 8428SOL     OW26182   6.195   6.814   2.038
 8428SOL    HW126183   6.252   6.735   2.060
 8428SOL    HW226184   6.253   6.892   2.014
 8429SOL     OW26185   2.840   5.915   5.119
 8429SOL    HW126186   2.907   5.845   5.146
 8429SOL    HW226187   2.866   6.003   5.159
 8430SOL     OW26188   4.778   0.027   4.871
 8430SOL    HW126189   4.814   0.116   4.843
 8430SOL    HW226190   4.678   0.029   4.867
 8431SOL     OW26191   1.891   3.975   5.818
 8431SOL    HW126192   1.844   3.970   5.730
 8431SOL    HW226193   1.964   4.043   5.813
 8432SOL     OW26194   6.379   5.497   6.043
 8432SOL    HW126195   6.318   5.514   5.965
 8432SOL    HW226196   6.371   5.402   6.071
 8433SOL     OW26197   5.729   2.075   1.195
 8433SOL    HW126198   5.813   2.047   1.149
 8433SOL    HW226199   5.707   2.010   1.268
 8434SOL     OW26200   2.761   5.777   4.506
 8434SOL    HW126201   2.681   5.770   4.566
 8434SOL    HW226202   2.839   5.732   4.550
 8435SOL     OW26203   5.497   1.890   3.382
 8435SOL    HW126204   5.543   1.801   3.373
 8435SOL    HW226205   5.532   1.952   3.311
 8436SOL     OW26206   2.190   5.776   2.113
 8436SOL    HW126207   2.222   5.791   2.019
 8436SOL    HW226208   2.139   5.690   2.117
 8437SOL     OW26209   0.728   5.339   1.512
 8437SOL    HW126210   0.788   5.259   1.514
 8437SOL    HW226211   0.676   5.339   1.426
 8438SOL     OW26212   0.356   3.626   2.395
 8438SOL    HW126213   0.454   3.638   2.383
 8438SOL    HW226214   0.339   3.560   2.469
 8439SOL     OW26215   6.327   4.393   2.714
 8439SOL    HW126216   6.341   4.296   2.695
 8439SOL    HW226217   6.247   4.405   2.772
 8440SOL     OW26218   1.772   2.155   2.701
 8440SOL    HW126219   1.737   2.155   2.608
 8440SOL    HW226220   1.835   2.232   2.713
 8441SOL     OW26221   6.930   1.708   6.249
 8441SOL    HW126222   6.925   1.807   6.250
 8441SOL    HW226223   6.987   1.678   6.172
 8442SOL     OW26224   4.097   2.308   6.698
 8442SOL    HW126225   4.126   2.381   6.760
 8442SOL    HW226226   4.138   2.222   6.727
 8443SOL     OW26227   1.642   4.438   2.664
 8443SOL    HW126228   1.615   4.342   2.667
 8443SOL    HW226229   1.700   4.460   2.742
 8444SOL     OW26230   5.480   5.331   5.362
 8444SOL    HW126231   5.525   5.335   5.451
 8444SOL    HW226232   5.490   5.240   5.323
 8445SOL     OW26233   4.632   6.829   6.668
 8445SOL    HW126234   4.629   6.732   6.647
 8445SOL    HW226235   4.686   6.844   6.751
 8446SOL     OW26236   6.400   5.116   5.070
 8446SOL    HW126237   6.461   5.184   5.109
 8446SOL    HW226238   6.435   5.086   4.981
 8447SOL     OW26239   4.045   0.956   3.958
 8447SOL    HW126240   4.096   1.041   3.967
 8447SOL    HW226241   4.010   0.947   3.864
 8448SOL     OW26242   3.232   6.192   3.096
 8448SOL    HW126243   3.306   6.240   3.050
 8448SOL    HW226244   3.145   6.235   3.073
 8449SOL     OW26245   1.944   1.956   3.634
 8449SOL    HW126246   1.931   2.051   3.663
 8449SOL    HW226247   2.016   1.914   3.691
 8450SOL     OW26248   6.943   0.940   6.915
 8450SOL    HW126249   6.932   0.993   6.831
 8450SOL    HW226250   0.001   0.977   6.969
 8451SOL     OW26251   3.872   2.667   1.354
 8451SOL    HW126252   3.868   2.756   1.307
 8451SOL    HW226253   3.780   2.636   1.375
 8452SOL     OW26254   4.995   1.166   6.070
 8452SOL    HW126255   5.026   1.074   6.045
 8452SOL    HW226256   4.895   1.169   6.069
 8453SOL     OW26257   0.099   6.424   0.002
 8453SOL    HW126258   0.159   6.455   0.076
 8453SOL    HW226259   0.004   6.426   0.034
 8454SOL     OW26260   6.007   4.286   6.598
 8454SOL    HW126261   5.959   4.220   6.657
 8454SOL    HW226262   5.944   4.320   6.528
 8455SOL     OW26263   6.649   1.034   2.664
 8455SOL    HW126264   6.613   1.057   2.574
 8455SOL    HW226265   6.597   1.083   2.735
 8456SOL     OW26266   6.929   0.125   2.735
 8456SOL    HW126267   6.939   0.213   2.780
 8456SOL    HW226268   7.009   0.108   2.678
 8457SOL     OW26269   6.703   6.677   5.010
 8457SOL    HW126270   6.619   6.700   4.961
 8457SOL    HW226271   6.684   6.603   5.075
 8458SOL     OW26272   0.452   6.732   6.589
 8458SOL    HW126273   0.485   6.666   6.522
 8458SOL    HW226274   0.523   6.800   6.607
 8459SOL     OW26275   1.397   6.099   3.616
 8459SOL    HW126276   1.428   6.064   3.528
 8459SOL    HW226277   1.389   6.023   3.681
 8460SOL     OW26278   4.081   3.502   3.275
 8460SOL    HW126279   3.991   3.527   3.310
 8460SOL    HW226280   4.142   3.480   3.352
 8461SOL     OW26281   6.365   3.263   3.763
 8461SOL    HW126282   6.305   3.221   3.695
 8461SOL    HW226283   6.319   3.342   3.803
 8462SOL     OW26284   2.533   2.671   1.648
 8462SOL    HW126285   2.631   2.673   1.666
 8462SOL    HW226286   2.517   2.680   1.549
 8463SOL     OW26287   5.659   0.555   1.805
 8463SOL    HW126288   5.648   0.639   1.753
 8463SOL    HW226289   5.571   0.525   1.840
 8464SOL     OW26290   0.111   2.046   4.715
 8464SOL    HW126291   0.145   2.123   4.660
 8464SOL    HW226292   0.151   2.051   4.807
 8465SOL     OW26293   1.476   1.906   0.030
 8465SOL    HW126294   1.495   1.825   6.992
 8465SOL    HW226295   1.533   1.982   7.016
 8466SOL     OW26296   0.398   0.219   3.966
 8466SOL    HW126297   0.432   0.312   3.981
 8466SOL    HW226298   0.466   0.167   3.915
 8467SOL     OW26299   3.555   4.973   1.128
 8467SOL    HW126300   3.531   5.051   1.187
 8467SOL    HW226301   3.608   5.006   1.050
 8468SOL     OW26302   4.363   2.594   0.459
 8468SOL    HW126303   4.426   2.658   0.504
 8468SOL    HW226304   4.353   2.512   0.516
 8469SOL     OW26305   4.194   2.405   6.405
 8469SOL    HW126306   4.223   2.451   6.489
 8469SOL    HW226307   4.096   2.419   6.392
 8470SOL     OW26308   1.697   3.166   6.726
 8470SOL    HW126309   1.669   3.071   6.742
 8470SOL    HW226310   1.616   3.220   6.700
 8471SOL     OW26311   4.862   1.688   4.000
 8471SOL    HW126312   4.956   1.682   3.966
 8471SOL    HW226313   4.846   1.778   4.040
 8472SOL     OW26314   1.169   6.686   2.928
 8472SOL    HW126315   1.220   6.761   2.888
 8472SOL    HW226316   1.071   6.704   2.920
 8473SOL     OW26317   6.839   5.917   6.166
 8473SOL    HW126318   6.785   5.846   6.211
 8473SOL    HW226319   6.795   6.006   6.180
 8474SOL     OW26320   3.795   5.208   0.434
 8474SOL    HW126321   3.841   5.217   0.345
 8474SOL    HW226322   3.783   5.111   0.455
 8475SOL     OW26323   4.555   1.480   2.826
 8475SOL    HW126324   4.568   1.389   2.867
 8475SOL    HW226325   4.642   1.511   2.786
 8476SOL     OW26326   4.373   0.509   2.414
 8476SOL    HW126327   4.428   0.591   2.405
 8476SOL    HW226328   4.418   0.432   2.368
 8477SOL     OW26329   2.736   0.656   2.531
 8477SOL    HW126330   2.731   0.619   2.439
 8477SOL    HW226331   2.643   0.666   2.568
 8478SOL     OW26332   1.694   0.345   5.592
 8478SOL    HW126333   1.690   0.398   5.676
 8478SOL    HW226334   1.772   0.375   5.537
 8479SOL     OW26335   5.293   1.240   2.507
 8479SOL    HW126336   5.216   1.180   2.489
 8479SOL    HW226337   5.336   1.266   2.421
 8480SOL     OW26338   1.812   1.219   1.616
 8480SOL    HW126339   1.884   1.205   1.548
 8480SOL    HW226340   1.820   1.311   1.654
 8481SOL     OW26341   4.546   6.979   5.108
 8481SOL    HW126342   4.492   0.013   5.175
 8481SOL    HW226343   4.537   6.881   5.126
 8482SOL     OW26344   0.650   0.441   2.247
 8482SOL    HW126345   0.684   0.421   2.339
 8482SOL    HW226346   0.600   0.527   2.248
 8483SOL     OW26347   5.576   6.142   1.671
 8483SOL    HW126348   5.485   6.154   1.710
 8483SOL    HW226349   5.595   6.044   1.660
 8484SOL     OW26350   0.327   4.383   4.247
 8484SOL    HW126351   0.269   4.411   4.171
 8484SOL    HW226352   0.408   4.441   4.251
 8485SOL     OW26353   2.480   3.272   5.587
 8485SOL    HW126354   2.454   3.333   5.512
 8485SOL    HW226355   2.572   3.295   5.619
 8486SOL     OW26356   4.144   0.522   2.614
 8486SOL    HW126357   4.215   0.463   2.575
 8486SOL    HW226358   4.057   0.505   2.569
 8487SOL     OW26359   4.639   0.895   0.785
 8487SOL    HW126360   4.681   0.816   0.739
 8487SOL    HW226361   4.700   0.974   0.777
 8488SOL     OW26362   5.325   3.289   4.702
 8488SOL    HW126363   5.343   3.312   4.607
 8488SOL    HW226364   5.228   3.301   4.722
 8489SOL     OW26365   3.678   5.836   2.805
 8489SOL    HW126366   3.718   5.906   2.745
 8489SOL    HW226367   3.582   5.856   2.819
 8490SOL     OW26368   4.033   5.393   2.555
 8490SOL    HW126369   4.021   5.487   2.586
 8490SOL    HW226370   4.108   5.389   2.488
 8491SOL     OW26371   1.020   1.173   1.937
 8491SOL    HW126372   0.995   1.143   1.845
 8491SOL    HW226373   1.119   1.169   1.947
 8492SOL     OW26374   5.580   4.045   5.013
 8492SOL    HW126375   5.510   4.091   4.958
 8492SOL    HW226376   5.670   4.082   4.991
 8493SOL     OW26377   3.980   2.424   0.841
 8493SOL    HW126378   3.926   2.413   0.925
 8493SOL    HW226379   4.073   2.391   0.856
 8494SOL     OW26380   3.975   6.214   6.641
 8494SOL    HW126381   4.020   6.157   6.710
 8494SOL    HW226382   3.881   6.232   6.671
 8495SOL     OW26383   0.659   2.623   0.065
 8495SOL    HW126384   0.621   2.598   0.154
 8495SOL    HW226385   0.732   2.691   0.077
 8496SOL     OW26386   6.937   2.251   3.088
 8496SOL    HW126387   6.932   2.175   3.023
 8496SOL    HW226388   6.848   2.264   3.131
 8497SOL     OW26389   6.272   4.594   3.063
 8497SOL    HW126390   6.244   4.500   3.043
 8497SOL    HW226391   6.265   4.610   3.162
 8498SOL     OW26392   6.361   1.001   1.092
 8498SOL    HW126393   6.301   0.993   1.172
 8498SOL    HW226394   6.437   1.063   1.114
 8499SOL     OW26395   1.628   4.042   6.517
 8499SOL    HW126396   1.661   4.102   6.445
 8499SOL    HW226397   1.531   4.059   6.533
 8500SOL     OW26398   3.351   0.576   6.078
 8500SOL    HW126399   3.368   0.556   5.982
 8500SOL    HW226400   3.421   0.638   6.113
 8501SOL     OW26401   2.929   4.283   6.174
 8501SOL    HW126402   2.921   4.280   6.074
 8501SOL    HW226403   2.954   4.375   6.203
 8502SOL     OW26404   0.830   6.900   2.055
 8502SOL    HW126405   0.761   6.846   2.007
 8502SOL    HW226406   0.903   6.839   2.088
 8503SOL     OW26407   3.089   6.223   3.348
 8503SOL    HW126408   3.005   6.188   3.307
 8503SOL    HW226409   3.138   6.148   3.393
 8504SOL     OW26410   1.397   5.408   3.391
 8504SOL    HW126411   1.358   5.500   3.386
 8504SOL    HW226412   1.378   5.360   3.306
 8505SOL     OW26413   4.711   2.653   4.194
 8505SOL    HW126414   4.708   2.691   4.102
 8505SOL    HW226415   4.764   2.714   4.253
 8506SOL     OW26416   1.010   6.522   0.572
 8506SOL    HW126417   0.922   6.530   0.618
 8506SOL    HW226418   1.066   6.603   0.592
 8507SOL     OW26419   1.698   0.123   4.962
 8507SOL    HW126420   1.660   0.066   5.034
 8507SOL    HW226421   1.796   0.137   4.979
 8508SOL     OW26422   0.673   3.143   5.976
 8508SOL    HW126423   0.768   3.125   5.999
 8508SOL    HW226424   0.665   3.234   5.935
 8509SOL     OW26425   5.941   2.301   4.807
 8509SOL    HW126426   6.011   2.239   4.773
 8509SOL    HW226427   5.855   2.285   4.758
 8510SOL     OW26428   5.063   6.939   2.220
 8510SOL    HW126429   4.973   6.930   2.263
 8510SOL    HW226430   5.128   6.879   2.267
 8511SOL     OW26431   6.556   4.922   1.387
 8511SOL    HW126432   6.609   4.970   1.317
 8511SOL    HW226433   6.485   4.867   1.343
 8512SOL     OW26434   3.636   2.753   0.987
 8512SOL    HW126435   3.639   2.839   0.935
 8512SOL    HW226436   3.553   2.703   0.962
 8513SOL     OW26437   0.816   4.044   1.411
 8513SOL    HW126438   0.830   4.007   1.503
 8513SOL    HW226439   0.782   3.971   1.351
 8514SOL     OW26440   2.681   2.091   5.331
 8514SOL    HW126441   2.690   2.071   5.428
 8514SOL    HW226442   2.769   2.120   5.294
 8515SOL     OW26443   2.195   0.148   0.518
 8515SOL    HW126444   2.275   0.113   0.469
 8515SOL    HW226445   2.141   0.071   0.553
 8516SOL     OW26446   5.465   3.163   4.266
 8516SOL    HW126447   5.396   3.227   4.232
 8516SOL    HW226448   5.450   3.148   4.364
 8517SOL     OW26449   2.150   1.724   6.436
 8517SOL    HW126450   2.126   1.699   6.342
 8517SOL    HW226451   2.226   1.789   6.435
 8518SOL     OW26452   5.246   4.736   7.013
 8518SOL    HW126453   5.298   4.799   0.054
 8518SOL    HW226454   5.287   4.734   6.922
 8519SOL     OW26455   0.635   3.161   0.475
 8519SOL    HW126456   0.724   3.205   0.467
 8519SOL    HW226457   0.572   3.220   0.526
 8520SOL     OW26458   3.562   4.146   5.534
 8520SOL    HW126459   3.561   4.185   5.441
 8520SOL    HW226460   3.577   4.219   5.600
 8521SOL     OW26461   2.041   6.509   5.176
 8521SOL    HW126462   2.021   6.417   5.209
 8521SOL    HW226463   2.111   6.503   5.104
 8522SOL     OW26464   0.457   6.723   0.122
 8522SOL    HW126465   0.444   6.809   0.072
 8522SOL    HW226466   0.447   6.740   0.220
 8523SOL     OW26467   3.789   2.036   0.518
 8523SOL    HW126468   3.880   2.076   0.521
 8523SOL    HW226469   3.773   1.998   0.427
 8524SOL     OW26470   2.287   5.297   5.040
 8524SOL    HW126471   2.231   5.215   5.023
 8524SOL    HW226472   2.368   5.294   4.983
 8525SOL     OW26473   6.233   3.639   2.063
 8525SOL    HW126474   6.169   3.689   2.004
 8525SOL    HW226475   6.192   3.626   2.153
 8526SOL     OW26476   0.372   4.460   0.214
 8526SOL    HW126477   0.368   4.370   0.169
 8526SOL    HW226478   0.419   4.451   0.302
 8527SOL     OW26479   2.880   0.949   5.787
 8527SOL    HW126480   2.857   1.046   5.781
 8527SOL    HW226481   2.848   0.913   5.875
 8528SOL     OW26482   5.499   0.883   1.063
 8528SOL    HW126483   5.494   0.982   1.053
 8528SOL    HW226484   5.532   0.861   1.155
 8529SOL     OW26485   1.120   6.320   0.122
 8529SOL    HW126486   1.029   6.362   0.119
 8529SOL    HW226487   1.165   6.344   0.207
 8530SOL     OW26488   3.941   3.903   3.105
 8530SOL    HW126489   3.992   3.885   3.190
 8530SOL    HW226490   3.859   3.956   3.127
 8531SOL     OW26491   6.384   5.178   4.526
 8531SOL    HW126492   6.323   5.187   4.447
 8531SOL    HW226493   6.401   5.081   4.544
 8532SOL     OW26494   3.387   5.531   6.760
 8532SOL    HW126495   3.313   5.571   6.706
 8532SOL    HW226496   3.358   5.524   6.856
 8533SOL     OW26497   2.812   6.751   5.190
 8533SOL    HW126498   2.735   6.736   5.252
 8533SOL    HW226499   2.898   6.734   5.238
 8534SOL     OW26500   2.106   2.514   3.024
 8534SOL    HW126501   2.157   2.428   3.034
 8534SOL    HW226502   2.160   2.589   3.060
 8535SOL     OW26503   6.231   0.390   2.151
 8535SOL    HW126504   6.161   0.334   2.107
 8535SOL    HW226505   6.192   0.478   2.178
 8536SOL     OW26506   0.750   1.185   4.423
 8536SOL    HW126507   0.712   1.222   4.338
 8536SOL    HW226508   0.675   1.160   4.484
 8537SOL     OW26509   5.931   1.361   2.951
 8537SOL    HW126510   5.966   1.373   2.858
 8537SOL    HW226511   5.834   1.334   2.947
 8538SOL     OW26512   0.905   2.535   0.232
 8538SOL    HW126513   0.984   2.484   0.198
 8538SOL    HW226514   0.896   2.621   0.183
 8539SOL     OW26515   5.307   2.906   2.431
 8539SOL    HW126516   5.218   2.869   2.458
 8539SOL    HW226517   5.320   2.995   2.473
 8540SOL     OW26518   3.438   0.831   1.320
 8540SOL    HW126519   3.426   0.732   1.310
 8540SOL    HW226520   3.350   0.876   1.310
 8541SOL     OW26521   2.187   2.513   4.204
 8541SOL    HW126522   2.248   2.480   4.277
 8541SOL    HW226523   2.231   2.588   4.156
 8542SOL     OW26524   3.496   4.543   0.555
 8542SOL    HW126525   3.560   4.600   0.504
 8542SOL    HW226526   3.422   4.513   0.494
 8543SOL     OW26527   2.945   2.103   6.467
 8543SOL    HW126528   2.981   2.160   6.393
 8543SOL    HW226529   3.013   2.092   6.538
 8544SOL     OW26530   5.894   2.581   4.172
 8544SOL    HW126531   5.894   2.574   4.272
 8544SOL    HW226532   5.968   2.527   4.134
 8545SOL     OW26533   4.659   6.357   5.192
 8545SOL    HW126534   4.650   6.453   5.220
 8545SOL    HW226535   4.701   6.352   5.102
 8546SOL     OW26536   4.891   2.243   0.148
 8546SOL    HW126537   4.906   2.260   0.051
 8546SOL    HW226538   4.844   2.321   0.189
 8547SOL     OW26539   1.154   4.732   2.145
 8547SOL    HW126540   1.135   4.724   2.243
 8547SOL    HW226541   1.209   4.814   2.128
 8548SOL     OW26542   6.449   1.610   5.608
 8548SOL    HW126543   6.445   1.675   5.532
 8548SOL    HW226544   6.536   1.562   5.607
 8549SOL     OW26545   5.408   3.290   5.566
 8549SOL    HW126546   5.377   3.382   5.541
 8549SOL    HW226547   5.384   3.225   5.494
 8550SOL     OW26548   0.877   4.309   6.182
 8550SOL    HW126549   0.953   4.329   6.119
 8550SOL    HW226550   0.868   4.210   6.192
 8551SOL     OW26551   2.573   4.394   0.857
 8551SOL    HW126552   2.629   4.456   0.911
 8551SOL    HW226553   2.564   4.307   0.904
 8552SOL     OW26554   2.967   6.614   4.442
 8552SOL    HW126555   2.936   6.540   4.383
 8552SOL    HW226556   3.066   6.625   4.433
 8553SOL     OW26557   6.100   4.901   6.854
 8553SOL    HW126558   6.016   4.949   6.878
 8553SOL    HW226559   6.089   4.803   6.870
 8554SOL     OW26560   5.606   3.855   6.952
 8554SOL    HW126561   5.535   3.899   7.007
 8554SOL    HW226562   5.624   3.763   6.987
 8555SOL     OW26563   1.844   6.727   4.436
 8555SOL    HW126564   1.939   6.697   4.428
 8555SOL    HW226565   1.819   6.733   4.533
 8556SOL     OW26566   6.135   6.748   4.255
 8556SOL    HW126567   6.093   6.809   4.188
 8556SOL    HW226568   6.121   6.653   4.227
 8557SOL     OW26569   6.805   1.081   0.272
 8557SOL    HW126570   6.721   1.065   0.324
 8557SOL    HW226571   6.874   1.014   0.298
 8558SOL     OW26572   0.585   5.194   2.103
 8558SOL    HW126573   0.541   5.266   2.049
 8558SOL    HW226574   0.568   5.105   2.060
 8559SOL     OW26575   0.438   1.436   5.677
 8559SOL    HW126576   0.494   1.423   5.595
 8559SOL    HW226577   0.498   1.440   5.757
 8560SOL     OW26578   6.569   1.998   6.714
 8560SOL    HW126579   6.633   1.921   6.709
 8560SOL    HW226580   6.513   1.999   6.631
 8561SOL     OW26581   4.929   5.684   5.570
 8561SOL    HW126582   4.969   5.751   5.507
 8561SOL    HW226583   5.000   5.619   5.598
 8562SOL     OW26584   3.763   6.976   4.493
 8562SOL    HW126585   3.767   0.025   4.418
 8562SOL    HW226586   3.814   7.011   4.572
 8563SOL     OW26587   2.925   3.199   6.734
 8563SOL    HW126588   2.840   3.250   6.741
 8563SOL    HW226589   2.968   3.217   6.646
 8564SOL     OW26590   0.313   6.177   3.295
 8564SOL    HW126591   0.305   6.178   3.395
 8564SOL    HW226592   0.288   6.267   3.259
 8565SOL     OW26593   3.563   0.649   1.728
 8565SOL    HW126594   3.555   0.576   1.795
 8565SOL    HW226595   3.511   0.625   1.646
 8566SOL     OW26596   1.513   4.066   3.475
 8566SOL    HW126597   1.536   4.022   3.561
 8566SOL    HW226598   1.597   4.093   3.427
 8567SOL     OW26599   5.138   5.852   0.150
 8567SOL    HW126600   5.146   5.838   0.249
 8567SOL    HW226601   5.179   5.940   0.126
 8568SOL     OW26602   5.721   0.682   0.093
 8568SOL    HW126603   5.795   0.641   0.146
 8568SOL    HW226604   5.749   0.774   0.063
 8569SOL     OW26605   4.148   1.055   5.503
 8569SOL    HW126606   4.192   1.061   5.592
 8569SOL    HW226607   4.107   1.143   5.480
 8570SOL     OW26608   0.296   3.444   6.235
 8570SOL    HW126609   0.202   3.475   6.220
 8570SOL    HW226610   0.352   3.468   6.156
 8571SOL     OW26611   0.057   4.259   4.779
 8571SOL    HW126612   0.032   4.185   4.717
 8571SOL    HW226613   0.088   4.222   4.866
 8572SOL     OW26614   2.893   4.929   5.420
 8572SOL    HW126615   2.883   4.942   5.519
 8572SOL    HW226616   2.853   5.007   5.372
 8573SOL     OW26617   4.073   6.354   4.335
 8573SOL    HW126618   4.033   6.428   4.390
 8573SOL    HW226619   4.118   6.393   4.255
 8574SOL     OW26620   0.344   3.751   4.333
 8574SOL    HW126621   0.420   3.815   4.325
 8574SOL    HW226622   0.314   3.725   4.241
 8575SOL     OW26623   2.924   3.324   6.479
 8575SOL    HW126624   2.970   3.406   6.444
 8575SOL    HW226625   2.864   3.350   6.555
 8576SOL     OW26626   1.816   0.518   0.729
 8576SOL    HW126627   1.838   0.481   0.639
 8576SOL    HW226628   1.724   0.557   0.728
 8577SOL     OW26629   6.614   5.680   4.313
 8577SOL    HW126630   6.541   5.691   4.246
 8577SOL    HW226631   6.687   5.623   4.275
 8578SOL     OW26632   5.176   0.533   2.748
 8578SOL    HW126633   5.191   0.615   2.693
 8578SOL    HW226634   5.153   0.456   2.689
 8579SOL     OW26635   0.327   4.900   2.910
 8579SOL    HW126636   0.307   4.991   2.946
 8579SOL    HW226637   0.242   4.852   2.890
 8580SOL     OW26638   2.788   5.065   5.925
 8580SOL    HW126639   2.813   4.990   5.864
 8580SOL    HW226640   2.797   5.035   6.020
 8581SOL     OW26641   3.373   2.964   6.919
 8581SOL    HW126642   3.359   2.928   7.012
 8581SOL    HW226643   3.327   2.904   6.854
 8582SOL     OW26644   4.280   4.630   0.815
 8582SOL    HW126645   4.253   4.543   0.773
 8582SOL    HW226646   4.347   4.613   0.887
 8583SOL     OW26647   5.550   6.586   5.333
 8583SOL    HW126648   5.581   6.678   5.310
 8583SOL    HW226649   5.480   6.557   5.267
 8584SOL     OW26650   0.528   5.547   6.634
 8584SOL    HW126651   0.546   5.535   6.732
 8584SOL    HW226652   0.540   5.459   6.587
 8585SOL     OW26653   0.698   1.651   0.859
 8585SOL    HW126654   0.781   1.600   0.881
 8585SOL    HW226655   0.624   1.621   0.920
 8586SOL     OW26656   4.076   5.133   4.370
 8586SOL    HW126657   4.086   5.131   4.470
 8586SOL    HW226658   4.085   5.040   4.334
 8587SOL     OW26659   6.678   1.701   2.094
 8587SOL    HW126660   6.759   1.739   2.049
 8587SOL    HW226661   6.707   1.640   2.167
 8588SOL     OW26662   3.383   2.055   0.006
 8588SOL    HW126663   3.401   1.958   0.025
 8588SOL    HW226664   3.418   2.111   0.081
 8589SOL     OW26665   3.208   1.415   5.138
 8589SOL    HW126666   3.244   1.507   5.150
 8589SOL    HW226667   3.283   1.351   5.121
 8590SOL     OW26668   6.217   5.856   5.066
 8590SOL    HW126669   6.236   5.758   5.057
 8590SOL    HW226670   6.128   5.876   5.026
 8591SOL     OW26671   1.163   2.732   0.644
 8591SOL    HW126672   1.143   2.692   0.554
 8591SOL    HW226673   1.095   2.803   0.664
 8592SOL     OW26674   6.769   6.193   6.126
 8592SOL    HW126675   6.689   6.245   6.157
 8592SOL    HW226676   6.840   6.257   6.095
 8593SOL     OW26677   0.168   5.918   3.227
 8593SOL    HW126678   0.222   5.997   3.199
 8593SOL    HW226679   0.222   5.859   3.286
 8594SOL     OW26680   3.607   4.144   3.290
 8594SOL    HW126681   3.640   4.188   3.206
 8594SOL    HW226682   3.680   4.090   3.330
 8595SOL     OW26683   1.560   3.108   1.489
 8595SOL    HW126684   1.507   3.109   1.574
 8595SOL    HW226685   1.639   3.170   1.499
 8596SOL     OW26686   6.615   4.238   2.570
 8596SOL    HW126687   6.538   4.213   2.628
 8596SOL    HW226688   6.660   4.155   2.537
 8597SOL     OW26689   2.572   1.868   0.434
 8597SOL    HW126690   2.617   1.804   0.495
 8597SOL    HW226691   2.505   1.820   0.378
 8598SOL     OW26692   5.575   3.641   1.582
 8598SOL    HW126693   5.655   3.597   1.541
 8598SOL    HW226694   5.587   3.644   1.682
 8599SOL     OW26695   0.926   3.236   0.955
 8599SOL    HW126696   0.842   3.188   0.928
 8599SOL    HW226697   0.903   3.305   1.023
 8600SOL     OW26698   6.206   3.022   6.240
 8600SOL    HW126699   6.129   2.963   6.216
 8600SOL    HW226700   6.220   3.019   6.339
 8601SOL     OW26701   0.224   0.478   5.398
 8601SOL    HW126702   0.260   0.568   5.374
 8601SOL    HW226703   0.126   0.484   5.414
 8602SOL     OW26704   1.920   6.534   1.591
 8602SOL    HW126705   1.851   6.603   1.611
 8602SOL    HW226706   1.882   6.443   1.611
 8603SOL     OW26707   4.954   3.383   1.518
 8603SOL    HW126708   4.861   3.347   1.510
 8603SOL    HW226709   4.952   3.481   1.538
 8604SOL     OW26710   5.706   2.536   2.789
 8604SOL    HW126711   5.752   2.515   2.703
 8604SOL    HW226712   5.762   2.601   2.842
 8605SOL     OW26713   2.662   5.579   1.775
 8605SOL    HW126714   2.709   5.664   1.799
 8605SOL    HW226715   2.616   5.542   1.856
 8606SOL     OW26716   3.857   5.690   5.350
 8606SOL    HW126717   3.904   5.625   5.290
 8606SOL    HW226718   3.925   5.751   5.392
 8607SOL     OW26719   3.055   5.830   1.022
 8607SOL    HW126720   3.038   5.743   0.976
 8607SOL    HW226721   2.970   5.864   1.062
 8608SOL     OW26722   6.171   6.498   2.134
 8608SOL    HW126723   6.144   6.409   2.098
 8608SOL    HW226724   6.244   6.536   2.078
 8609SOL     OW26725   4.579   0.789   6.540
 8609SOL    HW126726   4.532   0.750   6.619
 8609SOL    HW226727   4.678   0.773   6.549
 8610SOL     OW26728   0.270   6.399   5.304
 8610SOL    HW126729   0.274   6.397   5.204
 8610SOL    HW226730   0.270   6.305   5.338
 8611SOL     OW26731   1.240   2.036   3.561
 8611SOL    HW126732   1.312   2.015   3.627
 8611SOL    HW226733   1.177   1.959   3.556
 8612SOL     OW26734   4.879   2.964   4.710
 8612SOL    HW126735   4.975   2.937   4.709
 8612SOL    HW226736   4.840   2.949   4.619
 8613SOL     OW26737   1.333   0.979   0.193
 8613SOL    HW126738   1.288   1.037   0.125
 8613SOL    HW226739   1.280   0.980   0.278
 8614SOL     OW26740   1.414   1.727   3.881
 8614SOL    HW126741   1.494   1.681   3.843
 8614SOL    HW226742   1.422   1.732   3.980
 8615SOL     OW26743   4.482   2.414   5.182
 8615SOL    HW126744   4.575   2.449   5.189
 8615SOL    HW226745   4.442   2.442   5.095
 8616SOL     OW26746   1.426   3.430   0.234
 8616SOL    HW126747   1.401   3.510   0.288
 8616SOL    HW226748   1.518   3.400   0.259
 8617SOL     OW26749   5.695   2.697   0.688
 8617SOL    HW126750   5.632   2.718   0.613
 8617SOL    HW226751   5.668   2.750   0.769
 8618SOL     OW26752   4.231   0.901   2.932
 8618SOL    HW126753   4.202   0.838   3.003
 8618SOL    HW226754   4.206   0.865   2.842
 8619SOL     OW26755   4.378   6.033   0.810
 8619SOL    HW126756   4.406   5.982   0.891
 8619SOL    HW226757   4.296   5.992   0.771
 8620SOL     OW26758   6.367   5.932   3.335
 8620SOL    HW126759   6.438   5.994   3.370
 8620SOL    HW226760   6.327   5.881   3.411
 8621SOL     OW26761   5.183   0.550   3.494
 8621SOL    HW126762   5.212   0.541   3.589
 8621SOL    HW226763   5.220   0.634   3.455
 8622SOL     OW26764   5.007   5.105   6.855
 8622SOL    HW126765   5.017   5.199   6.823
 8622SOL    HW226766   4.915   5.072   6.835
 8623SOL     OW26767   6.086   2.573   3.499
 8623SOL    HW126768   6.078   2.474   3.514
 8623SOL    HW226769   6.182   2.600   3.503
 8624SOL     OW26770   6.827   4.093   3.883
 8624SOL    HW126771   6.737   4.115   3.921
 8624SOL    HW226772   6.897   4.147   3.929
 8625SOL     OW26773   3.514   0.989   6.661
 8625SOL    HW126774   3.431   1.014   6.610
 8625SOL    HW226775   3.561   0.914   6.614
 8626SOL     OW26776   2.934   3.200   2.548
 8626SOL    HW126777   2.902   3.180   2.456
 8626SOL    HW226778   3.024   3.160   2.562
 8627SOL     OW26779   2.311   0.168   6.755
 8627SOL    HW126780   2.374   0.092   6.736
 8627SOL    HW226781   2.364   0.250   6.774
 8628SOL     OW26782   6.157   1.259   0.541
 8628SOL    HW126783   6.134   1.339   0.486
 8628SOL    HW226784   6.223   1.202   0.492
 8629SOL     OW26785   1.334   5.324   3.653
 8629SOL    HW126786   1.420   5.278   3.674
 8629SOL    HW226787   1.346   5.381   3.571
 8630SOL     OW26788   5.478   4.715   4.121
 8630SOL    HW126789   5.404   4.781   4.106
 8630SOL    HW226790   5.488   4.696   4.218
 8631SOL     OW26791   4.748   5.767   3.708
 8631SOL    HW126792   4.673   5.796   3.648
 8631SOL    HW226793   4.719   5.689   3.763
 8632SOL     OW26794   3.886   0.297   3.628
 8632SOL    HW126795   3.884   0.358   3.707
 8632SOL    HW226796   3.820   0.328   3.560
 8633SOL     OW26797   6.567   6.832   3.489
 8633SOL    HW126798   6.567   6.769   3.567
 8633SOL    HW226799   6.567   6.780   3.404
 8634SOL     OW26800   6.420   6.087   1.764
 8634SOL    HW126801   6.491   6.017   1.750
 8634SOL    HW226802   6.457   6.176   1.737
 8635SOL     OW26803   6.426   3.394   5.740
 8635SOL    HW126804   6.417   3.373   5.838
 8635SOL    HW226805   6.350   3.354   5.690
 8636SOL     OW26806   5.482   5.598   0.645
 8636SOL    HW126807   5.579   5.571   0.640
 8636SOL    HW226808   5.440   5.586   0.556
 8637SOL     OW26809   1.702   0.750   1.355
 8637SOL    HW126810   1.800   0.766   1.342
 8637SOL    HW226811   1.662   0.717   1.270
 8638SOL     OW26812   4.375   5.337   0.828
 8638SOL    HW126813   4.453   5.283   0.796
 8638SOL    HW226814   4.394   5.434   0.815
 8639SOL     OW26815   6.202   2.699   1.796
 8639SOL    HW126816   6.255   2.672   1.715
 8639SOL    HW226817   6.189   2.619   1.856
 8640SOL     OW26818   4.641   6.320   1.420
 8640SOL    HW126819   4.652   6.307   1.321
 8640SOL    HW226820   4.698   6.255   1.469
 8641SOL     OW26821   5.304   4.778   3.262
 8641SOL    HW126822   5.288   4.728   3.347
 8641SOL    HW226823   5.381   4.737   3.213
 8642SOL     OW26824   4.390   1.632   1.804
 8642SOL    HW126825   4.337   1.665   1.726
 8642SOL    HW226826   4.421   1.710   1.858
 8643SOL     OW26827   4.369   0.328   0.118
 8643SOL    HW126828   4.340   0.288   0.031
 8643SOL    HW226829   4.290   0.334   0.179
 8644SOL     OW26830   6.601   3.552   5.393
 8644SOL    HW126831   6.541   3.620   5.352
 8644SOL    HW226832   6.596   3.558   5.493
 8645SOL     OW26833   6.165   4.283   1.940
 8645SOL    HW126834   6.239   4.239   1.991
 8645SOL    HW226835   6.133   4.222   1.867
 8646SOL     OW26836   5.614   6.840   1.041
 8646SOL    HW126837   5.590   6.795   0.955
 8646SOL    HW226838   5.530   6.860   1.093
 8647SOL     OW26839   4.317   4.768   2.022
 8647SOL    HW126840   4.337   4.670   2.016
 8647SOL    HW226841   4.270   4.797   1.938
 8648SOL     OW26842   6.018   1.771   4.706
 8648SOL    HW126843   6.036   1.675   4.683
 8648SOL    HW226844   6.091   1.828   4.669
 8649SOL     OW26845   6.854   4.786   5.710
 8649SOL    HW126846   6.940   4.772   5.759
 8649SOL    HW226847   6.782   4.807   5.775
 8650SOL     OW26848   0.129   4.691   1.964
 8650SOL    HW126849   0.201   4.713   1.898
 8650SOL    HW226850   0.040   4.715   1.924
 8651SOL     OW26851   3.828   2.948   1.240
 8651SOL    HW126852   3.870   2.927   1.151
 8651SOL    HW226853   3.730   2.926   1.236
 8652SOL     OW26854   1.028   3.218   3.604
 8652SOL    HW126855   1.012   3.293   3.540
 8652SOL    HW226856   0.941   3.175   3.628
 8653SOL     OW26857   5.457   3.033   6.832
 8653SOL    HW126858   5.437   2.976   6.753
 8653SOL    HW226859   5.400   3.116   6.828
 8654SOL     OW26860   0.604   5.464   1.830
 8654SOL    HW126861   0.565   5.491   1.918
 8654SOL    HW226862   0.612   5.364   1.826
 8655SOL     OW26863   6.262   6.279   3.045
 8655SOL    HW126864   6.222   6.370   3.039
 8655SOL    HW226865   6.220   6.220   2.976
 8656SOL     OW26866   6.794   1.988   1.208
 8656SOL    HW126867   6.871   1.932   1.175
 8656SOL    HW226868   6.751   1.942   1.285
 8657SOL     OW26869   2.646   4.226   0.262
 8657SOL    HW126870   2.690   4.172   0.334
 8657SOL    HW226871   2.716   4.268   0.205
 8658SOL     OW26872   0.605   5.355   6.278
 8658SOL    HW126873   0.589   5.454   6.282
 8658SOL    HW226874   0.692   5.337   6.232
 8659SOL     OW26875   4.159   0.150   3.663
 8659SOL    HW126876   4.237   0.150   3.600
 8659SOL    HW226877   4.083   0.200   3.621
 8660SOL     OW26878   5.608   4.566   0.350
 8660SOL    HW126879   5.679   4.627   0.314
 8660SOL    HW226880   5.617   4.557   0.449
 8661SOL     OW26881   6.480   3.529   1.454
 8661SOL    HW126882   6.394   3.566   1.420
 8661SOL    HW226883   6.464   3.436   1.489
 8662SOL     OW26884   0.623   0.453   0.646
 8662SOL    HW126885   0.684   0.382   0.611
 8662SOL    HW226886   0.674   0.512   0.709
 8663SOL     OW26887   1.515   5.586   1.123
 8663SOL    HW126888   1.528   5.671   1.072
 8663SOL    HW226889   1.436   5.537   1.087
 8664SOL     OW26890   4.457   4.999   1.830
 8664SOL    HW126891   4.470   5.001   1.929
 8664SOL    HW226892   4.359   4.990   1.809
 8665SOL     OW26893   5.120   5.667   4.654
 8665SOL    HW126894   5.131   5.748   4.596
 8665SOL    HW226895   5.173   5.592   4.616
 8666SOL     OW26896   6.063   4.165   4.293
 8666SOL    HW126897   6.111   4.135   4.211
 8666SOL    HW226898   6.104   4.122   4.374
 8667SOL     OW26899   5.349   2.897   3.143
 8667SOL    HW126900   5.304   2.808   3.152
 8667SOL    HW226901   5.321   2.956   3.219
 8668SOL     OW26902   3.435   1.011   4.265
 8668SOL    HW126903   3.419   1.007   4.363
 8668SOL    HW226904   3.393   1.093   4.227
 8669SOL     OW26905   4.230   6.803   5.775
 8669SOL    HW126906   4.247   6.794   5.677
 8669SOL    HW226907   4.139   6.839   5.790
 8670SOL     OW26908   3.793   4.951   3.154
 8670SOL    HW126909   3.823   5.031   3.205
 8670SOL    HW226910   3.851   4.873   3.176
 8671SOL     OW26911   6.198   6.119   2.798
 8671SOL    HW126912   6.111   6.088   2.835
 8671SOL    HW226913   6.182   6.187   2.727
 8672SOL     OW26914   3.690   5.076   5.678
 8672SOL    HW126915   3.765   5.117   5.627
 8672SOL    HW226916   3.719   4.988   5.716
 8673SOL     OW26917   4.864   1.937   0.497
 8673SOL    HW126918   4.852   2.036   0.505
 8673SOL    HW226919   4.954   1.911   0.532
 8674SOL     OW26920   0.588   0.232   2.644
 8674SOL    HW126921   0.494   0.216   2.613
 8674SOL    HW226922   0.637   0.286   2.575
 8675SOL     OW26923   2.199   2.843   2.261
 8675SOL    HW126924   2.239   2.780   2.194
 8675SOL    HW226925   2.101   2.853   2.242
 8676SOL     OW26926   4.296   0.391   4.082
 8676SOL    HW126927   4.243   0.464   4.040
 8676SOL    HW226928   4.292   0.401   4.182
 8677SOL     OW26929   2.174   4.461   5.344
 8677SOL    HW126930   2.202   4.428   5.253
 8677SOL    HW226931   2.252   4.506   5.388
 8678SOL     OW26932   1.372   0.817   6.339
 8678SOL    HW126933   1.410   0.818   6.247
 8678SOL    HW226934   1.444   0.839   6.405
 8679SOL     OW26935   6.622   2.100   4.549
 8679SOL    HW126936   6.599   2.077   4.455
 8679SOL    HW226937   6.658   2.019   4.596
 8680SOL     OW26938   0.718   3.868   0.825
 8680SOL    HW126939   0.808   3.906   0.846
 8680SOL    HW226940   0.711   3.849   0.727
 8681SOL     OW26941   4.131   3.556   1.257
 8681SOL    HW126942   4.189   3.474   1.261
 8681SOL    HW226943   4.136   3.604   1.344
 8682SOL     OW26944   1.965   5.602   2.607
 8682SOL    HW126945   2.004   5.514   2.581
 8682SOL    HW226946   1.890   5.587   2.672
 8683SOL     OW26947   5.378   2.903   6.620
 8683SOL    HW126948   5.470   2.891   6.583
 8683SOL    HW226949   5.313   2.916   6.545
 8684SOL     OW26950   6.848   2.831   4.234
 8684SOL    HW126951   6.812   2.744   4.202
 8684SOL    HW226952   6.883   2.821   4.328
 8685SOL     OW26953   0.476   1.684   5.292
 8685SOL    HW126954   0.552   1.715   5.350
 8685SOL    HW226955   0.514   1.644   5.209
 8686SOL     OW26956   6.623   1.820   3.702
 8686SOL    HW126957   6.603   1.749   3.770
 8686SOL    HW226958   6.593   1.790   3.612
 8687SOL     OW26959   3.740   0.921   2.848
 8687SOL    HW126960   3.762   0.958   2.939
 8687SOL    HW226961   3.647   0.947   2.824
 8688SOL     OW26962   1.174   0.478   2.487
 8688SOL    HW126963   1.245   0.520   2.544
 8688SOL    HW226964   1.162   0.532   2.403
 8689SOL     OW26965   4.452   5.561   0.594
 8689SOL    HW126966   4.522   5.630   0.575
 8689SOL    HW226967   4.478   5.475   0.550
 8690SOL     OW26968   1.380   0.578   2.651
 8690SOL    HW126969   1.369   0.669   2.689
 8690SOL    HW226970   1.380   0.510   2.724
 8691SOL     OW26971   5.915   1.792   0.418
 8691SOL    HW126972   5.967   1.825   0.340
 8691SOL    HW226973   5.946   1.838   0.501
 8692SOL     OW26974   1.690   1.608   3.861
 8692SOL    HW126975   1.694   1.646   3.769
 8692SOL    HW226976   1.782   1.604   3.900
 8693SOL     OW26977   5.220   1.911   6.719
 8693SOL    HW126978   5.261   1.928   6.809
 8693SOL    HW226979   5.120   1.916   6.728
 8694SOL     OW26980   3.756   6.370   7.009
 8694SOL    HW126981   3.664   6.409   7.017
 8694SOL    HW226982   3.808   6.390   0.075
 8695SOL     OW26983   4.499   4.371   5.251
 8695SOL    HW126984   4.582   4.425   5.237
 8695SOL    HW226985   4.429   4.401   5.185
 8696SOL     OW26986   1.699   4.963   1.062
 8696SOL    HW126987   1.741   4.963   0.971
 8696SOL    HW226988   1.723   5.047   1.110
 8697SOL     OW26989   5.128   4.936   6.598
 8697SOL    HW126990   5.192   4.962   6.671
 8697SOL    HW226991   5.071   4.860   6.630
 8698SOL     OW26992   6.138   6.039   4.448
 8698SOL    HW126993   6.085   5.954   4.439
 8698SOL    HW226994   6.078   6.112   4.479
 8699SOL     OW26995   1.541   1.366   5.370
 8699SOL    HW126996   1.476   1.352   5.296
 8699SOL    HW226997   1.495   1.407   5.448
 8700SOL     OW26998   2.664   2.065   5.605
 8700SOL    HW126999   2.579   2.098   5.645
 8700SOL    HW227000   2.741   2.093   5.663
 8701SOL     OW27001   1.272   2.162   4.030
 8701SOL    HW127002   1.368   2.171   4.006
 8701SOL    HW227003   1.224   2.246   4.004
 8702SOL     OW27004   5.205   5.449   0.202
 8702SOL    HW127005   5.213   5.544   0.231
 8702SOL    HW227006   5.194   5.445   0.102
 8703SOL     OW27007   1.103   5.217   1.308
 8703SOL    HW127008   1.032   5.183   1.246
 8703SOL    HW227009   1.191   5.176   1.285
 8704SOL     OW27010   0.456   4.030   1.909
 8704SOL    HW127011   0.384   4.094   1.934
 8704SOL    HW227012   0.475   4.038   1.811
 8705SOL     OW27013   5.085   6.595   4.522
 8705SOL    HW127014   5.014   6.591   4.452
 8705SOL    HW227015   5.044   6.589   4.613
 8706SOL     OW27016   5.049   1.501   5.995
 8706SOL    HW127017   5.011   1.572   5.936
 8706SOL    HW227018   4.991   1.420   5.991
 8707SOL     OW27019   4.836   2.243   5.455
 8707SOL    HW127020   4.763   2.311   5.470
 8707SOL    HW227021   4.825   2.168   5.521
 8708SOL     OW27022   3.833   1.717   0.823
 8708SOL    HW127023   3.754   1.656   0.836
 8708SOL    HW227024   3.917   1.663   0.820
 8709SOL     OW27025   6.341   3.483   0.856
 8709SOL    HW127026   6.385   3.394   0.869
 8709SOL    HW227027   6.358   3.540   0.936
 8710SOL     OW27028   6.620   3.204   3.730
 8710SOL    HW127029   6.641   3.132   3.664
 8710SOL    HW227030   6.524   3.230   3.720
 8711SOL     OW27031   0.989   1.872   3.789
 8711SOL    HW127032   1.076   1.824   3.777
 8711SOL    HW227033   0.914   1.807   3.781
 8712SOL     OW27034   3.800   0.955   6.225
 8712SOL    HW127035   3.752   1.024   6.170
 8712SOL    HW227036   3.836   0.998   6.308
 8713SOL     OW27037   5.637   4.699   2.701
 8713SOL    HW127038   5.566   4.693   2.771
 8713SOL    HW227039   5.707   4.764   2.730
 8714SOL     OW27040   2.294   1.472   4.494
 8714SOL    HW127041   2.315   1.562   4.458
 8714SOL    HW227042   2.373   1.438   4.545
 8715SOL     OW27043   5.977   1.076   2.086
 8715SOL    HW127044   6.054   1.137   2.069
 8715SOL    HW227045   5.892   1.128   2.084
 8716SOL     OW27046   1.042   1.688   2.061
 8716SOL    HW127047   1.045   1.695   2.160
 8716SOL    HW227048   1.008   1.774   2.022
 8717SOL     OW27049   4.397   3.251   0.500
 8717SOL    HW127050   4.390   3.278   0.404
 8717SOL    HW227051   4.493   3.259   0.529
 8718SOL     OW27052   0.294   2.908   5.831
 8718SOL    HW127053   0.297   2.901   5.732
 8718SOL    HW227054   0.226   2.845   5.868
 8719SOL     OW27055   6.625   1.071   5.372
 8719SOL    HW127056   6.591   1.057   5.279
 8719SOL    HW227057   6.547   1.078   5.435
 8720SOL     OW27058   4.754   3.665   6.117
 8720SOL    HW127059   4.691   3.647   6.042
 8720SOL    HW227060   4.843   3.626   6.096
 8721SOL     OW27061   6.841   1.204   4.717
 8721SOL    HW127062   6.771   1.186   4.786
 8721SOL    HW227063   6.931   1.192   4.758
 8722SOL     OW27064   3.054   2.992   0.783
 8722SOL    HW127065   2.974   2.938   0.760
 8722SOL    HW227066   3.127   2.932   0.816
 8723SOL     OW27067   0.211   5.213   0.330
 8723SOL    HW127068   0.141   5.169   0.274
 8723SOL    HW227069   0.288   5.150   0.342
 8724SOL     OW27070   5.725   6.050   6.558
 8724SOL    HW127071   5.698   6.136   6.602
 8724SOL    HW227072   5.797   6.068   6.491
 8725SOL     OW27073   2.134   6.508   1.239
 8725SOL    HW127074   2.048   6.544   1.275
 8725SOL    HW227075   2.173   6.444   1.305
 8726SOL     OW27076   6.014   0.165   1.386
 8726SOL    HW127077   6.113   0.167   1.374
 8726SOL    HW227078   5.976   0.256   1.368
 8727SOL     OW27079   6.236   6.382   1.337
 8727SOL    HW127080   6.231   6.400   1.239
 8727SOL    HW227081   6.143   6.385   1.376
 8728SOL     OW27082   2.422   6.571   5.376
 8728SOL    HW127083   2.375   6.512   5.441
 8728SOL    HW227084   2.364   6.650   5.354
 8729SOL     OW27085   5.429   6.124   4.325
 8729SOL    HW127086   5.479   6.210   4.320
 8729SOL    HW227087   5.364   6.127   4.401
 8730SOL     OW27088   6.614   6.387   0.987
 8730SOL    HW127089   6.567   6.475   0.976
 8730SOL    HW227090   6.703   6.402   1.030
 8731SOL     OW27091   0.614   2.050   2.436
 8731SOL    HW127092   0.676   2.090   2.369
 8731SOL    HW227093   0.520   2.057   2.401
 8732SOL     OW27094   6.371   5.433   1.808
 8732SOL    HW127095   6.392   5.524   1.773
 8732SOL    HW227096   6.301   5.391   1.751
 8733SOL     OW27097   7.010   6.788   1.713
 8733SOL    HW127098   0.019   6.694   1.732
 8733SOL    HW227099   6.983   6.797   1.617
 8734SOL     OW27100   6.906   5.513   0.222
 8734SOL    HW127101   6.977   5.563   0.174
 8734SOL    HW227102   6.942   5.477   0.308
 8735SOL     OW27103   0.018   2.591   6.623
 8735SOL    HW127104   0.065   2.503   6.629
 8735SOL    HW227105   0.047   2.650   6.699
 8736SOL     OW27106   0.361   4.708   6.181
 8736SOL    HW127107   0.396   4.774   6.247
 8736SOL    HW227108   0.433   4.683   6.116
 8737SOL     OW27109   3.715   6.334   6.743
 8737SOL    HW127110   3.750   6.347   6.835
 8737SOL    HW227111   3.698   6.423   6.701
 8738SOL     OW27112   1.155   3.718   4.998
 8738SOL    HW127113   1.197   3.757   5.080
 8738SOL    HW227114   1.219   3.725   4.922
 8739SOL     OW27115   1.254   3.438   5.544
 8739SOL    HW127116   1.244   3.339   5.539
 8739SOL    HW227117   1.182   3.481   5.490
 8740SOL     OW27118   1.333   6.731   1.269
 8740SOL    HW127119   1.323   6.803   1.338
 8740SOL    HW227120   1.317   6.642   1.312
 8741SOL     OW27121   1.814   3.338   1.863
 8741SOL    HW127122   1.909   3.363   1.844
 8741SOL    HW227123   1.753   3.402   1.815
 8742SOL     OW27124   4.781   6.201   2.257
 8742SOL    HW127125   4.695   6.214   2.208
 8742SOL    HW227126   4.842   6.143   2.202
 8743SOL     OW27127   2.380   4.776   3.147
 8743SOL    HW127128   2.319   4.697   3.144
 8743SOL    HW227129   2.463   4.757   3.094
 8744SOL     OW27130   3.324   3.600   5.496
 8744SOL    HW127131   3.406   3.614   5.442
 8744SOL    HW227132   3.287   3.509   5.479
 8745SOL     OW27133   6.559   1.516   7.016
 8745SOL    HW127134   6.462   1.502   6.998
 8745SOL    HW227135   6.608   1.520   6.929
 8746SOL     OW27136   5.052   4.150   5.247
 8746SOL    HW127137   4.956   4.138   5.273
 8746SOL    HW227138   5.070   4.096   5.165
 8747SOL     OW27139   1.074   2.363   3.935
 8747SOL    HW127140   1.033   2.273   3.922
 8747SOL    HW227141   1.002   2.431   3.947
 8748SOL     OW27142   2.835   6.838   0.025
 8748SOL    HW127143   2.926   6.878   0.038
 8748SOL    HW227144   2.844   6.746   7.004
 8749SOL     OW27145   4.338   1.390   4.128
 8749SOL    HW127146   4.401   1.380   4.205
 8749SOL    HW227147   4.337   1.486   4.098
 8750SOL     OW27148   2.256   0.425   5.113
 8750SOL    HW127149   2.180   0.411   5.177
 8750SOL    HW227150   2.342   0.419   5.163
 8751SOL     OW27151   2.362   0.470   3.185
 8751SOL    HW127152   2.431   0.515   3.241
 8751SOL    HW227153   2.271   0.499   3.214
 8752SOL     OW27154   2.124   2.180   6.079
 8752SOL    HW127155   2.071   2.101   6.048
 8752SOL    HW227156   2.116   2.188   6.179
 8753SOL     OW27157   6.260   1.305   4.785
 8753SOL    HW127158   6.271   1.394   4.829
 8753SOL    HW227159   6.190   1.252   4.832
 8754SOL     OW27160   2.150   0.915   5.098
 8754SOL    HW127161   2.059   0.874   5.100
 8754SOL    HW227162   2.219   0.843   5.088
 8755SOL     OW27163   2.387   1.707   1.104
 8755SOL    HW127164   2.448   1.756   1.166
 8755SOL    HW227165   2.302   1.757   1.093
 8756SOL     OW27166   1.728   3.847   3.948
 8756SOL    HW127167   1.798   3.874   4.014
 8756SOL    HW227168   1.727   3.912   3.872
 8757SOL     OW27169   4.399   5.955   4.300
 8757SOL    HW127170   4.312   5.995   4.330
 8757SOL    HW227171   4.400   5.858   4.322
 8758SOL     OW27172   5.391   6.327   2.016
 8758SOL    HW127173   5.468   6.362   1.963
 8758SOL    HW227174   5.324   6.400   2.030
 8759SOL     OW27175   5.585   1.613   5.625
 8759SOL    HW127176   5.542   1.702   5.634
 8759SOL    HW227177   5.588   1.568   5.715
 8760SOL     OW27178   1.288   3.155   3.648
 8760SOL    HW127179   1.320   3.143   3.554
 8760SOL    HW227180   1.193   3.186   3.647
 8761SOL     OW27181   5.111   6.109   1.205
 8761SOL    HW127182   5.048   6.033   1.211
 8761SOL    HW227183   5.205   6.075   1.195
 8762SOL     OW27184   0.841   3.892   0.240
 8762SOL    HW127185   0.840   3.826   0.164
 8762SOL    HW227186   0.798   3.978   0.210
 8763SOL     OW27187   0.180   6.038   6.157
 8763SOL    HW127188   0.113   6.057   6.229
 8763SOL    HW227189   0.244   6.115   6.150
 8764SOL     OW27190   3.794   1.918   5.406
 8764SOL    HW127191   3.744   1.941   5.490
 8764SOL    HW227192   3.823   1.823   5.410
 8765SOL     OW27193   6.828   0.329   5.063
 8765SOL    HW127194   6.754   0.268   5.036
 8765SOL    HW227195   6.833   0.406   4.999
 8766SOL     OW27196   2.378   4.353   2.422
 8766SOL    HW127197   2.429   4.376   2.340
 8766SOL    HW227198   2.307   4.285   2.400
 8767SOL     OW27199   4.741   1.609   5.066
 8767SOL    HW127200   4.643   1.603   5.044
 8767SOL    HW227201   4.782   1.681   5.010
 8768SOL     OW27202   1.224   4.076   0.212
 8768SOL    HW127203   1.157   4.082   0.137
 8768SOL    HW227204   1.296   4.012   0.186
 8769SOL     OW27205   1.979   0.626   5.153
 8769SOL    HW127206   1.895   0.669   5.185
 8769SOL    HW227207   1.982   0.531   5.184
 8770SOL     OW27208   5.424   1.881   2.931
 8770SOL    HW127209   5.400   1.804   2.871
 8770SOL    HW227210   5.384   1.965   2.894
 8771SOL     OW27211   2.270   2.371   5.474
 8771SOL    HW127212   2.278   2.456   5.525
 8771SOL    HW227213   2.361   2.339   5.448
 8772SOL     OW27214   5.924   6.042   6.365
 8772SOL    HW127215   5.945   6.131   6.406
 8772SOL    HW227216   5.988   5.973   6.398
 8773SOL     OW27217   3.046   1.952   2.746
 8773SOL    HW127218   2.974   1.982   2.808
 8773SOL    HW227219   3.013   1.877   2.690
 8774SOL     OW27220   1.337   0.706   0.416
 8774SOL    HW127221   1.387   0.783   0.456
 8774SOL    HW227222   1.277   0.740   0.343
 8775SOL     OW27223   6.875   6.586   4.129
 8775SOL    HW127224   6.780   6.580   4.098
 8775SOL    HW227225   6.884   6.542   4.219
 8776SOL     OW27226   3.552   3.898   4.527
 8776SOL    HW127227   3.606   3.837   4.584
 8776SOL    HW227228   3.599   3.986   4.519
 8777SOL     OW27229   6.427   5.572   2.403
 8777SOL    HW127230   6.429   5.486   2.352
 8777SOL    HW227231   6.444   5.648   2.340
 8778SOL     OW27232   0.706   2.120   3.171
 8778SOL    HW127233   0.742   2.204   3.130
 8778SOL    HW227234   0.767   2.044   3.150
 8779SOL     OW27235   1.356   4.785   1.287
 8779SOL    HW127236   1.448   4.761   1.255
 8779SOL    HW227237   1.305   4.701   1.305
 8780SOL     OW27238   2.225   6.489   4.648
 8780SOL    HW127239   2.206   6.526   4.557
 8780SOL    HW227240   2.310   6.436   4.646
 8781SOL     OW27241   0.435   2.268   3.305
 8781SOL    HW127242   0.534   2.275   3.321
 8781SOL    HW227243   0.407   2.340   3.242
 8782SOL     OW27244   4.886   1.503   2.895
 8782SOL    HW127245   4.833   1.571   2.945
 8782SOL    HW227246   4.983   1.527   2.898
 8783SOL     OW27247   5.977   2.577   6.317
 8783SOL    HW127248   5.915   2.642   6.272
 8783SOL    HW227249   5.925   2.500   6.353
 8784SOL     OW27250   5.187   4.096   5.965
 8784SOL    HW127251   5.098   4.141   5.975
 8784SOL    HW227252   5.260   4.163   5.979
 8785SOL     OW27253   5.224   4.554   6.326
 8785SOL    HW127254   5.234   4.463   6.367
 8785SOL    HW227255   5.286   4.563   6.249
 8786SOL     OW27256   1.058   6.341   0.806
 8786SOL    HW127257   0.969   6.294   0.801
 8786SOL    HW227258   1.061   6.414   0.737
 8787SOL     OW27259   1.438   3.298   6.999
 8787SOL    HW127260   1.470   3.210   0.018
 8787SOL    HW227261   1.424   3.361   0.057
 8788SOL     OW27262   1.565   1.700   5.242
 8788SOL    HW127263   1.629   1.624   5.246
 8788SOL    HW227264   1.489   1.677   5.181
 8789SOL     OW27265   0.359   0.503   0.074
 8789SOL    HW127266   0.358   0.470   0.168
 8789SOL    HW227267   0.367   0.426   0.011
 8790SOL     OW27268   4.421   1.424   0.084
 8790SOL    HW127269   4.408   1.509   0.034
 8790SOL    HW227270   4.519   1.405   0.093
 8791SOL     OW27271   4.997   5.909   5.440
 8791SOL    HW127272   4.994   5.886   5.343
 8791SOL    HW227273   4.960   6.001   5.454
 8792SOL     OW27274   5.499   6.820   2.853
 8792SOL    HW127275   5.536   6.741   2.901
 8792SOL    HW227276   5.531   6.819   2.758
 8793SOL     OW27277   1.344   4.718   3.229
 8793SOL    HW127278   1.436   4.715   3.189
 8793SOL    HW227279   1.276   4.724   3.156
 8794SOL     OW27280   2.704   5.972   2.513
 8794SOL    HW127281   2.683   5.972   2.611
 8794SOL    HW227282   2.743   5.884   2.487
 8795SOL     OW27283   2.299   5.607   5.042
 8795SOL    HW127284   2.295   5.517   4.999
 8795SOL    HW227285   2.210   5.630   5.081
 8796SOL     OW27286   5.987   2.721   5.730
 8796SOL    HW127287   6.056   2.677   5.789
 8796SOL    HW227288   5.956   2.806   5.774
 8797SOL     OW27289   0.944   6.100   6.796
 8797SOL    HW127290   1.018   6.090   6.862
 8797SOL    HW227291   0.937   6.196   6.768
 8798SOL     OW27292   3.587   3.361   6.006
 8798SOL    HW127293   3.580   3.302   5.925
 8798SOL    HW227294   3.681   3.394   6.015
 8799SOL     OW27295   3.818   0.184   3.136
 8799SOL    HW127296   3.805   0.281   3.114
 8799SOL    HW227297   3.756   0.129   3.080
 8800SOL     OW27298   4.615   5.344   0.512
 8800SOL    HW127299   4.690   5.360   0.576
 8800SOL    HW227300   4.619   5.249   0.479
 8801SOL     OW27301   3.299   6.519   5.632
 8801SOL    HW127302   3.228   6.455   5.603
 8801SOL    HW227303   3.309   6.591   5.563
 8802SOL     OW27304   1.939   6.681   1.859
 8802SOL    HW127305   1.964   6.623   1.781
 8802SOL    HW227306   1.864   6.742   1.832
 8803SOL     OW27307   4.044   6.188   1.028
 8803SOL    HW127308   4.000   6.101   1.010
 8803SOL    HW227309   4.015   6.222   1.117
 8804SOL     OW27310   3.124   0.825   1.076
 8804SOL    HW127311   3.061   0.886   1.123
 8804SOL    HW227312   3.210   0.872   1.058
 8805SOL     OW27313   0.254   0.372   3.211
 8805SOL    HW127314   0.218   0.443   3.150
 8805SOL    HW227315   0.348   0.349   3.184
 8806SOL     OW27316   1.768   4.893   0.347
 8806SOL    HW127317   1.766   4.796   0.322
 8806SOL    HW227318   1.711   4.908   0.428
 8807SOL     OW27319   1.950   6.127   6.671
 8807SOL    HW127320   1.911   6.105   6.761
 8807SOL    HW227321   1.897   6.201   6.630
 8808SOL     OW27322   5.958   1.986   1.048
 8808SOL    HW127323   6.003   1.953   1.131
 8808SOL    HW227324   6.025   2.033   0.991
 8809SOL     OW27325   6.116   4.303   0.910
 8809SOL    HW127326   6.035   4.328   0.857
 8809SOL    HW227327   6.163   4.386   0.941
 8810SOL     OW27328   5.120   1.665   3.946
 8810SOL    HW127329   5.188   1.727   3.908
 8810SOL    HW227330   5.148   1.638   4.039
 8811SOL     OW27331   1.497   1.731   4.159
 8811SOL    HW127332   1.458   1.816   4.194
 8811SOL    HW227333   1.560   1.693   4.227
 8812SOL     OW27334   2.127   0.772   0.172
 8812SOL    HW127335   2.121   0.672   0.177
 8812SOL    HW227336   2.189   0.805   0.243
 8813SOL     OW27337   1.196   5.814   0.814
 8813SOL    HW127338   1.194   5.779   0.721
 8813SOL    HW227339   1.220   5.911   0.813
 8814SOL     OW27340   5.199   6.402   6.590
 8814SOL    HW127341   5.220   6.499   6.575
 8814SOL    HW227342   5.272   6.359   6.643
 8815SOL     OW27343   6.110   5.756   3.220
 8815SOL    HW127344   6.206   5.786   3.219
 8815SOL    HW227345   6.051   5.835   3.235
 8816SOL     OW27346   0.825   5.627   1.812
 8816SOL    HW127347   0.879   5.612   1.895
 8816SOL    HW227348   0.739   5.577   1.818
 8817SOL     OW27349   2.355   4.617   5.490
 8817SOL    HW127350   2.397   4.664   5.413
 8817SOL    HW227351   2.298   4.680   5.542
 8818SOL     OW27352   0.175   4.508   4.778
 8818SOL    HW127353   0.270   4.508   4.747
 8818SOL    HW227354   0.140   4.414   4.781
 8819SOL     OW27355   5.939   0.201   4.145
 8819SOL    HW127356   5.865   0.200   4.211
 8819SOL    HW227357   6.004   0.273   4.169
 8820SOL     OW27358   1.110   3.391   4.111
 8820SOL    HW127359   1.156   3.303   4.122
 8820SOL    HW227360   1.141   3.454   4.181
 8821SOL     OW27361   1.546   6.655   6.275
 8821SOL    HW127362   1.480   6.585   6.249
 8821SOL    HW227363   1.554   6.658   6.375
 8822SOL     OW27364   0.620   1.937   3.680
 8822SOL    HW127365   0.670   1.854   3.705
 8822SOL    HW227366   0.573   1.923   3.593
 8823SOL     OW27367   2.509   4.752   1.527
 8823SOL    HW127368   2.466   4.824   1.582
 8823SOL    HW227369   2.440   4.710   1.468
 8824SOL     OW27370   4.473   3.968   1.119
 8824SOL    HW127371   4.566   3.968   1.154
 8824SOL    HW227372   4.409   3.957   1.195
 8825SOL     OW27373   1.811   2.487   0.948
 8825SOL    HW127374   1.848   2.433   0.871
 8825SOL    HW227375   1.775   2.425   1.017
 8826SOL     OW27376   5.455   0.711   0.188
 8826SOL    HW127377   5.463   0.799   0.235
 8826SOL    HW227378   5.545   0.671   0.175
 8827SOL     OW27379   6.952   1.396   3.302
 8827SOL    HW127380   6.994   1.428   3.217
 8827SOL    HW227381   6.974   1.299   3.315
 8828SOL     OW27382   1.282   6.287   3.003
 8828SOL    HW127383   1.297   6.384   3.023
 8828SOL    HW227384   1.346   6.232   3.057
 8829SOL     OW27385   1.306   1.353   0.646
 8829SOL    HW127386   1.263   1.438   0.616
 8829SOL    HW227387   1.376   1.372   0.714
 8830SOL     OW27388   1.319   1.589   0.260
 8830SOL    HW127389   1.267   1.506   0.238
 8830SOL    HW227390   1.261   1.669   0.249
 8831SOL     OW27391   0.042   1.126   1.911
 8831SOL    HW127392   0.125   1.175   1.884
 8831SOL    HW227393   6.995   1.190   1.953
 8832SOL     OW27394   6.852   0.671   1.940
 8832SOL    HW127395   6.942   0.644   1.907
 8832SOL    HW227396   6.860   0.706   2.034
 8833SOL     OW27397   1.199   4.966   2.829
 8833SOL    HW127398   1.184   4.929   2.921
 8833SOL    HW227399   1.153   5.055   2.822
 8834SOL     OW27400   5.883   4.026   3.961
 8834SOL    HW127401   5.826   4.087   4.017
 8834SOL    HW227402   5.869   4.047   3.865
 8835SOL     OW27403   0.477   0.660   6.579
 8835SOL    HW127404   0.418   0.740   6.589
 8835SOL    HW227405   0.568   0.681   6.614
 8836SOL     OW27406   5.088   2.074   1.729
 8836SOL    HW127407   5.018   2.122   1.676
 8836SOL    HW227408   5.128   2.137   1.796
 8837SOL     OW27409   0.801   2.512   2.362
 8837SOL    HW127410   0.738   2.441   2.392
 8837SOL    HW227411   0.779   2.598   2.409
 8838SOL     OW27412   2.304   5.859   3.140
 8838SOL    HW127413   2.397   5.897   3.138
 8838SOL    HW227414   2.275   5.848   3.235
 8839SOL     OW27415   5.859   6.013   4.261
 8839SOL    HW127416   5.773   6.015   4.312
 8839SOL    HW227417   5.918   5.942   4.298
 8840SOL     OW27418   4.873   0.865   2.252
 8840SOL    HW127419   4.877   0.794   2.322
 8840SOL    HW227420   4.956   0.863   2.197
 8841SOL     OW27421   2.829   0.066   3.783
 8841SOL    HW127422   2.871   0.026   3.701
 8841SOL    HW227423   2.869   0.023   3.865
 8842SOL     OW27424   1.251   2.764   1.888
 8842SOL    HW127425   1.327   2.825   1.911
 8842SOL    HW227426   1.272   2.716   1.802
 8843SOL     OW27427   0.214   3.116   4.638
 8843SOL    HW127428   0.265   3.200   4.656
 8843SOL    HW227429   0.193   3.109   4.541
 8844SOL     OW27430   5.928   1.538   5.943
 8844SOL    HW127431   5.958   1.532   6.039
 8844SOL    HW227432   6.001   1.504   5.884
 8845SOL     OW27433   5.591   3.389   6.855
 8845SOL    HW127434   5.637   3.415   6.770
 8845SOL    HW227435   5.625   3.299   6.885
 8846SOL     OW27436   2.902   4.841   3.408
 8846SOL    HW127437   2.835   4.775   3.372
 8846SOL    HW227438   2.907   4.833   3.507
 8847SOL     OW27439   1.358   0.881   2.687
 8847SOL    HW127440   1.316   0.963   2.647
 8847SOL    HW227441   1.456   0.882   2.668
 8848SOL     OW27442   1.146   0.887   3.518
 8848SOL    HW127443   1.216   0.847   3.458
 8848SOL    HW227444   1.143   0.835   3.603
 8849SOL     OW27445   2.393   6.827   1.460
 8849SOL    HW127446   2.485   6.853   1.430
 8849SOL    HW227447   2.393   6.813   1.559
 8850SOL     OW27448   2.663   2.705   0.126
 8850SOL    HW127449   2.590   2.747   0.072
 8850SOL    HW227450   2.667   2.607   0.108
 8851SOL     OW27451   1.777   3.812   2.120
 8851SOL    HW127452   1.746   3.720   2.096
 8851SOL    HW227453   1.855   3.836   2.061
 8852SOL     OW27454   0.830   2.095   5.019
 8852SOL    HW127455   0.858   1.999   5.019
 8852SOL    HW227456   0.906   2.152   5.049
 8853SOL     OW27457   4.879   0.638   1.467
 8853SOL    HW127458   4.850   0.729   1.496
 8853SOL    HW227459   4.904   0.584   1.548
 8854SOL     OW27460   0.797   2.711   4.845
 8854SOL    HW127461   0.700   2.737   4.843
 8854SOL    HW227462   0.849   2.773   4.787
 8855SOL     OW27463   5.266   4.869   1.560
 8855SOL    HW127464   5.183   4.833   1.517
 8855SOL    HW227465   5.346   4.842   1.506
 8856SOL     OW27466   6.318   0.612   5.727
 8856SOL    HW127467   6.241   0.552   5.703
 8856SOL    HW227468   6.396   0.556   5.754
 8857SOL     OW27469   0.267   2.106   6.440
 8857SOL    HW127470   0.330   2.125   6.364
 8857SOL    HW227471   0.306   2.143   6.525
 8858SOL     OW27472   6.712   5.485   4.901
 8858SOL    HW127473   6.774   5.561   4.881
 8858SOL    HW227474   6.672   5.451   4.816
 8859SOL     OW27475   0.933   5.899   2.992
 8859SOL    HW127476   1.003   5.969   2.977
 8859SOL    HW227477   0.843   5.943   3.000
 8860SOL     OW27478   0.212   3.381   2.327
 8860SOL    HW127479   0.251   3.472   2.339
 8860SOL    HW227480   0.164   3.353   2.410
 8861SOL     OW27481   3.924   2.686   1.630
 8861SOL    HW127482   3.905   2.706   1.534
 8861SOL    HW227483   3.946   2.771   1.678
 8862SOL     OW27484   4.352   4.723   4.911
 8862SOL    HW127485   4.354   4.635   4.958
 8862SOL    HW227486   4.268   4.771   4.934
 8863SOL     OW27487   1.392   4.275   2.396
 8863SOL    HW127488   1.444   4.191   2.383
 8863SOL    HW227489   1.371   4.315   2.307
 8864SOL     OW27490   6.215   2.021   5.206
 8864SOL    HW127491   6.244   1.926   5.216
 8864SOL    HW227492   6.293   2.081   5.225
 8865SOL     OW27493   2.734   2.465   0.882
 8865SOL    HW127494   2.798   2.476   0.807
 8865SOL    HW227495   2.641   2.459   0.846
 8866SOL     OW27496   5.826   6.345   2.129
 8866SOL    HW127497   5.919   6.329   2.098
 8866SOL    HW227498   5.797   6.436   2.101
 8867SOL     OW27499   6.551   3.295   3.002
 8867SOL    HW127500   6.583   3.387   2.976
 8867SOL    HW227501   6.552   3.236   2.922
 8868SOL     OW27502   0.097   3.417   3.821
 8868SOL    HW127503   0.130   3.374   3.738
 8868SOL    HW227504   0.002   3.390   3.837
 8869SOL     OW27505   4.730   0.479   3.634
 8869SOL    HW127506   4.653   0.541   3.619
 8869SOL    HW227507   4.754   0.433   3.548
 8870SOL     OW27508   1.483   1.012   1.842
 8870SOL    HW127509   1.455   0.941   1.907
 8870SOL    HW227510   1.465   0.980   1.749
 8871SOL     OW27511   0.219   0.292   1.432
 8871SOL    HW127512   0.143   0.287   1.496
 8871SOL    HW227513   0.185   0.284   1.338
 8872SOL     OW27514   6.960   4.194   3.378
 8872SOL    HW127515   7.009   4.277   3.405
 8872SOL    HW227516   6.928   4.146   3.460
 8873SOL     OW27517   2.348   2.074   3.005
 8873SOL    HW127518   2.387   2.148   2.949
 8873SOL    HW227519   2.278   2.026   2.952
 8874SOL     OW27520   2.977   6.210   0.851
 8874SOL    HW127521   3.027   6.297   0.858
 8874SOL    HW227522   2.890   6.218   0.901
 8875SOL     OW27523   6.083   3.144   5.284
 8875SOL    HW127524   6.054   3.152   5.379
 8875SOL    HW227525   6.100   3.048   5.262
 8876SOL     OW27526   3.637   0.819   0.667
 8876SOL    HW127527   3.570   0.885   0.631
 8876SOL    HW227528   3.597   0.772   0.746
 8877SOL     OW27529   0.851   5.188   1.152
 8877SOL    HW127530   0.785   5.211   1.224
 8877SOL    HW227531   0.814   5.116   1.094
 8878SOL     OW27532   5.094   3.785   1.773
 8878SOL    HW127533   5.003   3.771   1.734
 8878SOL    HW227534   5.086   3.791   1.873
 8879SOL     OW27535   0.090   4.407   3.454
 8879SOL    HW127536   0.107   4.496   3.412
 8879SOL    HW227537   0.176   4.356   3.461
 8880SOL     OW27538   4.294   2.288   3.041
 8880SOL    HW127539   4.204   2.263   3.006
 8880SOL    HW227540   4.335   2.357   2.981
 8881SOL     OW27541   3.295   5.002   2.806
 8881SOL    HW127542   3.308   5.101   2.819
 8881SOL    HW227543   3.294   4.981   2.708
 8882SOL     OW27544   3.965   0.793   0.784
 8882SOL    HW127545   4.065   0.782   0.777
 8882SOL    HW227546   3.926   0.715   0.832
 8883SOL     OW27547   0.069   6.654   3.168
 8883SOL    HW127548   0.094   6.679   3.075
 8883SOL    HW227549   0.120   6.573   3.196
 8884SOL     OW27550   4.283   2.814   5.625
 8884SOL    HW127551   4.205   2.797   5.565
 8884SOL    HW227552   4.363   2.764   5.592
 8885SOL     OW27553   5.541   6.060   0.467
 8885SOL    HW127554   5.494   6.032   0.551
 8885SOL    HW227555   5.496   6.018   0.388
 8886SOL     OW27556   4.750   6.763   6.916
 8886SOL    HW127557   4.783   6.852   6.949
 8886SOL    HW227558   4.709   6.712   6.992
 8887SOL     OW27559   3.706   0.382   1.546
 8887SOL    HW127560   3.633   0.443   1.513
 8887SOL    HW227561   3.686   0.354   1.640
 8888SOL     OW27562   3.283   2.143   2.440
 8888SOL    HW127563   3.186   2.116   2.440
 8888SOL    HW227564   3.309   2.173   2.348
 8889SOL     OW27565   1.229   4.913   0.789
 8889SOL    HW127566   1.251   4.818   0.767
 8889SOL    HW227567   1.184   4.917   0.878
 8890SOL     OW27568   1.118   5.943   6.999
 8890SOL    HW127569   1.140   5.857   6.954
 8890SOL    HW227570   1.029   5.936   0.026
 8891SOL     OW27571   6.427   3.762   5.345
 8891SOL    HW127572   6.475   3.849   5.346
 8891SOL    HW227573   6.366   3.755   5.424
 8892SOL     OW27574   2.991   5.169   4.966
 8892SOL    HW127575   3.072   5.113   4.948
 8892SOL    HW227576   2.944   5.135   5.048
 8893SOL     OW27577   0.875   4.318   5.604
 8893SOL    HW127578   0.803   4.255   5.574
 8893SOL    HW227579   0.954   4.310   5.544
 8894SOL     OW27580   5.189   1.570   1.867
 8894SOL    HW127581   5.158   1.485   1.908
 8894SOL    HW227582   5.111   1.618   1.825
 8895SOL     OW27583   6.837   3.242   0.971
 8895SOL    HW127584   6.871   3.245   1.065
 8895SOL    HW227585   6.785   3.325   0.952
 8896SOL     OW27586   1.087   1.811   3.473
 8896SOL    HW127587   1.133   1.767   3.550
 8896SOL    HW227588   0.989   1.794   3.478
 8897SOL     OW27589   1.778   5.666   3.867
 8897SOL    HW127590   1.836   5.698   3.791
 8897SOL    HW227591   1.835   5.617   3.933
 8898SOL     OW27592   4.896   3.883   2.543
 8898SOL    HW127593   4.812   3.933   2.523
 8898SOL    HW227594   4.898   3.857   2.639
 8899SOL     OW27595   2.030   3.658   2.601
 8899SOL    HW127596   2.096   3.655   2.526
 8899SOL    HW227597   1.947   3.704   2.570
 8900SOL     OW27598   4.023   1.814   4.565
 8900SOL    HW127599   4.076   1.782   4.643
 8900SOL    HW227600   3.927   1.790   4.577
 8901SOL     OW27601   1.956   5.892   5.030
 8901SOL    HW127602   1.941   5.965   5.097
 8901SOL    HW227603   1.936   5.804   5.072
 8902SOL     OW27604   0.327   5.033   6.921
 8902SOL    HW127605   0.241   5.081   6.902
 8902SOL    HW227606   0.307   4.938   6.946
 8903SOL     OW27607   1.117   0.731   5.328
 8903SOL    HW127608   1.191   0.688   5.276
 8903SOL    HW227609   1.074   0.662   5.386
 8904SOL     OW27610   0.842   0.809   3.486
 8904SOL    HW127611   0.870   0.718   3.454
 8904SOL    HW227612   0.771   0.799   3.555
 8905SOL     OW27613   1.951   4.352   1.942
 8905SOL    HW127614   2.018   4.335   1.870
 8905SOL    HW227615   1.949   4.275   2.005
 8906SOL     OW27616   5.814   0.333   6.438
 8906SOL    HW127617   5.790   0.240   6.410
 8906SOL    HW227618   5.866   0.378   6.365
 8907SOL     OW27619   2.860   3.434   5.003
 8907SOL    HW127620   2.874   3.479   4.915
 8907SOL    HW227621   2.872   3.336   4.993
 8908SOL     OW27622   1.683   4.716   6.459
 8908SOL    HW127623   1.657   4.634   6.510
 8908SOL    HW227624   1.779   4.711   6.435
 8909SOL     OW27625   1.908   5.384   1.310
 8909SOL    HW127626   1.956   5.314   1.364
 8909SOL    HW227627   1.969   5.462   1.296
 8910SOL     OW27628   0.976   1.219   3.314
 8910SOL    HW127629   1.017   1.133   3.285
 8910SOL    HW227630   1.002   1.238   3.409
 8911SOL     OW27631   5.434   2.658   5.009
 8911SOL    HW127632   5.411   2.645   4.913
 8911SOL    HW227633   5.522   2.616   5.028
 8912SOL     OW27634   3.513   3.169   3.687
 8912SOL    HW127635   3.441   3.229   3.723
 8912SOL    HW227636   3.531   3.193   3.592
 8913SOL     OW27637   4.862   6.000   1.273
 8913SOL    HW127638   4.919   5.923   1.243
 8913SOL    HW227639   4.824   6.045   1.192
 8914SOL     OW27640   4.850   5.601   5.253
 8914SOL    HW127641   4.917   5.538   5.212
 8914SOL    HW227642   4.811   5.559   5.335
 8915SOL     OW27643   1.545   1.012   3.493
 8915SOL    HW127644   1.587   0.921   3.490
 8915SOL    HW227645   1.614   1.080   3.518
 8916SOL     OW27646   5.538   1.124   1.764
 8916SOL    HW127647   5.467   1.169   1.818
 8916SOL    HW227648   5.564   1.182   1.687
 8917SOL     OW27649   5.905   1.697   0.147
 8917SOL    HW127650   5.835   1.626   0.134
 8917SOL    HW227651   5.882   1.776   0.090
 8918SOL     OW27652   0.985   3.784   2.167
 8918SOL    HW127653   0.893   3.816   2.144
 8918SOL    HW227654   0.981   3.728   2.249
 8919SOL     OW27655   6.087   2.774   2.485
 8919SOL    HW127656   6.091   2.814   2.393
 8919SOL    HW227657   6.137   2.687   2.485
 8920SOL     OW27658   1.013   1.568   0.047
 8920SOL    HW127659   1.025   1.624   6.982
 8920SOL    HW227660   0.949   1.613   0.109
 8921SOL     OW27661   0.800   3.211   1.876
 8921SOL    HW127662   0.773   3.305   1.896
 8921SOL    HW227663   0.810   3.160   1.961
 8922SOL     OW27664   3.673   4.898   3.461
 8922SOL    HW127665   3.720   4.877   3.376
 8922SOL    HW227666   3.740   4.929   3.529
 8923SOL     OW27667   2.348   0.909   4.104
 8923SOL    HW127668   2.294   0.907   4.020
 8923SOL    HW227669   2.313   0.841   4.168
 8924SOL     OW27670   6.178   4.901   5.020
 8924SOL    HW127671   6.274   4.924   5.034
 8924SOL    HW227672   6.127   4.919   5.104
 8925SOL     OW27673   0.576   0.054   3.509
 8925SOL    HW127674   0.536   6.994   3.460
 8925SOL    HW227675   0.575   0.135   3.451
 8926SOL     OW27676   5.897   1.194   6.776
 8926SOL    HW127677   5.928   1.099   6.782
 8926SOL    HW227678   5.838   1.215   6.853
 8927SOL     OW27679   1.612   0.923   6.480
 8927SOL    HW127680   1.615   1.003   6.540
 8927SOL    HW227681   1.701   0.877   6.482
 8928SOL     OW27682   1.680   6.941   5.864
 8928SOL    HW127683   1.728   6.862   5.826
 8928SOL    HW227684   1.632   6.913   5.948
 8929SOL     OW27685   0.397   1.781   3.859
 8929SOL    HW127686   0.491   1.766   3.890
 8929SOL    HW227687   0.396   1.853   3.790
 8930SOL     OW27688   2.138   5.041   4.060
 8930SOL    HW127689   2.147   5.035   3.961
 8930SOL    HW227690   2.177   5.127   4.092
 8931SOL     OW27691   4.145   3.606   0.273
 8931SOL    HW127692   4.226   3.602   0.331
 8931SOL    HW227693   4.168   3.647   0.185
 8932SOL     OW27694   0.795   3.582   3.475
 8932SOL    HW127695   0.719   3.610   3.417
 8932SOL    HW227696   0.882   3.607   3.432
 8933SOL     OW27697   4.611   1.639   5.963
 8933SOL    HW127698   4.548   1.585   6.019
 8933SOL    HW227699   4.599   1.736   5.984
 8934SOL     OW27700   2.352   6.108   2.788
 8934SOL    HW127701   2.319   6.041   2.722
 8934SOL    HW227702   2.303   6.194   2.776
 8935SOL     OW27703   6.506   5.170   6.908
 8935SOL    HW127704   6.433   5.117   6.864
 8935SOL    HW227705   6.520   5.138   7.001
 8936SOL     OW27706   3.903   2.666   0.714
 8936SOL    HW127707   3.971   2.686   0.643
 8936SOL    HW227708   3.921   2.577   0.754
 8937SOL     OW27709   0.616   0.357   5.613
 8937SOL    HW127710   0.651   0.445   5.579
 8937SOL    HW227711   0.516   0.357   5.610
 8938SOL     OW27712   4.801   5.854   1.735
 8938SOL    HW127713   4.855   5.823   1.657
 8938SOL    HW227714   4.822   5.797   1.815
 8939SOL     OW27715   5.249   2.048   5.160
 8939SOL    HW127716   5.219   2.119   5.223
 8939SOL    HW227717   5.195   2.053   5.076
 8940SOL     OW27718   6.196   6.966   2.451
 8940SOL    HW127719   6.182   6.887   2.392
 8940SOL    HW227720   6.251   0.017   2.403
 8941SOL     OW27721   4.039   1.277   6.485
 8941SOL    HW127722   4.085   1.344   6.543
 8941SOL    HW227723   3.943   1.270   6.512
 8942SOL     OW27724   0.995   2.263   5.413
 8942SOL    HW127725   1.015   2.225   5.323
 8942SOL    HW227726   1.025   2.358   5.417
 8943SOL     OW27727   4.959   3.472   1.223
 8943SOL    HW127728   5.021   3.452   1.147
 8943SOL    HW227729   4.957   3.393   1.285
 8944SOL     OW27730   3.891   5.843   1.314
 8944SOL    HW127731   3.884   5.768   1.380
 8944SOL    HW227732   3.959   5.819   1.244
 8945SOL     OW27733   2.471   1.169   4.211
 8945SOL    HW127734   2.404   1.099   4.186
 8945SOL    HW227735   2.489   1.164   4.310
 8946SOL     OW27736   4.213   0.801   4.791
 8946SOL    HW127737   4.297   0.806   4.845
 8946SOL    HW227738   4.143   0.752   4.843
 8947SOL     OW27739   3.850   3.946   5.089
 8947SOL    HW127740   3.870   3.967   4.993
 8947SOL    HW227741   3.865   4.028   5.145
 8948SOL     OW27742   6.166   4.840   3.137
 8948SOL    HW127743   6.197   4.822   3.230
 8948SOL    HW227744   6.202   4.769   3.076
 8949SOL     OW27745   1.871   5.498   5.904
 8949SOL    HW127746   1.950   5.537   5.856
 8949SOL    HW227747   1.828   5.428   5.846
 8950SOL     OW27748   4.664   2.303   4.885
 8950SOL    HW127749   4.723   2.382   4.872
 8950SOL    HW227750   4.600   2.295   4.809
 8951SOL     OW27751   2.444   1.574   5.708
 8951SOL    HW127752   2.493   1.611   5.629
 8951SOL    HW227753   2.360   1.530   5.676
 8952SOL     OW27754   6.719   6.691   3.733
 8952SOL    HW127755   6.769   6.750   3.670
 8952SOL    HW227756   6.671   6.747   3.801
 8953SOL     OW27757   1.680   5.042   6.527
 8953SOL    HW127758   1.735   4.981   6.471
 8953SOL    HW227759   1.728   5.061   6.613
 8954SOL     OW27760   2.528   6.462   5.708
 8954SOL    HW127761   2.520   6.375   5.756
 8954SOL    HW227762   2.623   6.494   5.711
 8955SOL     OW27763   6.311   3.742   4.356
 8955SOL    HW127764   6.216   3.740   4.325
 8955SOL    HW227765   6.335   3.835   4.384
 8956SOL     OW27766   1.233   0.478   4.583
 8956SOL    HW127767   1.161   0.544   4.562
 8956SOL    HW227768   1.197   0.409   4.647
 8957SOL     OW27769   2.362   5.804   1.889
 8957SOL    HW127770   2.396   5.812   1.795
 8957SOL    HW227771   2.405   5.873   1.946
 8958SOL     OW27772   2.384   0.044   4.086
 8958SOL    HW127773   2.327   6.981   4.100
 8958SOL    HW227774   2.449   0.052   4.162
 8959SOL     OW27775   3.208   5.491   0.433
 8959SOL    HW127776   3.150   5.532   0.503
 8959SOL    HW227777   3.299   5.533   0.436
 8960SOL     OW27778   3.668   5.853   1.069
 8960SOL    HW127779   3.594   5.858   1.002
 8960SOL    HW227780   3.657   5.771   1.125
 8961SOL     OW27781   1.282   2.554   3.924
 8961SOL    HW127782   1.248   2.631   3.977
 8961SOL    HW227783   1.216   2.479   3.928
 8962SOL     OW27784   5.096   0.318   3.343
 8962SOL    HW127785   5.099   0.369   3.429
 8962SOL    HW227786   5.145   0.370   3.272
 8963SOL     OW27787   0.211   1.092   3.758
 8963SOL    HW127788   0.238   1.175   3.710
 8963SOL    HW227789   0.288   1.029   3.762
 8964SOL     OW27790   0.069   3.586   3.209
 8964SOL    HW127791   0.032   3.545   3.292
 8964SOL    HW227792   0.034   3.536   3.129
 8965SOL     OW27793   1.480   4.910   1.709
 8965SOL    HW127794   1.461   5.003   1.742
 8965SOL    HW227795   1.573   4.883   1.736
 8966SOL     OW27796   3.441   2.196   5.240
 8966SOL    HW127797   3.382   2.275   5.257
 8966SOL    HW227798   3.427   2.163   5.147
 8967SOL     OW27799   4.781   6.926   0.937
 8967SOL    HW127800   4.742   6.913   1.028
 8967SOL    HW227801   4.833   7.011   0.935
 8968SOL     OW27802   4.891   4.402   3.144
 8968SOL    HW127803   4.833   4.326   3.171
 8968SOL    HW227804   4.850   4.451   3.067
 8969SOL     OW27805   6.388   0.491   4.126
 8969SOL    HW127806   6.477   0.461   4.158
 8969SOL    HW227807   6.380   0.474   4.028
 8970SOL     OW27808   3.676   1.977   1.270
 8970SOL    HW127809   3.603   2.012   1.329
 8970SOL    HW227810   3.639   1.907   1.210
 8971SOL     OW27811   4.483   6.136   2.660
 8971SOL    HW127812   4.405   6.190   2.628
 8971SOL    HW227813   4.558   6.198   2.684
 8972SOL     OW27814   5.500   6.950   4.633
 8972SOL    HW127815   5.454   6.911   4.713
 8972SOL    HW227816   5.521   6.877   4.568
 8973SOL     OW27817   2.258   5.221   0.079
 8973SOL    HW127818   2.267   5.295   0.011
 8973SOL    HW227819   2.348   5.192   0.109
 8974SOL     OW27820   0.689   2.986   4.005
 8974SOL    HW127821   0.784   2.968   4.030
 8974SOL    HW227822   0.685   3.066   3.945
 8975SOL     OW27823   3.902   0.624   6.623
 8975SOL    HW127824   3.936   0.676   6.701
 8975SOL    HW227825   3.945   0.534   6.620
 8976SOL     OW27826   0.926   5.319   4.194
 8976SOL    HW127827   0.952   5.248   4.260
 8976SOL    HW227828   1.009   5.356   4.151
 8977SOL     OW27829   5.587   1.009   6.649
 8977SOL    HW127830   5.497   0.976   6.679
 8977SOL    HW227831   5.658   0.946   6.682
 8978SOL     OW27832   4.796   4.916   1.100
 8978SOL    HW127833   4.860   4.957   1.166
 8978SOL    HW227834   4.707   4.961   1.108
 8979SOL     OW27835   1.562   4.749   4.765
 8979SOL    HW127836   1.625   4.813   4.810
 8979SOL    HW227837   1.510   4.700   4.834
 8980SOL     OW27838   3.739   2.932   4.917
 8980SOL    HW127839   3.781   2.886   4.995
 8980SOL    HW227840   3.777   3.024   4.909
 8981SOL     OW27841   2.744   1.201   5.755
 8981SOL    HW127842   2.777   1.235   5.667
 8981SOL    HW227843   2.644   1.196   5.752
 8982SOL     OW27844   4.125   4.448   1.012
 8982SOL    HW127845   4.056   4.518   0.997
 8982SOL    HW227846   4.098   4.363   0.967
 8983SOL     OW27847   4.528   5.050   0.948
 8983SOL    HW127848   4.552   4.981   0.879
 8983SOL    HW227849   4.592   5.126   0.942
 8984SOL     OW27850   1.546   6.534   4.013
 8984SOL    HW127851   1.584   6.625   3.993
 8984SOL    HW227852   1.510   6.533   4.106
 8985SOL     OW27853   3.142   3.074   6.148
 8985SOL    HW127854   3.212   3.139   6.119
 8985SOL    HW227855   3.071   3.067   6.078
 8986SOL     OW27856   3.475   6.559   2.623
 8986SOL    HW127857   3.451   6.516   2.536
 8986SOL    HW227858   3.508   6.651   2.606
 8987SOL     OW27859   5.089   5.767   1.751
 8987SOL    HW127860   5.104   5.668   1.746
 8987SOL    HW227861   5.118   5.801   1.840
 8988SOL     OW27862   0.865   4.755   5.088
 8988SOL    HW127863   0.943   4.794   5.040
 8988SOL    HW227864   0.829   4.821   5.153
 8989SOL     OW27865   2.644   2.976   6.907
 8989SOL    HW127866   2.686   3.022   6.985
 8989SOL    HW227867   2.587   2.900   6.939
 8990SOL     OW27868   0.063   5.769   2.999
 8990SOL    HW127869   0.098   5.837   3.064
 8990SOL    HW227870   0.109   5.682   3.015
 8991SOL     OW27871   1.184   2.300   4.912
 8991SOL    HW127872   1.172   2.264   4.819
 8991SOL    HW227873   1.131   2.384   4.922
 8992SOL     OW27874   0.058   2.166   1.199
 8992SOL    HW127875   7.004   2.152   1.130
 8992SOL    HW227876   0.045   2.102   1.274
 8993SOL     OW27877   4.484   2.309   0.834
 8993SOL    HW127878   4.492   2.318   0.934
 8993SOL    HW227879   4.532   2.226   0.805
 8994SOL     OW27880   1.925   5.838   2.765
 8994SOL    HW127881   1.962   5.769   2.702
 8994SOL    HW227882   1.974   5.833   2.852
 8995SOL     OW27883   0.583   0.373   1.203
 8995SOL    HW127884   0.560   0.430   1.283
 8995SOL    HW227885   0.679   0.346   1.208
 8996SOL     OW27886   4.040   6.778   6.061
 8996SOL    HW127887   4.055   6.694   6.008
 8996SOL    HW227888   3.947   6.777   6.098
 8997SOL     OW27889   6.106   0.745   4.450
 8997SOL    HW127890   6.167   0.728   4.372
 8997SOL    HW227891   6.133   0.830   4.495
 8998SOL     OW27892   6.736   3.516   4.843
 8998SOL    HW127893   6.763   3.502   4.939
 8998SOL    HW227894   6.804   3.475   4.783
 8999SOL     OW27895   4.077   7.008   6.225
 8999SOL    HW127896   4.102   0.075   6.177
 8999SOL    HW227897   4.040   6.942   6.160
 9000SOL     OW27898   1.911   4.054   0.991
 9000SOL    HW127899   1.846   4.123   0.959
 9000SOL    HW227900   2.004   4.092   0.989
 9001SOL     OW27901   0.930   5.528   1.534
 9001SOL    HW127902   0.933   5.592   1.610
 9001SOL    HW227903   0.851   5.468   1.544
 9002SOL     OW27904   0.579   4.464   5.969
 9002SOL    HW127905   0.675   4.437   5.975
 9002SOL    HW227906   0.572   4.559   5.939
 9003SOL     OW27907   5.459   0.247   0.885
 9003SOL    HW127908   5.459   0.195   0.800
 9003SOL    HW227909   5.399   0.203   0.952
 9004SOL     OW27910   4.824   5.034   0.722
 9004SOL    HW127911   4.768   4.977   0.781
 9004SOL    HW227912   4.921   5.014   0.737
 9005SOL     OW27913   5.467   0.732   5.561
 9005SOL    HW127914   5.383   0.681   5.580
 9005SOL    HW227915   5.535   0.714   5.632
 9006SOL     OW27916   3.727   5.651   0.496
 9006SOL    HW127917   3.695   5.570   0.545
 9006SOL    HW227918   3.826   5.661   0.509
 9007SOL     OW27919   1.505   1.145   2.727
 9007SOL    HW127920   1.555   1.059   2.735
 9007SOL    HW227921   1.558   1.211   2.674
 9008SOL     OW27922   0.599   5.889   2.160
 9008SOL    HW127923   0.588   5.791   2.178
 9008SOL    HW227924   0.645   5.902   2.072
 9009SOL     OW27925   3.403   6.406   1.726
 9009SOL    HW127926   3.444   6.314   1.723
 9009SOL    HW227927   3.304   6.397   1.721
 9010SOL     OW27928   1.766   6.475   4.578
 9010SOL    HW127929   1.845   6.460   4.637
 9010SOL    HW227930   1.716   6.556   4.608
 9011SOL     OW27931   2.301   2.364   1.899
 9011SOL    HW127932   2.223   2.416   1.933
 9011SOL    HW227933   2.362   2.341   1.975
 9012SOL     OW27934   1.868   6.287   6.944
 9012SOL    HW127935   1.875   6.340   6.859
 9012SOL    HW227936   1.856   6.190   6.921
 9013SOL     OW27937   2.157   6.976   4.491
 9013SOL    HW127938   2.241   7.012   4.534
 9013SOL    HW227939   2.119   6.904   4.549
 9014SOL     OW27940   5.428   2.992   4.025
 9014SOL    HW127941   5.446   3.066   4.089
 9014SOL    HW227942   5.469   2.907   4.058
 9015SOL     OW27943   4.257   0.900   6.389
 9015SOL    HW127944   4.291   0.806   6.395
 9015SOL    HW227945   4.170   0.901   6.338
 9016SOL     OW27946   5.204   5.480   5.886
 9016SOL    HW127947   5.259   5.451   5.964
 9016SOL    HW227948   5.175   5.575   5.899
 9017SOL     OW27949   3.587   0.147   4.986
 9017SOL    HW127950   3.659   0.200   4.940
 9017SOL    HW227951   3.559   0.071   4.928
 9018SOL     OW27952   3.430   4.400   6.770
 9018SOL    HW127953   3.444   4.493   6.803
 9018SOL    HW227954   3.334   4.375   6.779
 9019SOL     OW27955   0.368   3.159   4.012
 9019SOL    HW127956   0.361   3.210   4.097
 9019SOL    HW227957   0.388   3.063   4.032
 9020SOL     OW27958   5.158   4.741   2.828
 9020SOL    HW127959   5.124   4.769   2.917
 9020SOL    HW227960   5.136   4.811   2.760
 9021SOL     OW27961   0.425   0.887   4.321
 9021SOL    HW127962   0.392   0.982   4.323
 9021SOL    HW227963   0.350   0.825   4.342
 9022SOL     OW27964   4.194   3.979   6.359
 9022SOL    HW127965   4.230   4.043   6.292
 9022SOL    HW227966   4.140   3.909   6.313
 9023SOL     OW27967   6.742   4.520   0.636
 9023SOL    HW127968   6.802   4.599   0.645
 9023SOL    HW227969   6.750   4.482   0.544
 9024SOL     OW27970   2.340   5.724   6.241
 9024SOL    HW127971   2.291   5.642   6.212
 9024SOL    HW227972   2.277   5.801   6.244
 9025SOL     OW27973   0.910   5.570   1.013
 9025SOL    HW127974   0.898   5.652   0.958
 9025SOL    HW227975   0.935   5.597   1.107
 9026SOL     OW27976   5.267   1.269   0.774
 9026SOL    HW127977   5.335   1.247   0.844
 9026SOL    HW227978   5.300   1.238   0.685
 9027SOL     OW27979   0.855   4.214   3.472
 9027SOL    HW127980   0.831   4.239   3.378
 9027SOL    HW227981   0.906   4.289   3.515
 9028SOL     OW27982   3.542   4.880   6.518
 9028SOL    HW127983   3.450   4.842   6.526
 9028SOL    HW227984   3.603   4.812   6.476
 9029SOL     OW27985   4.564   0.182   4.049
 9029SOL    HW127986   4.580   0.245   3.974
 9029SOL    HW227987   4.650   0.164   4.097
 9030SOL     OW27988   3.341   1.448   2.081
 9030SOL    HW127989   3.347   1.523   2.147
 9030SOL    HW227990   3.341   1.484   1.988
 9031SOL     OW27991   4.563   6.734   4.721
 9031SOL    HW127992   4.542   6.636   4.715
 9031SOL    HW227993   4.478   6.786   4.718
 9032SOL     OW27994   5.281   2.719   1.748
 9032SOL    HW127995   5.302   2.681   1.838
 9032SOL    HW227996   5.255   2.815   1.757
 9033SOL     OW27997   0.404   6.866   2.831
 9033SOL    HW127998   0.357   6.843   2.746
 9033SOL    HW227999   0.385   6.962   2.854
 9034SOL     OW28000   4.631   6.575   4.376
 9034SOL    HW128001   4.619   6.664   4.420
 9034SOL    HW228002   4.725   6.544   4.388
 9035SOL     OW28003   3.047   5.481   6.951
 9035SOL    HW128004   3.030   5.412   6.881
 9035SOL    HW228005   2.965   5.492   7.008
 9036SOL     OW28006   1.462   4.689   5.032
 9036SOL    HW128007   1.425   4.596   5.035
 9036SOL    HW228008   1.399   4.751   5.079
 9037SOL     OW28009   6.939   0.793   2.219
 9037SOL    HW128010   0.012   0.777   2.177
 9037SOL    HW228011   6.935   0.748   2.308
 9038SOL     OW28012   4.558   3.264   5.516
 9038SOL    HW128013   4.609   3.183   5.545
 9038SOL    HW228014   4.463   3.257   5.546
 9039SOL     OW28015   4.600   6.390   6.287
 9039SOL    HW128016   4.584   6.485   6.316
 9039SOL    HW228017   4.681   6.354   6.333
 9040SOL     OW28018   2.028   1.804   1.437
 9040SOL    HW128019   1.986   1.893   1.456
 9040SOL    HW228020   2.114   1.796   1.488
 9041SOL     OW28021   6.433   2.069   2.674
 9041SOL    HW128022   6.342   2.106   2.692
 9041SOL    HW228023   6.498   2.103   2.742
 9042SOL     OW28024   3.707   6.131   0.782
 9042SOL    HW128025   3.781   6.187   0.819
 9042SOL    HW228026   3.721   6.035   0.808
 9043SOL     OW28027   3.304   2.833   0.890
 9043SOL    HW128028   3.289   2.886   0.973
 9043SOL    HW228029   3.352   2.748   0.913
 9044SOL     OW28030   0.900   0.911   0.634
 9044SOL    HW128031   0.923   0.873   0.724
 9044SOL    HW228032   0.874   1.007   0.644
 9045SOL     OW28033   4.563   1.288   3.452
 9045SOL    HW128034   4.638   1.276   3.516
 9045SOL    HW228035   4.588   1.357   3.384
 9046SOL     OW28036   3.106   2.944   2.220
 9046SOL    HW128037   3.071   2.851   2.218
 9046SOL    HW228038   3.185   2.949   2.281
 9047SOL     OW28039   1.496   4.510   6.314
 9047SOL    HW128040   1.406   4.466   6.318
 9047SOL    HW228041   1.521   4.525   6.218
 9048SOL     OW28042   6.877   1.446   5.805
 9048SOL    HW128043   6.870   1.472   5.709
 9048SOL    HW228044   6.899   1.349   5.811
 9049SOL     OW28045   2.509   0.004   5.441
 9049SOL    HW128046   2.582   0.062   5.406
 9049SOL    HW228047   2.422   0.032   5.401
 9050SOL     OW28048   0.985   4.440   0.911
 9050SOL    HW128049   1.045   4.362   0.895
 9050SOL    HW228050   0.896   4.423   0.870
 9051SOL     OW28051   2.664   1.095   1.785
 9051SOL    HW128052   2.593   1.076   1.853
 9051SOL    HW228053   2.623   1.143   1.708
 9052SOL     OW28054   1.955   2.743   5.617
 9052SOL    HW128055   2.046   2.784   5.616
 9052SOL    HW228056   1.899   2.786   5.546
 9053SOL     OW28057   0.937   0.648   6.908
 9053SOL    HW128058   0.884   0.582   6.961
 9053SOL    HW228059   0.998   0.699   6.970
 9054SOL     OW28060   1.775   5.964   2.375
 9054SOL    HW128061   1.861   5.913   2.377
 9054SOL    HW228062   1.747   5.984   2.469
 9055SOL     OW28063   0.297   2.998   5.344
 9055SOL    HW128064   0.257   2.991   5.435
 9055SOL    HW228065   0.225   2.986   5.275
 9056SOL     OW28066   6.171   2.883   3.664
 9056SOL    HW128067   6.152   2.931   3.579
 9056SOL    HW228068   6.138   2.789   3.657
 9057SOL     OW28069   4.205   2.078   3.938
 9057SOL    HW128070   4.264   2.103   3.861
 9057SOL    HW228071   4.240   2.120   4.022
 9058SOL     OW28072   2.748   0.622   5.705
 9058SOL    HW128073   2.808   0.615   5.785
 9058SOL    HW228074   2.705   0.712   5.703
 9059SOL     OW28075   0.924   2.593   3.221
 9059SOL    HW128076   0.925   2.634   3.313
 9059SOL    HW228077   1.017   2.588   3.186
 9060SOL     OW28078   5.117   3.039   5.784
 9060SOL    HW128079   5.175   3.089   5.849
 9060SOL    HW228080   5.102   3.095   5.703
 9061SOL     OW28081   2.302   5.414   2.638
 9061SOL    HW128082   2.358   5.489   2.672
 9061SOL    HW228083   2.215   5.450   2.603
 9062SOL     OW28084   1.915   6.190   1.383
 9062SOL    HW128085   1.980   6.211   1.456
 9062SOL    HW228086   1.904   6.090   1.375
 9063SOL     OW28087   2.428   2.274   2.121
 9063SOL    HW128088   2.527   2.257   2.116
 9063SOL    HW228089   2.401   2.282   2.217
 9064SOL     OW28090   5.165   3.811   0.340
 9064SOL    HW128091   5.203   3.897   0.372
 9064SOL    HW228092   5.087   3.785   0.397
 9065SOL     OW28093   3.009   0.871   0.553
 9065SOL    HW128094   2.989   0.949   0.494
 9065SOL    HW228095   2.934   0.805   0.547
 9066SOL     OW28096   5.292   6.751   0.150
 9066SOL    HW128097   5.283   6.850   0.155
 9066SOL    HW228098   5.214   6.712   0.102
 9067SOL     OW28099   1.100   0.656   1.848
 9067SOL    HW128100   1.016   0.608   1.823
 9067SOL    HW228101   1.096   0.750   1.814
 9068SOL     OW28102   1.353   5.994   6.391
 9068SOL    HW128103   1.312   5.912   6.432
 9068SOL    HW228104   1.452   5.992   6.406
 9069SOL     OW28105   1.550   1.916   6.291
 9069SOL    HW128106   1.516   1.951   6.204
 9069SOL    HW228107   1.648   1.896   6.283
 9070SOL     OW28108   1.820   4.698   3.577
 9070SOL    HW128109   1.798   4.643   3.497
 9070SOL    HW228110   1.736   4.724   3.624
 9071SOL     OW28111   4.691   6.408   0.305
 9071SOL    HW128112   4.760   6.410   0.233
 9071SOL    HW228113   4.732   6.373   0.389
 9072SOL     OW28114   5.117   4.597   0.185
 9072SOL    HW128115   5.180   4.568   0.257
 9072SOL    HW228116   5.169   4.642   0.112
 9073SOL     OW28117   2.129   0.869   0.966
 9073SOL    HW128118   2.182   0.916   0.896
 9073SOL    HW228119   2.048   0.828   0.924
 9074SOL     OW28120   0.374   0.565   2.919
 9074SOL    HW128121   0.410   0.475   2.894
 9074SOL    HW228122   0.417   0.635   2.862
 9075SOL     OW28123   0.672   0.723   1.813
 9075SOL    HW128124   0.593   0.699   1.755
 9075SOL    HW228125   0.746   0.657   1.797
 9076SOL     OW28126   1.130   1.505   4.988
 9076SOL    HW128127   1.103   1.487   4.893
 9076SOL    HW228128   1.055   1.551   5.036
 9077SOL     OW28129   6.048   5.926   1.587
 9077SOL    HW128130   5.984   5.987   1.540
 9077SOL    HW228131   5.997   5.851   1.630
 9078SOL     OW28132   4.469   3.001   5.284
 9078SOL    HW128133   4.554   2.956   5.308
 9078SOL    HW228134   4.404   2.934   5.247
 9079SOL     OW28135   3.916   0.716   5.261
 9079SOL    HW128136   3.899   0.692   5.165
 9079SOL    HW228137   3.996   0.775   5.267
 9080SOL     OW28138   4.966   1.248   6.680
 9080SOL    HW128139   4.983   1.229   6.583
 9080SOL    HW228140   4.893   1.315   6.688
 9081SOL     OW28141   5.297   6.951   3.638
 9081SOL    HW128142   5.245   7.008   3.702
 9081SOL    HW228143   5.331   7.008   3.563
 9082SOL     OW28144   3.029   0.702   2.638
 9082SOL    HW128145   3.012   0.800   2.635
 9082SOL    HW228146   2.948   0.655   2.674
 9083SOL     OW28147   4.822   4.151   4.178
 9083SOL    HW128148   4.898   4.214   4.161
 9083SOL    HW228149   4.736   4.195   4.151
 9084SOL     OW28150   4.017   3.592   2.738
 9084SOL    HW128151   4.044   3.500   2.767
 9084SOL    HW228152   4.055   3.610   2.647
 9085SOL     OW28153   1.098   2.719   0.380
 9085SOL    HW128154   1.169   2.740   0.312
 9085SOL    HW228155   1.051   2.635   0.354
 9086SOL     OW28156   6.926   4.009   0.173
 9086SOL    HW128157   6.944   4.003   0.075
 9086SOL    HW228158   6.900   3.918   0.208
 9087SOL     OW28159   5.116   3.242   2.283
 9087SOL    HW128160   5.122   3.204   2.190
 9087SOL    HW228161   5.051   3.318   2.283
 9088SOL     OW28162   5.299   5.919   1.138
 9088SOL    HW128163   5.363   5.848   1.167
 9088SOL    HW228164   5.312   5.938   1.040
 9089SOL     OW28165   4.421   0.693   5.688
 9089SOL    HW128166   4.430   0.645   5.775
 9089SOL    HW228167   4.346   0.653   5.635
 9090SOL     OW28168   5.899   2.047   3.353
 9090SOL    HW128169   5.845   2.131   3.353
 9090SOL    HW228170   5.951   2.040   3.438
 9091SOL     OW28171   3.841   2.713   5.744
 9091SOL    HW128172   3.830   2.789   5.808
 9091SOL    HW228173   3.756   2.659   5.741
 9092SOL     OW28174   6.848   3.546   6.358
 9092SOL    HW128175   6.922   3.526   6.294
 9092SOL    HW228176   6.762   3.553   6.308
 9093SOL     OW28177   2.204   6.712   4.941
 9093SOL    HW128178   2.162   6.731   5.029
 9093SOL    HW228179   2.304   6.712   4.951
 9094SOL     OW28180   1.915   3.824   0.822
 9094SOL    HW128181   1.912   3.881   0.904
 9094SOL    HW228182   1.950   3.878   0.745
 9095SOL     OW28183   6.502   6.861   6.475
 9095SOL    HW128184   6.586   6.915   6.476
 9095SOL    HW228185   6.521   6.770   6.437
 9096SOL     OW28186   5.628   5.194   4.793
 9096SOL    HW128187   5.670   5.163   4.877
 9096SOL    HW228188   5.695   5.244   4.738
 9097SOL     OW28189   1.472   1.985   6.019
 9097SOL    HW128190   1.570   2.003   6.006
 9097SOL    HW228191   1.440   1.921   5.948
 9098SOL     OW28192   2.345   4.635   3.811
 9098SOL    HW128193   2.368   4.721   3.764
 9098SOL    HW228194   2.389   4.559   3.763
 9099SOL     OW28195   2.396   1.321   6.728
 9099SOL    HW128196   2.365   1.246   6.669
 9099SOL    HW228197   2.318   1.362   6.774
 9100SOL     OW28198   1.828   4.891   3.821
 9100SOL    HW128199   1.855   4.977   3.864
 9100SOL    HW228200   1.892   4.869   3.747
 9101SOL     OW28201   0.274   2.628   0.393
 9101SOL    HW128202   0.226   2.630   0.305
 9101SOL    HW228203   0.355   2.686   0.387
 9102SOL     OW28204   3.778   0.465   3.088
 9102SOL    HW128205   3.698   0.468   3.148
 9102SOL    HW228206   3.786   0.551   3.038
 9103SOL     OW28207   6.418   0.532   1.104
 9103SOL    HW128208   6.390   0.600   1.172
 9103SOL    HW228209   6.471   0.577   1.031
 9104SOL     OW28210   6.197   1.691   5.895
 9104SOL    HW128211   6.276   1.747   5.871
 9104SOL    HW228212   6.227   1.597   5.912
 9105SOL     OW28213   2.917   0.893   6.868
 9105SOL    HW128214   3.013   0.902   6.843
 9105SOL    HW228215   2.864   0.965   6.824
 9106SOL     OW28216   2.073   3.086   6.737
 9106SOL    HW128217   2.014   3.156   6.696
 9106SOL    HW228218   2.060   2.999   6.688
 9107SOL     OW28219   3.586   1.545   0.409
 9107SOL    HW128220   3.496   1.569   0.447
 9107SOL    HW228221   3.574   1.492   0.326
 9108SOL     OW28222   0.388   6.084   5.590
 9108SOL    HW128223   0.316   6.094   5.522
 9108SOL    HW228224   0.360   6.017   5.659
 9109SOL     OW28225   5.952   4.430   2.462
 9109SOL    HW128226   5.987   4.518   2.495
 9109SOL    HW228227   5.876   4.446   2.399
 9110SOL     OW28228   1.158   6.458   3.354
 9110SOL    HW128229   1.222   6.473   3.279
 9110SOL    HW228230   1.194   6.389   3.416
 9111SOL     OW28231   3.799   2.394   5.567
 9111SOL    HW128232   3.715   2.345   5.544
 9111SOL    HW228233   3.865   2.329   5.606
 9112SOL     OW28234   0.480   5.369   2.294
 9112SOL    HW128235   0.526   5.300   2.238
 9112SOL    HW228236   0.418   5.324   2.358
 9113SOL     OW28237   6.139   0.401   4.241
 9113SOL    HW128238   6.093   0.480   4.201
 9113SOL    HW228239   6.237   0.406   4.224
 9114SOL     OW28240   1.243   0.201   5.858
 9114SOL    HW128241   1.301   0.184   5.938
 9114SOL    HW228242   1.266   0.289   5.818
 9115SOL     OW28243   4.835   4.388   5.258
 9115SOL    HW128244   4.791   4.298   5.245
 9115SOL    HW228245   4.899   4.404   5.183
 9116SOL     OW28246   1.615   6.988   3.606
 9116SOL    HW128247   1.567   7.015   3.522
 9116SOL    HW228248   1.661   6.901   3.592
 9117SOL     OW28249   1.551   6.467   0.009
 9117SOL    HW128250   1.515   6.412   0.084
 9117SOL    HW228251   1.613   6.537   0.045
 9118SOL     OW28252   6.683   3.869   1.617
 9118SOL    HW128253   6.622   3.940   1.651
 9118SOL    HW228254   6.629   3.789   1.591
 9119SOL     OW28255   3.060   1.100   1.166
 9119SOL    HW128256   2.998   1.178   1.159
 9119SOL    HW228257   3.096   1.093   1.259
 9120SOL     OW28258   6.348   3.771   4.668
 9120SOL    HW128259   6.253   3.740   4.663
 9120SOL    HW228260   6.369   3.826   4.587
 9121SOL     OW28261   4.123   1.099   4.365
 9121SOL    HW128262   4.096   1.192   4.389
 9121SOL    HW228263   4.047   1.037   4.380
 9122SOL     OW28264   0.233   2.337   1.735
 9122SOL    HW128265   0.277   2.372   1.652
 9122SOL    HW228266   0.201   2.414   1.790
 9123SOL     OW28267   1.092   6.373   4.317
 9123SOL    HW128268   1.032   6.417   4.250
 9123SOL    HW228269   1.129   6.289   4.278
 9124SOL     OW28270   4.013   6.119   0.742
 9124SOL    HW128271   3.983   6.124   0.838
 9124SOL    HW228272   4.052   6.029   0.724
 9125SOL     OW28273   5.366   6.139   1.434
 9125SOL    HW128274   5.445   6.080   1.422
 9125SOL    HW228275   5.311   6.106   1.511
 9126SOL     OW28276   4.440   4.647   1.036
 9126SOL    HW128277   4.537   4.649   1.012
 9126SOL    HW228278   4.418   4.724   1.096
 9127SOL     OW28279   6.186   4.430   5.324
 9127SOL    HW128280   6.263   4.404   5.266
 9127SOL    HW228281   6.215   4.431   5.420
 9128SOL     OW28282   5.843   3.486   6.099
 9128SOL    HW128283   5.874   3.415   6.162
 9128SOL    HW228284   5.772   3.540   6.143
 9129SOL     OW28285   0.533   2.926   0.591
 9129SOL    HW128286   0.533   3.014   0.545
 9129SOL    HW228287   0.468   2.929   0.667
 9130SOL     OW28288   3.092   3.393   5.234
 9130SOL    HW128289   3.048   3.326   5.173
 9130SOL    HW228290   3.023   3.454   5.271
 9131SOL     OW28291   5.590   2.779   0.408
 9131SOL    HW128292   5.622   2.684   0.415
 9131SOL    HW228293   5.504   2.781   0.355
 9132SOL     OW28294   1.020   4.214   3.822
 9132SOL    HW128295   0.976   4.163   3.748
 9132SOL    HW228296   0.952   4.269   3.870
 9133SOL     OW28297   5.242   0.182   1.062
 9133SOL    HW128298   5.284   0.272   1.075
 9133SOL    HW228299   5.149   0.193   1.028
 9134SOL     OW28300   4.994   4.750   6.713
 9134SOL    HW128301   5.000   4.658   6.754
 9134SOL    HW228302   4.910   4.794   6.743
 9135SOL     OW28303   6.603   5.423   2.217
 9135SOL    HW128304   6.609   5.434   2.117
 9135SOL    HW228305   6.681   5.469   2.260
 9136SOL     OW28306   0.955   5.161   0.212
 9136SOL    HW128307   1.053   5.173   0.201
 9136SOL    HW228308   0.937   5.068   0.245
 9137SOL     OW28309   5.580   5.595   5.521
 9137SOL    HW128310   5.556   5.593   5.618
 9137SOL    HW228311   5.496   5.594   5.466
 9138SOL     OW28312   1.877   4.292   6.173
 9138SOL    HW128313   1.941   4.255   6.105
 9138SOL    HW228314   1.884   4.391   6.175
 9139SOL     OW28315   0.382   0.357   1.761
 9139SOL    HW128316   0.346   0.331   1.671
 9139SOL    HW228317   0.374   0.280   1.824
 9140SOL     OW28318   1.909   4.155   2.161
 9140SOL    HW128319   1.822   4.112   2.138
 9140SOL    HW228320   1.983   4.090   2.144
 9141SOL     OW28321   0.647   5.603   4.746
 9141SOL    HW128322   0.645   5.522   4.688
 9141SOL    HW228323   0.591   5.675   4.705
 9142SOL     OW28324   1.742   4.593   3.325
 9142SOL    HW128325   1.672   4.646   3.277
 9142SOL    HW228326   1.804   4.551   3.259
 9143SOL     OW28327   6.353   3.400   2.795
 9143SOL    HW128328   6.317   3.492   2.782
 9143SOL    HW228329   6.296   3.334   2.745
 9144SOL     OW28330   3.121   4.109   5.516
 9144SOL    HW128331   3.211   4.135   5.481
 9144SOL    HW228332   3.122   4.012   5.540
 9145SOL     OW28333   2.134   6.424   5.842
 9145SOL    HW128334   2.085   6.455   5.761
 9145SOL    HW228335   2.138   6.324   5.842
 9146SOL     OW28336   6.292   2.359   4.092
 9146SOL    HW128337   6.233   2.349   4.172
 9146SOL    HW228338   6.272   2.286   4.027
 9147SOL     OW28339   4.245   0.698   6.003
 9147SOL    HW128340   4.221   0.623   5.941
 9147SOL    HW228341   4.306   0.762   5.956
 9148SOL     OW28342   4.187   5.788   1.941
 9148SOL    HW128343   4.098   5.779   1.986
 9148SOL    HW228344   4.207   5.885   1.928
 9149SOL     OW28345   0.729   4.159   1.664
 9149SOL    HW128346   0.739   4.258   1.662
 9149SOL    HW228347   0.692   4.127   1.577
 9150SOL     OW28348   3.163   4.082   0.159
 9150SOL    HW128349   3.116   4.013   0.103
 9150SOL    HW228350   3.235   4.038   0.212
 9151SOL     OW28351   2.156   3.158   3.519
 9151SOL    HW128352   2.150   3.256   3.537
 9151SOL    HW228353   2.209   3.114   3.592
 9152SOL     OW28354   2.112   4.823   2.501
 9152SOL    HW128355   2.180   4.876   2.552
 9152SOL    HW228356   2.139   4.726   2.501
 9153SOL     OW28357   0.254   3.420   0.463
 9153SOL    HW128358   0.268   3.480   0.384
 9153SOL    HW228359   0.181   3.457   0.520
 9154SOL     OW28360   4.562   4.927   3.508
 9154SOL    HW128361   4.478   4.957   3.463
 9154SOL    HW228362   4.607   5.005   3.550
 9155SOL     OW28363   1.003   6.100   2.611
 9155SOL    HW128364   1.017   6.045   2.528
 9155SOL    HW228365   1.066   6.069   2.682
 9156SOL     OW28366   0.493   3.964   5.491
 9156SOL    HW128367   0.475   4.052   5.446
 9156SOL    HW228368   0.545   3.905   5.429
 9157SOL     OW28369   2.049   4.964   5.162
 9157SOL    HW128370   2.075   4.988   5.255
 9157SOL    HW228371   2.062   4.866   5.148
 9158SOL     OW28372   0.001   3.255   4.963
 9158SOL    HW128373   0.022   3.337   5.017
 9158SOL    HW228374   0.084   3.202   4.948
 9159SOL     OW28375   2.221   1.269   3.943
 9159SOL    HW128376   2.286   1.306   4.010
 9159SOL    HW228377   2.131   1.309   3.958
 9160SOL     OW28378   0.766   3.120   6.673
 9160SOL    HW128379   0.676   3.110   6.631
 9160SOL    HW228380   0.837   3.095   6.607
 9161SOL     OW28381   5.666   3.034   2.985
 9161SOL    HW128382   5.596   3.003   2.920
 9161SOL    HW228383   5.628   3.109   3.040
 9162SOL     OW28384   3.952   2.236   1.858
 9162SOL    HW128385   3.878   2.302   1.870
 9162SOL    HW228386   3.931   2.153   1.911
 9163SOL     OW28387   1.809   2.824   3.867
 9163SOL    HW128388   1.785   2.776   3.782
 9163SOL    HW228389   1.754   2.788   3.942
 9164SOL     OW28390   3.005   6.423   0.176
 9164SOL    HW128391   2.991   6.348   0.112
 9164SOL    HW228392   2.967   6.399   0.265
 9165SOL     OW28393   5.858   1.023   6.286
 9165SOL    HW128394   5.817   1.112   6.267
 9165SOL    HW228395   5.787   0.953   6.282
 9166SOL     OW28396   4.056   6.710   1.782
 9166SOL    HW128397   4.084   6.634   1.723
 9166SOL    HW228398   3.962   6.695   1.812
 9167SOL     OW28399   1.357   1.770   4.475
 9167SOL    HW128400   1.314   1.680   4.465
 9167SOL    HW228401   1.344   1.803   4.568
 9168SOL     OW28402   6.546   5.825   4.969
 9168SOL    HW128403   6.463   5.805   5.022
 9168SOL    HW228404   6.528   5.899   4.905
 9169SOL     OW28405   6.240   6.282   6.865
 9169SOL    HW128406   6.219   6.207   6.803
 9169SOL    HW228407   6.338   6.285   6.883
 9170SOL     OW28408   1.993   0.805   5.831
 9170SOL    HW128409   2.073   0.783   5.887
 9170SOL    HW228410   2.023   0.853   5.748
 9171SOL     OW28411   4.359   5.490   0.317
 9171SOL    HW128412   4.376   5.403   0.363
 9171SOL    HW228413   4.276   5.532   0.354
 9172SOL     OW28414   4.526   1.758   5.463
 9172SOL    HW128415   4.625   1.763   5.451
 9172SOL    HW228416   4.495   1.664   5.446
 9173SOL     OW28417   6.181   4.050   5.348
 9173SOL    HW128418   6.158   3.952   5.345
 9173SOL    HW228419   6.231   4.069   5.433
 9174SOL     OW28420   6.008   5.060   0.691
 9174SOL    HW128421   6.043   5.133   0.633
 9174SOL    HW228422   5.908   5.063   0.692
 9175SOL     OW28423   2.474   1.139   1.434
 9175SOL    HW128424   2.477   1.196   1.515
 9175SOL    HW228425   2.460   1.196   1.353
 9176SOL     OW28426   1.632   1.316   2.575
 9176SOL    HW128427   1.565   1.314   2.501
 9176SOL    HW228428   1.627   1.404   2.622
 9177SOL     OW28429   0.826   5.780   3.269
 9177SOL    HW128430   0.845   5.796   3.366
 9177SOL    HW228431   0.881   5.703   3.237
 9178SOL     OW28432   1.301   3.760   1.536
 9178SOL    HW128433   1.231   3.761   1.464
 9178SOL    HW228434   1.303   3.850   1.581
 9179SOL     OW28435   4.034   4.822   3.187
 9179SOL    HW128436   4.039   4.861   3.279
 9179SOL    HW228437   4.065   4.727   3.189
 9180SOL     OW28438   0.501   0.604   5.202
 9180SOL    HW128439   0.519   0.566   5.111
 9180SOL    HW228440   0.587   0.637   5.242
 9181SOL     OW28441   2.502   1.862   3.616
 9181SOL    HW128442   2.593   1.849   3.655
 9181SOL    HW228443   2.445   1.913   3.680
 9182SOL     OW28444   6.534   1.444   2.920
 9182SOL    HW128445   6.517   1.539   2.945
 9182SOL    HW228446   6.616   1.438   2.863
 9183SOL     OW28447   2.210   1.231   5.830
 9183SOL    HW128448   2.131   1.171   5.839
 9183SOL    HW228449   2.185   1.323   5.859
 9184SOL     OW28450   2.697   4.700   1.314
 9184SOL    HW128451   2.705   4.785   1.262
 9184SOL    HW228452   2.629   4.711   1.386
 9185SOL     OW28453   1.223   0.889   5.554
 9185SOL    HW128454   1.223   0.883   5.454
 9185SOL    HW228455   1.219   0.797   5.592
 9186SOL     OW28456   5.873   6.453   6.185
 9186SOL    HW128457   5.926   6.533   6.215
 9186SOL    HW228458   5.905   6.424   6.095
 9187SOL     OW28459   4.951   2.660   1.095
 9187SOL    HW128460   4.918   2.604   1.170
 9187SOL    HW228461   4.874   2.694   1.041
 9188SOL     OW28462   1.345   0.797   1.974
 9188SOL    HW128463   1.378   0.717   2.024
 9188SOL    HW228464   1.246   0.790   1.960
 9189SOL     OW28465   2.912   0.477   6.193
 9189SOL    HW128466   3.011   0.479   6.206
 9189SOL    HW228467   2.867   0.500   6.279
 9190SOL     OW28468   3.888   0.690   5.716
 9190SOL    HW128469   3.905   0.766   5.653
 9190SOL    HW228470   3.874   0.727   5.808
 9191SOL     OW28471   5.278   6.453   1.592
 9191SOL    HW128472   5.262   6.551   1.606
 9191SOL    HW228473   5.222   6.401   1.657
 9192SOL     OW28474   5.009   4.138   4.788
 9192SOL    HW128475   4.966   4.058   4.745
 9192SOL    HW228476   5.020   4.122   4.886
 9193SOL     OW28477   4.116   3.408   3.011
 9193SOL    HW128478   4.075   3.320   3.034
 9193SOL    HW228479   4.127   3.462   3.095
 9194SOL     OW28480   3.632   4.929   2.767
 9194SOL    HW128481   3.670   4.912   2.676
 9194SOL    HW228482   3.559   4.864   2.785
 9195SOL     OW28483   0.817   3.187   3.797
 9195SOL    HW128484   0.878   3.108   3.794
 9195SOL    HW228485   0.866   3.266   3.835
 9196SOL     OW28486   5.371   5.538   3.495
 9196SOL    HW128487   5.366   5.496   3.586
 9196SOL    HW228488   5.425   5.480   3.434
 9197SOL     OW28489   4.608   1.670   0.216
 9197SOL    HW128490   4.688   1.722   0.245
 9197SOL    HW228491   4.584   1.693   0.122
 9198SOL     OW28492   6.027   2.696   5.466
 9198SOL    HW128493   5.996   2.711   5.560
 9198SOL    HW228494   5.951   2.664   5.410
 9199SOL     OW28495   0.849   3.849   6.792
 9199SOL    HW128496   0.763   3.890   6.762
 9199SOL    HW228497   0.837   3.812   6.884
 9200SOL     OW28498   5.095   6.078   1.661
 9200SOL    HW128499   5.093   5.981   1.684
 9200SOL    HW228500   5.031   6.096   1.587
 9201SOL     OW28501   0.157   2.897   2.045
 9201SOL    HW128502   0.123   2.969   1.985
 9201SOL    HW228503   0.082   2.839   2.074
 9202SOL     OW28504   2.385   6.196   4.224
 9202SOL    HW128505   2.308   6.165   4.280
 9202SOL    HW228506   2.460   6.131   4.231
 9203SOL     OW28507   5.556   1.866   0.848
 9203SOL    HW128508   5.479   1.904   0.797
 9203SOL    HW228509   5.523   1.822   0.932
 9204SOL     OW28510   5.155   4.523   2.672
 9204SOL    HW128511   5.154   4.603   2.731
 9204SOL    HW228512   5.173   4.551   2.578
 9205SOL     OW28513   3.987   2.427   1.345
 9205SOL    HW128514   4.085   2.419   1.324
 9205SOL    HW228515   3.963   2.523   1.354
 9206SOL     OW28516   6.788   5.994   5.136
 9206SOL    HW128517   6.754   5.997   5.042
 9206SOL    HW228518   6.884   5.967   5.137
 9207SOL     OW28519   4.962   6.461   0.216
 9207SOL    HW128520   4.983   6.505   0.129
 9207SOL    HW228521   5.006   6.510   0.290
 9208SOL     OW28522   4.859   4.488   1.576
 9208SOL    HW128523   4.762   4.491   1.601
 9208SOL    HW228524   4.911   4.548   1.637
 9209SOL     OW28525   4.495   0.631   3.630
 9209SOL    HW128526   4.518   0.719   3.588
 9209SOL    HW228527   4.401   0.634   3.663
 9210SOL     OW28528   0.977   0.031   6.750
 9210SOL    HW128529   1.033   7.001   6.818
 9210SOL    HW228530   0.953   6.985   6.677
 9211SOL     OW28531   4.916   1.437   6.967
 9211SOL    HW128532   4.888   1.377   6.893
 9211SOL    HW228533   5.014   1.456   6.959
 9212SOL     OW28534   6.016   3.454   5.891
 9212SOL    HW128535   6.103   3.430   5.935
 9212SOL    HW228536   5.950   3.483   5.962
 9213SOL     OW28537   6.460   5.668   2.019
 9213SOL    HW128538   6.502   5.735   2.081
 9213SOL    HW228539   6.377   5.631   2.061
 9214SOL     OW28540   2.094   1.588   6.674
 9214SOL    HW128541   2.108   1.610   6.578
 9214SOL    HW228542   2.062   1.669   6.723
 9215SOL     OW28543   0.141   4.171   3.754
 9215SOL    HW128544   0.193   4.114   3.691
 9215SOL    HW228545   0.050   4.189   3.715
 9216SOL     OW28546   2.223   6.827   3.560
 9216SOL    HW128547   2.308   6.847   3.610
 9216SOL    HW228548   2.223   6.731   3.533
 9217SOL     OW28549   3.593   2.312   6.791
 9217SOL    HW128550   3.592   2.334   6.693
 9217SOL    HW228551   3.586   2.213   6.804
 9218SOL     OW28552   4.648   5.686   5.651
 9218SOL    HW128553   4.668   5.607   5.709
 9218SOL    HW228554   4.729   5.706   5.596
 9219SOL     OW28555   3.231   2.256   5.669
 9219SOL    HW128556   3.212   2.243   5.572
 9219SOL    HW228557   3.319   2.302   5.680
 9220SOL     OW28558   0.728   6.648   3.629
 9220SOL    HW128559   0.821   6.672   3.656
 9220SOL    HW228560   0.705   6.695   3.544
 9221SOL     OW28561   2.935   1.686   1.421
 9221SOL    HW128562   2.964   1.609   1.478
 9221SOL    HW228563   2.856   1.659   1.366
 9222SOL     OW28564   2.155   5.599   3.334
 9222SOL    HW128565   2.141   5.581   3.236
 9222SOL    HW228566   2.251   5.618   3.351
 9223SOL     OW28567   6.293   2.506   4.659
 9223SOL    HW128568   6.334   2.485   4.747
 9223SOL    HW228569   6.351   2.469   4.586
 9224SOL     OW28570   1.632   5.097   2.265
 9224SOL    HW128571   1.590   5.007   2.275
 9224SOL    HW228572   1.609   5.153   2.344
 9225SOL     OW28573   0.826   5.377   6.088
 9225SOL    HW128574   0.800   5.420   6.001
 9225SOL    HW228575   0.885   5.298   6.069
 9226SOL     OW28576   0.642   0.607   4.760
 9226SOL    HW128577   0.657   0.657   4.845
 9226SOL    HW228578   0.710   0.535   4.751
 9227SOL     OW28579   3.893   3.663   6.937
 9227SOL    HW128580   3.865   3.750   6.976
 9227SOL    HW228581   3.826   3.634   6.868
 9228SOL     OW28582   3.548   3.579   5.306
 9228SOL    HW128583   3.520   3.573   5.210
 9228SOL    HW228584   3.611   3.655   5.318
 9229SOL     OW28585   0.298   4.959   0.481
 9229SOL    HW128586   0.332   4.949   0.387
 9229SOL    HW228587   0.201   4.985   0.479
 9230SOL     OW28588   3.989   6.913   5.764
 9230SOL    HW128589   3.918   6.878   5.703
 9230SOL    HW228590   3.958   6.997   5.807
 9231SOL     OW28591   6.148   6.328   1.642
 9231SOL    HW128592   6.066   6.292   1.686
 9231SOL    HW228593   6.203   6.379   1.708
 9232SOL     OW28594   0.931   5.597   2.070
 9232SOL    HW128595   0.973   5.681   2.106
 9232SOL    HW228596   0.986   5.519   2.097
 9233SOL     OW28597   1.250   0.045   5.413
 9233SOL    HW128598   1.186   0.020   5.485
 9233SOL    HW228599   1.296   0.131   5.437
 9234SOL     OW28600   3.695   4.525   6.406
 9234SOL    HW128601   3.660   4.431   6.400
 9234SOL    HW228602   3.639   4.585   6.350
 9235SOL     OW28603   2.278   2.690   3.117
 9235SOL    HW128604   2.311   2.670   3.209
 9235SOL    HW228605   2.214   2.767   3.121
 9236SOL     OW28606   1.704   3.399   6.091
 9236SOL    HW128607   1.726   3.402   5.994
 9236SOL    HW228608   1.605   3.398   6.104
 9237SOL     OW28609   6.659   5.179   3.743
 9237SOL    HW128610   6.631   5.270   3.712
 9237SOL    HW228611   6.697   5.185   3.835
 9238SOL     OW28612   1.158   2.591   5.044
 9238SOL    HW128613   1.166   2.673   4.987
 9238SOL    HW228614   1.249   2.550   5.055
 9239SOL     OW28615   1.697   5.837   5.790
 9239SOL    HW128616   1.720   5.831   5.887
 9239SOL    HW228617   1.601   5.812   5.777
 9240SOL     OW28618   3.545   1.278   4.556
 9240SOL    HW128619   3.518   1.285   4.652
 9240SOL    HW228620   3.476   1.322   4.498
 9241SOL     OW28621   5.332   6.525   6.897
 9241SOL    HW128622   5.411   6.504   6.954
 9241SOL    HW228623   5.252   6.538   6.955
 9242SOL     OW28624   2.545   2.742   0.391
 9242SOL    HW128625   2.477   2.670   0.377
 9242SOL    HW228626   2.579   2.774   0.303
 9243SOL     OW28627   2.101   0.495   0.133
 9243SOL    HW128628   2.197   0.469   0.143
 9243SOL    HW228629   2.047   0.448   0.204
 9244SOL     OW28630   2.659   6.292   6.841
 9244SOL    HW128631   2.640   6.264   6.747
 9244SOL    HW228632   2.683   6.211   6.896
 9245SOL     OW28633   0.609   4.917   2.906
 9245SOL    HW128634   0.520   4.872   2.895
 9245SOL    HW228635   0.655   4.924   2.818
 9246SOL     OW28636   5.104   6.893   6.926
 9246SOL    HW128637   5.203   6.904   6.926
 9246SOL    HW228638   5.061   6.973   6.967
 9247SOL     OW28639   3.384   6.870   2.532
 9247SOL    HW128640   3.346   6.811   2.461
 9247SOL    HW228641   3.329   6.864   2.615
 9248SOL     OW28642   2.588   0.191   0.029
 9248SOL    HW128643   2.615   0.101   0.062
 9248SOL    HW228644   2.658   0.258   0.054
 9249SOL     OW28645   3.533   0.558   0.561
 9249SOL    HW128646   3.580   0.508   0.633
 9249SOL    HW228647   3.572   0.650   0.553
 9250SOL     OW28648   0.499   3.902   3.184
 9250SOL    HW128649   0.556   3.900   3.102
 9250SOL    HW228650   0.404   3.887   3.158
 9251SOL     OW28651   4.011   1.695   1.452
 9251SOL    HW128652   3.945   1.709   1.377
 9251SOL    HW228653   4.043   1.600   1.451
 9252SOL     OW28654   5.646   1.434   4.714
 9252SOL    HW128655   5.659   1.354   4.656
 9252SOL    HW228656   5.721   1.440   4.780
 9253SOL     OW28657   2.520   5.211   3.840
 9253SOL    HW128658   2.617   5.191   3.856
 9253SOL    HW228659   2.482   5.142   3.779
 9254SOL     OW28660   0.028   5.771   2.396
 9254SOL    HW128661   6.953   5.805   2.375
 9254SOL    HW228662   0.094   5.814   2.334
 9255SOL     OW28663   6.408   3.231   0.890
 9255SOL    HW128664   6.408   3.172   0.809
 9255SOL    HW228665   6.346   3.193   0.958
 9256SOL     OW28666   2.280   6.207   0.743
 9256SOL    HW128667   2.369   6.252   0.744
 9256SOL    HW228668   2.209   6.272   0.771
 9257SOL     OW28669   6.693   5.779   4.734
 9257SOL    HW128670   6.674   5.868   4.692
 9257SOL    HW228671   6.654   5.777   4.827
 9258SOL     OW28672   5.274   4.868   2.401
 9258SOL    HW128673   5.317   4.945   2.448
 9258SOL    HW228674   5.306   4.782   2.441
 9259SOL     OW28675   1.003   2.651   6.962
 9259SOL    HW128676   0.962   2.566   6.928
 9259SOL    HW228677   0.943   2.728   6.938
 9260SOL     OW28678   5.292   4.256   4.857
 9260SOL    HW128679   5.358   4.194   4.814
 9260SOL    HW228680   5.199   4.222   4.842
 9261SOL     OW28681   1.472   3.769   2.003
 9261SOL    HW128682   1.459   3.859   2.046
 9261SOL    HW228683   1.539   3.717   2.055
 9262SOL     OW28684   0.160   6.876   6.180
 9262SOL    HW128685   0.253   6.842   6.189
 9262SOL    HW228686   0.154   6.968   6.217
 9263SOL     OW28687   2.496   4.541   2.645
 9263SOL    HW128688   2.483   4.519   2.548
 9263SOL    HW228689   2.555   4.621   2.653
 9264SOL     OW28690   5.314   3.267   5.855
 9264SOL    HW128691   5.403   3.301   5.884
 9264SOL    HW228692   5.291   3.304   5.765
 9265SOL     OW28693   5.261   0.253   2.007
 9265SOL    HW128694   5.188   0.255   2.074
 9265SOL    HW228695   5.233   0.198   1.928
 9266SOL     OW28696   0.787   5.043   0.905
 9266SOL    HW128697   0.791   5.081   0.813
 9266SOL    HW228698   0.698   5.001   0.921
 9267SOL     OW28699   6.806   1.558   3.724
 9267SOL    HW128700   6.868   1.575   3.801
 9267SOL    HW228701   6.852   1.580   3.638
 9268SOL     OW28702   0.425   1.206   1.483
 9268SOL    HW128703   0.336   1.160   1.483
 9268SOL    HW228704   0.461   1.211   1.576
 9269SOL     OW28705   3.877   0.330   1.180
 9269SOL    HW128706   3.865   0.427   1.202
 9269SOL    HW228707   3.974   0.309   1.171
 9270SOL     OW28708   2.413   0.860   5.309
 9270SOL    HW128709   2.408   0.944   5.254
 9270SOL    HW228710   2.509   0.835   5.322
 9271SOL     OW28711   1.679   4.282   5.715
 9271SOL    HW128712   1.734   4.218   5.661
 9271SOL    HW228713   1.704   4.274   5.812
 9272SOL     OW28714   6.990   6.714   5.312
 9272SOL    HW128715   6.917   6.674   5.257
 9272SOL    HW228716   0.017   6.642   5.366
 9273SOL     OW28717   6.059   3.751   4.269
 9273SOL    HW128718   6.048   3.806   4.352
 9273SOL    HW228719   5.970   3.717   4.239
 9274SOL     OW28720   7.000   3.330   0.058
 9274SOL    HW128721   0.015   3.405   0.114
 9274SOL    HW228722   6.948   3.366   6.998
 9275SOL     OW28723   5.315   1.663   0.376
 9275SOL    HW128724   5.272   1.661   0.286
 9275SOL    HW228725   5.324   1.569   0.410
 9276SOL     OW28726   2.064   3.689   7.010
 9276SOL    HW128727   2.096   3.660   6.919
 9276SOL    HW228728   1.966   3.670   0.001
 9277SOL     OW28729   4.114   5.696   2.254
 9277SOL    HW128730   4.040   5.716   2.190
 9277SOL    HW228731   4.082   5.712   2.347
 9278SOL     OW28732   0.901   0.331   5.649
 9278SOL    HW128733   0.948   0.331   5.737
 9278SOL    HW228734   0.804   0.314   5.663
 9279SOL     OW28735   3.032   6.157   1.864
 9279SOL    HW128736   3.105   6.093   1.840
 9279SOL    HW228737   2.968   6.163   1.788
 9280SOL     OW28738   0.987   5.007   1.776
 9280SOL    HW128739   1.071   5.058   1.795
 9280SOL    HW228740   0.993   4.916   1.818
 9281SOL     OW28741   1.146   5.367   1.007
 9281SOL    HW128742   1.052   5.346   1.034
 9281SOL    HW228743   1.210   5.309   1.058
 9282SOL     OW28744   2.372   0.308   4.574
 9282SOL    HW128745   2.402   0.371   4.646
 9282SOL    HW228746   2.275   0.324   4.554
 9283SOL     OW28747   4.692   5.713   6.929
 9283SOL    HW128748   4.764   5.739   6.994
 9283SOL    HW228749   4.602   5.725   6.972
 9284SOL     OW28750   4.299   6.382   1.055
 9284SOL    HW128751   4.203   6.381   1.026
 9284SOL    HW228752   4.312   6.456   1.121
 9285SOL     OW28753   6.977   5.897   3.574
 9285SOL    HW128754   6.942   5.907   3.481
 9285SOL    HW228755   6.923   5.829   3.623
 9286SOL     OW28756   4.836   6.727   1.540
 9286SOL    HW128757   4.935   6.716   1.543
 9286SOL    HW228758   4.812   6.824   1.546
 9287SOL     OW28759   4.475   4.471   0.370
 9287SOL    HW128760   4.435   4.562   0.360
 9287SOL    HW228761   4.422   4.405   0.316
 9288SOL     OW28762   4.017   1.738   2.641
 9288SOL    HW128763   4.028   1.792   2.557
 9288SOL    HW228764   4.047   1.644   2.624
 9289SOL     OW28765   4.595   5.441   2.326
 9289SOL    HW128766   4.496   5.428   2.334
 9289SOL    HW228767   4.616   5.539   2.328
 9290SOL     OW28768   5.253   1.422   3.555
 9290SOL    HW128769   5.336   1.428   3.500
 9290SOL    HW228770   5.174   1.411   3.495
 9291SOL     OW28771   0.750   4.040   5.573
 9291SOL    HW128772   0.796   3.985   5.503
 9291SOL    HW228773   0.651   4.034   5.561
 9292SOL     OW28774   1.019   1.666   6.801
 9292SOL    HW128775   1.099   1.702   6.753
 9292SOL    HW228776   0.997   1.575   6.768
 9293SOL     OW28777   4.707   1.151   5.764
 9293SOL    HW128778   4.802   1.180   5.755
 9293SOL    HW228779   4.702   1.051   5.753
 9294SOL     OW28780   5.235   6.176   6.066
 9294SOL    HW128781   5.241   6.200   5.969
 9294SOL    HW228782   5.277   6.087   6.081
 9295SOL     OW28783   6.402   0.452   3.100
 9295SOL    HW128784   6.392   0.371   3.158
 9295SOL    HW228785   6.424   0.424   3.007
 9296SOL     OW28786   1.497   3.995   5.738
 9296SOL    HW128787   1.439   4.066   5.697
 9296SOL    HW228788   1.488   3.910   5.687
 9297SOL     OW28789   6.610   5.090   2.080
 9297SOL    HW128790   6.581   5.001   2.114
 9297SOL    HW228791   6.530   5.150   2.071
 9298SOL     OW28792   0.326   4.465   6.301
 9298SOL    HW128793   0.247   4.430   6.252
 9298SOL    HW228794   0.339   4.562   6.280
 9299SOL     OW28795   3.016   1.893   3.949
 9299SOL    HW128796   2.990   1.988   3.963
 9299SOL    HW228797   3.098   1.872   4.003
 9300SOL     OW28798   2.444   5.484   5.624
 9300SOL    HW128799   2.374   5.413   5.619
 9300SOL    HW228800   2.515   5.465   5.557
 9301SOL     OW28801   1.106   4.009   4.440
 9301SOL    HW128802   1.012   4.011   4.474
 9301SOL    HW228803   1.106   4.031   4.342
 9302SOL     OW28804   3.207   5.341   3.781
 9302SOL    HW128805   3.226   5.285   3.861
 9302SOL    HW228806   3.293   5.370   3.739
 9303SOL     OW28807   2.453   4.506   6.839
 9303SOL    HW128808   2.427   4.506   6.742
 9303SOL    HW228809   2.384   4.458   6.892
 9304SOL     OW28810   5.724   5.692   6.547
 9304SOL    HW128811   5.808   5.745   6.543
 9304SOL    HW228812   5.673   5.717   6.630
 9305SOL     OW28813   1.740   1.578   1.100
 9305SOL    HW128814   1.698   1.668   1.113
 9305SOL    HW228815   1.807   1.583   1.025
 9306SOL     OW28816   6.832   6.414   4.610
 9306SOL    HW128817   6.875   6.351   4.674
 9306SOL    HW228818   6.740   6.437   4.644
 9307SOL     OW28819   2.238   3.953   1.245
 9307SOL    HW128820   2.283   3.871   1.209
 9307SOL    HW228821   2.227   4.020   1.172
 9308SOL     OW28822   2.435   3.520   1.304
 9308SOL    HW128823   2.391   3.582   1.239
 9308SOL    HW228824   2.507   3.569   1.353
 9309SOL     OW28825   4.671   5.128   5.825
 9309SOL    HW128826   4.676   5.207   5.887
 9309SOL    HW228827   4.760   5.112   5.784
 9310SOL     OW28828   6.379   6.074   5.742
 9310SOL    HW128829   6.438   6.136   5.794
 9310SOL    HW228830   6.434   6.022   5.676
 9311SOL     OW28831   5.860   4.409   0.824
 9311SOL    HW128832   5.815   4.422   0.913
 9311SOL    HW228833   5.791   4.397   0.753
 9312SOL     OW28834   5.704   3.314   4.599
 9312SOL    HW128835   5.790   3.281   4.559
 9312SOL    HW228836   5.723   3.391   4.660
 9313SOL     OW28837   0.569   0.707   2.228
 9313SOL    HW128838   0.600   0.738   2.317
 9313SOL    HW228839   0.543   0.786   2.172
 9314SOL     OW28840   5.093   5.207   1.141
 9314SOL    HW128841   5.098   5.219   1.042
 9314SOL    HW228842   5.162   5.264   1.185
 9315SOL     OW28843   6.250   5.433   5.784
 9315SOL    HW128844   6.225   5.364   5.851
 9315SOL    HW228845   6.168   5.466   5.737
 9316SOL     OW28846   5.773   6.885   0.689
 9316SOL    HW128847   5.695   6.848   0.739
 9316SOL    HW228848   5.747   6.970   0.644
 9317SOL     OW28849   2.321   6.241   3.208
 9317SOL    HW128850   2.412   6.210   3.180
 9317SOL    HW228851   2.310   6.338   3.185
 9318SOL     OW28852   3.323   6.768   3.461
 9318SOL    HW128853   3.300   6.694   3.525
 9318SOL    HW228854   3.379   6.732   3.387
 9319SOL     OW28855   3.738   1.922   0.269
 9319SOL    HW128856   3.654   1.881   0.232
 9319SOL    HW228857   3.770   1.993   0.206
 9320SOL     OW28858   6.824   6.557   6.890
 9320SOL    HW128859   6.829   6.646   6.844
 9320SOL    HW228860   6.798   6.570   6.986
 9321SOL     OW28861   0.450   2.835   4.002
 9321SOL    HW128862   0.447   2.754   3.944
 9321SOL    HW228863   0.545   2.864   4.013
 9322SOL     OW28864   4.696   2.727   0.171
 9322SOL    HW128865   4.747   2.752   0.089
 9322SOL    HW228866   4.612   2.781   0.176
 9323SOL     OW28867   0.672   2.260   5.275
 9323SOL    HW128868   0.675   2.266   5.176
 9323SOL    HW228869   0.604   2.192   5.303
 9324SOL     OW28870   0.622   4.703   1.207
 9324SOL    HW128871   0.707   4.687   1.158
 9324SOL    HW228872   0.559   4.754   1.149
 9325SOL     OW28873   1.147   4.839   3.066
 9325SOL    HW128874   1.059   4.840   3.019
 9325SOL    HW228875   1.147   4.908   3.139
 9326SOL     OW28876   5.122   4.372   1.175
 9326SOL    HW128877   5.023   4.374   1.158
 9326SOL    HW228878   5.140   4.391   1.271
 9327SOL     OW28879   2.488   1.701   2.976
 9327SOL    HW128880   2.391   1.722   2.967
 9327SOL    HW228881   2.508   1.616   2.927
 9328SOL     OW28882   1.326   6.933   3.314
 9328SOL    HW128883   1.299   6.922   3.218
 9328SOL    HW228884   1.407   6.877   3.332
 9329SOL     OW28885   1.818   5.207   6.308
 9329SOL    HW128886   1.755   5.164   6.372
 9329SOL    HW228887   1.809   5.307   6.313
 9330SOL     OW28888   0.478   6.477   0.866
 9330SOL    HW128889   0.424   6.409   0.816
 9330SOL    HW228890   0.553   6.509   0.807
 9331SOL     OW28891   2.192   4.665   4.469
 9331SOL    HW128892   2.242   4.732   4.524
 9331SOL    HW228893   2.109   4.708   4.432
 9332SOL     OW28894   6.732   5.152   0.408
 9332SOL    HW128895   6.655   5.099   0.444
 9332SOL    HW228896   6.751   5.229   0.469
 9333SOL     OW28897   2.272   4.847   1.189
 9333SOL    HW128898   2.285   4.838   1.090
 9333SOL    HW228899   2.319   4.771   1.235
 9334SOL     OW28900   0.031   5.431   6.896
 9334SOL    HW128901   0.069   5.339   6.902
 9334SOL    HW228902   0.040   5.464   6.802
 9335SOL     OW28903   0.136   3.327   1.141
 9335SOL    HW128904   0.192   3.361   1.217
 9335SOL    HW228905   0.062   3.270   1.177
 9336SOL     OW28906   4.233   5.556   5.475
 9336SOL    HW128907   4.310   5.618   5.487
 9336SOL    HW228908   4.202   5.559   5.379
 9337SOL     OW28909   2.768   1.714   5.312
 9337SOL    HW128910   2.678   1.702   5.352
 9337SOL    HW228911   2.836   1.729   5.384
 9338SOL     OW28912   5.042   6.319   0.957
 9338SOL    HW128913   5.061   6.233   1.004
 9338SOL    HW228914   4.953   6.354   0.985
 9339SOL     OW28915   6.814   3.500   5.110
 9339SOL    HW128916   6.817   3.598   5.132
 9339SOL    HW228917   6.722   3.465   5.131
 9340SOL     OW28918   2.597   5.130   2.498
 9340SOL    HW128919   2.644   5.045   2.524
 9340SOL    HW228920   2.664   5.198   2.469
 9341SOL     OW28921   5.898   5.450   0.307
 9341SOL    HW128922   5.948   5.520   0.258
 9341SOL    HW228923   5.854   5.388   0.242
 9342SOL     OW28924   3.250   0.302   5.202
 9342SOL    HW128925   3.262   0.393   5.241
 9342SOL    HW228926   3.167   0.260   5.239
 9343SOL     OW28927   5.209   3.444   1.409
 9343SOL    HW128928   5.226   3.538   1.438
 9343SOL    HW228929   5.138   3.403   1.467
 9344SOL     OW28930   5.589   6.980   4.995
 9344SOL    HW128931   5.536   6.908   4.951
 9344SOL    HW228932   5.545   0.050   4.981
 9345SOL     OW28933   6.773   4.709   6.656
 9345SOL    HW128934   6.864   4.681   6.685
 9345SOL    HW228935   6.751   4.666   6.569
 9346SOL     OW28936   5.459   0.266   2.187
 9346SOL    HW128937   5.420   0.336   2.247
 9346SOL    HW228938   5.404   0.259   2.103
 9347SOL     OW28939   4.877   6.453   1.932
 9347SOL    HW128940   4.822   6.405   1.864
 9347SOL    HW228941   4.920   6.532   1.889
 9348SOL     OW28942   2.462   5.056   2.061
 9348SOL    HW128943   2.537   5.031   1.999
 9348SOL    HW228944   2.491   5.132   2.119
 9349SOL     OW28945   6.092   5.875   0.876
 9349SOL    HW128946   6.075   5.876   0.777
 9349SOL    HW228947   6.162   5.807   0.896
 9350SOL     OW28948   6.373   0.265   0.446
 9350SOL    HW128949   6.312   0.232   0.518
 9350SOL    HW228950   6.348   0.358   0.420
 9351SOL     OW28951   4.551   3.716   6.335
 9351SOL    HW128952   4.471   3.744   6.282
 9351SOL    HW228953   4.613   3.664   6.277
 9352SOL     OW28954   2.164   2.018   6.918
 9352SOL    HW128955   2.107   2.065   6.985
 9352SOL    HW228956   2.203   2.085   6.855
 9353SOL     OW28957   1.058   3.242   1.764
 9353SOL    HW128958   1.079   3.167   1.701
 9353SOL    HW228959   0.967   3.228   1.804
 9354SOL     OW28960   5.513   2.138   2.517
 9354SOL    HW128961   5.521   2.043   2.487
 9354SOL    HW228962   5.540   2.144   2.614
 9355SOL     OW28963   0.434   1.828   2.227
 9355SOL    HW128964   0.495   1.775   2.167
 9355SOL    HW228965   0.384   1.765   2.286
 9356SOL     OW28966   5.060   2.761   2.533
 9356SOL    HW128967   5.133   2.776   2.600
 9356SOL    HW228968   4.986   2.709   2.576
 9357SOL     OW28969   2.231   4.844   0.211
 9357SOL    HW128970   2.326   4.832   0.184
 9357SOL    HW228971   2.188   4.755   0.228
 9358SOL     OW28972   5.148   3.574   2.583
 9358SOL    HW128973   5.054   3.608   2.587
 9358SOL    HW228974   5.192   3.607   2.499
 9359SOL     OW28975   4.897   5.640   6.095
 9359SOL    HW128976   4.929   5.675   6.183
 9359SOL    HW228977   4.965   5.658   6.025
 9360SOL     OW28978   1.553   0.692   4.989
 9360SOL    HW128979   1.508   0.748   4.919
 9360SOL    HW228980   1.623   0.635   4.946
 9361SOL     OW28981   2.223   1.492   2.630
 9361SOL    HW128982   2.128   1.461   2.632
 9361SOL    HW228983   2.255   1.494   2.535
 9362SOL     OW28984   2.221   1.732   2.967
 9362SOL    HW128985   2.210   1.681   3.052
 9362SOL    HW228986   2.133   1.738   2.920
 9363SOL     OW28987   1.372   6.342   2.324
 9363SOL    HW128988   1.424   6.426   2.338
 9363SOL    HW228989   1.348   6.303   2.413
 9364SOL     OW28990   5.418   4.306   0.839
 9364SOL    HW128991   5.351   4.280   0.909
 9364SOL    HW228992   5.371   4.354   0.765
 9365SOL     OW28993   1.986   1.152   4.236
 9365SOL    HW128994   1.903   1.198   4.269
 9365SOL    HW228995   2.061   1.169   4.300
 9366SOL     OW28996   3.189   1.768   2.184
 9366SOL    HW128997   3.231   1.703   2.247
 9366SOL    HW228998   3.184   1.727   2.093
 9367SOL     OW28999   6.348   6.443   4.145
 9367SOL    HW129000   6.301   6.369   4.192
 9367SOL    HW229001   6.281   6.499   4.096
 9368SOL     OW29002   4.864   3.181   0.817
 9368SOL    HW129003   4.867   3.183   0.717
 9368SOL    HW229004   4.955   3.163   0.853
 9369SOL     OW29005   0.426   1.961   5.042
 9369SOL    HW129006   0.336   2.003   5.053
 9369SOL    HW229007   0.487   2.025   4.995
 9370SOL     OW29008   5.712   5.419   3.138
 9370SOL    HW129009   5.765   5.399   3.221
 9370SOL    HW229010   5.737   5.355   3.066
 9371SOL     OW29011   0.892   6.853   0.446
 9371SOL    HW129012   0.988   6.881   0.451
 9371SOL    HW229013   0.836   6.916   0.499
 9372SOL     OW29014   5.670   6.121   0.175
 9372SOL    HW129015   5.659   6.048   0.107
 9372SOL    HW229016   5.591   6.181   0.173
 9373SOL     OW29017   5.591   2.363   4.523
 9373SOL    HW129018   5.527   2.437   4.500
 9373SOL    HW229019   5.655   2.395   4.593
 9374SOL     OW29020   4.737   4.113   0.372
 9374SOL    HW129021   4.698   4.190   0.423
 9374SOL    HW229022   4.827   4.139   0.337
 9375SOL     OW29023   6.683   1.064   4.538
 9375SOL    HW129024   6.606   1.038   4.597
 9375SOL    HW229025   6.761   1.091   4.594
 9376SOL     OW29026   2.144   2.836   1.553
 9376SOL    HW129027   2.128   2.737   1.556
 9376SOL    HW229028   2.163   2.864   1.459
 9377SOL     OW29029   5.893   4.857   2.828
 9377SOL    HW129030   5.959   4.912   2.879
 9377SOL    HW229031   5.924   4.762   2.825
 9378SOL     OW29032   3.389   6.399   1.125
 9378SOL    HW129033   3.317   6.428   1.188
 9378SOL    HW229034   3.457   6.472   1.116
 9379SOL     OW29035   5.467   4.836   5.489
 9379SOL    HW129036   5.380   4.789   5.502
 9379SOL    HW229037   5.521   4.831   5.573
 9380SOL     OW29038   6.508   5.875   5.950
 9380SOL    HW129039   6.539   5.962   5.910
 9380SOL    HW229040   6.494   5.808   5.878
 9381SOL     OW29041   1.170   0.522   0.126
 9381SOL    HW129042   1.265   0.493   0.116
 9381SOL    HW229043   1.162   0.620   0.105
 9382SOL     OW29044   5.334   2.171   2.842
 9382SOL    HW129045   5.292   2.239   2.781
 9382SOL    HW229046   5.429   2.157   2.815
 9383SOL     OW29047   6.624   5.615   6.087
 9383SOL    HW129048   6.546   5.557   6.066
 9383SOL    HW229049   6.616   5.701   6.037
 9384SOL     OW29050   3.927   6.495   3.069
 9384SOL    HW129051   3.833   6.475   3.099
 9384SOL    HW229052   3.933   6.591   3.041
 9385SOL     OW29053   3.822   0.870   4.322
 9385SOL    HW129054   3.884   0.883   4.400
 9385SOL    HW229055   3.779   0.957   4.299
 9386SOL     OW29056   4.191   0.063   5.595
 9386SOL    HW129057   4.111   0.058   5.535
 9386SOL    HW229058   4.162   0.064   5.690
 9387SOL     OW29059   4.173   5.893   0.721
 9387SOL    HW129060   4.184   5.893   0.621
 9387SOL    HW229061   4.207   5.807   0.758
 9388SOL     OW29062   6.550   6.682   2.379
 9388SOL    HW129063   6.593   6.758   2.428
 9388SOL    HW229064   6.616   6.641   2.317
 9389SOL     OW29065   3.385   1.731   6.824
 9389SOL    HW129066   3.455   1.748   6.755
 9389SOL    HW229067   3.296   1.726   6.780
 9390SOL     OW29068   3.064   5.595   1.338
 9390SOL    HW129069   3.011   5.510   1.341
 9390SOL    HW229070   3.059   5.634   1.246
 9391SOL     OW29071   6.723   1.407   5.138
 9391SOL    HW129072   6.817   1.442   5.129
 9391SOL    HW229073   6.660   1.485   5.143
 9392SOL     OW29074   0.985   6.839   4.684
 9392SOL    HW129075   1.030   6.827   4.772
 9392SOL    HW229076   0.945   6.931   4.678
 9393SOL     OW29077   3.909   1.684   4.987
 9393SOL    HW129078   3.869   1.733   4.910
 9393SOL    HW229079   3.899   1.738   5.070
 9394SOL     OW29080   6.142   2.416   1.857
 9394SOL    HW129081   6.119   2.402   1.760
 9394SOL    HW229082   6.070   2.377   1.914
 9395SOL     OW29083   2.182   2.952   5.894
 9395SOL    HW129084   2.098   2.917   5.936
 9395SOL    HW229085   2.202   3.043   5.931
 9396SOL     OW29086   6.998   1.040   5.982
 9396SOL    HW129087   0.010   1.101   6.055
 9396SOL    HW229088   0.005   0.946   6.005
 9397SOL     OW29089   2.423   2.154   0.964
 9397SOL    HW129090   2.377   2.242   0.967
 9397SOL    HW229091   2.416   2.110   1.054
 9398SOL     OW29092   2.539   1.610   0.895
 9398SOL    HW129093   2.489   1.639   0.976
 9398SOL    HW229094   2.531   1.680   0.824
 9399SOL     OW29095   6.804   0.433   5.873
 9399SOL    HW129096   6.842   0.384   5.794
 9399SOL    HW229097   6.765   0.520   5.843
 9400SOL     OW29098   4.064   1.801   3.666
 9400SOL    HW129099   4.129   1.725   3.671
 9400SOL    HW229100   3.993   1.779   3.599
 9401SOL     OW29101   4.627   6.335   3.939
 9401SOL    HW129102   4.532   6.340   3.970
 9401SOL    HW229103   4.641   6.393   3.859
 9402SOL     OW29104   2.541   5.328   0.302
 9402SOL    HW129105   2.602   5.254   0.330
 9402SOL    HW229106   2.510   5.378   0.383
 9403SOL     OW29107   5.491   0.226   4.625
 9403SOL    HW129108   5.524   0.265   4.539
 9403SOL    HW229109   5.483   0.127   4.617
 9404SOL     OW29110   1.039   3.914   5.673
 9404SOL    HW129111   0.995   3.905   5.763
 9404SOL    HW229112   0.974   3.887   5.602
 9405SOL     OW29113   0.348   0.374   0.685
 9405SOL    HW129114   0.445   0.366   0.664
 9405SOL    HW229115   0.336   0.393   0.783
 9406SOL     OW29116   6.792   1.123   5.128
 9406SOL    HW129117   6.778   1.212   5.171
 9406SOL    HW229118   6.740   1.119   5.042
 9407SOL     OW29119   4.124   5.641   3.272
 9407SOL    HW129120   4.040   5.589   3.287
 9407SOL    HW229121   4.111   5.735   3.302
 9408SOL     OW29122   4.330   1.912   0.469
 9408SOL    HW129123   4.249   1.947   0.423
 9408SOL    HW229124   4.351   1.820   0.436
 9409SOL     OW29125   6.034   3.639   3.763
 9409SOL    HW129126   5.971   3.705   3.804
 9409SOL    HW229127   6.018   3.548   3.802
 9410SOL     OW29128   4.244   6.818   1.594
 9410SOL    HW129129   4.178   6.792   1.664
 9410SOL    HW229130   4.203   6.804   1.503
 9411SOL     OW29131   4.541   5.323   1.682
 9411SOL    HW129132   4.449   5.286   1.696
 9411SOL    HW229133   4.554   5.402   1.741
 9412SOL     OW29134   5.922   3.050   3.128
 9412SOL    HW129135   5.963   2.973   3.176
 9412SOL    HW229136   5.822   3.044   3.135
 9413SOL     OW29137   3.582   5.122   3.771
 9413SOL    HW129138   3.555   5.214   3.741
 9413SOL    HW229139   3.521   5.055   3.729
 9414SOL     OW29140   2.362   0.814   2.378
 9414SOL    HW129141   2.304   0.756   2.321
 9414SOL    HW229142   2.441   0.845   2.325
 9415SOL     OW29143   2.316   1.548   2.382
 9415SOL    HW129144   2.406   1.510   2.362
 9415SOL    HW229145   2.310   1.641   2.346
 9416SOL     OW29146   1.698   2.377   1.173
 9416SOL    HW129147   1.620   2.413   1.225
 9416SOL    HW229148   1.771   2.352   1.235
 9417SOL     OW29149   1.974   0.115   5.018
 9417SOL    HW129150   1.975   0.025   5.062
 9417SOL    HW229151   1.994   0.105   4.921
 9418SOL     OW29152   4.633   3.967   1.562
 9418SOL    HW129153   4.655   4.008   1.474
 9418SOL    HW229154   4.594   4.037   1.622
 9419SOL     OW29155   3.127   5.175   4.261
 9419SOL    HW129156   3.090   5.222   4.341
 9419SOL    HW229157   3.121   5.076   4.275
 9420SOL     OW29158   1.579   1.226   4.410
 9420SOL    HW129159   1.583   1.228   4.510
 9420SOL    HW229160   1.568   1.131   4.379
 9421SOL     OW29161   1.887   5.438   4.038
 9421SOL    HW129162   1.971   5.479   4.004
 9421SOL    HW229163   1.855   5.488   4.119
 9422SOL     OW29164   4.335   1.579   2.692
 9422SOL    HW129165   4.406   1.519   2.729
 9422SOL    HW229166   4.367   1.674   2.695
 9423SOL     OW29167   4.742   6.851   4.400
 9423SOL    HW129168   4.699   6.850   4.310
 9423SOL    HW229169   4.726   6.939   4.444
 9424SOL     OW29170   3.292   6.097   4.157
 9424SOL    HW129171   3.376   6.139   4.191
 9424SOL    HW229172   3.278   6.123   4.061
 9425SOL     OW29173   0.941   5.189   3.381
 9425SOL    HW129174   0.913   5.248   3.306
 9425SOL    HW229175   1.005   5.120   3.347
 9426SOL     OW29176   3.419   5.634   0.849
 9426SOL    HW129177   3.380   5.718   0.812
 9426SOL    HW229178   3.353   5.560   0.842
 9427SOL     OW29179   2.699   5.111   4.289
 9427SOL    HW129180   2.722   5.180   4.358
 9427SOL    HW229181   2.635   5.150   4.223
 9428SOL     OW29182   5.119   6.149   2.419
 9428SOL    HW129183   5.133   6.198   2.505
 9428SOL    HW229184   5.063   6.204   2.358
 9429SOL     OW29185   0.250   3.344   3.019
 9429SOL    HW129186   0.321   3.317   2.953
 9429SOL    HW229187   0.292   3.357   3.109
 9430SOL     OW29188   5.676   6.936   2.343
 9430SOL    HW129189   5.584   6.971   2.323
 9430SOL    HW229190   5.743   6.985   2.287
 9431SOL     OW29191   6.641   4.413   0.402
 9431SOL    HW129192   6.547   4.426   0.434
 9431SOL    HW229193   6.645   4.433   0.304
 9432SOL     OW29194   6.554   6.720   4.388
 9432SOL    HW129195   6.547   6.623   4.414
 9432SOL    HW229196   6.475   6.769   4.425
 9433SOL     OW29197   2.853   4.759   4.484
 9433SOL    HW129198   2.949   4.733   4.482
 9433SOL    HW229199   2.822   4.778   4.391
 9434SOL     OW29200   5.664   4.274   3.175
 9434SOL    HW129201   5.616   4.193   3.143
 9434SOL    HW229202   5.647   4.350   3.111
 9435SOL     OW29203   1.794   2.533   5.169
 9435SOL    HW129204   1.755   2.444   5.147
 9435SOL    HW229205   1.874   2.520   5.227
 9436SOL     OW29206   2.982   1.909   5.655
 9436SOL    HW129207   2.907   1.858   5.613
 9436SOL    HW229208   2.951   2.002   5.677
 9437SOL     OW29209   0.446   5.432   4.266
 9437SOL    HW129210   0.453   5.520   4.312
 9437SOL    HW229211   0.466   5.444   4.168
 9438SOL     OW29212   0.600   6.638   2.351
 9438SOL    HW129213   0.626   6.618   2.257
 9438SOL    HW229214   0.682   6.651   2.407
 9439SOL     OW29215   1.341   3.488   1.295
 9439SOL    HW129216   1.402   3.409   1.288
 9439SOL    HW229217   1.312   3.500   1.390
 9440SOL     OW29218   3.690   5.506   4.605
 9440SOL    HW129219   3.620   5.493   4.675
 9440SOL    HW229220   3.717   5.602   4.604
 9441SOL     OW29221   1.667   5.884   5.330
 9441SOL    HW129222   1.762   5.886   5.360
 9441SOL    HW229223   1.648   5.796   5.285
 9442SOL     OW29224   0.789   3.369   1.162
 9442SOL    HW129225   0.852   3.428   1.214
 9442SOL    HW229226   0.700   3.414   1.155
 9443SOL     OW29227   1.701   3.453   1.155
 9443SOL    HW129228   1.662   3.362   1.167
 9443SOL    HW229229   1.761   3.474   1.232
 9444SOL     OW29230   1.148   4.335   6.011
 9444SOL    HW129231   1.166   4.426   5.974
 9444SOL    HW229232   1.109   4.277   5.938
 9445SOL     OW29233   6.348   3.332   1.726
 9445SOL    HW129234   6.359   3.376   1.816
 9445SOL    HW229235   6.395   3.244   1.726
 9446SOL     OW29236   6.101   4.662   0.669
 9446SOL    HW129237   6.146   4.745   0.703
 9446SOL    HW229238   6.146   4.582   0.707
 9447SOL     OW29239   6.138   1.759   1.692
 9447SOL    HW129240   6.225   1.780   1.735
 9447SOL    HW229241   6.067   1.749   1.762
 9448SOL     OW29242   5.936   6.190   0.539
 9448SOL    HW129243   5.927   6.189   0.440
 9448SOL    HW229244   5.871   6.125   0.579
 9449SOL     OW29245   6.545   4.900   5.469
 9449SOL    HW129246   6.519   4.834   5.539
 9449SOL    HW229247   6.640   4.927   5.483
 9450SOL     OW29248   2.759   6.284   4.208
 9450SOL    HW129249   2.802   6.199   4.180
 9450SOL    HW229250   2.745   6.342   4.127
 9451SOL     OW29251   4.167   4.014   5.669
 9451SOL    HW129252   4.171   3.961   5.584
 9451SOL    HW229253   4.085   3.988   5.720
 9452SOL     OW29254   3.429   4.438   1.130
 9452SOL    HW129255   3.461   4.532   1.115
 9452SOL    HW229256   3.331   4.434   1.109
 9453SOL     OW29257   2.933   5.331   1.433
 9453SOL    HW129258   2.960   5.274   1.355
 9453SOL    HW229259   2.929   5.274   1.515
 9454SOL     OW29260   2.120   2.054   5.443
 9454SOL    HW129261   2.145   2.146   5.412
 9454SOL    HW229262   2.026   2.055   5.478
 9455SOL     OW29263   1.988   2.054   2.374
 9455SOL    HW129264   2.067   2.044   2.314
 9455SOL    HW229265   1.991   2.143   2.419
 9456SOL     OW29266   1.012   3.580   0.705
 9456SOL    HW129267   0.923   3.571   0.659
 9456SOL    HW229268   1.070   3.643   0.654
 9457SOL     OW29269   6.684   3.677   0.074
 9457SOL    HW129270   6.732   3.655   0.158
 9457SOL    HW229271   6.638   3.766   0.084
 9458SOL     OW29272   1.027   5.750   4.627
 9458SOL    HW129273   1.011   5.845   4.604
 9458SOL    HW229274   1.005   5.692   4.549
 9459SOL     OW29275   4.172   6.288   1.890
 9459SOL    HW129276   4.076   6.260   1.879
 9459SOL    HW229277   4.176   6.375   1.938
 9460SOL     OW29278   1.054   2.606   5.733
 9460SOL    HW129279   0.987   2.565   5.794
 9460SOL    HW229280   1.054   2.557   5.646
 9461SOL     OW29281   1.873   0.537   2.658
 9461SOL    HW129282   1.932   0.459   2.677
 9461SOL    HW229283   1.924   0.605   2.606
 9462SOL     OW29284   0.228   2.894   3.193
 9462SOL    HW129285   0.252   2.868   3.099
 9462SOL    HW229286   0.191   2.987   3.193
 9463SOL     OW29287   5.477   1.783   6.556
 9463SOL    HW129288   5.502   1.834   6.638
 9463SOL    HW229289   5.552   1.722   6.531
 9464SOL     OW29290   4.366   6.787   6.012
 9464SOL    HW129291   4.322   6.727   6.079
 9464SOL    HW229292   4.322   6.777   5.923
 9465SOL     OW29293   5.372   6.653   4.277
 9465SOL    HW129294   5.327   6.570   4.309
 9465SOL    HW229295   5.306   6.728   4.277
 9466SOL     OW29296   2.610   1.562   0.143
 9466SOL    HW129297   2.511   1.581   0.139
 9466SOL    HW229298   2.636   1.507   0.064
 9467SOL     OW29299   2.096   3.274   1.992
 9467SOL    HW129300   2.162   3.348   1.985
 9467SOL    HW229301   2.014   3.307   2.040
 9468SOL     OW29302   0.467   2.596   6.551
 9468SOL    HW129303   0.526   2.633   6.480
 9468SOL    HW229304   0.394   2.542   6.508
 9469SOL     OW29305   6.884   4.039   2.831
 9469SOL    HW129306   6.931   4.081   2.908
 9469SOL    HW229307   6.923   4.072   2.745
 9470SOL     OW29308   6.153   3.393   1.546
 9470SOL    HW129309   6.225   3.348   1.598
 9470SOL    HW229310   6.163   3.371   1.449
 9471SOL     OW29311   0.152   2.909   6.466
 9471SOL    HW129312   0.246   2.901   6.432
 9471SOL    HW229313   0.152   2.923   6.565
 9472SOL     OW29314   6.707   2.461   4.608
 9472SOL    HW129315   6.666   2.537   4.657
 9472SOL    HW229316   6.637   2.414   4.554
 9473SOL     OW29317   3.500   5.611   5.162
 9473SOL    HW129318   3.476   5.517   5.138
 9473SOL    HW229319   3.416   5.663   5.181
 9474SOL     OW29320   3.474   5.587   3.422
 9474SOL    HW129321   3.383   5.570   3.386
 9474SOL    HW229322   3.542   5.564   3.353
 9475SOL     OW29323   1.787   3.508   1.477
 9475SOL    HW129324   1.696   3.548   1.472
 9475SOL    HW229325   1.856   3.581   1.483
 9476SOL     OW29326   3.071   3.441   5.676
 9476SOL    HW129327   3.105   3.386   5.600
 9476SOL    HW229328   3.069   3.538   5.651
 9477SOL     OW29329   0.311   2.268   0.869
 9477SOL    HW129330   0.357   2.355   0.881
 9477SOL    HW229331   0.225   2.282   0.819
 9478SOL     OW29332   5.163   3.772   5.473
 9478SOL    HW129333   5.198   3.851   5.423
 9478SOL    HW229334   5.235   3.702   5.479
 9479SOL     OW29335   6.296   5.593   5.050
 9479SOL    HW129336   6.211   5.541   5.045
 9479SOL    HW229337   6.345   5.586   4.962
 9480SOL     OW29338   5.723   3.790   6.270
 9480SOL    HW129339   5.687   3.703   6.304
 9480SOL    HW229340   5.649   3.858   6.268
 9481SOL     OW29341   6.832   3.453   2.320
 9481SOL    HW129342   6.850   3.517   2.395
 9481SOL    HW229343   6.759   3.490   2.261
 9482SOL     OW29344   4.249   0.182   2.643
 9482SOL    HW129345   4.184   0.213   2.712
 9482SOL    HW229346   4.262   0.083   2.651
 9483SOL     OW29347   1.880   1.815   0.666
 9483SOL    HW129348   1.921   1.855   0.584
 9483SOL    HW229349   1.833   1.887   0.717
 9484SOL     OW29350   5.830   0.836   2.691
 9484SOL    HW129351   5.867   0.814   2.781
 9484SOL    HW229352   5.788   0.754   2.651
 9485SOL     OW29353   1.057   6.956   2.845
 9485SOL    HW129354   1.155   6.953   2.825
 9485SOL    HW229355   1.020   0.028   2.818
 9486SOL     OW29356   2.774   6.301   2.325
 9486SOL    HW129357   2.813   6.262   2.409
 9486SOL    HW229358   2.734   6.227   2.270
 9487SOL     OW29359   2.957   3.605   3.222
 9487SOL    HW129360   2.935   3.694   3.262
 9487SOL    HW229361   2.931   3.606   3.125
 9488SOL     OW29362   1.015   1.523   1.485
 9488SOL    HW129363   1.052   1.603   1.437
 9488SOL    HW229364   1.014   1.541   1.583
 9489SOL     OW29365   2.977   4.083   0.716
 9489SOL    HW129366   3.045   4.155   0.704
 9489SOL    HW229367   2.993   4.010   0.649
 9490SOL     OW29368   5.340   1.640   0.065
 9490SOL    HW129369   5.359   1.737   0.082
 9490SOL    HW229370   5.424   1.594   0.037
 9491SOL     OW29371   6.976   5.012   5.328
 9491SOL    HW129372   6.918   4.994   5.408
 9491SOL    HW229373   7.016   5.104   5.336
 9492SOL     OW29374   2.766   4.421   1.362
 9492SOL    HW129375   2.856   4.396   1.325
 9492SOL    HW229376   2.729   4.498   1.309
 9493SOL     OW29377   5.643   6.306   2.325
 9493SOL    HW129378   5.583   6.245   2.273
 9493SOL    HW229379   5.709   6.349   2.262
 9494SOL     OW29380   3.451   2.822   6.125
 9494SOL    HW129381   3.466   2.831   6.026
 9494SOL    HW229382   3.482   2.905   6.171
 9495SOL     OW29383   5.766   1.858   4.667
 9495SOL    HW129384   5.855   1.814   4.680
 9495SOL    HW229385   5.694   1.789   4.668
 9496SOL     OW29386   6.103   3.807   0.137
 9496SOL    HW129387   6.021   3.753   0.155
 9496SOL    HW229388   6.092   3.856   0.050
 9497SOL     OW29389   0.820   6.205   6.125
 9497SOL    HW129390   0.857   6.156   6.204
 9497SOL    HW229391   0.775   6.140   6.064
 9498SOL     OW29392   3.649   0.742   6.624
 9498SOL    HW129393   3.731   0.689   6.601
 9498SOL    HW229394   3.619   0.719   6.716
 9499SOL     OW29395   4.317   4.359   6.361
 9499SOL    HW129396   4.263   4.336   6.442
 9499SOL    HW229397   4.410   4.385   6.389
 9500SOL     OW29398   5.412   5.576   1.688
 9500SOL    HW129399   5.405   5.481   1.721
 9500SOL    HW229400   5.360   5.636   1.749
 9501SOL     OW29401   3.304   1.814   4.911
 9501SOL    HW129402   3.265   1.725   4.887
 9501SOL    HW229403   3.233   1.873   4.950
 9502SOL     OW29404   4.114   3.036   5.744
 9502SOL    HW129405   4.172   2.964   5.706
 9502SOL    HW229406   4.040   2.994   5.797
 9503SOL     OW29407   1.585   0.061   1.291
 9503SOL    HW129408   1.647   0.083   1.366
 9503SOL    HW229409   1.638   0.039   1.209
 9504SOL     OW29410   0.781   3.110   6.943
 9504SOL    HW129411   0.790   3.112   6.844
 9504SOL    HW229412   0.698   3.060   6.968
 9505SOL     OW29413   4.808   3.039   3.407
 9505SOL    HW129414   4.800   2.947   3.368
 9505SOL    HW229415   4.818   3.032   3.506
 9506SOL     OW29416   0.090   2.419   0.772
 9506SOL    HW129417   0.046   2.378   0.692
 9506SOL    HW229418   0.020   2.460   0.831
 9507SOL     OW29419   1.348   1.889   4.717
 9507SOL    HW129420   1.287   1.963   4.692
 9507SOL    HW229421   1.442   1.922   4.719
 9508SOL     OW29422   4.805   1.351   6.306
 9508SOL    HW129423   4.773   1.287   6.236
 9508SOL    HW229424   4.762   1.440   6.293
 9509SOL     OW29425   2.909   6.460   5.963
 9509SOL    HW129426   2.894   6.520   6.042
 9509SOL    HW229427   2.979   6.500   5.904
 9510SOL     OW29428   6.760   4.332   3.129
 9510SOL    HW129429   6.855   4.358   3.150
 9510SOL    HW229430   6.744   4.238   3.158
 9511SOL     OW29431   2.038   1.295   1.444
 9511SOL    HW129432   2.020   1.391   1.420
 9511SOL    HW229433   2.032   1.239   1.362
 9512SOL     OW29434   1.659   3.026   4.909
 9512SOL    HW129435   1.681   3.056   4.816
 9512SOL    HW229436   1.730   2.963   4.941
 9513SOL     OW29437   2.111   4.566   4.131
 9513SOL    HW129438   2.199   4.527   4.157
 9513SOL    HW229439   2.040   4.496   4.134
 9514SOL     OW29440   2.781   2.571   6.021
 9514SOL    HW129441   2.766   2.657   5.972
 9514SOL    HW229442   2.714   2.564   6.096
 9515SOL     OW29443   2.339   5.217   5.683
 9515SOL    HW129444   2.336   5.139   5.619
 9515SOL    HW229445   2.427   5.218   5.730
 9516SOL     OW29446   5.469   4.207   5.510
 9516SOL    HW129447   5.416   4.137   5.463
 9516SOL    HW229448   5.414   4.246   5.585
 9517SOL     OW29449   0.711   5.950   1.918
 9517SOL    HW129450   0.698   5.977   1.822
 9517SOL    HW229451   0.809   5.939   1.936
 9518SOL     OW29452   0.761   3.145   5.349
 9518SOL    HW129453   0.735   3.124   5.255
 9518SOL    HW229454   0.758   3.061   5.404
 9519SOL     OW29455   3.361   2.906   3.406
 9519SOL    HW129456   3.265   2.925   3.385
 9519SOL    HW229457   3.373   2.901   3.505
 9520SOL     OW29458   5.185   0.340   6.123
 9520SOL    HW129459   5.130   0.382   6.195
 9520SOL    HW229460   5.185   0.240   6.135
 9521SOL     OW29461   3.444   1.341   1.447
 9521SOL    HW129462   3.349   1.311   1.452
 9521SOL    HW229463   3.505   1.265   1.468
 9522SOL     OW29464   3.431   6.140   1.667
 9522SOL    HW129465   3.510   6.087   1.698
 9522SOL    HW229466   3.442   6.162   1.570
 9523SOL     OW29467   2.528   4.662   4.152
 9523SOL    HW129468   2.591   4.722   4.201
 9523SOL    HW229469   2.576   4.618   4.075
 9524SOL     OW29470   2.237   3.920   0.377
 9524SOL    HW129471   2.159   3.981   0.394
 9524SOL    HW229472   2.292   3.958   0.303
 9525SOL     OW29473   2.367   3.029   5.450
 9525SOL    HW129474   2.422   3.051   5.369
 9525SOL    HW229475   2.392   3.092   5.524
 9526SOL     OW29476   5.323   5.462   6.858
 9526SOL    HW129477   5.383   5.533   6.894
 9526SOL    HW229478   5.364   5.372   6.876
 9527SOL     OW29479   4.122   6.977   4.888
 9527SOL    HW129480   4.194   6.982   4.819
 9527SOL    HW229481   4.159   6.941   4.973
 9528SOL     OW29482   5.047   2.449   0.625
 9528SOL    HW129483   5.059   2.460   0.527
 9528SOL    HW229484   5.134   2.422   0.666
 9529SOL     OW29485   5.546   0.790   2.013
 9529SOL    HW129486   5.533   0.774   1.915
 9529SOL    HW229487   5.606   0.869   2.026
 9530SOL     OW29488   1.054   5.512   3.343
 9530SOL    HW129489   1.151   5.537   3.343
 9530SOL    HW229490   1.034   5.455   3.423
 9531SOL     OW29491   3.345   5.552   2.208
 9531SOL    HW129492   3.386   5.467   2.241
 9531SOL    HW229493   3.286   5.531   2.130
 9532SOL     OW29494   6.267   5.052   3.937
 9532SOL    HW129495   6.292   5.149   3.944
 9532SOL    HW229496   6.175   5.039   3.974
 9533SOL     OW29497   2.036   4.182   3.098
 9533SOL    HW129498   2.001   4.141   3.014
 9533SOL    HW229499   2.074   4.111   3.157
 9534SOL     OW29500   5.158   5.254   4.649
 9534SOL    HW129501   5.099   5.294   4.720
 9534SOL    HW229502   5.107   5.183   4.600
 9535SOL     OW29503   0.163   1.726   4.008
 9535SOL    HW129504   0.255   1.742   3.973
 9535SOL    HW229505   0.113   1.813   4.011
 9536SOL     OW29506   3.382   4.141   4.630
 9536SOL    HW129507   3.442   4.066   4.604
 9536SOL    HW229508   3.329   4.171   4.551
 9537SOL     OW29509   6.558   1.489   4.152
 9537SOL    HW129510   6.536   1.418   4.085
 9537SOL    HW229511   6.644   1.534   4.127
 9538SOL     OW29512   5.225   6.746   5.109
 9538SOL    HW129513   5.162   6.676   5.144
 9538SOL    HW229514   5.178   6.833   5.101
 9539SOL     OW29515   3.354   3.761   2.340
 9539SOL    HW129516   3.362   3.677   2.393
 9539SOL    HW229517   3.445   3.800   2.324
 9540SOL     OW29518   4.459   4.902   3.185
 9540SOL    HW129519   4.553   4.877   3.164
 9540SOL    HW229520   4.406   4.820   3.205
 9541SOL     OW29521   2.008   5.336   5.243
 9541SOL    HW129522   2.039   5.245   5.274
 9541SOL    HW229523   2.054   5.360   5.158
 9542SOL     OW29524   6.032   4.461   3.538
 9542SOL    HW129525   6.113   4.492   3.488
 9542SOL    HW229526   6.031   4.502   3.630
 9543SOL     OW29527   2.363   0.341   6.007
 9543SOL    HW129528   2.332   0.250   6.036
 9543SOL    HW229529   2.407   0.387   6.084
 9544SOL     OW29530   5.836   3.397   5.012
 9544SOL    HW129531   5.933   3.373   5.008
 9544SOL    HW229532   5.807   3.407   5.107
 9545SOL     OW29533   6.592   4.569   1.995
 9545SOL    HW129534   6.576   4.475   1.966
 9545SOL    HW229535   6.552   4.632   1.928
 9546SOL     OW29536   2.637   2.900   1.442
 9546SOL    HW129537   2.736   2.908   1.433
 9546SOL    HW229538   2.592   2.979   1.400
 9547SOL     OW29539   4.411   0.167   3.520
 9547SOL    HW129540   4.490   0.105   3.522
 9547SOL    HW229541   4.436   0.254   3.562
 9548SOL     OW29542   1.339   4.860   6.174
 9548SOL    HW129543   1.300   4.902   6.256
 9548SOL    HW229544   1.359   4.931   6.107
 9549SOL     OW29545   4.412   2.134   1.269
 9549SOL    HW129546   4.444   2.083   1.190
 9549SOL    HW229547   4.444   2.090   1.353
 9550SOL     OW29548   6.052   3.102   1.846
 9550SOL    HW129549   5.980   3.125   1.781
 9550SOL    HW229550   6.126   3.055   1.799
 9551SOL     OW29551   5.889   2.950   6.547
 9551SOL    HW129552   5.799   2.905   6.553
 9551SOL    HW229553   5.943   2.926   6.628
 9552SOL     OW29554   3.201   1.668   0.730
 9552SOL    HW129555   3.131   1.596   0.733
 9552SOL    HW229556   3.157   1.755   0.707
 9553SOL     OW29557   5.554   1.382   6.199
 9553SOL    HW129558   5.547   1.467   6.251
 9553SOL    HW229559   5.481   1.378   6.131
 9554SOL     OW29560   3.054   0.630   3.766
 9554SOL    HW129561   3.018   0.540   3.743
 9554SOL    HW229562   2.981   0.686   3.805
 9555SOL     OW29563   0.076   0.027   3.446
 9555SOL    HW129564   0.015   0.033   3.524
 9555SOL    HW229565   0.142   6.971   3.461
 9556SOL     OW29566   2.160   4.990   6.876
 9556SOL    HW129567   2.165   5.041   6.962
 9556SOL    HW229568   2.133   4.895   6.896
 9557SOL     OW29569   5.508   0.891   1.335
 9557SOL    HW129570   5.479   0.971   1.388
 9557SOL    HW229571   5.513   0.811   1.395
 9558SOL     OW29572   5.120   6.580   6.295
 9558SOL    HW129573   5.024   6.604   6.277
 9558SOL    HW229574   5.129   6.481   6.300
 9559SOL     OW29575   1.780   4.636   0.056
 9559SOL    HW129576   1.687   4.599   0.056
 9559SOL    HW229577   1.777   4.734   0.041
 9560SOL     OW29578   2.857   0.172   2.397
 9560SOL    HW129579   2.946   0.137   2.426
 9560SOL    HW229580   2.787   0.146   2.463
 9561SOL     OW29581   0.717   0.944   0.285
 9561SOL    HW129582   0.807   0.912   0.313
 9561SOL    HW229583   0.666   0.974   0.365
 9562SOL     OW29584   2.205   6.517   2.367
 9562SOL    HW129585   2.235   6.422   2.377
 9562SOL    HW229586   2.279   6.571   2.326
 9563SOL     OW29587   0.852   5.782   6.201
 9563SOL    HW129588   0.859   5.783   6.102
 9563SOL    HW229589   0.923   5.722   6.239
 9564SOL     OW29590   1.639   0.647   0.422
 9564SOL    HW129591   1.571   0.630   0.350
 9564SOL    HW229592   1.672   0.740   0.414
 9565SOL     OW29593   2.978   1.802   4.549
 9565SOL    HW129594   2.972   1.832   4.454
 9565SOL    HW229595   3.046   1.729   4.557
 9566SOL     OW29596   3.384   0.175   0.211
 9566SOL    HW129597   3.284   0.183   0.218
 9566SOL    HW229598   3.417   0.233   0.138
 9567SOL     OW29599   6.961   3.877   1.277
 9567SOL    HW129600   6.952   3.838   1.186
 9567SOL    HW229601   0.014   3.948   1.277
 9568SOL     OW29602   4.409   1.645   6.955
 9568SOL    HW129603   4.491   1.696   6.930
 9568SOL    HW229604   4.334   1.669   6.892
 9569SOL     OW29605   6.083   0.225   1.998
 9569SOL    HW129606   6.003   0.204   2.054
 9569SOL    HW229607   6.061   0.301   1.937
 9570SOL     OW29608   0.788   3.005   1.700
 9570SOL    HW129609   0.786   3.090   1.753
 9570SOL    HW229610   0.802   2.927   1.762
 9571SOL     OW29611   1.841   1.935   6.901
 9571SOL    HW129612   1.782   1.997   6.952
 9571SOL    HW229613   1.861   1.855   6.958
 9572SOL     OW29614   2.325   4.236   3.910
 9572SOL    HW129615   2.338   4.284   3.996
 9572SOL    HW229616   2.272   4.152   3.927
 9573SOL     OW29617   6.378   0.238   4.511
 9573SOL    HW129618   6.435   0.319   4.525
 9573SOL    HW229619   6.415   0.184   4.436
 9574SOL     OW29620   3.901   3.272   0.964
 9574SOL    HW129621   3.964   3.340   1.002
 9574SOL    HW229622   3.807   3.306   0.970
 9575SOL     OW29623   5.346   6.145   1.822
 9575SOL    HW129624   5.267   6.174   1.768
 9575SOL    HW229625   5.365   6.214   1.893
 9576SOL     OW29626   0.956   0.469   6.407
 9576SOL    HW129627   1.025   0.540   6.424
 9576SOL    HW229628   0.996   0.379   6.424
 9577SOL     OW29629   6.311   5.272   2.615
 9577SOL    HW129630   6.254   5.190   2.613
 9577SOL    HW229631   6.377   5.269   2.539
 9578SOL     OW29632   1.765   3.755   2.608
 9578SOL    HW129633   1.733   3.749   2.703
 9578SOL    HW229634   1.772   3.850   2.581
 9579SOL     OW29635   5.966   6.035   2.257
 9579SOL    HW129636   5.952   6.060   2.353
 9579SOL    HW229637   6.051   5.982   2.248
 9580SOL     OW29638   5.090   4.086   3.515
 9580SOL    HW129639   5.186   4.069   3.494
 9580SOL    HW229640   5.036   4.079   3.431
 9581SOL     OW29641   5.833   1.274   0.036
 9581SOL    HW129642   5.799   1.363   0.067
 9581SOL    HW229643   5.928   1.263   0.065
 9582SOL     OW29644   5.554   6.203   4.793
 9582SOL    HW129645   5.514   6.225   4.882
 9582SOL    HW229646   5.653   6.216   4.797
 9583SOL     OW29647   3.525   4.912   1.676
 9583SOL    HW129648   3.455   4.967   1.723
 9583SOL    HW229649   3.550   4.835   1.734
 9584SOL     OW29650   2.461   5.608   4.004
 9584SOL    HW129651   2.533   5.553   3.962
 9584SOL    HW229652   2.484   5.627   4.099
 9585SOL     OW29653   4.267   5.990   1.243
 9585SOL    HW129654   4.265   6.088   1.226
 9585SOL    HW229655   4.359   5.962   1.269
 9586SOL     OW29656   3.992   5.314   3.034
 9586SOL    HW129657   4.067   5.379   3.053
 9586SOL    HW229658   4.023   5.221   3.052
 9587SOL     OW29659   3.237   5.835   0.824
 9587SOL    HW129660   3.189   5.881   0.749
 9587SOL    HW229661   3.187   5.848   0.909
 9588SOL     OW29662   6.650   6.189   0.199
 9588SOL    HW129663   6.566   6.242   0.185
 9588SOL    HW229664   6.636   6.122   0.271
 9589SOL     OW29665   1.924   3.067   6.468
 9589SOL    HW129666   1.890   3.016   6.548
 9589SOL    HW229667   1.866   3.147   6.453
 9590SOL     OW29668   6.267   0.437   0.808
 9590SOL    HW129669   6.286   0.359   0.748
 9590SOL    HW229670   6.341   0.444   0.876
 9591SOL     OW29671   4.135   0.671   0.309
 9591SOL    HW129672   4.181   0.582   0.302
 9591SOL    HW229673   4.092   0.680   0.399
 9592SOL     OW29674   2.586   6.709   5.842
 9592SOL    HW129675   2.495   6.669   5.827
 9592SOL    HW229676   2.630   6.725   5.753
 9593SOL     OW29677   1.715   2.348   3.679
 9593SOL    HW129678   1.765   2.266   3.705
 9593SOL    HW229679   1.645   2.368   3.747
 9594SOL     OW29680   0.358   6.375   3.868
 9594SOL    HW129681   0.275   6.373   3.812
 9594SOL    HW229682   0.419   6.447   3.836
 9595SOL     OW29683   0.543   3.270   3.476
 9595SOL    HW129684   0.531   3.288   3.574
 9595SOL    HW229685   0.594   3.185   3.464
 9596SOL     OW29686   0.785   6.245   0.902
 9596SOL    HW129687   0.759   6.172   0.839
 9596SOL    HW229688   0.725   6.242   0.982
 9597SOL     OW29689   1.230   3.436   2.145
 9597SOL    HW129690   1.285   3.471   2.221
 9597SOL    HW229691   1.230   3.503   2.071
 9598SOL     OW29692   2.128   4.243   3.748
 9598SOL    HW129693   2.197   4.246   3.820
 9598SOL    HW229694   2.097   4.148   3.736
 9599SOL     OW29695   4.376   6.243   4.050
 9599SOL    HW129696   4.444   6.266   4.120
 9599SOL    HW229697   4.292   6.295   4.067
 9600SOL     OW29698   3.659   1.159   1.531
 9600SOL    HW129699   3.654   1.069   1.572
 9600SOL    HW229700   3.714   1.220   1.589
 9601SOL     OW29701   0.988   3.666   0.983
 9601SOL    HW129702   1.070   3.631   1.028
 9601SOL    HW229703   0.982   3.628   0.891
 9602SOL     OW29704   4.597   5.318   5.138
 9602SOL    HW129705   4.580   5.415   5.154
 9602SOL    HW229706   4.582   5.267   5.223
 9603SOL     OW29707   5.198   6.235   5.453
 9603SOL    HW129708   5.102   6.210   5.470
 9603SOL    HW229709   5.226   6.304   5.520
 9604SOL     OW29710   5.206   6.804   0.450
 9604SOL    HW129711   5.142   6.797   0.374
 9604SOL    HW229712   5.173   6.872   0.516
 9605SOL     OW29713   5.942   5.546   2.364
 9605SOL    HW129714   5.930   5.584   2.272
 9605SOL    HW229715   5.860   5.496   2.391
 9606SOL     OW29716   1.807   1.062   6.852
 9606SOL    HW129717   1.865   1.090   6.929
 9606SOL    HW229718   1.837   0.972   6.820
 9607SOL     OW29719   2.448   2.384   5.900
 9607SOL    HW129720   2.440   2.482   5.887
 9607SOL    HW229721   2.522   2.364   5.964
 9608SOL     OW29722   6.177   3.288   4.680
 9608SOL    HW129723   6.219   3.378   4.665
 9608SOL    HW229724   6.236   3.217   4.642
 9609SOL     OW29725   4.391   3.155   6.403
 9609SOL    HW129726   4.450   3.236   6.402
 9609SOL    HW229727   4.361   3.136   6.497
 9610SOL     OW29728   0.571   5.004   3.195
 9610SOL    HW129729   0.548   5.051   3.280
 9610SOL    HW229730   0.499   5.019   3.128
 9611SOL     OW29731   2.022   0.401   0.386
 9611SOL    HW129732   2.061   0.309   0.385
 9611SOL    HW229733   2.073   0.457   0.451
 9612SOL     OW29734   6.975   3.004   3.964
 9612SOL    HW129735   0.019   2.942   4.014
 9612SOL    HW229736   6.906   3.040   4.026
 9613SOL     OW29737   5.959   5.317   2.990
 9613SOL    HW129738   5.979   5.343   2.895
 9613SOL    HW229739   5.969   5.218   3.000
 9614SOL     OW29740   4.338   2.424   3.812
 9614SOL    HW129741   4.396   2.344   3.828
 9614SOL    HW229742   4.289   2.447   3.896
 9615SOL     OW29743   2.484   4.155   1.018
 9615SOL    HW129744   2.476   4.133   1.116
 9615SOL    HW229745   2.532   4.081   0.971
 9616SOL     OW29746   4.148   3.587   6.936
 9616SOL    HW129747   4.167   3.627   6.846
 9616SOL    HW229748   4.055   3.608   6.963
 9617SOL     OW29749   1.489   2.543   3.189
 9617SOL    HW129750   1.534   2.503   3.269
 9617SOL    HW229751   1.502   2.483   3.110
 9618SOL     OW29752   2.294   1.485   1.232
 9618SOL    HW129753   2.319   1.567   1.181
 9618SOL    HW229754   2.195   1.473   1.230
 9619SOL     OW29755   3.177   0.963   5.785
 9619SOL    HW129756   3.091   0.914   5.800
 9619SOL    HW229757   3.157   1.053   5.745
 9620SOL     OW29758   5.992   1.158   5.186
 9620SOL    HW129759   6.018   1.073   5.233
 9620SOL    HW229760   6.003   1.235   5.248
 9621SOL     OW29761   1.893   3.056   3.486
 9621SOL    HW129762   1.988   3.085   3.477
 9621SOL    HW229763   1.843   3.123   3.541
 9622SOL     OW29764   5.737   0.067   1.103
 9622SOL    HW129765   5.835   0.053   1.095
 9622SOL    HW229766   5.688   7.006   1.064
 9623SOL     OW29767   2.585   3.198   6.414
 9623SOL    HW129768   2.541   3.262   6.351
 9623SOL    HW229769   2.684   3.199   6.399
 9624SOL     OW29770   6.429   3.142   4.003
 9624SOL    HW129771   6.519   3.119   4.040
 9624SOL    HW229772   6.439   3.176   3.910
 9625SOL     OW29773   5.849   5.818   1.004
 9625SOL    HW129774   5.839   5.719   1.011
 9625SOL    HW229775   5.931   5.840   0.952
 9626SOL     OW29776   3.490   6.458   0.003
 9626SOL    HW129777   3.418   6.528   7.017
 9626SOL    HW229778   3.454   6.371   6.989
 9627SOL     OW29779   1.189   6.363   6.656
 9627SOL    HW129780   1.091   6.343   6.657
 9627SOL    HW229781   1.216   6.398   6.745
 9628SOL     OW29782   3.399   6.833   2.051
 9628SOL    HW129783   3.475   6.809   2.112
 9628SOL    HW229784   3.370   6.752   2.000
 9629SOL     OW29785   2.139   6.897   1.018
 9629SOL    HW129786   2.141   6.798   1.027
 9629SOL    HW229787   2.044   6.929   1.025
 9630SOL     OW29788   0.019   1.270   6.227
 9630SOL    HW129789   6.968   1.326   6.274
 9630SOL    HW229790   0.040   1.311   6.138
 9631SOL     OW29791   5.897   6.197   0.281
 9631SOL    HW129792   5.809   6.167   0.244
 9631SOL    HW229793   5.957   6.226   0.206
 9632SOL     OW29794   1.068   5.762   1.628
 9632SOL    HW129795   1.158   5.719   1.637
 9632SOL    HW229796   1.024   5.768   1.718
 9633SOL     OW29797   6.748   5.024   6.131
 9633SOL    HW129798   6.723   4.962   6.205
 9633SOL    HW229799   6.803   4.975   6.063
 9634SOL     OW29800   1.578   6.187   5.453
 9634SOL    HW129801   1.548   6.098   5.418
 9634SOL    HW229802   1.505   6.254   5.440
 9635SOL     OW29803   1.147   5.659   5.548
 9635SOL    HW129804   1.116   5.625   5.459
 9635SOL    HW229805   1.243   5.687   5.541
 9636SOL     OW29806   4.079   1.499   6.680
 9636SOL    HW129807   4.032   1.572   6.729
 9636SOL    HW229808   4.068   1.413   6.730
 9637SOL     OW29809   2.119   1.264   0.206
 9637SOL    HW129810   2.104   1.242   0.109
 9637SOL    HW229811   2.087   1.356   0.225
 9638SOL     OW29812   6.761   2.006   6.488
 9638SOL    HW129813   6.662   2.002   6.473
 9638SOL    HW229814   6.802   2.071   6.425
 9639SOL     OW29815   4.066   0.777   2.746
 9639SOL    HW129816   4.091   0.697   2.692
 9639SOL    HW229817   4.003   0.834   2.694
 9640SOL     OW29818   1.732   2.388   2.346
 9640SOL    HW129819   1.798   2.386   2.271
 9640SOL    HW229820   1.697   2.295   2.361
 9641SOL     OW29821   5.612   5.530   0.074
 9641SOL    HW129822   5.628   5.448   0.128
 9641SOL    HW229823   5.663   5.525   7.006
 9642SOL     OW29824   3.520   0.373   3.833
 9642SOL    HW129825   3.604   0.329   3.865
 9642SOL    HW229826   3.511   0.463   3.874
 9643SOL     OW29827   3.483   4.956   3.029
 9643SOL    HW129828   3.417   4.950   2.955
 9643SOL    HW229829   3.574   4.975   2.992
 9644SOL     OW29830   2.696   2.389   0.078
 9644SOL    HW129831   2.723   2.408   7.001
 9644SOL    HW229832   2.611   2.335   0.078
 9645SOL     OW29833   3.532   5.048   5.442
 9645SOL    HW129834   3.432   5.039   5.447
 9645SOL    HW229835   3.567   5.072   5.533
 9646SOL     OW29836   4.270   5.040   3.639
 9646SOL    HW129837   4.316   5.116   3.685
 9646SOL    HW229838   4.304   5.031   3.546
 9647SOL     OW29839   6.528   3.054   6.565
 9647SOL    HW129840   6.538   3.014   6.474
 9647SOL    HW229841   6.591   3.130   6.576
 9648SOL     OW29842   3.946   3.741   0.907
 9648SOL    HW129843   3.953   3.664   0.843
 9648SOL    HW229844   3.859   3.788   0.894
 9649SOL     OW29845   1.867   5.922   1.443
 9649SOL    HW129846   1.781   5.890   1.403
 9649SOL    HW229847   1.849   5.966   1.531
 9650SOL     OW29848   0.386   6.716   1.178
 9650SOL    HW129849   0.296   6.678   1.199
 9650SOL    HW229850   0.380   6.774   1.096
 9651SOL     OW29851   0.587   1.789   5.998
 9651SOL    HW129852   0.671   1.735   5.999
 9651SOL    HW229853   0.610   1.886   6.004
 9652SOL     OW29854   0.302   5.254   2.456
 9652SOL    HW129855   0.252   5.184   2.405
 9652SOL    HW229856   0.248   5.283   2.535
 9653SOL     OW29857   6.664   6.279   4.444
 9653SOL    HW129858   6.589   6.345   4.434
 9653SOL    HW229859   6.735   6.318   4.502
 9654SOL     OW29860   2.115   3.360   2.480
 9654SOL    HW129861   2.170   3.303   2.418
 9654SOL    HW229862   2.107   3.314   2.568
 9655SOL     OW29863   6.042   1.652   6.632
 9655SOL    HW129864   5.987   1.588   6.685
 9655SOL    HW229865   6.128   1.608   6.605
 9656SOL     OW29866   3.372   1.204   2.886
 9656SOL    HW129867   3.420   1.234   2.969
 9656SOL    HW229868   3.328   1.282   2.842
 9657SOL     OW29869   0.349   6.953   5.179
 9657SOL    HW129870   0.332   6.953   5.081
 9657SOL    HW229871   0.263   6.967   5.228
 9658SOL     OW29872   5.325   2.345   3.437
 9658SOL    HW129873   5.397   2.277   3.436
 9658SOL    HW229874   5.253   2.319   3.373
 9659SOL     OW29875   1.246   4.888   0.066
 9659SOL    HW129876   1.302   4.807   0.083
 9659SOL    HW229877   1.235   4.900   6.984
 9660SOL     OW29878   0.675   5.268   0.686
 9660SOL    HW129879   0.576   5.281   0.682
 9660SOL    HW229880   0.714   5.324   0.760
 9661SOL     OW29881   4.185   6.903   1.047
 9661SOL    HW129882   4.199   6.832   0.978
 9661SOL    HW229883   4.095   6.945   1.034
 9662SOL     OW29884   4.883   0.738   4.627
 9662SOL    HW129885   4.917   0.724   4.534
 9662SOL    HW229886   4.786   0.764   4.623
 9663SOL     OW29887   2.267   6.354   2.847
 9663SOL    HW129888   2.333   6.415   2.803
 9663SOL    HW229889   2.255   6.380   2.942
 9664SOL     OW29890   2.028   5.820   1.819
 9664SOL    HW129891   2.072   5.904   1.852
 9664SOL    HW229892   2.093   5.745   1.821
 9665SOL     OW29893   5.408   4.173   3.959
 9665SOL    HW129894   5.333   4.143   4.018
 9665SOL    HW229895   5.396   4.132   3.868
 9666SOL     OW29896   5.099   4.602   4.813
 9666SOL    HW129897   5.179   4.626   4.759
 9666SOL    HW229898   5.048   4.530   4.766
 9667SOL     OW29899   3.319   3.352   3.533
 9667SOL    HW129900   3.382   3.377   3.460
 9667SOL    HW229901   3.251   3.288   3.498
 9668SOL     OW29902   0.659   1.217   5.149
 9668SOL    HW129903   0.648   1.294   5.085
 9668SOL    HW229904   0.754   1.212   5.179
 9669SOL     OW29905   1.596   6.110   0.162
 9669SOL    HW129906   1.684   6.063   0.164
 9669SOL    HW229907   1.554   6.099   0.072
 9670SOL     OW29908   5.724   4.592   6.280
 9670SOL    HW129909   5.758   4.630   6.193
 9670SOL    HW229910   5.768   4.639   6.356
 9671SOL     OW29911   0.207   0.309   0.317
 9671SOL    HW129912   0.305   0.321   0.333
 9671SOL    HW229913   0.158   0.321   0.403
 9672SOL     OW29914   1.650   6.350   5.253
 9672SOL    HW129915   1.633   6.306   5.164
 9672SOL    HW229916   1.645   6.281   5.325
 9673SOL     OW29917   2.425   2.668   5.845
 9673SOL    HW129918   2.494   2.733   5.815
 9673SOL    HW229919   2.378   2.704   5.925
 9674SOL     OW29920   2.762   6.751   2.127
 9674SOL    HW129921   2.737   6.831   2.182
 9674SOL    HW229922   2.679   6.702   2.100
 9675SOL     OW29923   0.524   2.335   2.244
 9675SOL    HW129924   0.469   2.253   2.254
 9675SOL    HW229925   0.580   2.347   2.326
 9676SOL     OW29926   0.172   3.061   4.918
 9676SOL    HW129927   0.258   3.015   4.939
 9676SOL    HW229928   0.175   3.097   4.824
 9677SOL     OW29929   1.780   3.573   5.267
 9677SOL    HW129930   1.748   3.528   5.183
 9677SOL    HW229931   1.828   3.507   5.324
 9678SOL     OW29932   3.543   3.236   3.032
 9678SOL    HW129933   3.495   3.149   3.042
 9678SOL    HW229934   3.483   3.312   3.057
 9679SOL     OW29935   0.492   3.720   1.143
 9679SOL    HW129936   0.403   3.678   1.131
 9679SOL    HW229937   0.558   3.677   1.080
 9680SOL     OW29938   5.163   4.571   3.438
 9680SOL    HW129939   5.195   4.644   3.500
 9680SOL    HW229940   5.064   4.578   3.427
 9681SOL     OW29941   0.719   0.756   4.358
 9681SOL    HW129942   0.793   0.823   4.357
 9681SOL    HW229943   0.632   0.803   4.343
 9682SOL     OW29944   0.262   5.248   2.902
 9682SOL    HW129945   0.350   5.205   2.922
 9682SOL    HW229946   0.188   5.184   2.921
 9683SOL     OW29947   4.966   6.827   6.416
 9683SOL    HW129948   5.041   6.893   6.422
 9683SOL    HW229949   4.980   6.755   6.484
 9684SOL     OW29950   0.974   4.449   3.639
 9684SOL    HW129951   1.027   4.400   3.708
 9684SOL    HW229952   1.021   4.535   3.616
 9685SOL     OW29953   1.736   2.500   0.014
 9685SOL    HW129954   1.815   2.451   6.995
 9685SOL    HW229955   1.669   2.434   0.050
 9686SOL     OW29956   5.474   1.547   1.183
 9686SOL    HW129957   5.399   1.582   1.240
 9686SOL    HW229958   5.543   1.505   1.242
 9687SOL     OW29959   3.740   1.422   4.311
 9687SOL    HW129960   3.812   1.473   4.265
 9687SOL    HW229961   3.687   1.484   4.369
 9688SOL     OW29962   6.462   2.134   3.806
 9688SOL    HW129963   6.533   2.085   3.757
 9688SOL    HW229964   6.470   2.232   3.788
 9689SOL     OW29965   1.773   5.896   6.050
 9689SOL    HW129966   1.696   5.890   6.113
 9689SOL    HW229967   1.798   5.992   6.037
 9690SOL     OW29968   6.027   3.864   0.572
 9690SOL    HW129969   5.983   3.774   0.578
 9690SOL    HW229970   6.036   3.903   0.664
 9691SOL     OW29971   1.500   4.284   1.083
 9691SOL    HW129972   1.561   4.354   1.121
 9691SOL    HW229973   1.523   4.270   0.987
 9692SOL     OW29974   2.362   5.594   1.040
 9692SOL    HW129975   2.398   5.639   0.958
 9692SOL    HW229976   2.295   5.653   1.084
 9693SOL     OW29977   6.317   5.335   1.485
 9693SOL    HW129978   6.396   5.396   1.482
 9693SOL    HW229979   6.243   5.372   1.429
 9694SOL     OW29980   1.485   2.209   0.565
 9694SOL    HW129981   1.533   2.198   0.652
 9694SOL    HW229982   1.401   2.155   0.566
 9695SOL     OW29983   6.854   4.337   0.785
 9695SOL    HW129984   6.827   4.414   0.726
 9695SOL    HW229985   6.773   4.298   0.829
 9696SOL     OW29986   3.211   4.258   0.698
 9696SOL    HW129987   3.199   4.355   0.680
 9696SOL    HW229988   3.306   4.232   0.681
 9697SOL     OW29989   0.693   5.990   6.019
 9697SOL    HW129990   0.765   5.939   5.971
 9697SOL    HW229991   0.605   5.946   6.003
 9698SOL     OW29992   5.016   1.257   5.658
 9698SOL    HW129993   5.045   1.331   5.597
 9698SOL    HW229994   5.094   1.225   5.711
 9699SOL     OW29995   1.993   3.084   0.060
 9699SOL    HW129996   2.035   3.166   0.099
 9699SOL    HW229997   2.008   3.083   6.978
 9700SOL     OW29998   3.561   4.125   3.599
 9700SOL    HW129999   3.462   4.118   3.613
 9700SOL    HW230000   3.579   4.159   3.507
 9701SOL     OW30001   4.728   4.291   4.909
 9701SOL    HW130002   4.665   4.369   4.908
 9701SOL    HW230003   4.701   4.227   4.980
 9702SOL     OW30004   4.860   0.219   0.430
 9702SOL    HW130005   4.776   0.234   0.379
 9702SOL    HW230006   4.883   0.302   0.482
 9703SOL     OW30007   3.114   5.883   4.148
 9703SOL    HW130008   3.177   5.960   4.136
 9703SOL    HW230009   3.058   5.898   4.229
 9704SOL     OW30010   2.622   1.229   3.771
 9704SOL    HW130011   2.683   1.226   3.692
 9704SOL    HW230012   2.543   1.286   3.750
 9705SOL     OW30013   3.902   4.027   0.779
 9705SOL    HW130014   3.871   4.122   0.775
 9705SOL    HW230015   3.830   3.970   0.820
 9706SOL     OW30016   6.349   2.569   3.503
 9706SOL    HW130017   6.408   2.576   3.584
 9706SOL    HW230018   6.388   2.625   3.429
 9707SOL     OW30019   2.461   5.592   2.780
 9707SOL    HW130020   2.523   5.606   2.857
 9707SOL    HW230021   2.389   5.661   2.781
 9708SOL     OW30022   1.595   2.181   2.435
 9708SOL    HW130023   1.525   2.249   2.456
 9708SOL    HW230024   1.565   2.125   2.357
 9709SOL     OW30025   1.724   5.343   2.687
 9709SOL    HW130026   1.792   5.282   2.726
 9709SOL    HW230027   1.647   5.352   2.749
 9710SOL     OW30028   0.559   0.470   4.007
 9710SOL    HW130029   0.616   0.470   4.089
 9710SOL    HW230030   0.477   0.524   4.022
 9711SOL     OW30031   1.909   3.205   6.131
 9711SOL    HW130032   1.975   3.233   6.201
 9711SOL    HW230033   1.842   3.278   6.117
 9712SOL     OW30034   4.870   3.427   4.610
 9712SOL    HW130035   4.855   3.503   4.547
 9712SOL    HW230036   4.791   3.365   4.608
 9713SOL     OW30037   6.680   5.013   2.478
 9713SOL    HW130038   6.711   4.922   2.507
 9713SOL    HW230039   6.723   5.036   2.391
 9714SOL     OW30040   1.498   2.525   2.410
 9714SOL    HW130041   1.434   2.457   2.377
 9714SOL    HW230042   1.592   2.489   2.402
 9715SOL     OW30043   6.061   5.610   5.698
 9715SOL    HW130044   6.037   5.697   5.742
 9715SOL    HW230045   5.989   5.583   5.635
 9716SOL     OW30046   3.666   2.111   5.828
 9716SOL    HW130047   3.673   2.043   5.754
 9716SOL    HW230048   3.757   2.140   5.855
 9717SOL     OW30049   6.084   5.166   3.431
 9717SOL    HW130050   6.084   5.241   3.365
 9717SOL    HW230051   6.019   5.096   3.401
 9718SOL     OW30052   4.692   3.290   1.526
 9718SOL    HW130053   4.623   3.228   1.565
 9718SOL    HW230054   4.665   3.385   1.543
 9719SOL     OW30055   0.319   1.899   0.351
 9719SOL    HW130056   0.306   1.984   0.301
 9719SOL    HW230057   0.392   1.910   0.418
 9720SOL     OW30058   0.876   0.319   0.597
 9720SOL    HW130059   0.883   0.387   0.524
 9720SOL    HW230060   0.950   0.334   0.662
 9721SOL     OW30061   6.841   2.555   3.248
 9721SOL    HW130062   6.786   2.472   3.247
 9721SOL    HW230063   6.938   2.532   3.242
 9722SOL     OW30064   6.745   0.515   4.388
 9722SOL    HW130065   6.740   0.610   4.421
 9722SOL    HW230066   6.736   0.453   4.466
 9723SOL     OW30067   6.316   1.260   3.595
 9723SOL    HW130068   6.307   1.161   3.608
 9723SOL    HW230069   6.246   1.308   3.648
 9724SOL     OW30070   3.917   2.878   1.015
 9724SOL    HW130071   3.956   2.921   0.934
 9724SOL    HW230072   3.879   2.788   0.991
 9725SOL     OW30073   4.063   3.695   5.376
 9725SOL    HW130074   4.099   3.662   5.288
 9725SOL    HW230075   3.964   3.707   5.368
 9726SOL     OW30076   6.072   5.663   4.633
 9726SOL    HW130077   6.101   5.569   4.614
 9726SOL    HW230078   6.153   5.721   4.645
 9727SOL     OW30079   1.516   1.046   6.909
 9727SOL    HW130080   1.483   1.112   6.977
 9727SOL    HW230081   1.616   1.053   6.902
 9728SOL     OW30082   3.413   5.292   0.103
 9728SOL    HW130083   3.421   5.269   0.200
 9728SOL    HW230084   3.342   5.236   0.061
 9729SOL     OW30085   3.040   5.178   2.205
 9729SOL    HW130086   2.951   5.138   2.185
 9729SOL    HW230087   3.044   5.271   2.169
 9730SOL     OW30088   5.699   3.259   3.260
 9730SOL    HW130089   5.646   3.318   3.200
 9730SOL    HW230090   5.769   3.313   3.307
 9731SOL     OW30091   4.733   5.567   1.333
 9731SOL    HW130092   4.802   5.554   1.262
 9731SOL    HW230093   4.704   5.478   1.369
 9732SOL     OW30094   6.263   5.926   4.161
 9732SOL    HW130095   6.361   5.941   4.146
 9732SOL    HW230096   6.248   5.901   4.257
 9733SOL     OW30097   5.825   4.668   6.042
 9733SOL    HW130098   5.806   4.766   6.050
 9733SOL    HW230099   5.916   4.654   6.004
 9734SOL     OW30100   5.542   2.201   5.489
 9734SOL    HW130101   5.447   2.171   5.496
 9734SOL    HW230102   5.558   2.240   5.398
 9735SOL     OW30103   3.174   4.505   0.586
 9735SOL    HW130104   3.076   4.509   0.568
 9735SOL    HW230105   3.223   4.495   0.500
 9736SOL     OW30106   3.459   1.750   1.758
 9736SOL    HW130107   3.513   1.672   1.790
 9736SOL    HW230108   3.494   1.834   1.801
 9737SOL     OW30109   4.105   2.242   4.821
 9737SOL    HW130110   4.120   2.305   4.897
 9737SOL    HW230111   4.062   2.158   4.855
 9738SOL     OW30112   2.592   0.912   2.227
 9738SOL    HW130113   2.666   0.858   2.187
 9738SOL    HW230114   2.552   0.971   2.157
 9739SOL     OW30115   5.714   4.626   1.688
 9739SOL    HW130116   5.738   4.547   1.744
 9739SOL    HW230117   5.615   4.628   1.674
 9740SOL     OW30118   6.479   3.716   3.200
 9740SOL    HW130119   6.566   3.766   3.197
 9740SOL    HW230120   6.432   3.725   3.112
 9741SOL     OW30121   4.105   1.789   2.065
 9741SOL    HW130122   4.010   1.769   2.088
 9741SOL    HW230123   4.148   1.838   2.142
 9742SOL     OW30124   4.535   1.812   3.652
 9742SOL    HW130125   4.561   1.741   3.718
 9742SOL    HW230126   4.435   1.821   3.650
 9743SOL     OW30127   1.489   1.771   5.509
 9743SOL    HW130128   1.516   1.863   5.539
 9743SOL    HW230129   1.517   1.757   5.414
 9744SOL     OW30130   2.396   0.526   1.524
 9744SOL    HW130131   2.477   0.496   1.574
 9744SOL    HW230132   2.340   0.446   1.501
 9745SOL     OW30133   0.716   1.138   4.732
 9745SOL    HW130134   0.621   1.112   4.749
 9745SOL    HW230135   0.777   1.068   4.768
 9746SOL     OW30136   6.284   0.929   4.113
 9746SOL    HW130137   6.186   0.914   4.100
 9746SOL    HW230138   6.299   1.023   4.143
 9747SOL     OW30139   0.099   0.202   6.327
 9747SOL    HW130140   0.165   0.128   6.336
 9747SOL    HW230141   0.142   0.281   6.284
 9748SOL     OW30142   0.562   5.022   4.284
 9748SOL    HW130143   0.566   4.971   4.371
 9748SOL    HW230144   0.638   5.087   4.281
 9749SOL     OW30145   0.138   4.618   4.459
 9749SOL    HW130146   0.158   4.623   4.361
 9749SOL    HW230147   0.134   4.710   4.497
 9750SOL     OW30148   3.219   5.623   2.927
 9750SOL    HW130149   3.162   5.571   2.990
 9750SOL    HW230150   3.206   5.588   2.834
 9751SOL     OW30151   1.765   2.847   0.992
 9751SOL    HW130152   1.778   2.764   0.939
 9751SOL    HW230153   1.724   2.918   0.935
 9752SOL     OW30154   3.833   1.420   6.127
 9752SOL    HW130155   3.795   1.344   6.073
 9752SOL    HW230156   3.925   1.396   6.157
 9753SOL     OW30157   6.878   6.750   6.215
 9753SOL    HW130158   6.917   6.669   6.259
 9753SOL    HW230159   6.941   6.828   6.226
 9754SOL     OW30160   6.986   3.050   6.323
 9754SOL    HW130161   0.054   3.029   6.371
 9754SOL    HW230162   6.909   3.016   6.377
 9755SOL     OW30163   3.710   5.303   5.898
 9755SOL    HW130164   3.685   5.227   5.838
 9755SOL    HW230165   3.801   5.336   5.875
 9756SOL     OW30166   5.066   2.381   5.586
 9756SOL    HW130167   5.054   2.476   5.613
 9756SOL    HW230168   4.978   2.343   5.557
 9757SOL     OW30169   6.261   0.987   3.584
 9757SOL    HW130170   6.178   0.989   3.639
 9757SOL    HW230171   6.237   0.965   3.489
 9758SOL     OW30172   3.254   0.537   0.119
 9758SOL    HW130173   3.159   0.505   0.119
 9758SOL    HW230174   3.280   0.559   0.213
 9759SOL     OW30175   3.198   6.061   1.102
 9759SOL    HW130176   3.142   6.131   1.146
 9759SOL    HW230177   3.146   5.976   1.096
 9760SOL     OW30178   5.896   4.169   5.954
 9760SOL    HW130179   5.826   4.134   5.891
 9760SOL    HW230180   5.862   4.252   5.998
 9761SOL     OW30181   5.370   5.265   2.955
 9761SOL    HW130182   5.463   5.237   2.975
 9761SOL    HW230183   5.318   5.272   3.040
 9762SOL     OW30184   2.856   1.059   3.165
 9762SOL    HW130185   2.853   1.010   3.253
 9762SOL    HW230186   2.804   1.008   3.097
 9763SOL     OW30187   2.017   1.632   2.338
 9763SOL    HW130188   2.042   1.535   2.340
 9763SOL    HW230189   2.070   1.679   2.267
 9764SOL     OW30190   1.201   2.633   2.230
 9764SOL    HW130191   1.297   2.621   2.206
 9764SOL    HW230192   1.177   2.573   2.306
 9765SOL     OW30193   0.409   1.218   5.279
 9765SOL    HW130194   0.445   1.269   5.357
 9765SOL    HW230195   0.484   1.182   5.224
 9766SOL     OW30196   2.179   0.795   3.004
 9766SOL    HW130197   2.128   0.792   3.090
 9766SOL    HW230198   2.264   0.744   3.015
 9767SOL     OW30199   5.102   0.264   5.366
 9767SOL    HW130200   5.109   0.339   5.431
 9767SOL    HW230201   5.186   0.259   5.312
 9768SOL     OW30202   5.099   2.655   4.269
 9768SOL    HW130203   5.052   2.614   4.191
 9768SOL    HW230204   5.117   2.752   4.249
 9769SOL     OW30205   0.356   1.653   1.687
 9769SOL    HW130206   0.435   1.712   1.697
 9769SOL    HW230207   0.382   1.569   1.639
 9770SOL     OW30208   0.128   3.054   5.569
 9770SOL    HW130209   0.085   3.104   5.645
 9770SOL    HW230210   0.115   2.956   5.582
 9771SOL     OW30211   2.559   5.477   3.756
 9771SOL    HW130212   2.546   5.381   3.780
 9771SOL    HW230213   2.474   5.513   3.717
 9772SOL     OW30214   5.789   6.715   1.223
 9772SOL    HW130215   5.807   6.780   1.296
 9772SOL    HW230216   5.773   6.763   1.137
 9773SOL     OW30217   5.040   4.882   3.867
 9773SOL    HW130218   4.980   4.805   3.887
 9773SOL    HW230219   4.985   4.964   3.850
 9774SOL     OW30220   0.082   4.979   4.288
 9774SOL    HW130221   0.177   4.961   4.263
 9774SOL    HW230222   0.052   4.912   4.356
 9775SOL     OW30223   2.514   2.418   4.846
 9775SOL    HW130224   2.479   2.508   4.872
 9775SOL    HW230225   2.444   2.349   4.860
 9776SOL     OW30226   0.167   4.656   4.207
 9776SOL    HW130227   0.228   4.735   4.214
 9776SOL    HW230228   0.100   4.673   4.134
 9777SOL     OW30229   5.594   5.199   6.313
 9777SOL    HW130230   5.594   5.204   6.213
 9777SOL    HW230231   5.512   5.243   6.348
 9778SOL     OW30232   3.647   0.627   4.334
 9778SOL    HW130233   3.697   0.712   4.350
 9778SOL    HW230234   3.558   0.632   4.381
 9779SOL     OW30235   3.154   2.073   6.622
 9779SOL    HW130236   3.173   2.111   6.712
 9779SOL    HW230237   3.234   2.085   6.563
 9780SOL     OW30238   2.959   4.228   0.371
 9780SOL    HW130239   2.885   4.167   0.398
 9780SOL    HW230240   3.022   4.180   0.310
 9781SOL     OW30241   2.003   6.356   4.325
 9781SOL    HW130242   1.970   6.264   4.346
 9781SOL    HW230243   1.936   6.402   4.267
 9782SOL     OW30244   5.879   0.586   0.540
 9782SOL    HW130245   5.870   0.632   0.451
 9782SOL    HW230246   5.951   0.516   0.534
 9783SOL     OW30247   5.731   0.412   3.336
 9783SOL    HW130248   5.755   0.318   3.312
 9783SOL    HW230249   5.753   0.428   3.432
 9784SOL     OW30250   5.598   0.692   4.402
 9784SOL    HW130251   5.607   0.610   4.458
 9784SOL    HW230252   5.506   0.696   4.364
 9785SOL     OW30253   0.675   2.816   0.828
 9785SOL    HW130254   0.667   2.891   0.893
 9785SOL    HW230255   0.601   2.822   0.761
 9786SOL     OW30256   2.750   6.862   4.560
 9786SOL    HW130257   2.785   6.896   4.473
 9786SOL    HW230258   2.803   6.901   4.635
 9787SOL     OW30259   6.204   4.061   1.326
 9787SOL    HW130260   6.140   4.100   1.393
 9787SOL    HW230261   6.275   4.010   1.374
 9788SOL     OW30262   6.832   0.847   5.153
 9788SOL    HW130263   6.924   0.827   5.188
 9788SOL    HW230264   6.819   0.946   5.149
 9789SOL     OW30265   1.720   5.253   4.534
 9789SOL    HW130266   1.814   5.227   4.559
 9789SOL    HW230267   1.716   5.352   4.520
 9790SOL     OW30268   6.777   1.292   3.662
 9790SOL    HW130269   6.693   1.288   3.609
 9790SOL    HW230270   6.792   1.386   3.695
 9791SOL     OW30271   1.190   2.362   1.248
 9791SOL    HW130272   1.207   2.264   1.258
 9791SOL    HW230273   1.156   2.381   1.155
 9792SOL     OW30274   3.273   5.869   2.250
 9792SOL    HW130275   3.295   5.789   2.305
 9792SOL    HW230276   3.177   5.864   2.220
 9793SOL     OW30277   5.488   6.145   2.169
 9793SOL    HW130278   5.443   6.219   2.121
 9793SOL    HW230279   5.533   6.085   2.103
 9794SOL     OW30280   3.143   3.526   6.683
 9794SOL    HW130281   3.198   3.446   6.705
 9794SOL    HW230282   3.065   3.499   6.628
 9795SOL     OW30283   2.327   5.206   3.656
 9795SOL    HW130284   2.259   5.147   3.612
 9795SOL    HW230285   2.331   5.294   3.609
 9796SOL     OW30286   3.737   4.950   0.555
 9796SOL    HW130287   3.702   4.871   0.504
 9796SOL    HW230288   3.797   4.919   0.628
 9797SOL     OW30289   5.393   3.013   4.786
 9797SOL    HW130290   5.411   2.968   4.873
 9797SOL    HW230291   5.373   3.110   4.802
 9798SOL     OW30292   2.551   1.785   1.578
 9798SOL    HW130293   2.610   1.865   1.587
 9798SOL    HW230294   2.584   1.712   1.638
 9799SOL     OW30295   3.306   4.090   2.405
 9799SOL    HW130296   3.258   4.167   2.363
 9799SOL    HW230297   3.274   4.005   2.364
 9800SOL     OW30298   4.163   5.129   0.316
 9800SOL    HW130299   4.260   5.153   0.320
 9800SOL    HW230300   4.111   5.190   0.377
 9801SOL     OW30301   4.708   5.790   0.820
 9801SOL    HW130302   4.666   5.864   0.872
 9801SOL    HW230303   4.701   5.811   0.722
 9802SOL     OW30304   0.437   5.174   1.727
 9802SOL    HW130305   0.356   5.147   1.778
 9802SOL    HW230306   0.414   5.250   1.665
 9803SOL     OW30307   4.844   0.118   6.350
 9803SOL    HW130308   4.872   0.031   6.391
 9803SOL    HW230309   4.753   0.109   6.312
 9804SOL     OW30310   5.446   5.548   4.089
 9804SOL    HW130311   5.392   5.483   4.142
 9804SOL    HW230312   5.449   5.519   3.994
 9805SOL     OW30313   3.645   4.098   0.883
 9805SOL    HW130314   3.633   3.999   0.873
 9805SOL    HW230315   3.641   4.123   0.979
 9806SOL     OW30316   6.776   1.639   2.745
 9806SOL    HW130317   6.687   1.683   2.757
 9806SOL    HW230318   6.770   1.544   2.776
 9807SOL     OW30319   2.350   3.260   0.787
 9807SOL    HW130320   2.380   3.175   0.832
 9807SOL    HW230321   2.418   3.332   0.803
 9808SOL     OW30322   1.868   1.811   4.475
 9808SOL    HW130323   1.856   1.910   4.478
 9808SOL    HW230324   1.929   1.782   4.548
 9809SOL     OW30325   0.771   0.700   4.093
 9809SOL    HW130326   0.869   0.702   4.112
 9809SOL    HW230327   0.720   0.682   4.178
 9810SOL     OW30328   4.418   1.750   2.430
 9810SOL    HW130329   4.351   1.796   2.372
 9810SOL    HW230330   4.391   1.759   2.526
 9811SOL     OW30331   1.315   6.960   2.789
 9811SOL    HW130332   1.334   0.033   2.752
 9811SOL    HW230333   1.389   6.933   2.851
 9812SOL     OW30334   5.727   2.896   5.600
 9812SOL    HW130335   5.643   2.904   5.654
 9812SOL    HW230336   5.724   2.961   5.524
 9813SOL     OW30337   6.490   4.107   0.391
 9813SOL    HW130338   6.473   4.113   0.489
 9813SOL    HW230339   6.403   4.096   0.343
 9814SOL     OW30340   6.740   0.796   5.413
 9814SOL    HW130341   6.665   0.859   5.435
 9814SOL    HW230342   6.760   0.800   5.315
 9815SOL     OW30343   6.793   3.788   2.876
 9815SOL    HW130344   6.849   3.868   2.855
 9815SOL    HW230345   6.799   3.768   2.974
 9816SOL     OW30346   6.129   0.945   5.278
 9816SOL    HW130347   6.194   0.909   5.345
 9816SOL    HW230348   6.102   0.873   5.215
 9817SOL     OW30349   2.514   1.164   0.676
 9817SOL    HW130350   2.573   1.118   0.610
 9817SOL    HW230351   2.567   1.190   0.757
 9818SOL     OW30352   0.425   6.872   2.333
 9818SOL    HW130353   0.434   6.908   2.240
 9818SOL    HW230354   0.474   6.785   2.340
 9819SOL     OW30355   6.486   2.383   4.447
 9819SOL    HW130356   6.466   2.292   4.410
 9819SOL    HW230357   6.542   2.434   4.381
 9820SOL     OW30358   4.072   1.342   6.199
 9820SOL    HW130359   4.117   1.267   6.150
 9820SOL    HW230360   4.065   1.319   6.296
 9821SOL     OW30361   4.397   3.315   0.250
 9821SOL    HW130362   4.429   3.372   0.175
 9821SOL    HW230363   4.317   3.263   0.221
 9822SOL     OW30364   3.555   5.072   4.033
 9822SOL    HW130365   3.475   5.012   4.041
 9822SOL    HW230366   3.572   5.094   3.937
 9823SOL     OW30367   4.102   6.627   3.400
 9823SOL    HW130368   4.121   6.539   3.358
 9823SOL    HW230369   4.126   6.624   3.497
 9824SOL     OW30370   1.573   5.472   5.299
 9824SOL    HW130371   1.478   5.442   5.290
 9824SOL    HW230372   1.602   5.465   5.394
 9825SOL     OW30373   0.387   6.104   4.913
 9825SOL    HW130374   0.327   6.024   4.901
 9825SOL    HW230375   0.480   6.072   4.931
 9826SOL     OW30376   2.022   5.653   6.374
 9826SOL    HW130377   2.018   5.736   6.429
 9826SOL    HW230378   1.964   5.664   6.293
 9827SOL     OW30379   1.927   4.647   1.983
 9827SOL    HW130380   1.924   4.548   1.997
 9827SOL    HW230381   1.942   4.692   2.071
 9828SOL     OW30382   4.559   1.988   4.898
 9828SOL    HW130383   4.540   2.011   4.803
 9828SOL    HW230384   4.534   2.065   4.957
 9829SOL     OW30385   5.336   4.371   5.690
 9829SOL    HW130386   5.421   4.409   5.726
 9829SOL    HW230387   5.271   4.356   5.765
 9830SOL     OW30388   5.844   1.639   3.468
 9830SOL    HW130389   5.853   1.738   3.459
 9830SOL    HW230390   5.856   1.613   3.564
 9831SOL     OW30391   0.317   4.636   2.275
 9831SOL    HW130392   0.373   4.663   2.353
 9831SOL    HW230393   0.221   4.638   2.300
 9832SOL     OW30394   4.883   5.766   4.763
 9832SOL    HW130395   4.920   5.854   4.793
 9832SOL    HW230396   4.958   5.703   4.742
 9833SOL     OW30397   3.826   3.521   5.107
 9833SOL    HW130398   3.872   3.450   5.162
 9833SOL    HW230399   3.814   3.603   5.162
 9834SOL     OW30400   3.503   5.961   5.710
 9834SOL    HW130401   3.550   6.046   5.731
 9834SOL    HW230402   3.407   5.967   5.740
 9835SOL     OW30403   3.905   3.264   3.997
 9835SOL    HW130404   3.890   3.354   3.956
 9835SOL    HW230405   3.938   3.274   4.090
 9836SOL     OW30406   6.630   3.252   5.517
 9836SOL    HW130407   6.536   3.262   5.484
 9836SOL    HW230408   6.669   3.342   5.535
 9837SOL     OW30409   6.190   0.921   3.337
 9837SOL    HW130410   6.290   0.921   3.327
 9837SOL    HW230411   6.151   0.991   3.277
 9838SOL     OW30412   0.095   5.680   0.492
 9838SOL    HW130413   0.056   5.589   0.478
 9838SOL    HW230414   0.142   5.682   0.581
 9839SOL     OW30415   4.390   6.118   3.250
 9839SOL    HW130416   4.355   6.126   3.156
 9839SOL    HW230417   4.316   6.137   3.314
 9840SOL     OW30418   6.765   1.673   6.804
 9840SOL    HW130419   6.759   1.680   6.705
 9840SOL    HW230420   6.770   1.577   6.831
 9841SOL     OW30421   0.188   5.916   2.234
 9841SOL    HW130422   0.207   5.893   2.138
 9841SOL    HW230423   0.263   5.971   2.270
 9842SOL     OW30424   3.649   0.706   0.316
 9842SOL    HW130425   3.730   0.766   0.321
 9842SOL    HW230426   3.676   0.618   0.278
 9843SOL     OW30427   6.977   0.559   0.989
 9843SOL    HW130428   6.962   0.471   0.944
 9843SOL    HW230429   0.008   0.620   0.926
 9844SOL     OW30430   5.034   0.215   4.923
 9844SOL    HW130431   5.111   0.152   4.936
 9844SOL    HW230432   5.031   0.280   4.999
 9845SOL     OW30433   1.045   4.072   2.408
 9845SOL    HW130434   1.030   4.061   2.506
 9845SOL    HW230435   1.127   4.023   2.380
 9846SOL     OW30436   5.263   1.985   2.592
 9846SOL    HW130437   5.269   2.025   2.684
 9846SOL    HW230438   5.313   2.042   2.527
 9847SOL     OW30439   3.987   4.435   6.782
 9847SOL    HW130440   3.893   4.469   6.776
 9847SOL    HW230441   3.987   4.344   6.824
 9848SOL     OW30442   2.829   4.640   5.580
 9848SOL    HW130443   2.914   4.595   5.555
 9848SOL    HW230444   2.794   4.692   5.502
 9849SOL     OW30445   2.092   2.654   3.527
 9849SOL    HW130446   2.162   2.703   3.579
 9849SOL    HW230447   2.133   2.611   3.447
 9850SOL     OW30448   0.901   7.000   4.141
 9850SOL    HW130449   0.895   0.050   4.067
 9850SOL    HW230450   0.997   6.983   4.163
 9851SOL     OW30451   3.756   5.571   3.651
 9851SOL    HW130452   3.826   5.606   3.714
 9851SOL    HW230453   3.716   5.647   3.600
 9852SOL     OW30454   1.827   6.364   0.210
 9852SOL    HW130455   1.834   6.362   0.110
 9852SOL    HW230456   1.831   6.271   0.245
 9853SOL     OW30457   0.230   3.922   3.900
 9853SOL    HW130458   0.139   3.884   3.920
 9853SOL    HW230459   0.241   4.009   3.949
 9854SOL     OW30460   6.727   3.704   6.844
 9854SOL    HW130461   6.709   3.684   6.940
 9854SOL    HW230462   6.822   3.733   6.833
 9855SOL     OW30463   0.821   6.007   6.559
 9855SOL    HW130464   0.732   5.975   6.592
 9855SOL    HW230465   0.886   6.010   6.635
 9856SOL     OW30466   5.257   4.114   3.168
 9856SOL    HW130467   5.173   4.076   3.207
 9856SOL    HW230468   5.234   4.193   3.110
 9857SOL     OW30469   4.876   0.251   5.780
 9857SOL    HW130470   4.952   0.209   5.830
 9857SOL    HW230471   4.789   0.221   5.820
 9858SOL     OW30472   6.502   5.265   2.419
 9858SOL    HW130473   6.566   5.197   2.455
 9858SOL    HW230474   6.542   5.310   2.339
 9859SOL     OW30475   0.789   5.215   2.251
 9859SOL    HW130476   0.848   5.142   2.287
 9859SOL    HW230477   0.720   5.175   2.190
 9860SOL     OW30478   1.631   3.385   3.846
 9860SOL    HW130479   1.668   3.442   3.918
 9860SOL    HW230480   1.589   3.442   3.776
 9861SOL     OW30481   3.591   2.105   3.717
 9861SOL    HW130482   3.595   2.006   3.727
 9861SOL    HW230483   3.631   2.132   3.629
 9862SOL     OW30484   1.734   3.270   6.430
 9862SOL    HW130485   1.716   3.317   6.516
 9862SOL    HW230486   1.783   3.332   6.368
 9863SOL     OW30487   4.059   6.824   2.250
 9863SOL    HW130488   3.968   6.781   2.255
 9863SOL    HW230489   4.049   6.919   2.223
 9864SOL     OW30490   3.059   6.431   5.536
 9864SOL    HW130491   3.080   6.364   5.464
 9864SOL    HW230492   2.971   6.409   5.577
 9865SOL     OW30493   2.205   6.149   5.753
 9865SOL    HW130494   2.182   6.069   5.809
 9865SOL    HW230495   2.304   6.160   5.750
 9866SOL     OW30496   6.722   5.390   6.479
 9866SOL    HW130497   6.739   5.461   6.547
 9866SOL    HW230498   6.809   5.346   6.455
 9867SOL     OW30499   4.892   1.316   2.117
 9867SOL    HW130500   4.910   1.234   2.170
 9867SOL    HW230501   4.797   1.346   2.132
 9868SOL     OW30502   2.355   4.793   3.411
 9868SOL    HW130503   2.381   4.800   3.315
 9868SOL    HW230504   2.265   4.749   3.418
 9869SOL     OW30505   6.324   2.735   2.834
 9869SOL    HW130506   6.260   2.798   2.880
 9869SOL    HW230507   6.407   2.784   2.810
 9870SOL     OW30508   1.834   2.304   3.230
 9870SOL    HW130509   1.775   2.342   3.301
 9870SOL    HW230510   1.917   2.266   3.272
 9871SOL     OW30511   5.619   5.835   3.248
 9871SOL    HW130512   5.521   5.841   3.230
 9871SOL    HW230513   5.636   5.852   3.345
 9872SOL     OW30514   0.715   6.376   5.702
 9872SOL    HW130515   0.760   6.441   5.641
 9872SOL    HW230516   0.751   6.386   5.795
 9873SOL     OW30517   0.543   0.946   5.226
 9873SOL    HW130518   0.492   0.873   5.180
 9873SOL    HW230519   0.565   1.018   5.160
 9874SOL     OW30520   0.251   2.279   3.720
 9874SOL    HW130521   0.203   2.213   3.663
 9874SOL    HW230522   0.338   2.303   3.677
 9875SOL     OW30523   6.252   6.163   0.910
 9875SOL    HW130524   6.250   6.140   1.007
 9875SOL    HW230525   6.160   6.188   0.879
 9876SOL     OW30526   0.042   6.864   3.770
 9876SOL    HW130527   0.104   6.887   3.845
 9876SOL    HW230528   0.096   6.838   3.689
 9877SOL     OW30529   1.273   6.192   5.198
 9877SOL    HW130530   1.265   6.254   5.276
 9877SOL    HW230531   1.192   6.201   5.140
 9878SOL     OW30532   3.561   2.459   7.017
 9878SOL    HW130533   3.551   2.412   6.929
 9878SOL    HW230534   3.506   2.543   7.017
 9879SOL     OW30535   6.279   5.773   4.409
 9879SOL    HW130536   6.375   5.773   4.438
 9879SOL    HW230537   6.261   5.689   4.357
 9880SOL     OW30538   3.754   1.427   1.153
 9880SOL    HW130539   3.657   1.449   1.169
 9880SOL    HW230540   3.778   1.343   1.202
 9881SOL     OW30541   5.913   0.174   3.423
 9881SOL    HW130542   5.966   0.218   3.350
 9881SOL    HW230543   5.819   0.161   3.392
 9882SOL     OW30544   3.500   2.852   4.830
 9882SOL    HW130545   3.580   2.881   4.883
 9882SOL    HW230546   3.484   2.755   4.845
 9883SOL     OW30547   1.769   6.280   2.471
 9883SOL    HW130548   1.802   6.284   2.565
 9883SOL    HW230549   1.711   6.200   2.459
 9884SOL     OW30550   3.075   2.614   5.333
 9884SOL    HW130551   3.135   2.551   5.284
 9884SOL    HW230552   3.001   2.563   5.376
 9885SOL     OW30553   4.766   2.684   5.380
 9885SOL    HW130554   4.773   2.585   5.380
 9885SOL    HW230555   4.794   2.720   5.291
 9886SOL     OW30556   2.406   6.064   1.466
 9886SOL    HW130557   2.384   6.145   1.412
 9886SOL    HW230558   2.328   6.042   1.525
 9887SOL     OW30559   3.507   1.244   6.978
 9887SOL    HW130560   3.574   1.170   6.973
 9887SOL    HW230561   3.528   1.303   0.039
 9888SOL     OW30562   6.659   6.422   3.789
 9888SOL    HW130563   6.708   6.390   3.870
 9888SOL    HW230564   6.674   6.521   3.779
 9889SOL     OW30565   6.244   5.696   2.778
 9889SOL    HW130566   6.166   5.715   2.838
 9889SOL    HW230567   6.214   5.636   2.704
 9890SOL     OW30568   1.524   3.234   2.790
 9890SOL    HW130569   1.435   3.271   2.816
 9890SOL    HW230570   1.522   3.134   2.799
 9891SOL     OW30571   4.487   6.814   1.767
 9891SOL    HW130572   4.426   6.820   1.689
 9891SOL    HW230573   4.447   6.863   1.845
 9892SOL     OW30574   1.604   6.217   3.229
 9892SOL    HW130575   1.703   6.214   3.216
 9892SOL    HW230576   1.575   6.311   3.246
 9893SOL     OW30577   5.954   4.537   5.708
 9893SOL    HW130578   5.984   4.599   5.780
 9893SOL    HW230579   6.033   4.489   5.669
 9894SOL     OW30580   4.455   4.176   5.408
 9894SOL    HW130581   4.490   4.208   5.496
 9894SOL    HW230582   4.462   4.249   5.340
 9895SOL     OW30583   5.044   2.113   6.246
 9895SOL    HW130584   4.979   2.112   6.321
 9895SOL    HW230585   5.093   2.201   6.246
 9896SOL     OW30586   4.104   3.918   6.756
 9896SOL    HW130587   4.062   3.966   6.678
 9896SOL    HW230588   4.094   3.819   6.744
 9897SOL     OW30589   0.472   1.534   2.898
 9897SOL    HW130590   0.432   1.491   2.817
 9897SOL    HW230591   0.514   1.464   2.956
 9898SOL     OW30592   0.470   4.685   0.108
 9898SOL    HW130593   0.428   4.712   0.021
 9898SOL    HW230594   0.431   4.598   0.138
 9899SOL     OW30595   4.323   5.418   2.436
 9899SOL    HW130596   4.317   5.511   2.472
 9899SOL    HW230597   4.282   5.414   2.346
 9900SOL     OW30598   2.241   5.123   4.408
 9900SOL    HW130599   2.322   5.066   4.392
 9900SOL    HW230600   2.192   5.089   4.488
 9901SOL     OW30601   2.557   1.934   5.889
 9901SOL    HW130602   2.644   1.951   5.936
 9901SOL    HW230603   2.565   1.852   5.832
 9902SOL     OW30604   3.742   3.960   6.726
 9902SOL    HW130605   3.825   3.985   6.676
 9902SOL    HW230606   3.683   4.040   6.734
 9903SOL     OW30607   3.098   1.564   1.160
 9903SOL    HW130608   3.173   1.537   1.099
 9903SOL    HW230609   3.124   1.545   1.255
 9904SOL     OW30610   6.716   6.112   2.370
 9904SOL    HW130611   6.628   6.069   2.391
 9904SOL    HW230612   6.781   6.092   2.443
 9905SOL     OW30613   2.245   6.845   6.066
 9905SOL    HW130614   2.266   6.763   6.013
 9905SOL    HW230615   2.148   6.866   6.057
 9906SOL     OW30616   3.315   4.379   6.014
 9906SOL    HW130617   3.250   4.338   5.950
 9906SOL    HW230618   3.366   4.307   6.061
 9907SOL     OW30619   0.874   6.264   3.050
 9907SOL    HW130620   0.817   6.185   3.073
 9907SOL    HW230621   0.872   6.279   2.952
 9908SOL     OW30622   6.482   2.592   5.380
 9908SOL    HW130623   6.422   2.520   5.414
 9908SOL    HW230624   6.430   2.655   5.322
 9909SOL     OW30625   3.025   6.882   2.696
 9909SOL    HW130626   2.964   6.818   2.649
 9909SOL    HW230627   2.972   6.960   2.729
 9910SOL     OW30628   0.925   5.476   0.632
 9910SOL    HW130629   0.991   5.446   0.701
 9910SOL    HW230630   0.907   5.402   0.568
 9911SOL     OW30631   3.264   4.973   2.541
 9911SOL    HW130632   3.314   4.902   2.491
 9911SOL    HW230633   3.166   4.962   2.525
 9912SOL     OW30634   5.132   6.860   0.721
 9912SOL    HW130635   5.170   6.767   0.712
 9912SOL    HW230636   5.033   6.856   0.713
 9913SOL     OW30637   5.153   2.281   3.221
 9913SOL    HW130638   5.091   2.203   3.214
 9913SOL    HW230639   5.121   2.355   3.162
 9914SOL     OW30640   2.478   5.694   4.280
 9914SOL    HW130641   2.538   5.668   4.356
 9914SOL    HW230642   2.384   5.704   4.314
 9915SOL     OW30643   6.162   4.112   4.548
 9915SOL    HW130644   6.137   4.133   4.643
 9915SOL    HW230645   6.261   4.102   4.541
 9916SOL     OW30646   2.487   3.668   0.430
 9916SOL    HW130647   2.394   3.632   0.426
 9916SOL    HW230648   2.551   3.593   0.447
 9917SOL     OW30649   2.222   3.054   4.585
 9917SOL    HW130650   2.187   3.147   4.593
 9917SOL    HW230651   2.243   3.017   4.676
 9918SOL     OW30652   2.416   0.548   4.716
 9918SOL    HW130653   2.322   0.568   4.688
 9918SOL    HW230654   2.478   0.566   4.639
 9919SOL     OW30655   0.714   5.028   1.878
 9919SOL    HW130656   0.810   5.033   1.850
 9919SOL    HW230657   0.655   5.046   1.799
 9920SOL     OW30658   3.981   0.181   2.860
 9920SOL    HW130659   3.918   0.205   2.786
 9920SOL    HW230660   3.934   0.193   2.948
 9921SOL     OW30661   4.706   0.838   2.539
 9921SOL    HW130662   4.770   0.908   2.567
 9921SOL    HW230663   4.722   0.755   2.592
 9922SOL     OW30664   5.447   2.679   2.490
 9922SOL    HW130665   5.414   2.601   2.437
 9922SOL    HW230666   5.397   2.761   2.463
 9923SOL     OW30667   5.962   0.295   6.682
 9923SOL    HW130668   6.012   0.214   6.653
 9923SOL    HW230669   5.952   0.358   6.605
 9924SOL     OW30670   5.320   1.220   4.074
 9924SOL    HW130671   5.240   1.240   4.130
 9924SOL    HW230672   5.332   1.292   4.006
 9925SOL     OW30673   3.733   2.152   4.544
 9925SOL    HW130674   3.634   2.170   4.545
 9925SOL    HW230675   3.771   2.181   4.456
 9926SOL     OW30676   2.116   0.942   5.623
 9926SOL    HW130677   2.212   0.965   5.638
 9926SOL    HW230678   2.101   0.927   5.525
 9927SOL     OW30679   1.106   3.322   3.331
 9927SOL    HW130680   1.181   3.385   3.313
 9927SOL    HW230681   1.141   3.241   3.378
 9928SOL     OW30682   0.351   2.910   2.239
 9928SOL    HW130683   0.304   2.867   2.316
 9928SOL    HW230684   0.296   2.899   2.156
 9929SOL     OW30685   1.232   5.345   5.763
 9929SOL    HW130686   1.202   5.289   5.840
 9929SOL    HW230687   1.332   5.343   5.757
 9930SOL     OW30688   6.509   5.656   6.568
 9930SOL    HW130689   6.462   5.619   6.487
 9930SOL    HW230690   6.485   5.602   6.648
 9931SOL     OW30691   2.059   4.714   6.908
 9931SOL    HW130692   1.965   4.707   6.873
 9931SOL    HW230693   2.076   4.639   6.972
 9932SOL     OW30694   2.272   2.554   1.078
 9932SOL    HW130695   2.365   2.534   1.110
 9932SOL    HW230696   2.276   2.630   1.012
 9933SOL     OW30697   0.659   1.450   3.421
 9933SOL    HW130698   0.655   1.461   3.520
 9933SOL    HW230699   0.606   1.522   3.376
 9934SOL     OW30700   5.328   0.491   6.422
 9934SOL    HW130701   5.428   0.503   6.419
 9934SOL    HW230702   5.295   0.468   6.331
 9935SOL     OW30703   2.742   3.301   0.695
 9935SOL    HW130704   2.725   3.225   0.633
 9935SOL    HW230705   2.800   3.369   0.650
 9936SOL     OW30706   5.211   6.255   6.886
 9936SOL    HW130707   5.130   6.264   6.827
 9936SOL    HW230708   5.254   6.345   6.897
 9937SOL     OW30709   1.928   6.581   4.028
 9937SOL    HW130710   1.867   6.541   4.096
 9937SOL    HW230711   1.999   6.515   4.003
 9938SOL     OW30712   6.700   1.054   3.301
 9938SOL    HW130713   6.797   1.053   3.324
 9938SOL    HW230714   6.683   1.126   3.233
 9939SOL     OW30715   2.764   3.892   1.315
 9939SOL    HW130716   2.761   3.989   1.337
 9939SOL    HW230717   2.760   3.838   1.399
 9940SOL     OW30718   0.401   0.635   3.383
 9940SOL    HW130719   0.309   0.629   3.422
 9940SOL    HW230720   0.447   0.717   3.418
 9941SOL     OW30721   5.980   3.069   0.483
 9941SOL    HW130722   5.885   3.043   0.466
 9941SOL    HW230723   5.983   3.143   0.550
 9942SOL     OW30724   6.169   5.623   2.525
 9942SOL    HW130725   6.088   5.599   2.471
 9942SOL    HW230726   6.250   5.622   2.466
 9943SOL     OW30727   1.374   4.156   5.517
 9943SOL    HW130728   1.336   4.075   5.473
 9943SOL    HW230729   1.459   4.182   5.471
 9944SOL     OW30730   2.555   5.422   6.842
 9944SOL    HW130731   2.575   5.394   6.936
 9944SOL    HW230732   2.587   5.352   6.778
 9945SOL     OW30733   6.603   3.708   6.553
 9945SOL    HW130734   6.632   3.616   6.579
 9945SOL    HW230735   6.539   3.702   6.476
 9946SOL     OW30736   5.410   2.210   1.838
 9946SOL    HW130737   5.442   2.276   1.770
 9946SOL    HW230738   5.366   2.259   1.913
 9947SOL     OW30739   0.715   0.746   3.009
 9947SOL    HW130740   0.637   0.731   3.069
 9947SOL    HW230741   0.749   0.840   3.021
 9948SOL     OW30742   5.816   0.749   5.318
 9948SOL    HW130743   5.743   0.683   5.327
 9948SOL    HW230744   5.877   0.722   5.243
 9949SOL     OW30745   0.080   3.542   2.885
 9949SOL    HW130746   0.139   3.482   2.940
 9949SOL    HW230747   7.007   3.547   2.927
 9950SOL     OW30748   4.648   5.565   6.041
 9950SOL    HW130749   4.741   5.597   6.064
 9950SOL    HW230750   4.654   5.482   5.986
 9951SOL     OW30751   0.146   2.062   2.728
 9951SOL    HW130752   0.105   2.055   2.637
 9951SOL    HW230753   0.139   1.974   2.775
 9952SOL     OW30754   1.438   4.670   1.604
 9952SOL    HW130755   1.387   4.619   1.673
 9952SOL    HW230756   1.400   4.762   1.595
 9953SOL     OW30757   5.835   4.634   4.635
 9953SOL    HW130758   5.839   4.537   4.657
 9953SOL    HW230759   5.926   4.674   4.647
 9954SOL     OW30760   4.337   1.143   1.297
 9954SOL    HW130761   4.295   1.057   1.325
 9954SOL    HW230762   4.424   1.155   1.345
 9955SOL     OW30763   6.183   4.950   1.130
 9955SOL    HW130764   6.129   5.003   1.195
 9955SOL    HW230765   6.121   4.907   1.063
 9956SOL     OW30766   1.353   3.744   3.451
 9956SOL    HW130767   1.444   3.783   3.462
 9956SOL    HW230768   1.289   3.789   3.513
 9957SOL     OW30769   5.309   0.010   0.186
 9957SOL    HW130770   5.250   0.046   0.258
 9957SOL    HW230771   5.381   0.076   0.165
 9958SOL     OW30772   5.819   6.160   5.900
 9958SOL    HW130773   5.803   6.124   5.992
 9958SOL    HW230774   5.792   6.256   5.896
 9959SOL     OW30775   5.762   4.779   0.018
 9959SOL    HW130776   5.724   4.704   6.981
 9959SOL    HW230777   5.770   4.860   6.978
 9960SOL     OW30778   6.744   0.537   6.712
 9960SOL    HW130779   6.750   0.444   6.676
 9960SOL    HW230780   6.674   0.588   6.662
 9961SOL     OW30781   3.216   6.752   0.303
 9961SOL    HW130782   3.123   6.788   0.297
 9961SOL    HW230783   3.217   6.670   0.360
 9962SOL     OW30784   3.287   0.492   1.639
 9962SOL    HW130785   3.232   0.523   1.717
 9962SOL    HW230786   3.291   0.392   1.639
 9963SOL     OW30787   1.117   0.556   6.713
 9963SOL    HW130788   1.071   0.582   6.798
 9963SOL    HW230789   1.115   0.457   6.703
 9964SOL     OW30790   4.838   5.318   4.995
 9964SOL    HW130791   4.760   5.321   5.056
 9964SOL    HW230792   4.815   5.362   4.908
 9965SOL     OW30793   2.381   4.883   4.313
 9965SOL    HW130794   2.454   4.864   4.379
 9965SOL    HW230795   2.372   4.805   4.251
 9966SOL     OW30796   2.327   5.850   2.357
 9966SOL    HW130797   2.245   5.846   2.300
 9966SOL    HW230798   2.376   5.763   2.353
 9967SOL     OW30799   0.464   0.501   2.549
 9967SOL    HW130800   0.401   0.436   2.593
 9967SOL    HW230801   0.423   0.537   2.466
 9968SOL     OW30802   4.897   6.462   6.816
 9968SOL    HW130803   4.907   6.383   6.757
 9968SOL    HW230804   4.823   6.446   6.882
 9969SOL     OW30805   0.384   5.692   2.926
 9969SOL    HW130806   0.375   5.642   2.840
 9969SOL    HW230807   0.411   5.786   2.907
 9970SOL     OW30808   0.109   3.107   1.833
 9970SOL    HW130809   0.156   3.191   1.858
 9970SOL    HW230810   0.160   3.060   1.761
 9971SOL     OW30811   0.142   5.164   5.089
 9971SOL    HW130812   0.067   5.220   5.125
 9971SOL    HW230813   0.207   5.145   5.163
 9972SOL     OW30814   2.991   4.614   5.833
 9972SOL    HW130815   2.913   4.635   5.774
 9972SOL    HW230816   2.993   4.679   5.910
 9973SOL     OW30817   3.170   2.087   3.006
 9973SOL    HW130818   3.234   2.107   2.932
 9973SOL    HW230819   3.219   2.048   3.083
 9974SOL     OW30820   0.653   2.669   3.136
 9974SOL    HW130821   0.743   2.625   3.141
 9974SOL    HW230822   0.656   2.758   3.180
 9975SOL     OW30823   1.893   3.905   6.285
 9975SOL    HW130824   1.893   3.875   6.190
 9975SOL    HW230825   1.812   3.961   6.303
 9976SOL     OW30826   3.856   6.221   5.632
 9976SOL    HW130827   3.775   6.247   5.685
 9976SOL    HW230828   3.924   6.180   5.693
 9977SOL     OW30829   4.419   0.095   5.330
 9977SOL    HW130830   4.499   0.122   5.384
 9977SOL    HW230831   4.337   0.135   5.371
 9978SOL     OW30832   6.707   2.978   6.882
 9978SOL    HW130833   6.725   2.894   6.933
 9978SOL    HW230834   6.769   2.983   6.803
 9979SOL     OW30835   3.714   3.521   4.182
 9979SOL    HW130836   3.715   3.600   4.121
 9979SOL    HW230837   3.681   3.441   4.132
 9980SOL     OW30838   0.471   0.377   0.329
 9980SOL    HW130839   0.519   0.290   0.338
 9980SOL    HW230840   0.520   0.448   0.379
 9981SOL     OW30841   5.881   0.956   0.123
 9981SOL    HW130842   5.947   0.928   0.193
 9981SOL    HW230843   5.842   1.045   0.147
 9982SOL     OW30844   2.602   2.380   4.583
 9982SOL    HW130845   2.692   2.339   4.574
 9982SOL    HW230846   2.584   2.403   4.679
 9983SOL     OW30847   0.309   2.755   2.476
 9983SOL    HW130848   0.384   2.717   2.421
 9983SOL    HW230849   0.224   2.707   2.456
 9984SOL     OW30850   0.570   4.584   0.863
 9984SOL    HW130851   0.620   4.638   0.796
 9984SOL    HW230852   0.529   4.645   0.931
 9985SOL     OW30853   4.790   4.619   0.498
 9985SOL    HW130854   4.866   4.592   0.438
 9985SOL    HW230855   4.737   4.690   0.454
 9986SOL     OW30856   5.347   4.859   0.223
 9986SOL    HW130857   5.311   4.922   0.292
 9986SOL    HW230858   5.327   4.765   0.251
 9987SOL     OW30859   4.571   2.375   1.102
 9987SOL    HW130860   4.542   2.462   1.143
 9987SOL    HW230861   4.531   2.299   1.154
 9988SOL     OW30862   5.837   6.561   3.839
 9988SOL    HW130863   5.858   6.659   3.829
 9988SOL    HW230864   5.884   6.510   3.767
 9989SOL     OW30865   6.020   5.445   2.044
 9989SOL    HW130866   6.050   5.362   1.996
 9989SOL    HW230867   5.928   5.430   2.080
 9990SOL     OW30868   0.454   6.024   3.133
 9990SOL    HW130869   0.429   6.065   3.220
 9990SOL    HW230870   0.477   5.927   3.148
 9991SOL     OW30871   1.934   4.356   2.377
 9991SOL    HW130872   1.860   4.375   2.442
 9991SOL    HW230873   1.899   4.299   2.303
 9992SOL     OW30874   2.756   5.153   0.379
 9992SOL    HW130875   2.689   5.097   0.330
 9992SOL    HW230876   2.845   5.144   0.335
 9993SOL     OW30877   3.884   0.084   5.196
 9993SOL    HW130878   3.938   0.046   5.272
 9993SOL    HW230879   3.834   0.010   5.151
 9994SOL     OW30880   5.947   5.336   4.840
 9994SOL    HW130881   5.921   5.267   4.907
 9994SOL    HW230882   5.907   5.313   4.751
 9995SOL     OW30883   4.443   1.336   6.370
 9995SOL    HW130884   4.381   1.371   6.440
 9995SOL    HW230885   4.526   1.301   6.414
 9996SOL     OW30886   2.731   4.784   0.482
 9996SOL    HW130887   2.679   4.716   0.534
 9996SOL    HW230888   2.800   4.825   0.541
 9997SOL     OW30889   6.118   1.118   3.153
 9997SOL    HW130890   6.143   1.193   3.214
 9997SOL    HW230891   6.118   1.150   3.059
 9998SOL     OW30892   5.294   3.658   2.365
 9998SOL    HW130893   5.365   3.685   2.431
 9998SOL    HW230894   5.332   3.592   2.301
 9999SOL     OW30895   0.671   6.839   4.522
 9999SOL    HW130896   0.696   6.755   4.570
 9999SOL    HW230897   0.578   6.865   4.547
10000SOL     OW30898   4.493   2.593   1.307
10000SOL    HW130899   4.432   2.526   1.349
10000SOL    HW230900   4.441   2.675   1.284
10001SOL     OW30901   3.604   6.609   1.736
10001SOL    HW130902   3.683   6.563   1.695
10001SOL    HW230903   3.522   6.554   1.719
10002SOL     OW30904   2.248   0.053   2.289
10002SOL    HW130905   2.161   0.018   2.322
10002SOL    HW230906   2.245   0.063   2.190
10003SOL     OW30907   1.283   1.164   2.224
10003SOL    HW130908   1.271   1.152   2.126
10003SOL    HW230909   1.224   1.237   2.257
10004SOL     OW30910   6.869   3.598   3.605
10004SOL    HW130911   6.908   3.523   3.552
10004SOL    HW230912   6.901   3.593   3.699
10005SOL     OW30913   2.837   5.601   2.853
10005SOL    HW130914   2.829   5.589   2.754
10005SOL    HW230915   2.838   5.511   2.897
10006SOL     OW30916   5.634   1.881   5.450
10006SOL    HW130917   5.578   1.865   5.531
10006SOL    HW230918   5.600   1.962   5.401
10007SOL     OW30919   1.604   5.552   3.590
10007SOL    HW130920   1.549   5.468   3.590
10007SOL    HW230921   1.684   5.539   3.648
10008SOL     OW30922   4.428   0.933   5.844
10008SOL    HW130923   4.349   0.993   5.830
10008SOL    HW230924   4.458   0.896   5.756
10009SOL     OW30925   0.708   4.641   2.501
10009SOL    HW130926   0.751   4.608   2.417
10009SOL    HW230927   0.777   4.648   2.572
10010SOL     OW30928   2.078   4.474   0.875
10010SOL    HW130929   2.039   4.565   0.891
10010SOL    HW230930   2.008   4.405   0.893
10011SOL     OW30931   3.293   3.215   0.256
10011SOL    HW130932   3.345   3.171   0.329
10011SOL    HW230933   3.276   3.311   0.280
10012SOL     OW30934   5.330   2.069   4.207
10012SOL    HW130935   5.297   2.114   4.290
10012SOL    HW230936   5.272   1.990   4.186
10013SOL     OW30937   0.886   6.286   4.491
10013SOL    HW130938   0.800   6.296   4.440
10013SOL    HW230939   0.959   6.336   4.444
10014SOL     OW30940   1.095   0.971   3.267
10014SOL    HW130941   1.191   0.998   3.265
10014SOL    HW230942   1.078   0.914   3.347
10015SOL     OW30943   4.247   6.935   6.408
10015SOL    HW130944   4.184   6.957   6.334
10015SOL    HW230945   4.339   6.921   6.370
10016SOL     OW30946   2.751   0.959   4.509
10016SOL    HW130947   2.705   0.981   4.596
10016SOL    HW230948   2.732   1.030   4.442
10017SOL     OW30949   3.309   1.668   2.704
10017SOL    HW130950   3.291   1.720   2.620
10017SOL    HW230951   3.395   1.699   2.744
10018SOL     OW30952   0.037   4.455   5.102
10018SOL    HW130953   0.119   4.401   5.084
10018SOL    HW230954   0.033   4.532   5.038
10019SOL     OW30955   6.690   2.164   2.258
10019SOL    HW130956   6.776   2.193   2.216
10019SOL    HW230957   6.624   2.238   2.255
10020SOL     OW30958   6.288   0.744   2.340
10020SOL    HW130959   6.356   0.672   2.325
10020SOL    HW230960   6.212   0.733   2.276
10021SOL     OW30961   0.810   3.326   1.486
10021SOL    HW130962   0.791   3.368   1.575
10021SOL    HW230963   0.891   3.269   1.493
10022SOL     OW30964   1.509   6.344   5.744
10022SOL    HW130965   1.438   6.274   5.753
10022SOL    HW230966   1.591   6.304   5.704
10023SOL     OW30967   0.299   1.712   5.696
10023SOL    HW130968   0.315   1.716   5.795
10023SOL    HW230969   0.305   1.617   5.666
10024SOL     OW30970   2.059   4.746   3.137
10024SOL    HW130971   2.081   4.651   3.116
10024SOL    HW230972   2.105   4.806   3.071
10025SOL     OW30973   0.837   3.058   1.240
10025SOL    HW130974   0.840   3.152   1.273
10025SOL    HW230975   0.894   3.000   1.298
10026SOL     OW30976   5.658   1.081   4.811
10026SOL    HW130977   5.565   1.065   4.844
10026SOL    HW230978   5.699   1.155   4.864
10027SOL     OW30979   3.532   1.502   5.466
10027SOL    HW130980   3.508   1.405   5.455
10027SOL    HW230981   3.491   1.555   5.392
10028SOL     OW30982   4.049   0.048   2.139
10028SOL    HW130983   4.070   0.077   2.232
10028SOL    HW230984   4.046   0.128   2.079
10029SOL     OW30985   0.214   4.150   4.057
10029SOL    HW130986   0.218   4.137   4.156
10029SOL    HW230987   0.194   4.246   4.037
10030SOL     OW30988   2.362   0.035   4.649
10030SOL    HW130989   2.368   0.133   4.631
10030SOL    HW230990   2.327   0.020   4.741
10031SOL     OW30991   1.910   6.019   3.387
10031SOL    HW130992   1.967   6.101   3.379
10031SOL    HW230993   1.838   6.035   3.454
10032SOL     OW30994   3.399   5.819   4.260
10032SOL    HW130995   3.318   5.866   4.226
10032SOL    HW230996   3.459   5.796   4.184
10033SOL     OW30997   3.280   1.093   5.360
10033SOL    HW130998   3.279   1.017   5.426
10033SOL    HW230999   3.187   1.129   5.350
10034SOL     OW31000   2.556   1.370   2.398
10034SOL    HW131001   2.613   1.424   2.460
10034SOL    HW231002   2.588   1.275   2.398
10035SOL     OW31003   6.570   2.852   2.776
10035SOL    HW131004   6.549   2.916   2.702
10035SOL    HW231005   6.664   2.821   2.767
10036SOL     OW31006   1.120   0.796   0.058
10036SOL    HW131007   1.133   0.862   0.132
10036SOL    HW231008   1.148   0.837   6.988
10037SOL     OW31009   5.737   6.918   6.303
10037SOL    HW131010   5.716   6.827   6.337
10037SOL    HW231011   5.836   6.934   6.308
10038SOL     OW31012   4.955   6.286   6.580
10038SOL    HW131013   4.934   6.207   6.523
10038SOL    HW231014   5.052   6.311   6.568
10039SOL     OW31015   0.072   5.711   2.021
10039SOL    HW131016   0.105   5.622   2.054
10039SOL    HW231017   0.149   5.772   2.007
10040SOL     OW31018   2.313   6.727   0.225
10040SOL    HW131019   2.306   6.664   0.147
10040SOL    HW231020   2.223   6.764   0.245
10041SOL     OW31021   5.681   5.501   5.224
10041SOL    HW131022   5.588   5.471   5.202
10041SOL    HW231023   5.717   5.444   5.298
10042SOL     OW31024   6.747   0.688   4.950
10042SOL    HW131025   6.700   0.609   4.987
10042SOL    HW231026   6.783   0.744   5.025
10043SOL     OW31027   0.459   0.779   3.132
10043SOL    HW131028   0.408   0.726   3.201
10043SOL    HW231029   0.420   0.761   3.041
10044SOL     OW31030   2.852   2.192   0.241
10044SOL    HW131031   2.787   2.256   0.200
10044SOL    HW231032   2.943   2.207   0.202
10045SOL     OW31033   3.906   6.731   5.125
10045SOL    HW131034   3.903   6.631   5.120
10045SOL    HW231035   3.985   6.759   5.179
10046SOL     OW31036   6.387   2.260   1.907
10046SOL    HW131037   6.360   2.210   1.990
10046SOL    HW231038   6.312   2.320   1.878
10047SOL     OW31039   0.495   2.623   3.469
10047SOL    HW131040   0.489   2.540   3.524
10047SOL    HW231041   0.572   2.615   3.405
10048SOL     OW31042   3.662   2.534   1.662
10048SOL    HW131043   3.746   2.587   1.672
10048SOL    HW231044   3.656   2.467   1.736
10049SOL     OW31045   2.101   6.594   4.417
10049SOL    HW131046   2.090   6.501   4.382
10049SOL    HW231047   2.176   6.639   4.369
10050SOL     OW31048   5.490   0.944   4.613
10050SOL    HW131049   5.428   1.015   4.646
10050SOL    HW231050   5.574   0.945   4.668
10051SOL     OW31051   6.164   2.212   0.186
10051SOL    HW131052   6.255   2.211   0.146
10051SOL    HW231053   6.104   2.272   0.131
10052SOL     OW31054   1.455   4.541   1.920
10052SOL    HW131055   1.379   4.488   1.958
10052SOL    HW231056   1.502   4.486   1.851
10053SOL     OW31057   3.033   6.720   3.382
10053SOL    HW131058   3.000   6.680   3.468
10053SOL    HW231059   3.128   6.749   3.393
10054SOL     OW31060   4.324   5.694   3.822
10054SOL    HW131061   4.416   5.675   3.788
10054SOL    HW231062   4.329   5.758   3.898
10055SOL     OW31063   6.278   3.156   6.660
10055SOL    HW131064   6.350   3.102   6.617
10055SOL    HW231065   6.193   3.103   6.664
10056SOL     OW31066   6.304   4.782   2.191
10056SOL    HW131067   6.267   4.836   2.116
10056SOL    HW231068   6.404   4.790   2.192
10057SOL     OW31069   2.355   2.024   3.780
10057SOL    HW131070   2.295   2.008   3.859
10057SOL    HW231071   2.305   2.073   3.709
10058SOL     OW31072   1.085   4.695   3.545
10058SOL    HW131073   1.160   4.751   3.512
10058SOL    HW231074   1.001   4.749   3.548
10059SOL     OW31075   5.492   6.730   1.747
10059SOL    HW131076   5.407   6.772   1.716
10059SOL    HW231077   5.537   6.789   1.813
10060SOL     OW31078   2.291   2.620   2.079
10060SOL    HW131079   2.376   2.586   2.118
10060SOL    HW231080   2.311   2.671   1.995
10061SOL     OW31081   6.450   2.128   4.768
10061SOL    HW131082   6.503   2.105   4.687
10061SOL    HW231083   6.490   2.084   4.848
10062SOL     OW31084   5.745   5.679   3.055
10062SOL    HW131085   5.688   5.731   3.119
10062SOL    HW231086   5.750   5.584   3.085
10063SOL     OW31087   0.696   2.434   2.772
10063SOL    HW131088   0.645   2.520   2.773
10063SOL    HW231089   0.670   2.379   2.852
10064SOL     OW31090   5.663   5.792   5.301
10064SOL    HW131091   5.582   5.745   5.336
10064SOL    HW231092   5.716   5.730   5.244
10065SOL     OW31093   0.492   6.458   3.449
10065SOL    HW131094   0.548   6.468   3.531
10065SOL    HW231095   0.548   6.416   3.376
10066SOL     OW31096   0.653   0.282   3.365
10066SOL    HW131097   0.658   0.333   3.451
10066SOL    HW231098   0.745   0.274   3.326
10067SOL     OW31099   5.018   6.854   3.464
10067SOL    HW131100   5.030   6.771   3.409
10067SOL    HW231101   5.054   6.839   3.556
10068SOL     OW31102   4.807   3.758   5.669
10068SOL    HW131103   4.758   3.845   5.677
10068SOL    HW231104   4.813   3.732   5.573
10069SOL     OW31105   5.136   1.150   3.855
10069SOL    HW131106   5.218   1.153   3.911
10069SOL    HW231107   5.097   1.242   3.848
10070SOL     OW31108   1.195   6.887   4.242
10070SOL    HW131109   1.278   6.839   4.213
10070SOL    HW231110   1.141   6.827   4.301
10071SOL     OW31111   5.144   5.099   5.366
10071SOL    HW131112   5.188   5.070   5.281
10071SOL    HW231113   5.179   5.189   5.393
10072SOL     OW31114   1.119   6.950   3.520
10072SOL    HW131115   1.105   6.879   3.589
10072SOL    HW231116   1.179   6.915   3.448
10073SOL     OW31117   0.093   5.436   6.306
10073SOL    HW131118   0.018   5.481   6.258
10073SOL    HW231119   0.109   5.346   6.264
10074SOL     OW31120   2.476   0.006   5.714
10074SOL    HW131121   2.493   7.004   5.617
10074SOL    HW231122   2.560   7.006   5.766
10075SOL     OW31123   1.246   2.500   3.630
10075SOL    HW131124   1.217   2.515   3.725
10075SOL    HW231125   1.311   2.571   3.604
10076SOL     OW31126   5.578   0.185   4.339
10076SOL    HW131127   5.555   0.244   4.262
10076SOL    HW231128   5.615   0.099   4.305
10077SOL     OW31129   2.851   1.338   6.911
10077SOL    HW131130   2.855   1.312   6.815
10077SOL    HW231131   2.857   1.438   6.918
10078SOL     OW31132   5.626   6.042   5.404
10078SOL    HW131133   5.718   6.080   5.400
10078SOL    HW231134   5.621   5.961   5.345
10079SOL     OW31135   6.574   2.568   6.179
10079SOL    HW131136   6.523   2.591   6.096
10079SOL    HW231137   6.664   2.613   6.176
10080SOL     OW31138   1.420   2.242   6.082
10080SOL    HW131139   1.422   2.312   6.010
10080SOL    HW231140   1.450   2.155   6.044
10081SOL     OW31141   0.296   1.209   0.167
10081SOL    HW131142   0.333   1.274   0.233
10081SOL    HW231143   0.260   1.258   0.088
10082SOL     OW31144   6.928   0.594   0.566
10082SOL    HW131145   6.905   0.578   0.470
10082SOL    HW231146   6.883   0.677   0.598
10083SOL     OW31147   5.125   0.994   4.492
10083SOL    HW131148   5.202   1.054   4.471
10083SOL    HW231149   5.158   0.900   4.499
10084SOL     OW31150   2.148   0.927   6.408
10084SOL    HW131151   2.062   0.880   6.384
10084SOL    HW231152   2.172   0.991   6.335
10085SOL     OW31153   0.641   5.552   2.100
10085SOL    HW131154   0.630   5.496   2.182
10085SOL    HW231155   0.739   5.562   2.079
10086SOL     OW31156   6.594   3.530   2.196
10086SOL    HW131157   6.584   3.587   2.114
10086SOL    HW231158   6.506   3.488   2.219
10087SOL     OW31159   1.367   6.940   3.733
10087SOL    HW131160   1.351   6.871   3.663
10087SOL    HW231161   1.461   6.973   3.726
10088SOL     OW31162   6.769   0.397   4.639
10088SOL    HW131163   6.846   0.454   4.667
10088SOL    HW231164   6.683   0.447   4.654
10089SOL     OW31165   1.683   2.926   2.182
10089SOL    HW131166   1.652   2.836   2.210
10089SOL    HW231167   1.763   2.952   2.238
10090SOL     OW31168   0.124   4.217   1.715
10090SOL    HW131169   0.070   4.133   1.725
10090SOL    HW231170   0.190   4.205   1.642
10091SOL     OW31171   0.540   2.248   4.040
10091SOL    HW131172   0.596   2.220   3.962
10091SOL    HW231173   0.514   2.167   4.093
10092SOL     OW31174   1.746   3.104   4.678
10092SOL    HW131175   1.839   3.121   4.710
10092SOL    HW231176   1.702   3.191   4.655
10093SOL     OW31177   0.031   5.485   6.611
10093SOL    HW131178   0.073   5.553   6.552
10093SOL    HW231179   0.070   5.395   6.592
10094SOL     OW31180   1.424   1.428   1.941
10094SOL    HW131181   1.482   1.504   1.970
10094SOL    HW231182   1.429   1.418   1.841
10095SOL     OW31183   0.421   0.918   5.892
10095SOL    HW131184   0.480   0.874   5.959
10095SOL    HW231185   0.356   0.978   5.939
10096SOL     OW31186   6.954   4.804   2.146
10096SOL    HW131187   6.930   4.884   2.092
10096SOL    HW231188   0.015   4.758   2.105
10097SOL     OW31189   1.218   2.179   6.235
10097SOL    HW131190   1.277   2.175   6.316
10097SOL    HW231191   1.270   2.212   6.157
10098SOL     OW31192   3.272   5.273   6.523
10098SOL    HW131193   3.172   5.273   6.528
10098SOL    HW231194   3.306   5.364   6.547
10099SOL     OW31195   6.580   4.515   4.366
10099SOL    HW131196   6.590   4.536   4.463
10099SOL    HW231197   6.668   4.490   4.328
10100SOL     OW31198   5.519   0.644   5.299
10100SOL    HW131199   5.534   0.547   5.279
10100SOL    HW231200   5.512   0.656   5.398
10101SOL     OW31201   6.663   4.633   2.351
10101SOL    HW131202   6.602   4.609   2.426
10101SOL    HW231203   6.756   4.642   2.384
10102SOL     OW31204   3.772   1.065   3.601
10102SOL    HW131205   3.758   1.151   3.651
10102SOL    HW231206   3.697   1.002   3.621
10103SOL     OW31207   1.951   1.950   0.410
10103SOL    HW131208   1.894   2.032   0.396
10103SOL    HW231209   1.910   1.873   0.362
10104SOL     OW31210   1.909   5.855   5.433
10104SOL    HW131211   1.914   5.811   5.523
10104SOL    HW231212   1.998   5.894   5.410
10105SOL     OW31213   3.091   0.140   6.696
10105SOL    HW131214   3.147   0.057   6.688
10105SOL    HW231215   3.002   0.117   6.735
10106SOL     OW31216   5.068   5.796   1.137
10106SOL    HW131217   5.161   5.791   1.173
10106SOL    HW231218   5.071   5.792   1.037
10107SOL     OW31219   5.480   0.817   5.971
10107SOL    HW131220   5.385   0.832   5.945
10107SOL    HW231221   5.525   0.905   5.987
10108SOL     OW31222   5.972   6.313   6.900
10108SOL    HW131223   6.060   6.311   6.854
10108SOL    HW231224   5.936   6.220   6.908
10109SOL     OW31225   4.843   5.077   3.834
10109SOL    HW131226   4.874   5.164   3.874
10109SOL    HW231227   4.744   5.070   3.843
10110SOL     OW31228   3.504   1.274   6.047
10110SOL    HW131229   3.431   1.210   6.023
10110SOL    HW231230   3.489   1.307   6.141
10111SOL     OW31231   0.321   2.344   2.506
10111SOL    HW131232   0.327   2.420   2.571
10111SOL    HW231233   0.411   2.303   2.494
10112SOL     OW31234   4.073   4.344   6.250
10112SOL    HW131235   4.042   4.275   6.185
10112SOL    HW231236   4.172   4.351   6.247
10113SOL     OW31237   4.012   6.306   0.549
10113SOL    HW131238   4.021   6.242   0.626
10113SOL    HW231239   4.102   6.341   0.525
10114SOL     OW31240   4.218   1.709   1.623
10114SOL    HW131241   4.204   1.772   1.699
10114SOL    HW231242   4.145   1.720   1.556
10115SOL     OW31243   1.165   1.915   4.026
10115SOL    HW131244   1.193   1.859   3.948
10115SOL    HW231245   1.213   2.003   4.023
10116SOL     OW31246   0.760   0.875   0.962
10116SOL    HW131247   0.696   0.947   0.988
10116SOL    HW231248   0.801   0.835   1.044
10117SOL     OW31249   5.131   0.438   5.866
10117SOL    HW131250   5.034   0.440   5.841
10117SOL    HW231251   5.142   0.388   5.951
10118SOL     OW31252   6.270   4.811   2.482
10118SOL    HW131253   6.355   4.768   2.515
10118SOL    HW231254   6.293   4.881   2.415
10119SOL     OW31255   2.797   0.438   5.483
10119SOL    HW131256   2.892   0.458   5.504
10119SOL    HW231257   2.738   0.477   5.554
10120SOL     OW31258   5.671   3.186   3.910
10120SOL    HW131259   5.640   3.205   3.817
10120SOL    HW231260   5.711   3.094   3.913
10121SOL     OW31261   5.741   5.026   4.300
10121SOL    HW131262   5.719   4.952   4.364
10121SOL    HW231263   5.801   5.092   4.345
10122SOL     OW31264   5.586   3.605   0.030
10122SOL    HW131265   5.499   3.629   0.073
10122SOL    HW231266   5.572   3.531   6.982
10123SOL     OW31267   6.995   6.998   0.276
10123SOL    HW131268   0.034   6.917   0.293
10123SOL    HW231269   0.007   0.055   0.337
10124SOL     OW31270   3.138   4.779   0.838
10124SOL    HW131271   3.162   4.859   0.893
10124SOL    HW231272   3.219   4.721   0.827
10125SOL     OW31273   1.589   0.357   0.890
10125SOL    HW131274   1.615   0.381   0.984
10125SOL    HW231275   1.493   0.379   0.876
10126SOL     OW31276   5.591   5.044   0.091
10126SOL    HW131277   5.639   4.957   0.096
10126SOL    HW231278   5.492   5.029   0.103
10127SOL     OW31279   3.772   4.414   5.396
10127SOL    HW131280   3.841   4.377   5.458
10127SOL    HW231281   3.726   4.339   5.348
10128SOL     OW31282   0.231   1.765   1.389
10128SOL    HW131283   0.179   1.771   1.474
10128SOL    HW231284   0.308   1.702   1.400
10129SOL     OW31285   5.146   2.768   3.581
10129SOL    HW131286   5.076   2.746   3.648
10129SOL    HW231287   5.123   2.726   3.493
10130SOL     OW31288   6.473   5.564   1.504
10130SOL    HW131289   6.566   5.547   1.474
10130SOL    HW231290   6.473   5.626   1.583
10131SOL     OW31291   6.611   0.509   0.904
10131SOL    HW131292   6.574   0.420   0.877
10131SOL    HW231293   6.627   0.565   0.823
10132SOL     OW31294   2.694   0.118   2.619
10132SOL    HW131295   2.603   0.154   2.597
10132SOL    HW231296   2.736   0.176   2.690
10133SOL     OW31297   5.108   5.186   3.347
10133SOL    HW131298   5.019   5.140   3.358
10133SOL    HW231299   5.172   5.150   3.414
10134SOL     OW31300   0.401   1.628   2.492
10134SOL    HW131301   0.344   1.573   2.431
10134SOL    HW231302   0.394   1.593   2.585
10135SOL     OW31303   3.104   6.029   2.702
10135SOL    HW131304   3.184   6.084   2.729
10135SOL    HW231305   3.118   5.993   2.610
10136SOL     OW31306   6.604   0.304   2.239
10136SOL    HW131307   6.554   0.225   2.276
10136SOL    HW231308   6.562   0.333   2.153
10137SOL     OW31309   5.404   5.131   4.589
10137SOL    HW131310   5.321   5.173   4.627
10137SOL    HW231311   5.479   5.141   4.654
10138SOL     OW31312   5.378   2.163   6.691
10138SOL    HW131313   5.329   2.203   6.614
10138SOL    HW231314   5.365   2.063   6.691
10139SOL     OW31315   3.929   3.038   3.525
10139SOL    HW131316   3.849   3.000   3.571
10139SOL    HW231317   3.913   3.039   3.426
10140SOL     OW31318   0.699   5.084   4.893
10140SOL    HW131319   0.635   5.104   4.819
10140SOL    HW231320   0.655   5.104   4.981
10141SOL     OW31321   2.053   0.406   3.941
10141SOL    HW131322   2.034   0.399   3.843
10141SOL    HW231323   1.994   0.476   3.981
10142SOL     OW31324   4.816   5.954   4.374
10142SOL    HW131325   4.763   5.935   4.457
10142SOL    HW231326   4.754   5.976   4.299
10143SOL     OW31327   4.923   6.170   1.466
10143SOL    HW131328   4.967   6.246   1.417
10143SOL    HW231329   4.900   6.098   1.401
10144SOL     OW31330   2.780   5.339   2.961
10144SOL    HW131331   2.838   5.260   2.982
10144SOL    HW231332   2.684   5.313   2.974
10145SOL     OW31333   2.842   6.308   5.672
10145SOL    HW131334   2.825   6.210   5.674
10145SOL    HW231335   2.891   6.334   5.755
10146SOL     OW31336   5.213   4.902   4.673
10146SOL    HW131337   5.270   4.959   4.614
10146SOL    HW231338   5.264   4.821   4.701
10147SOL     OW31339   4.874   5.486   4.490
10147SOL    HW131340   4.928   5.566   4.516
10147SOL    HW231341   4.931   5.422   4.439
10148SOL     OW31342   5.822   5.035   0.325
10148SOL    HW131343   5.818   4.935   0.333
10148SOL    HW231344   5.877   5.060   0.245
10149SOL     OW31345   3.952   3.512   0.733
10149SOL    HW131346   3.949   3.444   0.661
10149SOL    HW231347   4.019   3.485   0.803
10150SOL     OW31348   5.203   4.130   1.344
10150SOL    HW131349   5.243   4.149   1.434
10150SOL    HW231350   5.113   4.173   1.338
10151SOL     OW31351   1.818   6.691   5.794
10151SOL    HW131352   1.886   6.629   5.754
10151SOL    HW231353   1.755   6.639   5.851
10152SOL     OW31354   0.457   5.426   4.000
10152SOL    HW131355   0.469   5.385   3.910
10152SOL    HW231356   0.360   5.449   4.013
10153SOL     OW31357   5.603   6.648   3.640
10153SOL    HW131358   5.597   6.616   3.546
10153SOL    HW231359   5.649   6.580   3.696
10154SOL     OW31360   6.575   5.577   5.513
10154SOL    HW131361   6.571   5.596   5.415
10154SOL    HW231362   6.666   5.543   5.537
10155SOL     OW31363   3.747   1.518   7.004
10155SOL    HW131364   3.691   1.489   6.926
10155SOL    HW231365   3.825   1.571   6.971
10156SOL     OW31366   5.952   0.227   2.264
10156SOL    HW131367   6.033   0.247   2.320
10156SOL    HW231368   5.937   0.128   2.261
10157SOL     OW31369   5.180   1.085   5.414
10157SOL    HW131370   5.129   1.160   5.457
10157SOL    HW231371   5.131   0.999   5.429
10158SOL     OW31372   4.375   3.810   6.149
10158SOL    HW131373   4.411   3.903   6.157
10158SOL    HW231374   4.276   3.813   6.154
10159SOL     OW31375   1.183   1.142   6.495
10159SOL    HW131376   1.278   1.170   6.501
10159SOL    HW231377   1.165   1.103   6.404
10160SOL     OW31378   0.733   6.062   3.132
10160SOL    HW131379   0.662   6.099   3.192
10160SOL    HW231380   0.754   5.968   3.159
10161SOL     OW31381   2.148   5.942   5.895
10161SOL    HW131382   2.223   5.896   5.941
10161SOL    HW231383   2.119   5.888   5.816
10162SOL     OW31384   3.223   2.224   6.898
10162SOL    HW131385   3.276   2.152   6.943
10162SOL    HW231386   3.191   2.290   6.966
10163SOL     OW31387   6.636   2.710   5.682
10163SOL    HW131388   6.668   2.690   5.590
10163SOL    HW231389   6.666   2.637   5.744
10164SOL     OW31390   0.683   2.739   5.180
10164SOL    HW131391   0.607   2.706   5.124
10164SOL    HW231392   0.706   2.670   5.249
10165SOL     OW31393   6.656   2.312   3.578
10165SOL    HW131394   6.623   2.401   3.609
10165SOL    HW231395   6.740   2.289   3.627
10166SOL     OW31396   0.934   0.799   2.489
10166SOL    HW131397   0.967   0.871   2.427
10166SOL    HW231398   0.859   0.750   2.446
10167SOL     OW31399   4.393   0.360   0.525
10167SOL    HW131400   4.391   0.405   0.614
10167SOL    HW231401   4.472   0.299   0.521
10168SOL     OW31402   6.398   3.970   4.457
10168SOL    HW131403   6.386   3.992   4.360
10168SOL    HW231404   6.495   3.976   4.481
10169SOL     OW31405   6.376   4.149   4.193
10169SOL    HW131406   6.331   4.130   4.105
10169SOL    HW231407   6.406   4.244   4.195
10170SOL     OW31408   1.452   3.908   4.794
10170SOL    HW131409   1.443   3.992   4.847
10170SOL    HW231410   1.502   3.927   4.710
10171SOL     OW31411   6.381   3.064   5.848
10171SOL    HW131412   6.479   3.047   5.847
10171SOL    HW231413   6.353   3.105   5.761
10172SOL     OW31414   4.737   1.248   3.680
10172SOL    HW131415   4.812   1.212   3.735
10172SOL    HW231416   4.651   1.241   3.731
10173SOL     OW31417   2.209   2.071   2.184
10173SOL    HW131418   2.257   2.148   2.227
10173SOL    HW231419   2.276   2.013   2.136
10174SOL     OW31420   5.978   4.901   0.960
10174SOL    HW131421   5.991   4.946   0.872
10174SOL    HW231422   5.899   4.941   1.007
10175SOL     OW31423   6.031   1.926   6.265
10175SOL    HW131424   6.125   1.953   6.246
10175SOL    HW231425   5.979   2.004   6.299
10176SOL     OW31426   2.241   3.960   6.918
10176SOL    HW131427   2.191   3.919   6.994
10176SOL    HW231428   2.309   3.895   6.885
10177SOL     OW31429   2.078   0.248   6.002
10177SOL    HW131430   2.149   0.187   5.968
10177SOL    HW231431   2.099   0.276   6.096
10178SOL     OW31432   5.721   2.566   5.026
10178SOL    HW131433   5.734   2.610   5.115
10178SOL    HW231434   5.727   2.467   5.036
10179SOL     OW31435   0.972   3.007   6.465
10179SOL    HW131436   1.049   3.070   6.474
10179SOL    HW231437   0.963   2.980   6.369
10180SOL     OW31438   2.612   6.763   5.425
10180SOL    HW131439   2.570   6.854   5.432
10180SOL    HW231440   2.545   6.698   5.389
10181SOL     OW31441   5.837   3.166   1.681
10181SOL    HW131442   5.737   3.167   1.672
10181SOL    HW231443   5.871   3.259   1.689
10182SOL     OW31444   5.657   1.641   0.417
10182SOL    HW131445   5.633   1.648   0.514
10182SOL    HW231446   5.737   1.698   0.398
10183SOL     OW31447   1.840   2.129   6.477
10183SOL    HW131448   1.768   2.194   6.498
10183SOL    HW231449   1.902   2.121   6.556
10184SOL     OW31450   4.553   0.456   6.208
10184SOL    HW131451   4.524   0.361   6.202
10184SOL    HW231452   4.633   0.463   6.269
10185SOL     OW31453   4.901   1.098   0.084
10185SOL    HW131454   4.944   1.166   0.143
10185SOL    HW231455   4.946   1.009   0.098
10186SOL     OW31456   4.001   2.224   3.373
10186SOL    HW131457   3.993   2.299   3.307
10186SOL    HW231458   4.060   2.252   3.448
10187SOL     OW31459   1.048   2.434   2.326
10187SOL    HW131460   1.067   2.394   2.237
10187SOL    HW231461   0.959   2.480   2.324
10188SOL     OW31462   3.461   4.699   1.148
10188SOL    HW131463   3.481   4.797   1.140
10188SOL    HW231464   3.374   4.686   1.195
10189SOL     OW31465   1.474   6.571   5.322
10189SOL    HW131466   1.525   6.620   5.392
10189SOL    HW231467   1.538   6.513   5.270
10190SOL     OW31468   5.060   2.391   0.326
10190SOL    HW131469   5.000   2.462   0.290
10190SOL    HW231470   5.042   2.304   0.280
10191SOL     OW31471   6.328   4.376   6.850
10191SOL    HW131472   6.329   4.476   6.843
10191SOL    HW231473   6.388   4.338   6.780
10192SOL     OW31474   2.986   1.030   0.082
10192SOL    HW131475   3.059   1.097   0.074
10192SOL    HW231476   2.962   0.997   7.008
10193SOL     OW31477   3.991   3.773   0.403
10193SOL    HW131478   4.010   3.814   0.492
10193SOL    HW231479   4.073   3.729   0.368
10194SOL     OW31480   4.942   3.536   5.749
10194SOL    HW131481   5.040   3.546   5.735
10194SOL    HW231482   4.898   3.625   5.741
10195SOL     OW31483   6.480   4.158   1.482
10195SOL    HW131484   6.476   4.258   1.485
10195SOL    HW231485   6.495   4.123   1.575
10196SOL     OW31486   0.621   1.421   4.974
10196SOL    HW131487   0.560   1.500   4.978
10196SOL    HW231488   0.627   1.388   4.879
10197SOL     OW31489   5.850   0.898   6.742
10197SOL    HW131490   5.902   0.925   6.661
10197SOL    HW231491   5.803   0.812   6.724
10198SOL     OW31492   4.340   6.835   3.373
10198SOL    HW131493   4.331   6.904   3.301
10198SOL    HW231494   4.261   6.774   3.370
10199SOL     OW31495   0.815   2.167   5.568
10199SOL    HW131496   0.836   2.205   5.658
10199SOL    HW231497   0.882   2.199   5.502
10200SOL     OW31498   5.446   1.746   1.573
10200SOL    HW131499   5.410   1.661   1.611
10200SOL    HW231500   5.373   1.813   1.566
10201SOL     OW31501   0.748   3.822   0.546
10201SOL    HW131502   0.772   3.726   0.532
10201SOL    HW231503   0.749   3.869   0.458
10202SOL     OW31504   4.252   0.682   4.026
10202SOL    HW131505   4.175   0.722   4.075
10202SOL    HW231506   4.329   0.745   4.027
10203SOL     OW31507   6.636   2.665   4.773
10203SOL    HW131508   6.567   2.642   4.840
10203SOL    HW231509   6.671   2.757   4.791
10204SOL     OW31510   5.814   4.945   6.602
10204SOL    HW131511   5.822   5.022   6.539
10204SOL    HW231512   5.848   4.861   6.558
10205SOL     OW31513   1.124   0.515   6.116
10205SOL    HW131514   1.122   0.615   6.115
10205SOL    HW231515   1.180   0.483   6.192
10206SOL     OW31516   1.522   0.790   4.720
10206SOL    HW131517   1.554   0.856   4.652
10206SOL    HW231518   1.530   0.698   4.683
10207SOL     OW31519   2.322   2.145   5.244
10207SOL    HW131520   2.232   2.188   5.236
10207SOL    HW231521   2.391   2.215   5.261
10208SOL     OW31522   0.076   5.947   5.534
10208SOL    HW131523   0.031   5.885   5.598
10208SOL    HW231524   0.103   5.898   5.452
10209SOL     OW31525   0.153   0.186   5.693
10209SOL    HW131526   0.066   0.188   5.643
10209SOL    HW231527   0.134   0.183   5.791
10210SOL     OW31528   2.928   0.105   1.237
10210SOL    HW131529   2.831   0.131   1.232
10210SOL    HW231530   2.950   0.078   1.331
10211SOL     OW31531   5.415   5.840   5.924
10211SOL    HW131532   5.376   5.848   6.016
10211SOL    HW231533   5.510   5.873   5.926
10212SOL     OW31534   0.688   0.436   6.317
10212SOL    HW131535   0.776   0.460   6.359
10212SOL    HW231536   0.703   0.408   6.222
10213SOL     OW31537   6.618   2.192   1.009
10213SOL    HW131538   6.532   2.177   0.962
10213SOL    HW231539   6.633   2.290   1.020
10214SOL     OW31540   1.088   2.170   6.785
10214SOL    HW131541   1.017   2.240   6.773
10214SOL    HW231542   1.090   2.110   6.705
10215SOL     OW31543   2.866   3.402   2.095
10215SOL    HW131544   2.914   3.488   2.110
10215SOL    HW231545   2.771   3.411   2.127
10216SOL     OW31546   0.708   6.570   2.120
10216SOL    HW131547   0.793   6.561   2.069
10216SOL    HW231548   0.635   6.522   2.072
10217SOL     OW31549   3.388   1.300   4.801
10217SOL    HW131550   3.412   1.372   4.866
10217SOL    HW231551   3.404   1.211   4.843
10218SOL     OW31552   1.179   3.387   2.528
10218SOL    HW131553   1.259   3.440   2.557
10218SOL    HW231554   1.205   3.326   2.454
10219SOL     OW31555   6.937   5.934   3.310
10219SOL    HW131556   6.888   5.872   3.248
10219SOL    HW231557   0.011   5.952   3.273
10220SOL     OW31558   3.343   3.028   0.459
10220SOL    HW131559   3.432   3.006   0.500
10220SOL    HW231560   3.288   2.945   0.452
10221SOL     OW31561   0.760   5.403   3.975
10221SOL    HW131562   0.661   5.400   3.990
10221SOL    HW231563   0.807   5.361   4.053
10222SOL     OW31564   3.388   3.418   4.201
10222SOL    HW131565   3.404   3.411   4.299
10222SOL    HW231566   3.465   3.376   4.152
10223SOL     OW31567   1.886   5.984   0.892
10223SOL    HW131568   1.886   6.034   0.979
10223SOL    HW231569   1.971   5.933   0.883
10224SOL     OW31570   6.116   4.014   3.178
10224SOL    HW131571   6.029   4.062   3.190
10224SOL    HW231572   6.189   4.080   3.163
10225SOL     OW31573   2.249   3.772   5.555
10225SOL    HW131574   2.149   3.768   5.567
10225SOL    HW231575   2.273   3.731   5.467
10226SOL     OW31576   5.038   3.368   0.422
10226SOL    HW131577   5.001   3.344   0.333
10226SOL    HW231578   5.051   3.467   0.426
10227SOL     OW31579   5.609   2.953   1.337
10227SOL    HW131580   5.702   2.933   1.306
10227SOL    HW231581   5.566   3.018   1.275
10228SOL     OW31582   5.329   0.825   0.581
10228SOL    HW131583   5.313   0.916   0.545
10228SOL    HW231584   5.428   0.809   0.590
10229SOL     OW31585   0.073   2.938   5.141
10229SOL    HW131586   0.101   2.994   5.063
10229SOL    HW231587   0.067   2.842   5.113
10230SOL     OW31588   6.934   6.220   1.648
10230SOL    HW131589   6.869   6.270   1.706
10230SOL    HW231590   6.965   6.139   1.697
10231SOL     OW31591   0.691   5.002   2.657
10231SOL    HW131592   0.650   5.094   2.651
10231SOL    HW231593   0.689   4.959   2.566
10232SOL     OW31594   4.898   4.569   3.371
10232SOL    HW131595   4.901   4.484   3.319
10232SOL    HW231596   4.806   4.608   3.366
10233SOL     OW31597   2.969   4.332   5.626
10233SOL    HW131598   2.955   4.395   5.550
10233SOL    HW231599   3.033   4.260   5.598
10234SOL     OW31600   0.562   1.079   2.301
10234SOL    HW131601   0.533   1.095   2.206
10234SOL    HW231602   0.493   1.024   2.348
10235SOL     OW31603   1.340   1.160   2.978
10235SOL    HW131604   1.417   1.124   3.032
10235SOL    HW231605   1.368   1.168   2.882
10236SOL     OW31606   1.705   6.895   2.508
10236SOL    HW131607   1.687   6.976   2.565
10236SOL    HW231608   1.640   6.893   2.432
10237SOL     OW31609   0.427   3.695   4.779
10237SOL    HW131610   0.376   3.619   4.819
10237SOL    HW231611   0.490   3.732   4.847
10238SOL     OW31612   2.669   0.144   1.478
10238SOL    HW131613   2.643   0.143   1.381
10238SOL    HW231614   2.732   0.219   1.495
10239SOL     OW31615   0.756   1.990   4.214
10239SOL    HW131616   0.665   1.991   4.173
10239SOL    HW231617   0.748   2.010   4.312
10240SOL     OW31618   1.730   6.163   0.577
10240SOL    HW131619   1.735   6.090   0.645
10240SOL    HW231620   1.677   6.239   0.613
10241SOL     OW31621   4.244   3.000   1.525
10241SOL    HW131622   4.201   2.965   1.608
10241SOL    HW231623   4.174   3.018   1.456
10242SOL     OW31624   0.086   3.234   6.566
10242SOL    HW131625   0.131   3.246   6.654
10242SOL    HW231626   0.152   3.248   6.492
10243SOL     OW31627   2.780   6.109   1.713
10243SOL    HW131628   2.718   6.031   1.724
10243SOL    HW231629   2.729   6.187   1.678
10244SOL     OW31630   2.686   5.368   1.937
10244SOL    HW131631   2.633   5.329   1.862
10244SOL    HW231632   2.632   5.364   2.021
10245SOL     OW31633   4.963   4.278   0.752
10245SOL    HW131634   5.005   4.339   0.820
10245SOL    HW231635   4.889   4.227   0.795
10246SOL     OW31636   3.075   3.110   4.213
10246SOL    HW131637   3.063   3.079   4.119
10246SOL    HW231638   3.105   3.205   4.214
10247SOL     OW31639   0.759   2.982   4.628
10247SOL    HW131640   0.677   2.946   4.674
10247SOL    HW231641   0.776   2.928   4.545
10248SOL     OW31642   0.984   1.156   4.582
10248SOL    HW131643   0.896   1.134   4.625
10248SOL    HW231644   0.969   1.181   4.487
10249SOL     OW31645   2.729   5.494   6.015
10249SOL    HW131646   2.806   5.431   6.027
10249SOL    HW231647   2.734   5.536   5.925
10250SOL     OW31648   3.587   2.392   0.772
10250SOL    HW131649   3.604   2.471   0.712
10250SOL    HW231650   3.580   2.310   0.716
10251SOL     OW31651   1.572   0.275   4.359
10251SOL    HW131652   1.570   0.200   4.425
10251SOL    HW231653   1.480   0.313   4.348
10252SOL     OW31654   5.311   4.732   5.786
10252SOL    HW131655   5.225   4.723   5.736
10252SOL    HW231656   5.292   4.757   5.881
10253SOL     OW31657   4.015   6.114   6.382
10253SOL    HW131658   3.979   6.155   6.466
10253SOL    HW231659   3.980   6.164   6.303
10254SOL     OW31660   6.709   2.064   5.779
10254SOL    HW131661   6.722   2.077   5.681
10254SOL    HW231662   6.642   2.130   5.813
10255SOL     OW31663   3.996   4.398   1.613
10255SOL    HW131664   3.981   4.355   1.524
10255SOL    HW231665   3.907   4.423   1.653
10256SOL     OW31666   3.703   1.118   4.274
10256SOL    HW131667   3.703   1.218   4.282
10256SOL    HW231668   3.617   1.081   4.309
10257SOL     OW31669   4.099   5.958   3.221
10257SOL    HW131670   4.105   5.907   3.135
10257SOL    HW231671   4.033   6.033   3.210
10258SOL     OW31672   2.622   1.703   2.362
10258SOL    HW131673   2.546   1.753   2.404
10258SOL    HW231674   2.668   1.648   2.432
10259SOL     OW31675   1.975   4.272   4.009
10259SOL    HW131676   2.006   4.300   3.918
10259SOL    HW231677   1.876   4.259   4.008
10260SOL     OW31678   0.245   0.060   2.901
10260SOL    HW131679   0.260   0.153   2.936
10260SOL    HW231680   0.160   0.024   2.940
10261SOL     OW31681   0.204   3.848   0.756
10261SOL    HW131682   0.288   3.844   0.701
10261SOL    HW231683   0.227   3.873   0.850
10262SOL     OW31684   3.700   1.034   0.457
10262SOL    HW131685   3.603   1.012   0.463
10262SOL    HW231686   3.735   1.056   0.548
10263SOL     OW31687   5.489   0.449   2.621
10263SOL    HW131688   5.491   0.499   2.708
10263SOL    HW231689   5.535   0.361   2.632
10264SOL     OW31690   6.556   0.417   6.467
10264SOL    HW131691   6.608   0.503   6.465
10264SOL    HW231692   6.613   0.345   6.506
10265SOL     OW31693   1.936   2.163   1.027
10265SOL    HW131694   1.979   2.250   1.051
10265SOL    HW231695   1.943   2.100   1.104
10266SOL     OW31696   2.648   3.423   1.702
10266SOL    HW131697   2.656   3.481   1.621
10266SOL    HW231698   2.558   3.438   1.744
10267SOL     OW31699   6.036   0.230   0.798
10267SOL    HW131700   6.058   0.323   0.826
10267SOL    HW231701   5.937   0.216   0.803
10268SOL     OW31702   4.006   6.365   2.223
10268SOL    HW131703   3.910   6.361   2.195
10268SOL    HW231704   4.012   6.353   2.323
10269SOL     OW31705   2.666   2.038   0.897
10269SOL    HW131706   2.741   2.104   0.900
10269SOL    HW231707   2.580   2.084   0.920
10270SOL     OW31708   3.172   0.925   3.095
10270SOL    HW131709   3.100   0.858   3.116
10270SOL    HW231710   3.131   1.003   3.047
10271SOL     OW31711   1.756   1.757   6.704
10271SOL    HW131712   1.789   1.665   6.726
10271SOL    HW231713   1.789   1.822   6.773
10272SOL     OW31714   6.094   0.012   4.585
10272SOL    HW131715   6.108   0.095   4.531
10272SOL    HW231716   6.156   0.012   4.663
10273SOL     OW31717   2.197   5.463   3.589
10273SOL    HW131718   2.182   5.552   3.632
10273SOL    HW231719   2.167   5.467   3.494
10274SOL     OW31720   1.152   4.636   5.080
10274SOL    HW131721   1.119   4.695   5.006
10274SOL    HW231722   1.096   4.553   5.084
10275SOL     OW31723   6.494   0.169   1.887
10275SOL    HW131724   6.590   0.165   1.860
10275SOL    HW231725   6.477   0.255   1.936
10276SOL     OW31726   3.452   5.589   5.477
10276SOL    HW131727   3.456   5.686   5.454
10276SOL    HW231728   3.544   5.553   5.488
10277SOL     OW31729   0.962   5.812   3.784
10277SOL    HW131730   1.007   5.773   3.864
10277SOL    HW231731   0.934   5.906   3.805
10278SOL     OW31732   6.682   0.013   4.837
10278SOL    HW131733   6.746   0.054   4.772
10278SOL    HW231734   6.616   6.973   4.788
10279SOL     OW31735   1.370   5.869   3.774
10279SOL    HW131736   1.318   5.785   3.785
10279SOL    HW231737   1.466   5.847   3.757
10280SOL     OW31738   6.755   4.802   7.003
10280SOL    HW131739   6.772   4.887   0.036
10280SOL    HW231740   6.657   4.788   6.992
10281SOL     OW31741   6.008   1.029   3.716
10281SOL    HW131742   5.963   0.986   3.638
10281SOL    HW231743   5.962   1.115   3.738
10282SOL     OW31744   4.829   3.004   3.693
10282SOL    HW131745   4.912   2.991   3.748
10282SOL    HW231746   4.758   2.940   3.724
10283SOL     OW31747   1.156   3.053   0.820
10283SOL    HW131748   1.179   3.081   0.728
10283SOL    HW231749   1.069   3.003   0.819
10284SOL     OW31750   6.876   4.202   4.173
10284SOL    HW131751   6.781   4.184   4.146
10284SOL    HW231752   6.913   4.121   4.220
10285SOL     OW31753   6.148   6.666   5.700
10285SOL    HW131754   6.246   6.660   5.682
10285SOL    HW231755   6.130   6.645   5.796
10286SOL     OW31756   2.519   1.892   3.166
10286SOL    HW131757   2.521   1.809   3.111
10286SOL    HW231758   2.479   1.966   3.113
10287SOL     OW31759   1.521   5.991   2.569
10287SOL    HW131760   1.476   5.906   2.593
10287SOL    HW231761   1.609   5.996   2.617
10288SOL     OW31762   3.842   6.073   5.372
10288SOL    HW131763   3.776   5.998   5.361
10288SOL    HW231764   3.805   6.140   5.438
10289SOL     OW31765   3.341   5.925   6.778
10289SOL    HW131766   3.407   5.869   6.829
10289SOL    HW231767   3.277   5.865   6.730
10290SOL     OW31768   3.530   3.149   2.159
10290SOL    HW131769   3.556   3.055   2.140
10290SOL    HW231770   3.531   3.202   2.074
10291SOL     OW31771   2.362   1.906   2.048
10291SOL    HW131772   2.457   1.875   2.059
10291SOL    HW231773   2.348   1.937   1.954
10292SOL     OW31774   6.927   7.017   6.019
10292SOL    HW131775   6.964   6.932   5.981
10292SOL    HW231776   6.847   0.028   5.966
10293SOL     OW31777   1.271   4.345   4.890
10293SOL    HW131778   1.340   4.360   4.820
10293SOL    HW231779   1.303   4.384   4.977
10294SOL     OW31780   3.731   0.792   2.414
10294SOL    HW131781   3.660   0.728   2.445
10294SOL    HW231782   3.689   0.880   2.393
10295SOL     OW31783   1.102   1.436   6.650
10295SOL    HW131784   1.057   1.358   6.607
10295SOL    HW231785   1.201   1.423   6.648
10296SOL     OW31786   6.126   1.372   5.839
10296SOL    HW131787   6.075   1.286   5.834
10296SOL    HW231788   6.165   1.393   5.750
10297SOL     OW31789   3.091   1.309   0.303
10297SOL    HW131790   3.121   1.306   0.208
10297SOL    HW231791   3.019   1.377   0.313
10298SOL     OW31792   0.328   2.568   2.209
10298SOL    HW131793   0.347   2.640   2.142
10298SOL    HW231794   0.394   2.494   2.199
10299SOL     OW31795   4.709   6.749   2.871
10299SOL    HW131796   4.618   6.787   2.885
10299SOL    HW231797   4.752   6.731   2.959
10300SOL     OW31798   1.327   4.040   1.586
10300SOL    HW131799   1.425   4.025   1.598
10300SOL    HW231800   1.311   4.095   1.504
10301SOL     OW31801   3.370   0.721   0.300
10301SOL    HW131802   3.470   0.719   0.293
10301SOL    HW231803   3.342   0.687   0.389
10302SOL     OW31804   2.605   6.395   5.409
10302SOL    HW131805   2.651   6.421   5.494
10302SOL    HW231806   2.527   6.455   5.394
10303SOL     OW31807   0.458   5.150   4.734
10303SOL    HW131808   0.408   5.192   4.810
10303SOL    HW231809   0.440   5.052   4.734
10304SOL     OW31810   5.865   6.451   0.676
10304SOL    HW131811   5.931   6.389   0.635
10304SOL    HW231812   5.911   6.534   0.708
10305SOL     OW31813   3.248   3.957   5.916
10305SOL    HW131814   3.216   3.871   5.877
10305SOL    HW231815   3.241   3.953   6.015
10306SOL     OW31816   3.923   0.833   1.084
10306SOL    HW131817   3.915   0.837   0.984
10306SOL    HW231818   3.891   0.919   1.123
10307SOL     OW31819   1.775   0.080   5.635
10307SOL    HW131820   1.737   0.172   5.647
10307SOL    HW231821   1.725   0.016   5.692
10308SOL     OW31822   2.957   4.869   1.928
10308SOL    HW131823   2.929   4.910   1.841
10308SOL    HW231824   2.922   4.776   1.933
10309SOL     OW31825   0.196   1.049   5.305
10309SOL    HW131826   0.256   0.973   5.330
10309SOL    HW231827   0.252   1.129   5.285
10310SOL     OW31828   2.517   4.006   5.616
10310SOL    HW131829   2.586   4.076   5.636
10310SOL    HW231830   2.557   3.915   5.626
10311SOL     OW31831   5.281   4.990   6.817
10311SOL    HW131832   5.334   5.071   6.794
10311SOL    HW231833   5.194   5.017   6.859
10312SOL     OW31834   3.778   0.050   2.200
10312SOL    HW131835   3.765   0.144   2.171
10312SOL    HW231836   3.874   0.024   2.187
10313SOL     OW31837   5.343   6.490   2.706
10313SOL    HW131838   5.416   6.456   2.647
10313SOL    HW231839   5.368   6.477   2.801
10314SOL     OW31840   0.310   0.076   0.857
10314SOL    HW131841   0.289   0.024   0.940
10314SOL    HW231842   0.371   0.021   0.799
10315SOL     OW31843   5.612   5.281   3.598
10315SOL    HW131844   5.536   5.300   3.660
10315SOL    HW231845   5.661   5.199   3.628
10316SOL     OW31846   0.530   1.667   6.786
10316SOL    HW131847   0.614   1.715   6.810
10316SOL    HW231848   0.475   1.725   6.726
10317SOL     OW31849   3.356   6.287   5.060
10317SOL    HW131850   3.436   6.281   5.001
10317SOL    HW231851   3.274   6.302   5.004
10318SOL     OW31852   6.354   0.172   0.178
10318SOL    HW131853   6.300   0.244   0.136
10318SOL    HW231854   6.355   0.183   0.277
10319SOL     OW31855   0.782   4.361   3.939
10319SOL    HW131856   0.741   4.272   3.960
10319SOL    HW231857   0.720   4.414   3.883
10320SOL     OW31858   0.399   6.662   3.047
10320SOL    HW131859   0.484   6.635   3.092
10320SOL    HW231860   0.417   6.741   2.988
10321SOL     OW31861   5.364   2.917   2.131
10321SOL    HW131862   5.456   2.931   2.095
10321SOL    HW231863   5.367   2.906   2.230
10322SOL     OW31864   4.558   4.474   4.881
10322SOL    HW131865   4.507   4.498   4.798
10322SOL    HW231866   4.494   4.460   4.956
10323SOL     OW31867   0.832   4.039   6.147
10323SOL    HW131868   0.858   3.985   6.227
10323SOL    HW231869   0.888   4.012   6.069
10324SOL     OW31870   3.066   2.979   1.927
10324SOL    HW131871   3.081   2.958   2.024
10324SOL    HW231872   3.056   3.077   1.915
10325SOL     OW31873   6.411   5.671   4.076
10325SOL    HW131874   6.316   5.678   4.045
10325SOL    HW231875   6.462   5.752   4.049
10326SOL     OW31876   5.499   3.868   6.682
10326SOL    HW131877   5.503   3.860   6.781
10326SOL    HW231878   5.453   3.788   6.643
10327SOL     OW31879   2.315   4.940   0.457
10327SOL    HW131880   2.337   4.854   0.503
10327SOL    HW231881   2.267   4.921   0.371
10328SOL     OW31882   5.841   2.402   2.482
10328SOL    HW131883   5.864   2.499   2.471
10328SOL    HW231884   5.757   2.382   2.432
10329SOL     OW31885   3.470   2.023   2.891
10329SOL    HW131886   3.393   2.046   2.831
10329SOL    HW231887   3.553   2.014   2.836
10330SOL     OW31888   5.384   0.527   1.937
10330SOL    HW131889   5.316   0.599   1.921
10330SOL    HW231890   5.341   0.452   1.987
10331SOL     OW31891   6.200   5.969   5.952
10331SOL    HW131892   6.293   5.938   5.930
10331SOL    HW231893   6.184   6.058   5.910
10332SOL     OW31894   1.528   1.228   6.237
10332SOL    HW131895   1.486   1.231   6.328
10332SOL    HW231896   1.605   1.164   6.238
10333SOL     OW31897   1.503   3.842   4.269
10333SOL    HW131898   1.418   3.820   4.316
10333SOL    HW231899   1.567   3.765   4.278
10334SOL     OW31900   3.355   1.494   4.164
10334SOL    HW131901   3.259   1.521   4.174
10334SOL    HW231902   3.395   1.543   4.086
10335SOL     OW31903   1.050   2.242   5.149
10335SOL    HW131904   0.975   2.307   5.146
10335SOL    HW231905   1.113   2.260   5.073
10336SOL     OW31906   5.338   6.692   3.358
10336SOL    HW131907   5.403   6.664   3.429
10336SOL    HW231908   5.375   6.667   3.268
10337SOL     OW31909   6.810   5.766   6.890
10337SOL    HW131910   6.740   5.836   6.903
10337SOL    HW231911   6.899   5.810   6.874
10338SOL     OW31912   1.316   6.556   2.066
10338SOL    HW131913   1.370   6.638   2.087
10338SOL    HW231914   1.314   6.496   2.147
10339SOL     OW31915   6.093   2.535   5.934
10339SOL    HW131916   6.034   2.454   5.930
10339SOL    HW231917   6.096   2.569   6.028
10340SOL     OW31918   2.483   3.168   6.109
10340SOL    HW131919   2.462   3.097   6.175
10340SOL    HW231920   2.582   3.187   6.110
10341SOL     OW31921   2.067   3.639   3.294
10341SOL    HW131922   2.088   3.706   3.365
10341SOL    HW231923   2.072   3.547   3.332
10342SOL     OW31924   0.475   0.864   3.502
10342SOL    HW131925   0.379   0.885   3.522
10342SOL    HW231926   0.526   0.949   3.489
10343SOL     OW31927   3.568   5.736   1.660
10343SOL    HW131928   3.553   5.769   1.567
10343SOL    HW231929   3.480   5.714   1.702
10344SOL     OW31930   4.760   6.522   6.506
10344SOL    HW131931   4.704   6.499   6.585
10344SOL    HW231932   4.841   6.463   6.504
10345SOL     OW31933   1.871   3.474   4.213
10345SOL    HW131934   1.838   3.385   4.181
10345SOL    HW231935   1.958   3.463   4.261
10346SOL     OW31936   0.071   6.133   0.053
10346SOL    HW131937   0.049   6.229   0.033
10346SOL    HW231938   0.119   6.127   0.140
10347SOL     OW31939   5.094   1.973   4.917
10347SOL    HW131940   5.082   2.066   4.880
10347SOL    HW231941   5.006   1.938   4.949
10348SOL     OW31942   6.913   4.907   1.067
10348SOL    HW131943   6.988   4.916   1.133
10348SOL    HW231944   6.945   4.853   0.988
10349SOL     OW31945   0.804   0.062   5.926
10349SOL    HW131946   0.735   0.128   5.895
10349SOL    HW231947   0.764   6.988   5.929
10350SOL     OW31948   2.808   0.586   6.417
10350SOL    HW131949   2.893   0.617   6.457
10350SOL    HW231950   2.771   0.510   6.471
10351SOL     OW31951   3.882   5.242   6.462
10351SOL    HW131952   3.789   5.256   6.426
10351SOL    HW231953   3.948   5.277   6.395
10352SOL     OW31954   3.526   4.284   6.377
10352SOL    HW131955   3.501   4.265   6.282
10352SOL    HW231956   3.445   4.312   6.428
10353SOL     OW31957   1.127   3.206   4.821
10353SOL    HW131958   1.168   3.145   4.753
10353SOL    HW231959   1.044   3.246   4.783
10354SOL     OW31960   5.170   1.882   1.565
10354SOL    HW131961   5.152   1.950   1.637
10354SOL    HW231962   5.231   1.922   1.497
10355SOL     OW31963   1.050   5.196   2.830
10355SOL    HW131964   1.057   5.222   2.733
10355SOL    HW231965   0.999   5.266   2.879
10356SOL     OW31966   0.565   2.619   4.566
10356SOL    HW131967   0.505   2.599   4.488
10356SOL    HW231968   0.530   2.699   4.615
10357SOL     OW31969   3.027   2.386   0.043
10357SOL    HW131970   2.931   2.374   0.017
10357SOL    HW231971   3.033   2.423   0.135
10358SOL     OW31972   6.762   1.525   2.293
10358SOL    HW131973   6.859   1.531   2.267
10358SOL    HW231974   6.730   1.432   2.279
10359SOL     OW31975   0.476   1.627   1.054
10359SOL    HW131976   0.512   1.711   1.095
10359SOL    HW231977   0.378   1.638   1.037
10360SOL     OW31978   6.756   5.351   2.997
10360SOL    HW131979   6.757   5.445   3.031
10360SOL    HW231980   6.670   5.335   2.947
10361SOL     OW31981   1.693   5.300   1.613
10361SOL    HW131982   1.731   5.337   1.529
10361SOL    HW231983   1.601   5.264   1.596
10362SOL     OW31984   1.949   4.828   4.464
10362SOL    HW131985   1.951   4.818   4.365
10362SOL    HW231986   1.855   4.817   4.497
10363SOL     OW31987   5.727   6.930   3.646
10363SOL    HW131988   5.710   6.832   3.638
10363SOL    HW231989   5.693   6.977   3.564
10364SOL     OW31990   1.713   4.450   1.193
10364SOL    HW131991   1.663   4.509   1.130
10364SOL    HW231992   1.721   4.495   1.282
10365SOL     OW31993   4.790   6.080   0.190
10365SOL    HW131994   4.801   6.000   0.132
10365SOL    HW231995   4.748   6.154   0.137
10366SOL     OW31996   3.770   6.407   3.756
10366SOL    HW131997   3.798   6.494   3.796
10366SOL    HW231998   3.851   6.354   3.732
10367SOL     OW31999   6.518   1.704   3.454
10367SOL    HW132000   6.426   1.672   3.472
10367SOL    HW232001   6.575   1.627   3.424
10368SOL     OW32002   2.579   0.274   0.755
10368SOL    HW132003   2.562   0.368   0.726
10368SOL    HW232004   2.609   0.274   0.851
10369SOL     OW32005   4.173   2.946   6.918
10369SOL    HW132006   4.243   2.892   6.872
10369SOL    HW232007   4.193   3.043   6.906
10370SOL     OW32008   4.191   0.365   5.350
10370SOL    HW132009   4.102   0.412   5.352
10370SOL    HW232010   4.231   0.374   5.259
10371SOL     OW32011   5.210   6.553   5.563
10371SOL    HW132012   5.305   6.525   5.550
10371SOL    HW232013   5.186   6.546   5.660
10372SOL     OW32014   1.276   0.729   3.301
10372SOL    HW132015   1.249   0.788   3.225
10372SOL    HW232016   1.278   0.634   3.270
10373SOL     OW32017   1.562   5.223   5.104
10373SOL    HW132018   1.655   5.257   5.092
10373SOL    HW232019   1.507   5.293   5.150
10374SOL     OW32020   2.910   1.948   4.781
10374SOL    HW132021   2.911   1.901   4.693
10374SOL    HW232022   2.829   1.919   4.833
10375SOL     OW32023   0.094   2.110   0.587
10375SOL    HW132024   0.142   2.052   0.653
10375SOL    HW232025   0.152   2.188   0.563
10376SOL     OW32026   6.063   0.678   3.335
10376SOL    HW132027   6.088   0.629   3.252
10376SOL    HW232028   6.125   0.756   3.347
10377SOL     OW32029   0.654   6.357   4.364
10377SOL    HW132030   0.625   6.380   4.457
10377SOL    HW232031   0.574   6.354   4.304
10378SOL     OW32032   6.252   6.985   5.585
10378SOL    HW132033   6.331   7.005   5.527
10378SOL    HW232034   6.281   6.929   5.663
10379SOL     OW32035   4.806   1.690   4.590
10379SOL    HW132036   4.830   1.781   4.624
10379SOL    HW232037   4.810   1.690   4.490
10380SOL     OW32038   4.510   1.138   3.840
10380SOL    HW132039   4.510   1.078   3.920
10380SOL    HW232040   4.462   1.093   3.764
10381SOL     OW32041   4.466   5.755   4.737
10381SOL    HW132042   4.545   5.776   4.679
10381SOL    HW232043   4.425   5.840   4.769
10382SOL     OW32044   1.295   5.976   0.538
10382SOL    HW132045   1.205   5.986   0.496
10382SOL    HW232046   1.347   5.907   0.488
10383SOL     OW32047   5.329   2.270   0.009
10383SOL    HW132048   5.362   2.345   6.969
10383SOL    HW232049   5.336   2.295   0.105
10384SOL     OW32050   6.187   1.145   6.654
10384SOL    HW132051   6.236   1.059   6.668
10384SOL    HW232052   6.198   1.203   6.735
10385SOL     OW32053   6.226   2.268   6.844
10385SOL    HW132054   6.263   2.176   6.856
10385SOL    HW232055   6.241   2.321   6.928
10386SOL     OW32056   6.663   1.632   6.560
10386SOL    HW132057   6.645   1.534   6.570
10386SOL    HW232058   6.639   1.661   6.468
10387SOL     OW32059   1.448   3.987   2.337
10387SOL    HW132060   1.515   4.026   2.274
10387SOL    HW232061   1.368   3.956   2.285
10388SOL     OW32062   1.296   5.103   2.195
10388SOL    HW132063   1.357   5.026   2.178
10388SOL    HW232064   1.350   5.185   2.211
10389SOL     OW32065   0.488   5.774   3.808
10389SOL    HW132066   0.537   5.691   3.779
10389SOL    HW232067   0.499   5.786   3.906
10390SOL     OW32068   1.805   3.917   3.485
10390SOL    HW132069   1.827   3.874   3.573
10390SOL    HW232070   1.874   3.986   3.464
10391SOL     OW32071   3.175   6.353   4.725
10391SOL    HW132072   3.214   6.360   4.633
10391SOL    HW232073   3.181   6.259   4.757
10392SOL     OW32074   6.532   5.445   6.805
10392SOL    HW132075   6.521   5.346   6.815
10392SOL    HW232076   6.625   5.466   6.778
10393SOL     OW32077   0.633   1.201   4.168
10393SOL    HW132078   0.671   1.111   4.148
10393SOL    HW232079   0.542   1.209   4.127
10394SOL     OW32080   3.096   6.457   0.882
10394SOL    HW132081   3.046   6.517   0.945
10394SOL    HW232082   3.139   6.513   0.811
10395SOL     OW32083   1.605   1.456   5.018
10395SOL    HW132084   1.557   1.369   5.011
10395SOL    HW232085   1.681   1.447   5.083
10396SOL     OW32086   0.743   0.034   4.996
10396SOL    HW132087   0.691   0.089   4.931
10396SOL    HW232088   0.720   0.062   5.090
10397SOL     OW32089   4.275   2.026   2.895
10397SOL    HW132090   4.339   2.084   2.946
10397SOL    HW232091   4.232   2.080   2.823
10398SOL     OW32092   6.551   3.694   1.951
10398SOL    HW132093   6.638   3.715   1.905
10398SOL    HW232094   6.487   3.656   1.885
10399SOL     OW32095   6.102   2.258   5.700
10399SOL    HW132096   6.113   2.320   5.621
10399SOL    HW232097   6.106   2.163   5.668
10400SOL     OW32098   1.230   5.065   1.905
10400SOL    HW132099   1.224   5.095   2.000
10400SOL    HW232100   1.222   4.965   1.901
10401SOL     OW32101   0.713   5.390   0.943
10401SOL    HW132102   0.686   5.348   1.030
10401SOL    HW232103   0.763   5.475   0.962
10402SOL     OW32104   1.074   1.903   4.988
10402SOL    HW132105   1.135   1.904   5.067
10402SOL    HW232106   1.116   1.955   4.913
10403SOL     OW32107   5.346   0.975   2.085
10403SOL    HW132108   5.421   1.014   2.139
10403SOL    HW232109   5.382   0.902   2.027
10404SOL     OW32110   0.165   0.247   4.112
10404SOL    HW132111   0.238   0.222   4.048
10404SOL    HW232112   0.093   0.295   4.062
10405SOL     OW32113   2.276   6.554   6.515
10405SOL    HW132114   2.339   6.615   6.466
10405SOL    HW232115   2.203   6.525   6.454
10406SOL     OW32116   1.927   6.113   5.707
10406SOL    HW132117   1.937   6.013   5.712
10406SOL    HW232118   2.018   6.155   5.702
10407SOL     OW32119   1.971   1.297   6.339
10407SOL    HW132120   1.954   1.378   6.283
10407SOL    HW232121   2.045   1.243   6.299
10408SOL     OW32122   4.318   6.169   2.995
10408SOL    HW132123   4.289   6.099   2.929
10408SOL    HW232124   4.271   6.255   2.975
10409SOL     OW32125   6.828   4.576   2.746
10409SOL    HW132126   6.817   4.484   2.710
10409SOL    HW232127   6.821   4.642   2.671
10410SOL     OW32128   5.372   6.358   0.868
10410SOL    HW132129   5.323   6.335   0.784
10410SOL    HW232130   5.469   6.369   0.848
10411SOL     OW32131   1.590   4.855   2.489
10411SOL    HW132132   1.616   4.763   2.517
10411SOL    HW232133   1.509   4.884   2.540
10412SOL     OW32134   6.993   2.349   6.175
10412SOL    HW132135   0.053   2.388   6.125
10412SOL    HW232136   6.947   2.421   6.226
10413SOL     OW32137   0.470   1.969   5.349
10413SOL    HW132138   0.557   1.927   5.377
10413SOL    HW232139   0.459   1.958   5.250
10414SOL     OW32140   5.874   6.193   5.174
10414SOL    HW132141   5.826   6.273   5.210
10414SOL    HW232142   5.900   6.133   5.249
10415SOL     OW32143   6.803   5.717   2.928
10415SOL    HW132144   6.787   5.744   2.833
10415SOL    HW232145   6.896   5.741   2.954
10416SOL     OW32146   4.942   0.342   0.186
10416SOL    HW132147   5.040   0.345   0.204
10416SOL    HW232148   4.898   0.279   0.250
10417SOL     OW32149   4.263   4.725   4.128
10417SOL    HW132150   4.293   4.684   4.042
10417SOL    HW232151   4.338   4.723   4.194
10418SOL     OW32152   6.049   3.900   6.880
10418SOL    HW132153   6.017   3.828   6.818
10418SOL    HW232154   6.128   3.946   6.839
10419SOL     OW32155   2.046   0.314   4.516
10419SOL    HW132156   1.965   0.315   4.457
10419SOL    HW232157   2.076   0.407   4.534
10420SOL     OW32158   5.932   3.663   4.993
10420SOL    HW132159   5.889   3.573   4.996
10420SOL    HW232160   6.031   3.653   5.000
10421SOL     OW32161   1.234   4.280   4.108
10421SOL    HW132162   1.171   4.358   4.107
10421SOL    HW232163   1.189   4.202   4.150
10422SOL     OW32164   5.900   3.283   5.715
10422SOL    HW132165   5.810   3.325   5.707
10422SOL    HW232166   5.958   3.340   5.774
10423SOL     OW32167   2.951   5.128   3.021
10423SOL    HW132168   3.046   5.096   3.016
10423SOL    HW232169   2.899   5.067   3.080
10424SOL     OW32170   4.249   1.033   1.835
10424SOL    HW132171   4.167   1.021   1.779
10424SOL    HW232172   4.223   1.064   1.926
10425SOL     OW32173   1.428   3.913   0.124
10425SOL    HW132174   1.509   3.954   0.165
10425SOL    HW232175   1.454   3.830   0.074
10426SOL     OW32176   6.443   1.994   6.942
10426SOL    HW132177   6.386   1.912   6.943
10426SOL    HW232178   6.493   1.999   6.856
10427SOL     OW32179   5.620   0.813   3.838
10427SOL    HW132180   5.606   0.865   3.754
10427SOL    HW232181   5.532   0.796   3.881
10428SOL     OW32182   1.450   6.587   4.792
10428SOL    HW132183   1.371   6.624   4.743
10428SOL    HW232184   1.531   6.591   4.733
10429SOL     OW32185   2.275   4.476   1.550
10429SOL    HW132186   2.352   4.488   1.612
10429SOL    HW232187   2.254   4.379   1.541
10430SOL     OW32188   3.967   0.257   4.649
10430SOL    HW132189   3.905   0.188   4.686
10430SOL    HW232190   4.011   0.222   4.567
10431SOL     OW32191   4.176   1.786   4.294
10431SOL    HW132192   4.098   1.847   4.289
10431SOL    HW232193   4.167   1.726   4.373
10432SOL     OW32194   1.120   4.831   0.302
10432SOL    HW132195   1.189   4.862   0.368
10432SOL    HW232196   1.150   4.854   0.209
10433SOL     OW32197   3.762   6.529   4.266
10433SOL    HW132198   3.838   6.594   4.274
10433SOL    HW232199   3.723   6.513   4.357
10434SOL     OW32200   4.062   0.858   6.786
10434SOL    HW132201   4.088   0.906   6.703
10434SOL    HW232202   4.056   0.922   6.862
10435SOL     OW32203   2.420   1.511   1.500
10435SOL    HW132204   2.378   1.588   1.547
10435SOL    HW232205   2.375   1.497   1.412
10436SOL     OW32206   1.008   3.658   4.711
10436SOL    HW132207   1.096   3.658   4.759
10436SOL    HW232208   0.942   3.714   4.763
10437SOL     OW32209   6.933   6.205   4.751
10437SOL    HW132210   7.000   6.162   4.691
10437SOL    HW232211   6.859   6.140   4.770
10438SOL     OW32212   7.009   6.064   6.373
10438SOL    HW132213   6.954   6.137   6.413
10438SOL    HW232214   6.950   6.000   6.324
10439SOL     OW32215   6.180   5.390   4.633
10439SOL    HW132216   6.185   5.291   4.650
10439SOL    HW232217   6.241   5.438   4.696
10440SOL     OW32218   5.800   2.701   1.077
10440SOL    HW132219   5.860   2.664   1.006
10440SOL    HW232220   5.856   2.737   1.152
10441SOL     OW32221   4.271   2.116   6.943
10441SOL    HW132222   4.240   2.181   7.012
10441SOL    HW232223   4.251   2.023   6.973
10442SOL     OW32224   2.929   1.079   5.050
10442SOL    HW132225   2.992   1.014   5.008
10442SOL    HW232226   2.842   1.032   5.070
10443SOL     OW32227   0.673   0.590   0.130
10443SOL    HW132228   0.581   0.602   0.165
10443SOL    HW232229   0.727   0.672   0.151
10444SOL     OW32230   4.586   5.009   3.886
10444SOL    HW132231   4.503   5.018   3.941
10444SOL    HW232232   4.570   4.942   3.813
10445SOL     OW32233   1.108   3.524   3.765
10445SOL    HW132234   1.203   3.506   3.788
10445SOL    HW232235   1.093   3.509   3.668
10446SOL     OW32236   2.503   5.054   4.720
10446SOL    HW132237   2.428   5.041   4.656
10446SOL    HW232238   2.584   5.006   4.686
10447SOL     OW32239   0.941   1.847   2.633
10447SOL    HW132240   0.958   1.771   2.696
10447SOL    HW232241   0.907   1.926   2.684
10448SOL     OW32242   1.075   5.895   2.387
10448SOL    HW132243   1.114   5.837   2.315
10448SOL    HW232244   0.976   5.904   2.372
10449SOL     OW32245   3.802   5.007   4.567
10449SOL    HW132246   3.877   4.941   4.568
10449SOL    HW232247   3.831   5.089   4.518
10450SOL     OW32248   0.949   2.116   3.930
10450SOL    HW132249   0.992   2.026   3.924
10450SOL    HW232250   0.851   2.108   3.914
10451SOL     OW32251   3.064   2.163   4.008
10451SOL    HW132252   3.072   2.193   4.103
10451SOL    HW232253   3.155   2.164   3.966
10452SOL     OW32254   6.737   2.891   4.904
10452SOL    HW132255   6.826   2.846   4.895
10452SOL    HW232256   6.749   2.977   4.954
10453SOL     OW32257   3.909   5.392   4.161
10453SOL    HW132258   3.938   5.305   4.121
10453SOL    HW232259   3.819   5.417   4.125
10454SOL     OW32260   6.322   0.868   6.667
10454SOL    HW132261   6.345   0.776   6.700
10454SOL    HW232262   6.406   0.914   6.638
10455SOL     OW32263   0.425   6.077   2.539
10455SOL    HW132264   0.395   6.091   2.445
10455SOL    HW232265   0.427   6.165   2.587
10456SOL     OW32266   1.445   5.317   6.265
10456SOL    HW132267   1.476   5.311   6.360
10456SOL    HW232268   1.524   5.317   6.204
10457SOL     OW32269   4.149   1.726   0.213
10457SOL    HW132270   4.230   1.739   0.270
10457SOL    HW232271   4.135   1.629   0.195
10458SOL     OW32272   1.310   6.397   6.926
10458SOL    HW132273   1.227   6.378   6.977
10458SOL    HW232274   1.382   6.428   6.989
10459SOL     OW32275   6.106   6.009   1.127
10459SOL    HW132276   6.063   6.085   1.176
10459SOL    HW232277   6.065   6.002   1.036
10460SOL     OW32278   6.153   0.595   6.943
10460SOL    HW132279   6.205   0.645   6.873
10460SOL    HW232280   6.073   0.649   6.968
10461SOL     OW32281   0.141   4.358   5.848
10461SOL    HW132282   0.064   4.361   5.785
10461SOL    HW232283   0.158   4.450   5.883
10462SOL     OW32284   3.348   3.725   6.373
10462SOL    HW132285   3.308   3.672   6.447
10462SOL    HW232286   3.420   3.784   6.410
10463SOL     OW32287   4.768   2.733   6.241
10463SOL    HW132288   4.744   2.819   6.196
10463SOL    HW232289   4.823   2.751   6.322
10464SOL     OW32290   6.581   4.323   1.924
10464SOL    HW132291   6.532   4.287   2.003
10464SOL    HW232292   6.678   4.299   1.931
10465SOL     OW32293   5.826   4.295   1.670
10465SOL    HW132294   5.884   4.377   1.677
10465SOL    HW232295   5.818   4.253   1.761
10466SOL     OW32296   5.877   3.807   5.562
10466SOL    HW132297   5.793   3.860   5.556
10466SOL    HW232298   5.940   3.851   5.626
10467SOL     OW32299   7.010   3.094   6.827
10467SOL    HW132300   6.974   3.186   6.836
10467SOL    HW232301   0.065   3.079   6.895
10468SOL     OW32302   1.705   4.222   3.965
10468SOL    HW132303   1.638   4.284   3.924
10468SOL    HW232304   1.657   4.157   4.024
10469SOL     OW32305   1.199   1.700   3.717
10469SOL    HW132306   1.267   1.711   3.789
10469SOL    HW232307   1.195   1.604   3.689
10470SOL     OW32308   2.285   4.066   1.881
10470SOL    HW132309   2.315   4.161   1.889
10470SOL    HW232310   2.358   4.011   1.842
10471SOL     OW32311   2.626   4.951   6.836
10471SOL    HW132312   2.597   4.997   6.752
10471SOL    HW232313   2.705   4.893   6.817
10472SOL     OW32314   4.080   5.332   6.277
10472SOL    HW132315   4.149   5.392   6.315
10472SOL    HW232316   4.124   5.256   6.229
10473SOL     OW32317   6.329   5.034   6.771
10473SOL    HW132318   6.261   4.966   6.800
10473SOL    HW232319   6.301   5.074   6.684
10474SOL     OW32320   6.342   6.625   5.257
10474SOL    HW132321   6.277   6.683   5.305
10474SOL    HW232322   6.342   6.647   5.159
10475SOL     OW32323   0.614   5.044   1.563
10475SOL    HW132324   0.544   5.084   1.623
10475SOL    HW232325   0.696   5.102   1.565
10476SOL     OW32326   5.255   6.588   1.288
10476SOL    HW132327   5.207   6.632   1.212
10476SOL    HW232328   5.347   6.627   1.297
10477SOL     OW32329   6.841   5.642   3.922
10477SOL    HW132330   6.890   5.713   3.973
10477SOL    HW232331   6.905   5.574   3.888
10478SOL     OW32332   0.083   0.734   6.629
10478SOL    HW132333   0.124   0.649   6.661
10478SOL    HW232334   7.016   0.713   6.579
10479SOL     OW32335   0.551   3.259   1.667
10479SOL    HW132336   0.569   3.232   1.761
10479SOL    HW232337   0.607   3.204   1.605
10480SOL     OW32338   2.469   0.774   3.122
10480SOL    HW132339   2.486   0.728   3.210
10480SOL    HW232340   2.410   0.853   3.136
10481SOL     OW32341   6.660   1.495   1.341
10481SOL    HW132342   6.651   1.456   1.433
10481SOL    HW232343   6.748   1.468   1.302
10482SOL     OW32344   5.202   3.608   4.495
10482SOL    HW132345   5.204   3.697   4.541
10482SOL    HW232346   5.293   3.566   4.499
10483SOL     OW32347   6.039   0.090   6.880
10483SOL    HW132348   6.056   0.083   6.782
10483SOL    HW232349   5.940   0.092   6.897
10484SOL     OW32350   6.652   0.602   1.586
10484SOL    HW132351   6.647   0.517   1.638
10484SOL    HW232352   6.583   0.666   1.619
10485SOL     OW32353   5.495   3.287   4.918
10485SOL    HW132354   5.534   3.378   4.928
10485SOL    HW232355   5.424   3.288   4.847
10486SOL     OW32356   5.252   2.557   2.934
10486SOL    HW132357   5.327   2.567   2.999
10486SOL    HW232358   5.288   2.528   2.845
10487SOL     OW32359   4.504   7.015   2.286
10487SOL    HW132360   4.563   0.039   2.217
10487SOL    HW232361   4.460   6.934   2.248
10488SOL     OW32362   3.600   4.175   6.817
10488SOL    HW132363   3.522   4.166   6.879
10488SOL    HW232364   3.588   4.257   6.760
10489SOL     OW32365   1.829   5.319   4.940
10489SOL    HW132366   1.758   5.372   4.892
10489SOL    HW232367   1.901   5.380   4.971
10490SOL     OW32368   6.194   0.065   4.073
10490SOL    HW132369   6.127   0.129   4.109
10490SOL    HW232370   6.148   6.997   4.046
10491SOL     OW32371   0.389   4.885   5.107
10491SOL    HW132372   0.292   4.878   5.131
10491SOL    HW232373   0.440   4.811   5.150
10492SOL     OW32374   4.081   4.549   5.664
10492SOL    HW132375   4.059   4.605   5.584
10492SOL    HW232376   4.152   4.483   5.640
10493SOL     OW32377   3.633   1.531   0.906
10493SOL    HW132378   3.681   1.521   0.993
10493SOL    HW232379   3.543   1.488   0.912
10494SOL     OW32380   5.485   1.673   6.012
10494SOL    HW132381   5.396   1.705   5.978
10494SOL    HW232382   5.539   1.751   6.042
10495SOL     OW32383   1.603   6.748   6.549
10495SOL    HW132384   1.590   6.735   6.648
10495SOL    HW232385   1.633   6.842   6.531
10496SOL     OW32386   6.307   0.390   5.491
10496SOL    HW132387   6.373   0.334   5.541
10496SOL    HW232388   6.352   0.473   5.458
10497SOL     OW32389   1.474   1.787   6.673
10497SOL    HW132390   1.448   1.878   6.641
10497SOL    HW232391   1.572   1.774   6.659
10498SOL     OW32392   2.964   4.800   6.034
10498SOL    HW132393   2.888   4.847   6.079
10498SOL    HW232394   3.044   4.860   6.034
10499SOL     OW32395   2.958   5.959   3.110
10499SOL    HW132396   2.915   5.918   3.029
10499SOL    HW232397   3.051   5.988   3.088
10500SOL     OW32398   2.254   2.224   6.761
10500SOL    HW132399   2.211   2.288   6.698
10500SOL    HW232400   2.332   2.268   6.806
10501SOL     OW32401   1.181   3.567   3.053
10501SOL    HW132402   1.125   3.560   3.135
10501SOL    HW232403   1.271   3.602   3.076
10502SOL     OW32404   3.050   5.468   5.061
10502SOL    HW132405   3.054   5.369   5.045
10502SOL    HW232406   3.023   5.486   5.155
10503SOL     OW32407   2.899   3.215   5.500
10503SOL    HW132408   2.816   3.205   5.446
10503SOL    HW232409   2.978   3.185   5.446
10504SOL     OW32410   2.076   3.432   1.386
10504SOL    HW132411   2.148   3.426   1.316
10504SOL    HW232412   2.058   3.528   1.407
10505SOL     OW32413   0.350   6.769   0.587
10505SOL    HW132414   0.342   6.868   0.595
10505SOL    HW232415   0.334   6.727   0.676
10506SOL     OW32416   0.505   4.005   5.074
10506SOL    HW132417   0.470   4.086   5.025
10506SOL    HW232418   0.429   3.947   5.101
10507SOL     OW32419   1.990   0.152   3.397
10507SOL    HW132420   2.011   0.108   3.484
10507SOL    HW232421   2.075   0.181   3.353
10508SOL     OW32422   5.587   3.464   2.513
10508SOL    HW132423   5.535   3.548   2.495
10508SOL    HW232424   5.550   3.419   2.595
10509SOL     OW32425   2.219   0.726   5.967
10509SOL    HW132426   2.276   0.658   6.013
10509SOL    HW232427   2.266   0.814   5.965
10510SOL     OW32428   5.798   6.966   6.625
10510SOL    HW132429   5.789   6.867   6.625
10510SOL    HW232430   5.710   7.008   6.599
10511SOL     OW32431   0.772   2.111   0.665
10511SOL    HW132432   0.683   2.155   0.663
10511SOL    HW232433   0.826   2.140   0.586
10512SOL     OW32434   2.561   0.349   6.377
10512SOL    HW132435   2.625   0.292   6.428
10512SOL    HW232436   2.535   0.428   6.432
10513SOL     OW32437   0.269   2.129   0.176
10513SOL    HW132438   0.332   2.201   0.144
10513SOL    HW232439   0.177   2.149   0.143
10514SOL     OW32440   0.517   2.870   1.583
10514SOL    HW132441   0.531   2.872   1.484
10514SOL    HW232442   0.605   2.878   1.629
10515SOL     OW32443   6.244   3.110   4.222
10515SOL    HW132444   6.174   3.043   4.194
10515SOL    HW232445   6.312   3.118   4.149
10516SOL     OW32446   2.576   6.620   0.700
10516SOL    HW132447   2.622   6.706   0.718
10516SOL    HW232448   2.486   6.638   0.659
10517SOL     OW32449   0.036   2.319   2.785
10517SOL    HW132450   0.124   2.365   2.768
10517SOL    HW232451   0.050   2.221   2.791
10518SOL     OW32452   0.484   6.355   2.561
10518SOL    HW132453   0.533   6.351   2.474
10518SOL    HW232454   0.548   6.340   2.636
10519SOL     OW32455   3.591   3.894   5.454
10519SOL    HW132456   3.581   3.975   5.512
10519SOL    HW232457   3.510   3.884   5.396
10520SOL     OW32458   3.270   4.744   6.629
10520SOL    HW132459   3.216   4.661   6.644
10520SOL    HW232460   3.297   4.783   6.717
10521SOL     OW32461   6.054   5.199   1.917
10521SOL    HW132462   6.102   5.222   1.832
10521SOL    HW232463   6.006   5.112   1.906
10522SOL     OW32464   6.602   7.007   2.286
10522SOL    HW132465   6.657   6.987   2.205
10522SOL    HW232466   6.506   7.017   2.259
10523SOL     OW32467   6.970   5.729   5.660
10523SOL    HW132468   0.034   5.678   5.687
10523SOL    HW232469   6.898   5.717   5.728
10524SOL     OW32470   4.604   0.416   4.232
10524SOL    HW132471   4.647   0.328   4.253
10524SOL    HW232472   4.547   0.407   4.150
10525SOL     OW32473   2.834   6.144   4.790
10525SOL    HW132474   2.875   6.130   4.699
10525SOL    HW232475   2.780   6.064   4.815
10526SOL     OW32476   5.419   7.013   2.307
10526SOL    HW132477   5.380   0.048   2.232
10526SOL    HW232478   5.371   0.018   2.392
10527SOL     OW32479   1.522   2.771   4.479
10527SOL    HW132480   1.502   2.829   4.558
10527SOL    HW232481   1.593   2.813   4.423
10528SOL     OW32482   6.147   5.021   5.574
10528SOL    HW132483   6.154   5.117   5.547
10528SOL    HW232484   6.092   5.013   5.657
10529SOL     OW32485   0.067   6.060   4.599
10529SOL    HW132486   0.104   5.968   4.606
10529SOL    HW232487   0.126   6.115   4.541
10530SOL     OW32488   1.980   1.526   5.552
10530SOL    HW132489   1.965   1.429   5.533
10530SOL    HW232490   1.893   1.570   5.572
10531SOL     OW32491   1.625   1.978   5.233
10531SOL    HW132492   1.573   2.049   5.281
10531SOL    HW232493   1.575   1.892   5.238
10532SOL     OW32494   2.977   3.188   5.082
10532SOL    HW132495   3.060   3.135   5.064
10532SOL    HW232496   2.921   3.139   5.149
10533SOL     OW32497   2.793   1.078   6.729
10533SOL    HW132498   2.702   1.041   6.743
10533SOL    HW232499   2.789   1.151   6.660
10534SOL     OW32500   5.614   5.507   0.979
10534SOL    HW132501   5.707   5.521   0.943
10534SOL    HW232502   5.620   5.470   1.072
10535SOL     OW32503   0.200   1.056   1.458
10535SOL    HW132504   0.184   1.008   1.372
10535SOL    HW232505   0.142   1.017   1.529
10536SOL     OW32506   5.725   5.682   3.477
10536SOL    HW132507   5.819   5.677   3.511
10536SOL    HW232508   5.726   5.713   3.382
10537SOL     OW32509   6.623   5.530   0.675
10537SOL    HW132510   6.540   5.484   0.707
10537SOL    HW232511   6.682   5.464   0.630
10538SOL     OW32512   4.116   4.235   0.047
10538SOL    HW132513   4.023   4.206   0.069
10538SOL    HW232514   4.157   4.171   7.000
10539SOL     OW32515   1.219   3.261   5.073
10539SOL    HW132516   1.186   3.238   4.981
10539SOL    HW232517   1.212   3.360   5.087
10540SOL     OW32518   3.266   0.606   0.535
10540SOL    HW132519   3.362   0.582   0.546
10540SOL    HW232520   3.237   0.664   0.611
10541SOL     OW32521   4.302   2.711   0.735
10541SOL    HW132522   4.233   2.739   0.668
10541SOL    HW232523   4.285   2.756   0.822
10542SOL     OW32524   1.179   2.440   0.198
10542SOL    HW132525   1.260   2.415   0.251
10542SOL    HW232526   1.207   2.491   0.116
10543SOL     OW32527   3.015   0.582   4.999
10543SOL    HW132528   3.106   0.622   4.993
10543SOL    HW232529   2.998   0.550   5.092
10544SOL     OW32530   6.689   2.177   1.616
10544SOL    HW132531   6.665   2.089   1.575
10544SOL    HW232532   6.743   2.161   1.699
10545SOL     OW32533   4.573   1.152   2.724
10545SOL    HW132534   4.551   1.143   2.627
10545SOL    HW232535   4.660   1.201   2.734
10546SOL     OW32536   4.102   1.322   5.417
10546SOL    HW132537   4.111   1.377   5.334
10546SOL    HW232538   4.033   1.363   5.477
10547SOL     OW32539   4.496   6.822   1.363
10547SOL    HW132540   4.495   6.900   1.426
10547SOL    HW232541   4.528   6.740   1.412
10548SOL     OW32542   4.240   4.951   5.264
10548SOL    HW132543   4.186   4.868   5.253
10548SOL    HW232544   4.228   4.987   5.356
10549SOL     OW32545   1.095   1.598   1.800
10549SOL    HW132546   1.062   1.631   1.888
10549SOL    HW232547   1.030   1.532   1.763
10550SOL     OW32548   5.218   6.435   4.337
10550SOL    HW132549   5.160   6.383   4.275
10550SOL    HW232550   5.163   6.475   4.410
10551SOL     OW32551   1.232   2.667   5.941
10551SOL    HW132552   1.187   2.659   5.852
10551SOL    HW232553   1.330   2.683   5.927
10552SOL     OW32554   2.982   2.223   4.771
10552SOL    HW132555   3.056   2.248   4.833
10552SOL    HW232556   2.945   2.134   4.797
10553SOL     OW32557   3.032   5.150   5.753
10553SOL    HW132558   3.120   5.198   5.760
10553SOL    HW232559   2.965   5.195   5.813
10554SOL     OW32560   6.781   4.082   6.055
10554SOL    HW132561   6.809   4.010   6.119
10554SOL    HW232562   6.758   4.041   5.967
10555SOL     OW32563   3.556   2.880   1.251
10555SOL    HW132564   3.476   2.843   1.298
10555SOL    HW232565   3.555   2.851   1.155
10556SOL     OW32566   1.362   3.492   3.813
10556SOL    HW132567   1.367   3.577   3.866
10556SOL    HW232568   1.382   3.414   3.873
10557SOL     OW32569   5.484   1.367   3.408
10557SOL    HW132570   5.501   1.446   3.350
10557SOL    HW232571   5.456   1.289   3.352
10558SOL     OW32572   5.109   5.926   4.800
10558SOL    HW132573   5.183   5.935   4.734
10558SOL    HW232574   5.132   5.856   4.867
10559SOL     OW32575   4.663   2.679   0.991
10559SOL    HW132576   4.570   2.645   1.000
10559SOL    HW232577   4.703   2.646   0.905
10560SOL     OW32578   0.127   2.574   4.401
10560SOL    HW132579   0.043   2.529   4.372
10560SOL    HW232580   0.188   2.583   4.323
10561SOL     OW32581   2.556   4.094   6.129
10561SOL    HW132582   2.579   4.172   6.188
10561SOL    HW232583   2.633   4.072   6.071
10562SOL     OW32584   3.363   1.654   0.509
10562SOL    HW132585   3.379   1.751   0.492
10562SOL    HW232586   3.301   1.644   0.586
10563SOL     OW32587   1.666   2.201   3.003
10563SOL    HW132588   1.742   2.196   2.938
10563SOL    HW232589   1.698   2.240   3.089
10564SOL     OW32590   6.948   2.231   2.100
10564SOL    HW132591   6.982   2.320   2.130
10564SOL    HW232592   6.950   2.226   2.000
10565SOL     OW32593   5.178   1.454   4.864
10565SOL    HW132594   5.214   1.412   4.782
10565SOL    HW232595   5.253   1.485   4.922
10566SOL     OW32596   4.586   5.353   7.000
10566SOL    HW132597   4.644   5.404   6.936
10566SOL    HW232598   4.491   5.379   6.986
10567SOL     OW32599   2.067   5.559   3.874
10567SOL    HW132600   2.159   5.519   3.872
10567SOL    HW232601   2.039   5.584   3.781
10568SOL     OW32602   3.717   1.734   2.715
10568SOL    HW132603   3.640   1.706   2.772
10568SOL    HW232604   3.781   1.657   2.707
10569SOL     OW32605   6.013   3.018   3.454
10569SOL    HW132606   5.991   3.054   3.363
10569SOL    HW232607   5.935   2.966   3.490
10570SOL     OW32608   1.303   3.891   1.082
10570SOL    HW132609   1.272   3.981   1.112
10570SOL    HW232610   1.376   3.859   1.142
10571SOL     OW32611   6.278   6.718   4.998
10571SOL    HW132612   6.193   6.666   5.006
10571SOL    HW232613   6.257   6.812   4.971
10572SOL     OW32614   6.605   3.222   1.703
10572SOL    HW132615   6.580   3.209   1.607
10572SOL    HW232616   6.689   3.275   1.710
10573SOL     OW32617   6.314   4.465   6.007
10573SOL    HW132618   6.232   4.483   6.062
10573SOL    HW232619   6.363   4.387   6.045
10574SOL     OW32620   0.302   2.050   3.450
10574SOL    HW132621   0.378   1.992   3.481
10574SOL    HW232622   0.337   2.122   3.390
10575SOL     OW32623   1.297   6.732   5.892
10575SOL    HW132624   1.249   6.807   5.847
10575SOL    HW232625   1.361   6.769   5.960
10576SOL     OW32626   1.121   5.532   3.085
10576SOL    HW132627   1.035   5.550   3.038
10576SOL    HW232628   1.103   5.505   3.179
10577SOL     OW32629   0.391   2.583   5.784
10577SOL    HW132630   0.450   2.643   5.839
10577SOL    HW232631   0.445   2.543   5.710
10578SOL     OW32632   5.678   0.987   5.311
10578SOL    HW132633   5.740   0.909   5.304
10578SOL    HW232634   5.618   0.973   5.390
10579SOL     OW32635   5.364   0.051   0.694
10579SOL    HW132636   5.312   6.992   0.732
10579SOL    HW232637   5.446   0.016   0.648
10580SOL     OW32638   0.189   6.074   0.302
10580SOL    HW132639   0.197   5.976   0.282
10580SOL    HW232640   0.144   6.086   0.391
10581SOL     OW32641   4.634   2.324   3.960
10581SOL    HW132642   4.699   2.312   3.886
10581SOL    HW232643   4.682   2.349   4.044
10582SOL     OW32644   3.396   4.699   0.303
10582SOL    HW132645   3.436   4.788   0.282
10582SOL    HW232646   3.399   4.641   0.222
10583SOL     OW32647   4.682   0.943   1.514
10583SOL    HW132648   4.710   1.019   1.455
10583SOL    HW232649   4.735   0.944   1.598
10584SOL     OW32650   5.919   6.931   1.397
10584SOL    HW132651   5.959   0.005   1.405
10584SOL    HW232652   5.990   6.862   1.408
10585SOL     OW32653   2.512   4.751   6.421
10585SOL    HW132654   2.440   4.811   6.456
10585SOL    HW232655   2.505   4.745   6.321
10586SOL     OW32656   5.191   1.674   0.997
10586SOL    HW132657   5.107   1.727   1.008
10586SOL    HW232658   5.169   1.584   0.960
10587SOL     OW32659   5.999   2.940   0.103
10587SOL    HW132660   5.900   2.929   0.093
10587SOL    HW232661   6.023   3.035   0.086
10588SOL     OW32662   1.352   5.214   3.186
10588SOL    HW132663   1.363   5.267   3.102
10588SOL    HW232664   1.417   5.138   3.187
10589SOL     OW32665   5.687   1.523   3.985
10589SOL    HW132666   5.718   1.606   4.029
10589SOL    HW232667   5.651   1.545   3.894
10590SOL     OW32668   1.528   0.327   4.855
10590SOL    HW132669   1.593   0.250   4.853
10590SOL    HW232670   1.534   0.373   4.943
10591SOL     OW32671   1.912   2.659   1.202
10591SOL    HW132672   1.814   2.674   1.194
10591SOL    HW232673   1.933   2.563   1.187
10592SOL     OW32674   6.323   1.272   6.879
10592SOL    HW132675   6.344   1.225   6.965
10592SOL    HW232676   6.405   1.274   6.821
10593SOL     OW32677   0.998   4.880   1.532
10593SOL    HW132678   1.051   4.796   1.524
10593SOL    HW232679   1.005   4.914   1.626
10594SOL     OW32680   1.001   1.258   4.292
10594SOL    HW132681   1.070   1.228   4.226
10594SOL    HW232682   0.997   1.358   4.293
10595SOL     OW32683   2.595   5.647   4.853
10595SOL    HW132684   2.553   5.672   4.765
10595SOL    HW232685   2.525   5.650   4.924
10596SOL     OW32686   3.214   0.811   1.893
10596SOL    HW132687   3.313   0.817   1.901
10596SOL    HW232688   3.173   0.895   1.929
10597SOL     OW32689   1.711   0.914   4.254
10597SOL    HW132690   1.725   0.950   4.162
10597SOL    HW232691   1.625   0.862   4.256
10598SOL     OW32692   1.805   1.104   0.273
10598SOL    HW132693   1.727   1.165   0.260
10598SOL    HW232694   1.873   1.149   0.331
10599SOL     OW32695   4.980   0.697   6.746
10599SOL    HW132696   4.921   0.721   6.669
10599SOL    HW232697   5.076   0.703   6.718
10600SOL     OW32698   1.459   2.379   5.416
10600SOL    HW132699   1.466   2.367   5.317
10600SOL    HW232700   1.520   2.452   5.446
10601SOL     OW32701   3.125   6.220   5.378
10601SOL    HW132702   3.216   6.183   5.359
10601SOL    HW232703   3.058   6.178   5.317
10602SOL     OW32704   4.800   1.170   1.380
10602SOL    HW132705   4.778   1.267   1.391
10602SOL    HW232706   4.789   1.145   1.284
10603SOL     OW32707   0.831   5.350   4.787
10603SOL    HW132708   0.822   5.438   4.740
10603SOL    HW232709   0.793   5.278   4.729
10604SOL     OW32710   6.986   4.148   5.463
10604SOL    HW132711   6.966   4.061   5.509
10604SOL    HW232712   6.916   4.166   5.395
10605SOL     OW32713   2.043   5.421   6.498
10605SOL    HW132714   2.028   5.512   6.460
10605SOL    HW232715   1.966   5.361   6.474
10606SOL     OW32716   0.150   1.173   2.367
10606SOL    HW132717   0.185   1.262   2.341
10606SOL    HW232718   0.139   1.116   2.285
10607SOL     OW32719   6.015   4.693   6.374
10607SOL    HW132720   6.087   4.754   6.406
10607SOL    HW232721   5.950   4.676   6.448
10608SOL     OW32722   5.568   0.274   2.964
10608SOL    HW132723   5.536   0.190   2.921
10608SOL    HW232724   5.489   0.328   2.995
10609SOL     OW32725   3.595   6.976   2.682
10609SOL    HW132726   3.517   6.937   2.634
10609SOL    HW232727   3.666   6.906   2.692
10610SOL     OW32728   2.342   4.430   4.426
10610SOL    HW132729   2.405   4.417   4.502
10610SOL    HW232730   2.300   4.520   4.432
10611SOL     OW32731   4.634   2.500   6.088
10611SOL    HW132732   4.673   2.585   6.124
10611SOL    HW232733   4.537   2.495   6.110
10612SOL     OW32734   1.406   0.263   1.335
10612SOL    HW132735   1.404   0.352   1.290
10612SOL    HW232736   1.466   0.201   1.284
10613SOL     OW32737   0.426   6.560   6.821
10613SOL    HW132738   0.375   6.602   6.897
10613SOL    HW232739   0.438   6.628   6.748
10614SOL     OW32740   6.504   0.653   3.264
10614SOL    HW132741   6.474   0.568   3.220
10614SOL    HW232742   6.561   0.631   3.344
10615SOL     OW32743   6.926   6.314   5.281
10615SOL    HW132744   6.831   6.308   5.310
10615SOL    HW232745   6.971   6.388   5.331
10616SOL     OW32746   2.660   5.663   1.133
10616SOL    HW132747   2.580   5.718   1.157
10616SOL    HW232748   2.667   5.586   1.196
10617SOL     OW32749   0.406   1.514   6.988
10617SOL    HW132750   0.476   1.544   6.924
10617SOL    HW232751   0.380   1.590   0.030
10618SOL     OW32752   6.393   3.939   1.038
10618SOL    HW132753   6.472   3.925   0.979
10618SOL    HW232754   6.371   3.854   1.086
10619SOL     OW32755   0.878   3.991   3.195
10619SOL    HW132756   0.974   3.964   3.191
10619SOL    HW232757   0.872   4.090   3.208
10620SOL     OW32758   1.155   5.371   4.066
10620SOL    HW132759   1.254   5.354   4.072
10620SOL    HW232760   1.127   5.370   3.971
10621SOL     OW32761   3.444   6.394   0.760
10621SOL    HW132762   3.470   6.313   0.813
10621SOL    HW232763   3.355   6.380   0.719
10622SOL     OW32764   4.351   1.942   0.780
10622SOL    HW132765   4.421   1.888   0.826
10622SOL    HW232766   4.356   1.926   0.681
10623SOL     OW32767   6.740   1.010   4.248
10623SOL    HW132768   6.754   1.071   4.327
10623SOL    HW232769   6.707   1.063   4.170
10624SOL     OW32770   2.999   1.039   3.957
10624SOL    HW132771   2.963   1.094   4.032
10624SOL    HW232772   3.069   1.091   3.907
10625SOL     OW32773   0.842   2.824   0.150
10625SOL    HW132774   0.923   2.875   0.121
10625SOL    HW232775   0.791   2.878   0.216
10626SOL     OW32776   5.731   1.894   2.180
10626SOL    HW132777   5.746   1.992   2.163
10626SOL    HW232778   5.658   1.861   2.121
10627SOL     OW32779   5.827   5.999   4.725
10627SOL    HW132780   5.919   6.030   4.748
10627SOL    HW232781   5.797   5.930   4.791
10628SOL     OW32782   0.116   5.519   5.757
10628SOL    HW132783   0.077   5.428   5.774
10628SOL    HW232784   0.123   5.569   5.843
10629SOL     OW32785   2.198   4.598   6.681
10629SOL    HW132786   2.191   4.643   6.770
10629SOL    HW232787   2.291   4.610   6.645
10630SOL     OW32788   6.198   0.874   1.829
10630SOL    HW132789   6.098   0.871   1.831
10630SOL    HW232790   6.234   0.832   1.913
10631SOL     OW32791   1.250   6.359   4.936
10631SOL    HW132792   1.340   6.394   4.912
10631SOL    HW232793   1.221   6.398   5.024
10632SOL     OW32794   6.979   3.284   6.193
10632SOL    HW132795   6.881   3.281   6.173
10632SOL    HW232796   7.006   3.201   6.241
10633SOL     OW32797   0.664   4.963   0.198
10633SOL    HW132798   0.646   4.996   0.290
10633SOL    HW232799   0.686   4.865   0.201
10634SOL     OW32800   3.558   6.400   2.269
10634SOL    HW132801   3.463   6.407   2.299
10634SOL    HW232802   3.561   6.392   2.170
10635SOL     OW32803   1.399   1.299   1.451
10635SOL    HW132804   1.316   1.305   1.397
10635SOL    HW232805   1.475   1.343   1.402
10636SOL     OW32806   5.407   1.791   1.067
10636SOL    HW132807   5.459   1.721   1.116
10636SOL    HW232808   5.320   1.752   1.037
10637SOL     OW32809   2.912   4.359   5.906
10637SOL    HW132810   2.983   4.412   5.859
10637SOL    HW232811   2.892   4.276   5.854
10638SOL     OW32812   6.659   6.848   5.849
10638SOL    HW132813   6.703   6.935   5.825
10638SOL    HW232814   6.560   6.859   5.848
10639SOL     OW32815   3.381   2.125   4.951
10639SOL    HW132816   3.429   2.162   4.872
10639SOL    HW232817   3.301   2.074   4.921
10640SOL     OW32818   4.448   6.196   1.167
10640SOL    HW132819   4.378   6.247   1.117
10640SOL    HW232820   4.538   6.238   1.152
10641SOL     OW32821   3.610   0.567   6.414
10641SOL    HW132822   3.587   0.638   6.481
10641SOL    HW232823   3.583   0.478   6.450
10642SOL     OW32824   6.991   4.858   0.198
10642SOL    HW132825   6.922   4.825   0.262
10642SOL    HW232826   0.056   4.801   0.206
10643SOL     OW32827   4.251   3.218   5.313
10643SOL    HW132828   4.276   3.311   5.342
10643SOL    HW232829   4.334   3.161   5.311
10644SOL     OW32830   3.786   1.218   5.193
10644SOL    HW132831   3.769   1.192   5.098
10644SOL    HW232832   3.805   1.317   5.198
10645SOL     OW32833   2.215   0.015   4.883
10645SOL    HW132834   2.276   0.072   4.937
10645SOL    HW232835   2.186   6.954   4.937
10646SOL     OW32836   0.459   4.665   6.694
10646SOL    HW132837   0.433   4.573   6.667
10646SOL    HW232838   0.389   4.730   6.663
10647SOL     OW32839   0.402   6.023   0.920
10647SOL    HW132840   0.455   6.065   0.994
10647SOL    HW232841   0.360   5.939   0.953
10648SOL     OW32842   4.756   5.211   6.438
10648SOL    HW132843   4.701   5.200   6.522
10648SOL    HW232844   4.736   5.135   6.376
10649SOL     OW32845   0.166   4.001   6.094
10649SOL    HW132846   0.172   3.987   5.995
10649SOL    HW232847   0.168   4.100   6.113
10650SOL     OW32848   3.257   0.756   5.272
10650SOL    HW132849   3.256   0.754   5.172
10650SOL    HW232850   3.301   0.839   5.303
10651SOL     OW32851   2.671   0.787   5.302
10651SOL    HW132852   2.682   0.846   5.221
10651SOL    HW232853   2.750   0.797   5.361
10652SOL     OW32854   3.941   1.543   0.544
10652SOL    HW132855   4.039   1.551   0.561
10652SOL    HW232856   3.926   1.488   0.462
10653SOL     OW32857   6.157   4.051   4.017
10653SOL    HW132858   6.067   4.038   3.976
10653SOL    HW232859   6.213   3.970   4.002
10654SOL     OW32860   4.651   0.496   1.744
10654SOL    HW132861   4.630   0.593   1.738
10654SOL    HW232862   4.566   0.443   1.741
10655SOL     OW32863   2.606   5.482   1.337
10655SOL    HW132864   2.670   5.512   1.408
10655SOL    HW232865   2.514   5.475   1.376
10656SOL     OW32866   6.262   2.498   6.682
10656SOL    HW132867   6.237   2.431   6.751
10656SOL    HW232868   6.352   2.475   6.644
10657SOL     OW32869   6.582   0.236   1.351
10657SOL    HW132870   6.652   0.174   1.388
10657SOL    HW232871   6.621   0.289   1.276
10658SOL     OW32872   0.212   6.472   4.320
10658SOL    HW132873   0.114   6.474   4.338
10658SOL    HW232874   0.229   6.500   4.225
10659SOL     OW32875   5.013   1.200   1.139
10659SOL    HW132876   4.919   1.183   1.111
10659SOL    HW232877   5.075   1.144   1.084
10660SOL     OW32878   5.630   5.634   6.287
10660SOL    HW132879   5.650   5.660   6.382
10660SOL    HW232880   5.696   5.678   6.226
10661SOL     OW32881   0.336   0.678   2.379
10661SOL    HW132882   0.346   0.773   2.409
10661SOL    HW232883   0.395   0.662   2.299
10662SOL     OW32884   6.789   1.821   0.022
10662SOL    HW132885   6.778   1.760   6.961
10662SOL    HW232886   6.705   1.872   0.037
10663SOL     OW32887   0.776   2.152   0.118
10663SOL    HW132888   0.747   2.235   0.070
10663SOL    HW232889   0.721   2.140   0.201
10664SOL     OW32890   2.222   4.980   6.280
10664SOL    HW132891   2.150   5.038   6.241
10664SOL    HW232892   2.228   4.895   6.228
10665SOL     OW32893   5.897   1.486   6.777
10665SOL    HW132894   5.810   1.499   6.729
10665SOL    HW232895   5.909   1.389   6.798
10666SOL     OW32896   0.606   0.129   0.326
10666SOL    HW132897   0.534   0.074   0.284
10666SOL    HW232898   0.626   0.094   0.417
10667SOL     OW32899   2.683   2.433   5.574
10667SOL    HW132900   2.693   2.385   5.661
10667SOL    HW232901   2.595   2.409   5.532
10668SOL     OW32902   2.417   1.511   6.398
10668SOL    HW132903   2.462   1.583   6.345
10668SOL    HW232904   2.466   1.424   6.383
10669SOL     OW32905   1.372   6.441   6.268
10669SOL    HW132906   1.345   6.430   6.172
10669SOL    HW232907   1.320   6.377   6.324
10670SOL     OW32908   6.462   3.884   4.897
10670SOL    HW132909   6.403   3.835   4.832
10670SOL    HW232910   6.417   3.967   4.928
10671SOL     OW32911   1.852   2.492   3.037
10671SOL    HW132912   1.849   2.417   3.103
10671SOL    HW232913   1.947   2.521   3.025
10672SOL     OW32914   0.185   2.712   0.628
10672SOL    HW132915   0.220   2.701   0.535
10672SOL    HW232916   0.138   2.628   0.656
10673SOL     OW32917   3.280   3.703   4.200
10673SOL    HW132918   3.283   3.729   4.297
10673SOL    HW232919   3.346   3.630   4.184
10674SOL     OW32920   4.105   1.487   2.583
10674SOL    HW132921   4.185   1.486   2.643
10674SOL    HW232922   4.050   1.405   2.599
10675SOL     OW32923   1.003   1.063   5.604
10675SOL    HW132924   1.081   1.000   5.599
10675SOL    HW232925   1.034   1.151   5.640
10676SOL     OW32926   0.019   0.477   6.507
10676SOL    HW132927   6.962   0.413   6.522
10676SOL    HW232928   0.008   0.521   6.417
10677SOL     OW32929   6.077   1.190   1.002
10677SOL    HW132930   6.012   1.141   1.058
10677SOL    HW232931   6.101   1.277   1.046
10678SOL     OW32932   2.227   5.250   3.221
10678SOL    HW132933   2.265   5.341   3.240
10678SOL    HW232934   2.190   5.249   3.128
10679SOL     OW32935   5.352   4.729   3.825
10679SOL    HW132936   5.419   4.655   3.816
10679SOL    HW232937   5.266   4.691   3.858
10680SOL     OW32938   0.560   2.890   3.601
10680SOL    HW132939   0.629   2.951   3.562
10680SOL    HW232940   0.539   2.818   3.535
10681SOL     OW32941   0.603   2.662   6.797
10681SOL    HW132942   0.558   2.634   6.712
10681SOL    HW232943   0.545   2.638   6.875
10682SOL     OW32944   6.573   1.760   2.960
10682SOL    HW132945   6.501   1.756   3.030
10682SOL    HW232946   6.597   1.855   2.942
10683SOL     OW32947   1.317   0.363   4.350
10683SOL    HW132948   1.275   0.427   4.414
10683SOL    HW232949   1.273   0.273   4.359
10684SOL     OW32950   4.880   5.968   0.565
10684SOL    HW132951   4.913   5.894   0.507
10684SOL    HW232952   4.780   5.969   0.565
10685SOL     OW32953   6.305   2.925   2.548
10685SOL    HW132954   6.382   2.883   2.501
10685SOL    HW232955   6.222   2.872   2.532
10686SOL     OW32956   4.515   4.838   1.383
10686SOL    HW132957   4.495   4.743   1.407
10686SOL    HW232958   4.448   4.871   1.318
10687SOL     OW32959   6.391   5.113   1.160
10687SOL    HW132960   6.320   5.048   1.134
10687SOL    HW232961   6.456   5.069   1.223
10688SOL     OW32962   0.420   4.912   1.387
10688SOL    HW132963   0.353   4.856   1.434
10688SOL    HW232964   0.485   4.950   1.453
10689SOL     OW32965   1.027   0.366   0.853
10689SOL    HW132966   0.945   0.321   0.887
10689SOL    HW232967   1.096   0.297   0.831
10690SOL     OW32968   4.342   6.619   3.199
10690SOL    HW132969   4.405   6.684   3.242
10690SOL    HW232970   4.297   6.663   3.120
10691SOL     OW32971   5.910   0.910   1.898
10691SOL    HW132972   5.898   0.988   1.960
10691SOL    HW232973   5.886   0.938   1.805
10692SOL     OW32974   6.592   6.548   4.077
10692SOL    HW132975   6.503   6.505   4.090
10692SOL    HW232976   6.579   6.637   4.031
10693SOL     OW32977   5.024   3.050   4.416
10693SOL    HW132978   5.104   3.017   4.366
10693SOL    HW232979   5.041   3.048   4.514
10694SOL     OW32980   2.241   5.827   0.517
10694SOL    HW132981   2.276   5.920   0.511
10694SOL    HW232982   2.179   5.810   0.441
10695SOL     OW32983   5.631   3.409   5.652
10695SOL    HW132984   5.655   3.468   5.575
10695SOL    HW232985   5.554   3.350   5.626
10696SOL     OW32986   6.386   6.826   1.442
10696SOL    HW132987   6.299   6.801   1.399
10696SOL    HW232988   6.372   6.904   1.502
10697SOL     OW32989   1.700   6.395   2.914
10697SOL    HW132990   1.702   6.413   3.012
10697SOL    HW232991   1.772   6.447   2.868
10698SOL     OW32992   2.894   0.564   4.518
10698SOL    HW132993   2.842   0.587   4.436
10698SOL    HW232994   2.971   0.505   4.493
10699SOL     OW32995   1.472   2.742   3.623
10699SOL    HW132996   1.466   2.732   3.722
10699SOL    HW232997   1.547   2.803   3.599
10700SOL     OW32998   0.772   3.002   2.513
10700SOL    HW132999   0.861   3.038   2.485
10700SOL    HW233000   0.780   2.960   2.603
10701SOL     OW33001   2.640   0.160   1.195
10701SOL    HW133002   2.568   0.094   1.176
10701SOL    HW233003   2.600   0.244   1.231
10702SOL     OW33004   5.268   2.317   0.728
10702SOL    HW133005   5.298   2.226   0.700
10702SOL    HW233006   5.256   2.319   0.827
10703SOL     OW33007   3.706   2.963   4.628
10703SOL    HW133008   3.726   2.901   4.704
10703SOL    HW233009   3.674   2.909   4.550
10704SOL     OW33010   5.681   5.904   2.522
10704SOL    HW133011   5.721   5.993   2.545
10704SOL    HW233012   5.733   5.863   2.447
10705SOL     OW33013   1.413   3.331   6.412
10705SOL    HW133014   1.510   3.350   6.424
10705SOL    HW233015   1.362   3.369   6.489
10706SOL     OW33016   3.426   3.391   0.940
10706SOL    HW133017   3.441   3.321   1.009
10706SOL    HW233018   3.497   3.461   0.946
10707SOL     OW33019   6.017   6.893   6.286
10707SOL    HW133020   6.072   6.865   6.208
10707SOL    HW233021   6.027   6.827   6.360
10708SOL     OW33022   4.866   1.515   1.756
10708SOL    HW133023   4.841   1.594   1.700
10708SOL    HW233024   4.798   1.442   1.743
10709SOL     OW33025   0.968   6.750   6.201
10709SOL    HW133026   0.956   6.849   6.201
10709SOL    HW233027   0.944   6.712   6.290
10710SOL     OW33028   0.268   6.359   3.527
10710SOL    HW133029   0.207   6.414   3.585
10710SOL    HW233030   0.341   6.417   3.491
10711SOL     OW33031   2.220   4.795   5.712
10711SOL    HW133032   2.135   4.831   5.675
10711SOL    HW233033   2.201   4.740   5.794
10712SOL     OW33034   3.387   1.518   6.617
10712SOL    HW133035   3.307   1.457   6.615
10712SOL    HW233036   3.373   1.593   6.553
10713SOL     OW33037   1.798   6.637   0.244
10713SOL    HW133038   1.826   6.541   0.231
10713SOL    HW233039   1.827   6.667   0.335
10714SOL     OW33040   5.535   5.482   4.478
10714SOL    HW133041   5.535   5.515   4.384
10714SOL    HW233042   5.620   5.510   4.523
10715SOL     OW33043   5.911   0.479   2.737
10715SOL    HW133044   5.983   0.541   2.703
10715SOL    HW233045   5.862   0.440   2.659
10716SOL     OW33046   0.137   0.708   1.560
10716SOL    HW133047   0.087   0.672   1.639
10716SOL    HW233048   0.075   0.763   1.504
10717SOL     OW33049   0.478   6.510   1.938
10717SOL    HW133050   0.437   6.420   1.950
10717SOL    HW233051   0.407   6.578   1.927
10718SOL     OW33052   1.144   4.280   5.484
10718SOL    HW133053   1.142   4.250   5.388
10718SOL    HW233054   1.216   4.231   5.533
10719SOL     OW33055   3.758   6.228   2.369
10719SOL    HW133056   3.725   6.134   2.382
10719SOL    HW233057   3.683   6.285   2.337
10720SOL     OW33058   0.463   2.998   6.074
10720SOL    HW133059   0.526   3.059   6.025
10720SOL    HW233060   0.379   2.988   6.021
10721SOL     OW33061   5.081   1.905   4.235
10721SOL    HW133062   5.065   1.901   4.334
10721SOL    HW233063   5.109   1.815   4.202
10722SOL     OW33064   0.511   5.306   0.369
10722SOL    HW133065   0.423   5.335   0.330
10722SOL    HW233066   0.581   5.375   0.349
10723SOL     OW33067   6.650   3.967   6.498
10723SOL    HW133068   6.730   3.976   6.439
10723SOL    HW233069   6.636   3.871   6.522
10724SOL     OW33070   3.613   0.018   5.846
10724SOL    HW133071   3.565   6.981   5.777
10724SOL    HW233072   3.546   0.063   5.905
10725SOL     OW33073   0.355   6.656   5.280
10725SOL    HW133074   0.306   6.710   5.212
10725SOL    HW233075   0.300   6.576   5.306
10726SOL     OW33076   6.810   0.218   3.058
10726SOL    HW133077   6.827   0.299   3.114
10726SOL    HW233078   6.808   0.137   3.116
10727SOL     OW33079   4.853   6.648   6.240
10727SOL    HW133080   4.789   6.594   6.295
10727SOL    HW233081   4.872   6.734   6.287
10728SOL     OW33082   5.967   5.600   3.656
10728SOL    HW133083   6.003   5.690   3.680
10728SOL    HW233084   5.969   5.589   3.556
10729SOL     OW33085   6.951   2.747   4.487
10729SOL    HW133086   6.921   2.726   4.580
10729SOL    HW233087   0.017   2.697   4.466
10730SOL     OW33088   1.785   6.496   4.230
10730SOL    HW133089   1.699   6.445   4.237
10730SOL    HW233090   1.787   6.568   4.299
10731SOL     OW33091   4.894   4.862   6.172
10731SOL    HW133092   4.885   4.795   6.098
10731SOL    HW233093   4.939   4.819   6.250
10732SOL     OW33094   6.479   5.995   2.470
10732SOL    HW133095   6.486   5.950   2.559
10732SOL    HW233096   6.387   6.031   2.458
10733SOL     OW33097   0.362   1.747   6.370
10733SOL    HW133098   0.371   1.677   6.298
10733SOL    HW233099   0.267   1.749   6.402
10734SOL     OW33100   0.474   1.023   4.800
10734SOL    HW133101   0.386   1.060   4.828
10734SOL    HW233102   0.460   0.937   4.750
10735SOL     OW33103   6.790   0.437   1.799
10735SOL    HW133104   6.804   0.492   1.881
10735SOL    HW233105   6.867   0.449   1.736
10736SOL     OW33106   6.121   5.720   4.012
10736SOL    HW133107   6.149   5.811   4.042
10736SOL    HW233108   6.064   5.678   4.081
10737SOL     OW33109   6.777   0.706   1.119
10737SOL    HW133110   6.838   0.646   1.068
10737SOL    HW233111   6.692   0.719   1.068
10738SOL     OW33112   1.832   6.942   1.753
10738SOL    HW133113   1.810   6.864   1.694
10738SOL    HW233114   1.797   0.009   1.711
10739SOL     OW33115   4.958   2.664   4.502
10739SOL    HW133116   4.874   2.716   4.491
10739SOL    HW233117   5.008   2.664   4.415
10740SOL     OW33118   2.921   0.583   5.935
10740SOL    HW133119   2.950   0.530   6.015
10740SOL    HW233120   2.989   0.572   5.862
10741SOL     OW33121   1.180   2.857   4.071
10741SOL    HW133122   1.205   2.783   4.133
10741SOL    HW233123   1.082   2.873   4.075
10742SOL     OW33124   0.360   0.143   1.915
10742SOL    HW133125   0.306   0.084   1.975
10742SOL    HW233126   0.453   0.151   1.951
10743SOL     OW33127   3.556   1.845   5.924
10743SOL    HW133128   3.591   1.934   5.898
10743SOL    HW233129   3.592   1.775   5.862
10744SOL     OW33130   2.364   1.999   1.198
10744SOL    HW133131   2.286   1.974   1.141
10744SOL    HW233132   2.338   2.074   1.259
10745SOL     OW33133   2.800   5.553   1.528
10745SOL    HW133134   2.756   5.547   1.617
10745SOL    HW233135   2.873   5.484   1.522
10746SOL     OW33136   2.022   5.095   6.154
10746SOL    HW133137   2.079   5.165   6.112
10746SOL    HW233138   1.945   5.138   6.201
10747SOL     OW33139   0.235   0.179   4.396
10747SOL    HW133140   0.275   0.261   4.437
10747SOL    HW233141   0.207   0.200   4.302
10748SOL     OW33142   3.090   6.546   2.502
10748SOL    HW133143   3.005   6.591   2.529
10748SOL    HW233144   3.069   6.465   2.447
10749SOL     OW33145   5.307   3.866   1.950
10749SOL    HW133146   5.228   3.865   2.013
10749SOL    HW233147   5.279   3.827   1.862
10750SOL     OW33148   3.942   1.949   4.004
10750SOL    HW133149   4.035   1.980   4.021
10750SOL    HW233150   3.905   1.996   3.923
10751SOL     OW33151   6.754   6.338   4.038
10751SOL    HW133152   6.687   6.407   4.065
10751SOL    HW233153   6.752   6.262   4.103
10752SOL     OW33154   0.286   6.457   6.506
10752SOL    HW133155   0.238   6.542   6.528
10752SOL    HW233156   0.286   6.397   6.586
10753SOL     OW33157   5.352   6.663   4.648
10753SOL    HW133158   5.342   6.575   4.695
10753SOL    HW233159   5.290   6.665   4.569
10754SOL     OW33160   0.421   5.680   2.050
10754SOL    HW133161   0.380   5.632   2.128
10754SOL    HW233162   0.516   5.650   2.038
10755SOL     OW33163   0.138   1.969   1.688
10755SOL    HW133164   0.236   1.980   1.672
10755SOL    HW233165   0.115   1.871   1.694
10756SOL     OW33166   1.417   0.019   6.342
10756SOL    HW133167   1.337   0.049   6.393
10756SOL    HW233168   1.489   7.010   6.407
10757SOL     OW33169   6.896   2.832   1.900
10757SOL    HW133170   6.888   2.763   1.973
10757SOL    HW233171   6.817   2.893   1.903
10758SOL     OW33172   1.202   1.607   0.672
10758SOL    HW133173   1.130   1.666   0.634
10758SOL    HW233174   1.284   1.661   0.690
10759SOL     OW33175   3.725   4.160   4.890
10759SOL    HW133176   3.635   4.120   4.910
10759SOL    HW233177   3.742   4.236   4.951
10760SOL     OW33178   1.058   5.168   6.733
10760SOL    HW133179   1.017   5.104   6.797
10760SOL    HW233180   0.989   5.231   6.699
10761SOL     OW33181   1.464   1.253   6.525
10761SOL    HW133182   1.543   1.212   6.570
10761SOL    HW233183   1.479   1.351   6.513
10762SOL     OW33184   1.542   6.559   0.431
10762SOL    HW133185   1.632   6.553   0.473
10762SOL    HW233186   1.542   6.510   0.344
10763SOL     OW33187   4.871   1.055   2.589
10763SOL    HW133188   4.956   1.061   2.537
10763SOL    HW233189   4.854   1.142   2.636
10764SOL     OW33190   5.235   6.122   4.948
10764SOL    HW133191   5.267   6.055   4.882
10764SOL    HW233192   5.148   6.161   4.917
10765SOL     OW33193   0.616   2.340   1.026
10765SOL    HW133194   0.570   2.403   0.963
10765SOL    HW233195   0.709   2.371   1.042
10766SOL     OW33196   2.419   4.995   6.107
10766SOL    HW133197   2.496   4.933   6.124
10766SOL    HW233198   2.358   4.994   6.186
10767SOL     OW33199   1.764   5.164   6.746
10767SOL    HW133200   1.700   5.241   6.742
10767SOL    HW233201   1.857   5.199   6.760
10768SOL     OW33202   5.222   6.086   6.519
10768SOL    HW133203   5.188   6.030   6.443
10768SOL    HW233204   5.258   6.026   6.590
10769SOL     OW33205   3.018   3.863   4.410
10769SOL    HW133206   3.015   3.880   4.312
10769SOL    HW233207   3.104   3.818   4.434
10770SOL     OW33208   4.811   0.052   3.520
10770SOL    HW133209   4.874   7.000   3.486
10770SOL    HW233210   4.784   0.029   3.614
10771SOL     OW33211   4.368   6.013   5.932
10771SOL    HW133212   4.356   6.080   5.859
10771SOL    HW233213   4.454   6.031   5.980
10772SOL     OW33214   4.677   4.278   2.938
10772SOL    HW133215   4.666   4.232   3.027
10772SOL    HW233216   4.611   4.353   2.931
10773SOL     OW33217   0.511   4.133   0.680
10773SOL    HW133218   0.542   4.227   0.694
10773SOL    HW233219   0.524   4.081   0.764
10774SOL     OW33220   0.496   3.237   0.993
10774SOL    HW133221   0.530   3.330   0.980
10774SOL    HW233222   0.425   3.218   0.926
10775SOL     OW33223   2.138   4.569   0.168
10775SOL    HW133224   2.052   4.554   0.217
10775SOL    HW233225   2.135   4.522   0.080
10776SOL     OW33226   0.746   3.321   3.019
10776SOL    HW133227   0.746   3.403   2.963
10776SOL    HW233228   0.775   3.243   2.964
10777SOL     OW33229   1.726   0.213   1.670
10777SOL    HW133230   1.757   0.304   1.642
10777SOL    HW233231   1.630   0.202   1.646
10778SOL     OW33232   4.500   0.415   3.444
10778SOL    HW133233   4.506   0.502   3.493
10778SOL    HW233234   4.592   0.386   3.418
10779SOL     OW33235   5.848   2.762   6.133
10779SOL    HW133236   5.895   2.816   6.063
10779SOL    HW233237   5.793   2.691   6.089
10780SOL     OW33238   1.319   5.030   5.135
10780SOL    HW133239   1.299   5.096   5.063
10780SOL    HW233240   1.417   5.032   5.155
10781SOL     OW33241   6.130   2.212   6.126
10781SOL    HW133242   6.207   2.179   6.071
10781SOL    HW233243   6.068   2.265   6.068
10782SOL     OW33244   0.981   3.320   5.222
10782SOL    HW133245   1.043   3.255   5.178
10782SOL    HW233246   0.909   3.270   5.270
10783SOL     OW33247   1.736   4.162   3.697
10783SOL    HW133248   1.760   4.223   3.622
10783SOL    HW233249   1.725   4.216   3.781
10784SOL     OW33250   4.927   5.267   4.015
10784SOL    HW133251   5.016   5.297   3.982
10784SOL    HW233252   4.937   5.229   4.108
10785SOL     OW33253   1.501   5.157   1.840
10785SOL    HW133254   1.407   5.175   1.869
10785SOL    HW233255   1.563   5.222   1.884
10786SOL     OW33256   5.275   1.425   2.700
10786SOL    HW133257   5.291   1.392   2.793
10786SOL    HW233258   5.278   1.348   2.636
10787SOL     OW33259   3.606   1.789   3.706
10787SOL    HW133260   3.681   1.821   3.648
10787SOL    HW233261   3.611   1.689   3.714
10788SOL     OW33262   1.456   3.300   6.734
10788SOL    HW133263   1.400   3.383   6.727
10788SOL    HW233264   1.496   3.295   6.826
10789SOL     OW33265   6.323   1.631   2.615
10789SOL    HW133266   6.348   1.691   2.691
10789SOL    HW233267   6.401   1.621   2.553
10790SOL     OW33268   6.736   2.042   5.518
10790SOL    HW133269   6.770   1.952   5.545
10790SOL    HW233270   6.656   2.031   5.459
10791SOL     OW33271   1.815   3.114   3.803
10791SOL    HW133272   1.786   3.018   3.803
10791SOL    HW233273   1.905   3.122   3.846
10792SOL     OW33274   3.746   1.184   2.182
10792SOL    HW133275   3.672   1.176   2.248
10792SOL    HW233276   3.825   1.131   2.213
10793SOL     OW33277   3.428   1.782   4.679
10793SOL    HW133278   3.474   1.861   4.638
10793SOL    HW233279   3.392   1.808   4.769
10794SOL     OW33280   4.730   2.904   6.603
10794SOL    HW133281   4.704   2.968   6.530
10794SOL    HW233282   4.826   2.918   6.626
10795SOL     OW33283   5.811   3.356   3.698
10795SOL    HW133284   5.811   3.419   3.620
10795SOL    HW233285   5.897   3.363   3.747
10796SOL     OW33286   0.564   1.378   6.106
10796SOL    HW133287   0.538   1.428   6.188
10796SOL    HW233288   0.582   1.443   6.032
10797SOL     OW33289   5.554   4.826   6.596
10797SOL    HW133290   5.558   4.840   6.497
10797SOL    HW233291   5.638   4.859   6.638
10798SOL     OW33292   1.861   6.089   0.354
10798SOL    HW133293   1.960   6.103   0.343
10798SOL    HW233294   1.835   6.110   0.448
10799SOL     OW33295   2.491   0.665   2.654
10799SOL    HW133296   2.421   0.736   2.645
10799SOL    HW233297   2.488   0.627   2.746
10800SOL     OW33298   2.099   0.402   4.867
10800SOL    HW133299   2.088   0.308   4.834
10800SOL    HW233300   2.137   0.401   4.959
10801SOL     OW33301   2.921   5.999   6.817
10801SOL    HW133302   2.917   6.028   6.721
10801SOL    HW233303   3.010   6.023   6.856
10802SOL     OW33304   0.952   4.869   4.258
10802SOL    HW133305   0.884   4.857   4.185
10802SOL    HW233306   1.024   4.801   4.248
10803SOL     OW33307   6.796   4.127   4.616
10803SOL    HW133308   6.756   4.037   4.601
10803SOL    HW233309   6.878   4.137   4.561
10804SOL     OW33310   3.896   4.587   0.566
10804SOL    HW133311   3.864   4.527   0.640
10804SOL    HW233312   3.889   4.539   0.479
10805SOL     OW33313   4.523   6.370   0.576
10805SOL    HW133314   4.472   6.351   0.660
10805SOL    HW233315   4.618   6.343   0.587
10806SOL     OW33316   5.292   2.893   6.371
10806SOL    HW133317   5.283   2.841   6.286
10806SOL    HW233318   5.243   2.980   6.363
10807SOL     OW33319   4.760   2.446   5.220
10807SOL    HW133320   4.764   2.349   5.245
10807SOL    HW233321   4.852   2.481   5.207
10808SOL     OW33322   0.495   2.208   6.896
10808SOL    HW133323   0.575   2.256   6.932
10808SOL    HW233324   0.498   2.112   6.925
10809SOL     OW33325   1.151   0.968   2.381
10809SOL    HW133326   1.185   1.044   2.326
10809SOL    HW233327   1.161   0.990   2.478
10810SOL     OW33328   1.764   0.850   6.008
10810SOL    HW133329   1.767   0.935   5.955
10810SOL    HW233330   1.831   0.786   5.970
10811SOL     OW33331   4.258   6.033   6.521
10811SOL    HW133332   4.180   6.042   6.458
10811SOL    HW233333   4.258   6.110   6.584
10812SOL     OW33334   6.468   2.787   3.286
10812SOL    HW133335   6.494   2.826   3.198
10812SOL    HW233336   6.493   2.851   3.359
10813SOL     OW33337   2.942   6.024   2.357
10813SOL    HW133338   2.845   6.044   2.342
10813SOL    HW233339   2.951   5.942   2.413
10814SOL     OW33340   1.986   6.446   4.766
10814SOL    HW133341   2.073   6.460   4.720
10814SOL    HW233342   2.002   6.401   4.855
10815SOL     OW33343   5.319   1.497   5.603
10815SOL    HW133344   5.412   1.532   5.591
10815SOL    HW233345   5.316   1.436   5.682
10816SOL     OW33346   2.246   1.752   1.597
10816SOL    HW133347   2.239   1.689   1.675
10816SOL    HW233348   2.340   1.787   1.591
10817SOL     OW33349   3.527   1.781   2.059
10817SOL    HW133350   3.590   1.813   1.988
10817SOL    HW233351   3.474   1.858   2.095
10818SOL     OW33352   4.859   3.532   6.366
10818SOL    HW133353   4.817   3.462   6.308
10818SOL    HW233354   4.939   3.569   6.319
10819SOL     OW33355   1.901   4.125   5.156
10819SOL    HW133356   1.909   4.223   5.174
10819SOL    HW233357   1.958   4.074   5.220
10820SOL     OW33358   0.972   5.856   5.324
10820SOL    HW133359   1.062   5.893   5.346
10820SOL    HW233360   0.977   5.756   5.318
10821SOL     OW33361   0.285   0.561   6.770
10821SOL    HW133362   0.343   0.538   6.692
10821SOL    HW233363   0.336   0.618   6.835
10822SOL     OW33364   0.718   4.498   6.303
10822SOL    HW133365   0.631   4.452   6.283
10822SOL    HW233366   0.793   4.441   6.269
10823SOL     OW33367   1.869   2.338   0.674
10823SOL    HW133368   1.964   2.313   0.694
10823SOL    HW233369   1.866   2.433   0.643
10824SOL     OW33370   5.303   1.197   4.408
10824SOL    HW133371   5.388   1.234   4.372
10824SOL    HW233372   5.229   1.213   4.342
10825SOL     OW33373   3.155   1.401   2.553
10825SOL    HW133374   3.122   1.376   2.644
10825SOL    HW233375   3.251   1.377   2.544
10826SOL     OW33376   6.745   3.576   1.480
10826SOL    HW133377   6.726   3.524   1.562
10826SOL    HW233378   6.670   3.566   1.415
10827SOL     OW33379   0.830   2.576   4.313
10827SOL    HW133380   0.743   2.549   4.353
10827SOL    HW233381   0.887   2.495   4.298
10828SOL     OW33382   2.487   4.791   6.996
10828SOL    HW133383   2.457   4.708   6.949
10828SOL    HW233384   2.539   4.848   6.933
10829SOL     OW33385   2.340   4.331   1.923
10829SOL    HW133386   2.369   4.369   2.011
10829SOL    HW233387   2.377   4.387   1.849
10830SOL     OW33388   5.861   0.742   3.513
10830SOL    HW133389   5.824   0.834   3.499
10830SOL    HW233390   5.919   0.718   3.435
10831SOL     OW33391   5.351   2.366   2.077
10831SOL    HW133392   5.425   2.410   2.025
10831SOL    HW233393   5.272   2.428   2.081
10832SOL     OW33394   0.516   3.127   2.562
10832SOL    HW133395   0.471   3.135   2.473
10832SOL    HW233396   0.604   3.081   2.551
10833SOL     OW33397   3.096   6.909   4.352
10833SOL    HW133398   3.139   7.000   4.355
10833SOL    HW233399   3.061   6.885   4.442
10834SOL     OW33400   0.359   1.644   5.947
10834SOL    HW133401   0.429   1.710   5.973
10834SOL    HW233402   0.327   1.594   6.028
10835SOL     OW33403   1.251   2.056   0.571
10835SOL    HW133404   1.202   1.969   0.570
10835SOL    HW233405   1.214   2.116   0.500
10836SOL     OW33406   0.991   2.746   1.259
10836SOL    HW133407   0.983   2.780   1.165
10836SOL    HW233408   0.964   2.818   1.323
10837SOL     OW33409   0.660   5.567   0.594
10837SOL    HW133410   0.746   5.537   0.636
10837SOL    HW233411   0.648   5.521   0.506
10838SOL     OW33412   5.992   6.219   0.837
10838SOL    HW133413   5.972   6.216   0.739
10838SOL    HW233414   5.920   6.270   0.885
10839SOL     OW33415   2.229   1.977   6.598
10839SOL    HW133416   2.226   2.074   6.625
10839SOL    HW233417   2.283   1.926   6.665
10840SOL     OW33418   2.028   0.318   2.754
10840SOL    HW133419   2.023   0.354   2.848
10840SOL    HW233420   2.124   0.308   2.728
10841SOL     OW33421   4.377   3.839   0.827
10841SOL    HW133422   4.473   3.837   0.799
10841SOL    HW233423   4.372   3.832   0.927
10842SOL     OW33424   6.412   1.800   1.874
10842SOL    HW133425   6.444   1.775   1.965
10842SOL    HW233426   6.442   1.893   1.851
10843SOL     OW33427   0.976   2.509   1.419
10843SOL    HW133428   0.979   2.593   1.365
10843SOL    HW233429   1.052   2.450   1.392
10844SOL     OW33430   5.304   0.100   4.030
10844SOL    HW133431   5.341   0.009   4.044
10844SOL    HW233432   5.357   0.147   3.959
10845SOL     OW33433   2.276   3.124   1.133
10845SOL    HW133434   2.314   3.183   1.204
10845SOL    HW233435   2.178   3.140   1.125
10846SOL     OW33436   3.639   2.911   2.029
10846SOL    HW133437   3.644   2.812   2.013
10846SOL    HW233438   3.649   2.959   1.942
10847SOL     OW33439   4.315   1.994   5.555
10847SOL    HW133440   4.343   2.067   5.493
10847SOL    HW233441   4.377   1.917   5.545
10848SOL     OW33442   1.445   0.732   6.640
10848SOL    HW133443   1.510   0.799   6.605
10848SOL    HW233444   1.390   0.774   6.712
10849SOL     OW33445   1.509   4.607   4.376
10849SOL    HW133446   1.414   4.606   4.344
10849SOL    HW233447   1.569   4.572   4.304
10850SOL     OW33448   5.675   0.650   2.545
10850SOL    HW133449   5.604   0.582   2.564
10850SOL    HW233450   5.721   0.627   2.459
10851SOL     OW33451   4.385   2.757   6.848
10851SOL    HW133452   4.445   2.766   6.769
10851SOL    HW233453   4.436   2.716   6.924
10852SOL     OW33454   5.909   0.776   5.936
10852SOL    HW133455   5.947   0.705   5.996
10852SOL    HW233456   5.984   0.827   5.894
10853SOL     OW33457   3.389   0.426   4.689
10853SOL    HW133458   3.400   0.503   4.627
10853SOL    HW233459   3.296   0.390   4.681
10854SOL     OW33460   6.291   0.183   0.714
10854SOL    HW133461   6.192   0.195   0.726
10854SOL    HW233462   6.310   0.089   0.686
10855SOL     OW33463   0.323   5.676   1.421
10855SOL    HW133464   0.393   5.728   1.372
10855SOL    HW233465   0.361   5.643   1.508
10856SOL     OW33466   5.639   6.311   6.643
10856SOL    HW133467   5.677   6.312   6.736
10856SOL    HW233468   5.602   6.401   6.621
10857SOL     OW33469   6.490   6.654   4.840
10857SOL    HW133470   6.424   6.671   4.913
10857SOL    HW233471   6.487   6.730   4.775
10858SOL     OW33472   1.800   2.155   0.284
10858SOL    HW133473   1.838   2.245   0.307
10858SOL    HW233474   1.721   2.137   0.341
10859SOL     OW33475   2.365   5.391   2.354
10859SOL    HW133476   2.385   5.367   2.449
10859SOL    HW233477   2.283   5.343   2.324
10860SOL     OW33478   6.143   1.662   1.421
10860SOL    HW133479   6.164   1.565   1.437
10860SOL    HW233480   6.119   1.706   1.508
10861SOL     OW33481   1.921   4.228   1.415
10861SOL    HW133482   1.988   4.289   1.458
10861SOL    HW233483   1.871   4.278   1.344
10862SOL     OW33484   3.561   4.203   5.255
10862SOL    HW133485   3.544   4.162   5.166
10862SOL    HW233486   3.515   4.292   5.261
10863SOL     OW33487   1.544   0.407   3.194
10863SOL    HW133488   1.550   0.504   3.172
10863SOL    HW233489   1.559   0.394   3.292
10864SOL     OW33490   3.136   3.994   1.875
10864SOL    HW133491   3.151   3.996   1.974
10864SOL    HW233492   3.113   4.086   1.843
10865SOL     OW33493   2.795   2.281   2.854
10865SOL    HW133494   2.868   2.282   2.785
10865SOL    HW233495   2.834   2.270   2.945
10866SOL     OW33496   1.007   3.366   4.411
10866SOL    HW133497   0.986   3.462   4.430
10866SOL    HW233498   0.987   3.311   4.492
10867SOL     OW33499   4.683   3.135   0.141
10867SOL    HW133500   4.648   3.215   0.189
10867SOL    HW233501   4.753   3.090   0.197
10868SOL     OW33502   1.269   7.003   5.125
10868SOL    HW133503   1.266   0.004   5.223
10868SOL    HW233504   1.351   6.950   5.103
10869NA      NA33505   0.183   0.942   6.594
10870NA      NA33506   4.642   4.829   5.108
10871NA      NA33507   0.731   4.831   3.099
10872NA      NA33508   6.179   3.658   3.554
10873NA      NA33509   4.033   2.387   5.290
10874NA      NA33510   2.143   4.155   6.810
10875NA      NA33511   1.566   5.533   0.481
10876NA      NA33512   4.244   4.859   2.221
10877NA      NA33513   5.288   3.248   1.313
10878NA      NA33514   3.891   1.780   0.574
10879NA      NA33515   5.410   6.394   1.376
10880NA      NA33516   2.828   6.617   4.634
10881NA      NA33517   3.920   5.236   2.803
10882NA      NA33518   4.176   4.948   6.555
   7.01730   7.01730   7.01730
