Generated by trjconv : CNT in water t= 430.00000
33518
    1C        C    1   2.844   2.766   4.743
    1C        C    2   2.900   2.720   4.864
    1C        C    3   2.835   2.763   4.980
    1C        C    4   2.848   2.768   4.258
    1C        C    5   2.900   2.722   4.380
    1C        C    6   2.841   2.764   4.501
    1C        C    7   3.011   2.633   4.622
    1C        C    8   2.895   2.714   4.622
    1C        C    9   3.072   2.594   4.743
    1C        C   10   3.004   2.625   4.863
    1C        C   11   3.180   2.490   4.975
    1C        C   12   3.057   2.557   4.974
    1C        C   13   2.847   2.768   3.770
    1C        C   14   2.898   2.716   3.892
    1C        C   15   2.849   2.768   4.014
    1C        C   16   3.013   2.634   4.132
    1C        C   17   2.901   2.720   4.136
    1C        C   18   3.075   2.601   4.255
    1C        C   19   3.015   2.640   4.377
    1C        C   20   3.205   2.550   4.504
    1C        C   21   3.074   2.602   4.500
    1C        C   22   3.275   2.526   4.624
    1C        C   23   3.203   2.540   4.745
    1C        C   24   3.411   2.481   4.867
    1C        C   25   3.269   2.495   4.863
    1C        C   26   3.487   2.468   4.984
    1C        C   27   2.849   2.764   3.280
    1C        C   28   2.905   2.722   3.403
    1C        C   29   2.852   2.768   3.526
    1C        C   30   3.016   2.637   3.645
    1C        C   31   2.905   2.724   3.649
    1C        C   32   3.075   2.599   3.768
    1C        C   33   3.011   2.631   3.890
    1C        C   34   3.205   2.540   4.014
    1C        C   35   3.076   2.599   4.011
    1C        C   36   3.273   2.521   4.136
    1C        C   37   3.206   2.549   4.257
    1C        C   38   3.411   2.506   4.380
    1C        C   39   3.273   2.532   4.381
    1C        C   40   3.482   2.496   4.502
    1C        C   41   3.412   2.492   4.624
    1C        C   42   3.627   2.478   4.743
    1C        C   43   3.485   2.482   4.745
    1C        C   44   3.702   2.484   4.863
    1C        C   45   3.626   2.476   4.980
    1C        C   46   2.837   2.750   2.792
    1C        C   47   2.897   2.711   2.914
    1C        C   48   2.845   2.762   3.035
    1C        C   49   3.017   2.638   3.161
    1C        C   50   2.899   2.716   3.157
    1C        C   51   3.079   2.599   3.282
    1C        C   52   3.017   2.636   3.403
    1C        C   53   3.203   2.533   3.525
    1C        C   54   3.075   2.593   3.525
    1C        C   55   3.273   2.520   3.646
    1C        C   56   3.205   2.545   3.768
    1C        C   57   3.410   2.496   3.892
    1C        C   58   3.270   2.520   3.890
    1C        C   59   3.481   2.494   4.013
    1C        C   60   3.413   2.499   4.137
    1C        C   61   3.624   2.497   4.258
    1C        C   62   3.483   2.495   4.259
    1C        C   63   3.696   2.503   4.380
    1C        C   64   3.623   2.494   4.501
    1C        C   65   3.829   2.540   4.618
    1C        C   66   3.697   2.490   4.621
    1C        C   67   3.899   2.564   4.738
    1C        C   68   3.836   2.529   4.859
    1C        C   69   4.051   2.581   4.972
    1C        C   70   3.919   2.533   4.971
    1C        C   71   2.823   2.734   2.307
    1C        C   72   2.887   2.697   2.427
    1C        C   73   2.833   2.745   2.548
    1C        C   74   3.006   2.621   2.670
    1C        C   75   2.888   2.700   2.670
    1C        C   76   3.071   2.591   2.792
    1C        C   77   3.012   2.630   2.915
    1C        C   78   3.201   2.536   3.035
    1C        C   79   3.074   2.599   3.038
    1C        C   80   3.269   2.512   3.156
    1C        C   81   3.207   2.539   3.281
    1C        C   82   3.411   2.486   3.402
    1C        C   83   3.272   2.511   3.403
    1C        C   84   3.481   2.487   3.524
    1C        C   85   3.413   2.497   3.648
    1C        C   86   3.623   2.494   3.768
    1C        C   87   3.482   2.493   3.771
    1C        C   88   3.692   2.503   3.891
    1C        C   89   3.622   2.498   4.013
    1C        C   90   3.828   2.549   4.134
    1C        C   91   3.693   2.508   4.135
    1C        C   92   3.893   2.577   4.256
    1C        C   93   3.831   2.545   4.379
    1C        C   94   4.026   2.634   4.497
    1C        C   95   3.900   2.570   4.500
    1C        C   96   4.089   2.668   4.618
    1C        C   97   4.028   2.625   4.738
    1C        C   98   4.185   2.767   4.859
    1C        C   99   4.096   2.656   4.859
    1C        C  100   4.211   2.841   4.975
    1C        C  101   2.819   2.727   2.066
    1C        C  102   2.985   2.590   2.186
    1C        C  103   2.874   2.680   2.185
    1C        C  104   3.056   2.564   2.306
    1C        C  105   3.000   2.612   2.426
    1C        C  106   3.194   2.525   2.546
    1C        C  107   3.065   2.583   2.548
    1C        C  108   3.265   2.508   2.667
    1C        C  109   3.199   2.532   2.790
    1C        C  110   3.405   2.486   2.914
    1C        C  111   3.267   2.513   2.913
    1C        C  112   3.479   2.486   3.034
    1C        C  113   3.408   2.487   3.157
    1C        C  114   3.620   2.493   3.277
    1C        C  115   3.479   2.479   3.278
    1C        C  116   3.690   2.503   3.399
    1C        C  117   3.622   2.500   3.523
    1C        C  118   3.829   2.545   3.644
    1C        C  119   3.692   2.509   3.645
    1C        C  120   3.892   2.571   3.768
    1C        C  121   3.828   2.541   3.890
    1C        C  122   4.018   2.641   4.012
    1C        C  123   3.894   2.573   4.011
    1C        C  124   4.080   2.679   4.133
    1C        C  125   4.017   2.645   4.255
    1C        C  126   4.189   2.769   4.375
    1C        C  127   4.085   2.674   4.375
    1C        C  128   4.239   2.820   4.497
    1C        C  129   4.191   2.766   4.618
    1C        C  130   4.325   2.935   4.738
    1C        C  131   4.241   2.820   4.739
    1C        C  132   4.354   3.002   4.859
    1C        C  133   4.280   2.961   4.971
    1C        C  134   3.171   2.470   2.078
    1C        C  135   3.036   2.509   2.079
    1C        C  136   3.258   2.481   2.186
    1C        C  137   3.189   2.513   2.305
    1C        C  138   3.401   2.475   2.426
    1C        C  139   3.262   2.497   2.425
    1C        C  140   3.475   2.468   2.546
    1C        C  141   3.404   2.482   2.668
    1C        C  142   3.615   2.485   2.789
    1C        C  143   3.474   2.478   2.790
    1C        C  144   3.689   2.496   2.909
    1C        C  145   3.620   2.494   3.032
    1C        C  146   3.825   2.543   3.154
    1C        C  147   3.689   2.506   3.155
    1C        C  148   3.892   2.567   3.276
    1C        C  149   3.827   2.541   3.398
    1C        C  150   4.021   2.626   3.519
    1C        C  151   3.893   2.566   3.520
    1C        C  152   4.077   2.668   3.642
    1C        C  153   4.014   2.641   3.765
    1C        C  154   4.187   2.764   3.886
    1C        C  155   4.074   2.680   3.888
    1C        C  156   4.246   2.810   4.006
    1C        C  157   4.195   2.760   4.128
    1C        C  158   4.331   2.922   4.250
    1C        C  159   4.243   2.811   4.251
    1C        C  160   4.368   2.984   4.372
    1C        C  161   4.326   2.931   4.496
    1C        C  162   4.440   3.114   4.613
    1C        C  163   4.371   2.991   4.616
    1C        C  164   4.467   3.180   4.735
    1C        C  165   4.435   3.117   4.857
    1C        C  166   4.519   3.316   4.971
    1C        C  167   4.482   3.182   4.972
    1C        C  168   3.471   2.432   2.067
    1C        C  169   3.396   2.452   2.184
    1C        C  170   3.612   2.465   2.308
    1C        C  171   3.470   2.459   2.304
    1C        C  172   3.689   2.479   2.425
    1C        C  173   3.616   2.473   2.546
    1C        C  174   3.820   2.535   2.664
    1C        C  175   3.686   2.493   2.667
    1C        C  176   3.891   2.556   2.785
    1C        C  177   3.825   2.536   2.908
    1C        C  178   4.016   2.629   3.027
    1C        C  179   3.889   2.566   3.030
    1C        C  180   4.076   2.665   3.149
    1C        C  181   4.020   2.626   3.273
    1C        C  182   4.185   2.757   3.396
    1C        C  183   4.080   2.662   3.396
    1C        C  184   4.237   2.807   3.517
    1C        C  185   4.186   2.758   3.640
    1C        C  186   4.331   2.914   3.762
    1C        C  187   4.236   2.809   3.762
    1C        C  188   4.373   2.972   3.884
    1C        C  189   4.337   2.918   4.009
    1C        C  190   4.442   3.106   4.124
    1C        C  191   4.373   2.982   4.130
    1C        C  192   4.472   3.170   4.247
    1C        C  193   4.439   3.106   4.368
    1C        C  194   4.514   3.308   4.489
    1C        C  195   4.470   3.174   4.488
    1C        C  196   4.527   3.383   4.608
    1C        C  197   4.514   3.314   4.731
    1C        C  198   4.554   3.529   4.847
    1C        C  199   4.532   3.387   4.851
    1C        C  200   4.582   3.614   4.958
    1C        C  201   3.610   2.411   2.075
    1C        C  202   3.819   2.510   2.180
    1C        C  203   3.685   2.461   2.186
    1C        C  204   3.892   2.541   2.299
    1C        C  205   3.825   2.518   2.421
    1C        C  206   4.012   2.624   2.541
    1C        C  207   3.887   2.558   2.542
    1C        C  208   4.074   2.661   2.662
    1C        C  209   4.014   2.625   2.785
    1C        C  210   4.186   2.755   2.905
    1C        C  211   4.077   2.665   2.905
    1C        C  212   4.240   2.802   3.027
    1C        C  213   4.187   2.753   3.148
    1C        C  214   4.327   2.909   3.272
    1C        C  215   4.235   2.802   3.272
    1C        C  216   4.365   2.973   3.392
    1C        C  217   4.326   2.917   3.516
    1C        C  218   4.431   3.097   3.638
    1C        C  219   4.373   2.969   3.638
    1C        C  220   4.459   3.166   3.758
    1C        C  221   4.439   3.097   3.880
    1C        C  222   4.499   3.305   3.999
    1C        C  223   4.469   3.167   4.000
    1C        C  224   4.515   3.375   4.121
    1C        C  225   4.510   3.306   4.244
    1C        C  226   4.516   3.518   4.363
    1C        C  227   4.520   3.376   4.366
    1C        C  228   4.518   3.593   4.482
    1C        C  229   4.527   3.524   4.605
    1C        C  230   4.498   3.736   4.725
    1C        C  231   4.534   3.598   4.725
    1C        C  232   4.497   3.815   4.842
    1C        C  233   4.545   3.749   4.956
    1C        C  234   4.011   2.604   2.062
    1C        C  235   3.887   2.542   2.062
    1C        C  236   4.080   2.646   2.177
    1C        C  237   4.018   2.605   2.297
    1C        C  238   4.190   2.736   2.417
    1C        C  239   4.074   2.653   2.417
    1C        C  240   4.241   2.789   2.537
    1C        C  241   4.186   2.746   2.660
    1C        C  242   4.334   2.901   2.781
    1C        C  243   4.241   2.795   2.781
    1C        C  244   4.373   2.960   2.903
    1C        C  245   4.334   2.907   3.028
    1C        C  246   4.436   3.091   3.148
    1C        C  247   4.374   2.964   3.150
    1C        C  248   4.462   3.158   3.270
    1C        C  249   4.433   3.097   3.394
    1C        C  250   4.500   3.298   3.510
    1C        C  251   4.456   3.164   3.516
    1C        C  252   4.512   3.368   3.632
    1C        C  253   4.497   3.302   3.756
    1C        C  254   4.521   3.515   3.874
    1C        C  255   4.509   3.374   3.877
    1C        C  256   4.515   3.585   3.997
    1C        C  257   4.520   3.516   4.121
    1C        C  258   4.491   3.729   4.238
    1C        C  259   4.513   3.589   4.241
    1C        C  260   4.469   3.798   4.359
    1C        C  261   4.485   3.731   4.483
    1C        C  262   4.421   3.935   4.602
    1C        C  263   4.472   3.803   4.603
    1C        C  264   4.393   4.003   4.722
    1C        C  265   4.434   3.941   4.842
    1C        C  266   4.312   4.124   4.956
    1C        C  267   4.391   4.009   4.957
    1C        C  268   4.261   2.771   2.063
    1C        C  269   4.190   2.735   2.178
    1C        C  270   4.342   2.891   2.295
    1C        C  271   4.245   2.787   2.297
    1C        C  272   4.385   2.947   2.418
    1C        C  273   4.340   2.891   2.539
    1C        C  274   4.447   3.079   2.659
    1C        C  275   4.379   2.955   2.658
    1C        C  276   4.477   3.145   2.781
    1C        C  277   4.448   3.081   2.903
    1C        C  278   4.507   3.286   3.021
    1C        C  279   4.470   3.150   3.024
    1C        C  280   4.512   3.360   3.142
    1C        C  281   4.499   3.294   3.266
    1C        C  282   4.517   3.507   3.387
    1C        C  283   4.514   3.366   3.387
    1C        C  284   4.516   3.580   3.508
    1C        C  285   4.521   3.509   3.630
    1C        C  286   4.494   3.722   3.748
    1C        C  287   4.519   3.583   3.750
    1C        C  288   4.476   3.791   3.870
    1C        C  289   4.490   3.724   3.994
    1C        C  290   4.424   3.928   4.114
    1C        C  291   4.472   3.795   4.115
    1C        C  292   4.395   3.994   4.235
    1C        C  293   4.419   3.930   4.359
    1C        C  294   4.319   4.120   4.476
    1C        C  295   4.387   3.997   4.479
    1C        C  296   4.276   4.180   4.597
    1C        C  297   4.323   4.127   4.719
    1C        C  298   4.195   4.307   4.838
    1C        C  299   4.283   4.194   4.838
    1C        C  300   4.167   4.400   4.943
    1C        C  301   4.351   2.876   2.058
    1C        C  302   4.469   3.065   2.174
    1C        C  303   4.395   2.942   2.174
    1C        C  304   4.485   3.137   2.295
    1C        C  305   4.451   3.072   2.416
    1C        C  306   4.504   3.280   2.534
    1C        C  307   4.474   3.142   2.536
    1C        C  308   4.514   3.352   2.655
    1C        C  309   4.505   3.283   2.778
    1C        C  310   4.522   3.496   2.895
    1C        C  311   4.522   3.355   2.898
    1C        C  312   4.517   3.570   3.016
    1C        C  313   4.517   3.501   3.139
    1C        C  314   4.486   3.711   3.262
    1C        C  315   4.510   3.572   3.261
    1C        C  316   4.466   3.782   3.382
    1C        C  317   4.491   3.719   3.506
    1C        C  318   4.420   3.922   3.623
    1C        C  319   4.473   3.791   3.626
    1C        C  320   4.389   3.981   3.747
    1C        C  321   4.418   3.920   3.871
    1C        C  322   4.314   4.108   3.990
    1C        C  323   4.391   3.989   3.991
    1C        C  324   4.273   4.166   4.112
    1C        C  325   4.314   4.110   4.235
    1C        C  326   4.185   4.284   4.355
    1C        C  327   4.279   4.179   4.354
    1C        C  328   4.130   4.332   4.476
    1C        C  329   4.187   4.289   4.598
    1C        C  330   4.023   4.434   4.712
    1C        C  331   4.140   4.352   4.715
    1C        C  332   3.969   4.492   4.828
    1C        C  333   4.050   4.477   4.942
    1C        C  334   4.551   3.266   2.058
    1C        C  335   4.533   3.127   2.062
    1C        C  336   4.539   3.346   2.172
    1C        C  337   4.516   3.276   2.292
    1C        C  338   4.520   3.491   2.409
    1C        C  339   4.522   3.350   2.412
    1C        C  340   4.516   3.564   2.531
    1C        C  341   4.520   3.493   2.653
    1C        C  342   4.488   3.705   2.773
    1C        C  343   4.517   3.567   2.773
    1C        C  344   4.474   3.777   2.894
    1C        C  345   4.492   3.709   3.016
    1C        C  346   4.416   3.907   3.136
    1C        C  347   4.472   3.777   3.138
    1C        C  348   4.383   3.977   3.255
    1C        C  349   4.416   3.914   3.377
    1C        C  350   4.317   4.103   3.502
    1C        C  351   4.391   3.983   3.499
    1C        C  352   4.274   4.160   3.623
    1C        C  353   4.316   4.102   3.745
    1C        C  354   4.170   4.259   3.868
    1C        C  355   4.270   4.159   3.866
    1C        C  356   4.123   4.315   3.990
    1C        C  357   4.181   4.273   4.112
    1C        C  358   4.008   4.397   4.229
    1C        C  359   4.129   4.325   4.232
    1C        C  360   3.951   4.444   4.350
    1C        C  361   4.014   4.412   4.472
    1C        C  362   3.824   4.515   4.590
    1C        C  363   3.954   4.459   4.591
    1C        C  364   3.761   4.550   4.711
    1C        C  365   3.838   4.543   4.829
    1C        C  366   3.629   4.590   4.949
    1C        C  367   3.767   4.573   4.946
    1C        C  368   4.503   3.559   2.049
    1C        C  369   4.524   3.486   2.167
    1C        C  370   4.502   3.701   2.287
    1C        C  371   4.515   3.560   2.286
    1C        C  372   4.478   3.772   2.407
    1C        C  373   4.497   3.704   2.529
    1C        C  374   4.426   3.906   2.647
    1C        C  375   4.474   3.773   2.650
    1C        C  376   4.387   3.966   2.768
    1C        C  377   4.418   3.907   2.893
    1C        C  378   4.309   4.090   3.009
    1C        C  379   4.386   3.972   3.014
    1C        C  380   4.266   4.148   3.130
    1C        C  381   4.309   4.097   3.255
    1C        C  382   4.171   4.254   3.380
    1C        C  383   4.271   4.154   3.378
    1C        C  384   4.114   4.300   3.500
    1C        C  385   4.171   4.257   3.622
    1C        C  386   4.007   4.391   3.744
    1C        C  387   4.122   4.307   3.745
    1C        C  388   3.944   4.429   3.864
    1C        C  389   4.006   4.394   3.986
    1C        C  390   3.817   4.492   4.106
    1C        C  391   3.944   4.431   4.108
    1C        C  392   3.752   4.521   4.228
    1C        C  393   3.825   4.508   4.348
    1C        C  394   3.615   4.550   4.472
    1C        C  395   3.755   4.533   4.468
    1C        C  396   3.546   4.560   4.595
    1C        C  397   3.620   4.562   4.715
    1C        C  398   3.408   4.545   4.838
    1C        C  399   3.548   4.567   4.836
    1C        C  400   3.339   4.507   4.954
    1C        C  401   4.497   3.698   2.051
    1C        C  402   4.454   3.912   2.163
    1C        C  403   4.488   3.775   2.168
    1C        C  404   4.413   3.977   2.282
    1C        C  405   4.431   3.905   2.403
    1C        C  406   4.323   4.090   2.522
    1C        C  407   4.397   3.970   2.524
    1C        C  408   4.272   4.143   2.643
    1C        C  409   4.311   4.085   2.765
    1C        C  410   4.173   4.249   2.889
    1C        C  411   4.270   4.146   2.886
    1C        C  412   4.121   4.299   3.010
    1C        C  413   4.167   4.249   3.134
    1C        C  414   3.999   4.375   3.253
    1C        C  415   4.119   4.299   3.257
    1C        C  416   3.937   4.409   3.375
    1C        C  417   3.997   4.381   3.500
    1C        C  418   3.811   4.476   3.620
    1C        C  419   3.942   4.423   3.623
    1C        C  420   3.744   4.502   3.742
    1C        C  421   3.814   4.483   3.863
    1C        C  422   3.609   4.541   3.985
    1C        C  423   3.747   4.512   3.984
    1C        C  424   3.539   4.543   4.108
    1C        C  425   3.612   4.545   4.229
    1C        C  426   3.401   4.546   4.355
    1C        C  427   3.542   4.548   4.351
    1C        C  428   3.331   4.542   4.478
    1C        C  429   3.405   4.554   4.598
    1C        C  430   3.194   4.511   4.719
    1C        C  431   3.333   4.543   4.719
    1C        C  432   3.123   4.489   4.841
    1C        C  433   3.201   4.489   4.957
    1C        C  434   4.380   4.117   2.049
    1C        C  435   4.452   3.997   2.052
    1C        C  436   4.299   4.157   2.160
    1C        C  437   4.334   4.095   2.283
    1C        C  438   4.177   4.246   2.400
    1C        C  439   4.282   4.152   2.401
    1C        C  440   4.124   4.295   2.521
    1C        C  441   4.174   4.244   2.644
    1C        C  442   4.001   4.370   2.764
    1C        C  443   4.116   4.288   2.765
    1C        C  444   3.941   4.410   2.886
    1C        C  445   4.001   4.373   3.009
    1C        C  446   3.810   4.470   3.128
    1C        C  447   3.936   4.406   3.131
    1C        C  448   3.745   4.493   3.251
    1C        C  449   3.810   4.470   3.375
    1C        C  450   3.607   4.525   3.495
    1C        C  451   3.746   4.500   3.497
    1C        C  452   3.536   4.541   3.617
    1C        C  453   3.607   4.536   3.739
    1C        C  454   3.398   4.541   3.861
    1C        C  455   3.539   4.546   3.862
    1C        C  456   3.331   4.531   3.985
    1C        C  457   3.398   4.537   4.109
    1C        C  458   3.195   4.494   4.235
    1C        C  459   3.330   4.534   4.233
    1C        C  460   3.128   4.480   4.358
    1C        C  461   3.193   4.512   4.479
    1C        C  462   2.993   4.432   4.600
    1C        C  463   3.123   4.488   4.599
    1C        C  464   2.928   4.398   4.720
    1C        C  465   2.989   4.440   4.841
    1C        C  466   2.804   4.332   4.957
    1C        C  467   2.903   4.430   4.955
    1C        C  468   4.119   4.279   2.039
    1C        C  469   4.186   4.245   2.157
    1C        C  470   4.004   4.368   2.276
    1C        C  471   4.124   4.291   2.277
    1C        C  472   3.940   4.397   2.398
    1C        C  473   4.005   4.370   2.521
    1C        C  474   3.811   4.462   2.641
    1C        C  475   3.940   4.404   2.642
    1C        C  476   3.745   4.491   2.762
    1C        C  477   3.814   4.472   2.883
    1C        C  478   3.608   4.525   3.008
    1C        C  479   3.747   4.497   3.005
    1C        C  480   3.536   4.531   3.129
    1C        C  481   3.607   4.523   3.252
    1C        C  482   3.395   4.529   3.376
    1C        C  483   3.536   4.531   3.374
    1C        C  484   3.324   4.522   3.498
    1C        C  485   3.395   4.540   3.619
    1C        C  486   3.188   4.496   3.743
    1C        C  487   3.324   4.533   3.741
    1C        C  488   3.124   4.472   3.867
    1C        C  489   3.193   4.497   3.988
    1C        C  490   3.005   4.405   4.113
    1C        C  491   3.130   4.472   4.111
    1C        C  492   2.942   4.377   4.236
    1C        C  493   3.001   4.418   4.358
    1C        C  494   2.826   4.298   4.482
    1C        C  495   2.937   4.384   4.479
    1C        C  496   2.768   4.254   4.604
    1C        C  497   2.813   4.314   4.724
    1C        C  498   2.656   4.167   4.842
    1C        C  499   2.748   4.274   4.842
    1C        C  500   2.587   4.118   4.954
    1C        C  501   4.002   4.353   2.039
    1C        C  502   3.811   4.459   2.153
    1C        C  503   3.940   4.402   2.155
    1C        C  504   3.744   4.482   2.275
    1C        C  505   3.810   4.453   2.396
    1C        C  506   3.605   4.510   2.519
    1C        C  507   3.742   4.476   2.518
    1C        C  508   3.535   4.519   2.641
    1C        C  509   3.606   4.517   2.763
    1C        C  510   3.397   4.523   2.885
    1C        C  511   3.538   4.530   2.886
    1C        C  512   3.324   4.514   3.006
    1C        C  513   3.395   4.527   3.128
    1C        C  514   3.190   4.490   3.253
    1C        C  515   3.327   4.524   3.252
    1C        C  516   3.121   4.465   3.374
    1C        C  517   3.186   4.490   3.497
    1C        C  518   2.996   4.408   3.622
    1C        C  519   3.121   4.473   3.621
    1C        C  520   2.941   4.364   3.745
    1C        C  521   3.002   4.401   3.867
    1C        C  522   2.833   4.279   3.996
    1C        C  523   2.946   4.364   3.991
    1C        C  524   2.782   4.232   4.119
    1C        C  525   2.833   4.287   4.239
    1C        C  526   2.695   4.127   4.362
    1C        C  527   2.782   4.239   4.362
    1C        C  528   2.645   4.077   4.484
    1C        C  529   2.678   4.145   4.603
    1C        C  530   2.577   3.960   4.730
    1C        C  531   2.632   4.091   4.725
    1C        C  532   2.537   3.898   4.852
    1C        C  533   2.529   3.991   4.960
    1C        C  534   3.615   4.552   2.040
    1C        C  535   3.749   4.509   2.038
    1C        C  536   3.533   4.532   2.155
    1C        C  537   3.606   4.515   2.276
    1C        C  538   3.392   4.518   2.398
    1C        C  539   3.534   4.520   2.397
    1C        C  540   3.323   4.506   2.520
    1C        C  541   3.394   4.508   2.642
    1C        C  542   3.185   4.482   2.764
    1C        C  543   3.324   4.511   2.765
    1C        C  544   3.119   4.461   2.887
    1C        C  545   3.187   4.481   3.009
    1C        C  546   2.998   4.392   3.132
    1C        C  547   3.123   4.458   3.133
    1C        C  548   2.940   4.357   3.256
    1C        C  549   2.996   4.399   3.378
    1C        C  550   2.828   4.275   3.504
    1C        C  551   2.935   4.367   3.502
    1C        C  552   2.776   4.230   3.628
    1C        C  553   2.827   4.282   3.749
    1C        C  554   2.695   4.122   3.873
    1C        C  555   2.777   4.237   3.874
    1C        C  556   2.653   4.064   3.995
    1C        C  557   2.691   4.124   4.117
    1C        C  558   2.600   3.937   4.244
    1C        C  559   2.655   4.067   4.241
    1C        C  560   2.569   3.877   4.368
    1C        C  561   2.587   3.948   4.488
    1C        C  562   2.527   3.748   4.613
    1C        C  563   2.558   3.886   4.611
    1C        C  564   2.508   3.678   4.734
    1C        C  565   2.518   3.756   4.853
    1C        C  566   2.531   3.542   4.973
    1C        C  567   2.517   3.680   4.971
    1C        C  568   3.323   4.473   2.041
    1C        C  569   3.392   4.508   2.158
    1C        C  570   3.181   4.471   2.279
    1C        C  571   3.318   4.510   2.279
    1C        C  572   3.114   4.455   2.402
    1C        C  573   3.184   4.478   2.522
    1C        C  574   2.989   4.396   2.645
    1C        C  575   3.116   4.457   2.644
    1C        C  576   2.930   4.357   2.768
    1C        C  577   2.993   4.396   2.888
    1C        C  578   2.821   4.273   3.014
    1C        C  579   2.933   4.360   3.011
    1C        C  580   2.772   4.221   3.136
    1C        C  581   2.828   4.270   3.256
    1C        C  582   2.698   4.110   3.383
    1C        C  583   2.781   4.224   3.381
    1C        C  584   2.664   4.049   3.507
    1C        C  585   2.696   4.113   3.628
    1C        C  586   2.595   3.933   3.754
    1C        C  587   2.654   4.061   3.752
    1C        C  588   2.571   3.869   3.878
    1C        C  589   2.593   3.936   4.000
    1C        C  590   2.531   3.734   4.126
    1C        C  591   2.571   3.869   4.123
    1C        C  592   2.519   3.669   4.251
    1C        C  593   2.527   3.742   4.372
    1C        C  594   2.513   3.531   4.494
    1C        C  595   2.517   3.672   4.494
    1C        C  596   2.517   3.459   4.616
    1C        C  597   2.518   3.536   4.735
    1C        C  598   2.542   3.324   4.861
    1C        C  599   2.536   3.465   4.856
    1C        C  600   2.536   3.244   4.976
    1C        C  601   3.191   4.432   2.042
    1C        C  602   2.979   4.388   2.158
    1C        C  603   3.114   4.435   2.159
    1C        C  604   2.921   4.355   2.284
    1C        C  605   2.986   4.393   2.403
    1C        C  606   2.817   4.266   2.525
    1C        C  607   2.928   4.353   2.525
    1C        C  608   2.768   4.216   2.648
    1C        C  609   2.820   4.268   2.768
    1C        C  610   2.685   4.110   2.892
    1C        C  611   2.772   4.222   2.892
    1C        C  612   2.652   4.048   3.014
    1C        C  613   2.689   4.107   3.138
    1C        C  614   2.588   3.926   3.263
    1C        C  615   2.655   4.050   3.263
    1C        C  616   2.562   3.863   3.387
    1C        C  617   2.593   3.927   3.509
    1C        C  618   2.522   3.732   3.636
    1C        C  619   2.563   3.867   3.633
    1C        C  620   2.513   3.662   3.759
    1C        C  621   2.530   3.734   3.879
    1C        C  622   2.508   3.525   4.008
    1C        C  623   2.521   3.665   4.002
    1C        C  624   2.513   3.455   4.130
    1C        C  625   2.514   3.528   4.252
    1C        C  626   2.539   3.319   4.375
    1C        C  627   2.514   3.458   4.374
    1C        C  628   2.555   3.250   4.497
    1C        C  629   2.535   3.319   4.619
    1C        C  630   2.593   3.114   4.740
    1C        C  631   2.553   3.251   4.741
    1C        C  632   2.619   3.046   4.862
    1C        C  633   2.558   3.106   4.977
    1C        C  634   2.778   4.302   2.053
    1C        C  635   2.888   4.389   2.047
    1C        C  636   2.742   4.224   2.164
    1C        C  637   2.807   4.270   2.280
    1C        C  638   2.672   4.110   2.407
    1C        C  639   2.761   4.220   2.404
    1C        C  640   2.632   4.048   2.528
    1C        C  641   2.677   4.107   2.649
    1C        C  642   2.583   3.920   2.774
    1C        C  643   2.642   4.049   2.772
    1C        C  644   2.558   3.855   2.897
    1C        C  645   2.587   3.923   3.017
    1C        C  646   2.521   3.724   3.147
    1C        C  647   2.563   3.859   3.141
    1C        C  648   2.509   3.655   3.270
    1C        C  649   2.527   3.726   3.391
    1C        C  650   2.506   3.518   3.518
    1C        C  651   2.515   3.659   3.515
    1C        C  652   2.508   3.448   3.640
    1C        C  653   2.505   3.521   3.761
    1C        C  654   2.536   3.316   3.885
    1C        C  655   2.504   3.454   3.885
    1C        C  656   2.555   3.249   4.008
    1C        C  657   2.540   3.317   4.131
    1C        C  658   2.606   3.115   4.254
    1C        C  659   2.559   3.248   4.254
    1C        C  660   2.639   3.055   4.377
    1C        C  661   2.605   3.118   4.498
    1C        C  662   2.709   2.934   4.621
    1C        C  663   2.627   3.049   4.620
    1C        C  664   2.753   2.875   4.741
    1C        C  665   2.697   2.926   4.862
    1C        C  666   2.736   2.860   4.979
    1C        C  667   2.670   4.019   2.049
    1C        C  668   2.683   4.096   2.166
    1C        C  669   2.588   3.909   2.290
    1C        C  670   2.639   4.042   2.288
    1C        C  671   2.556   3.846   2.412
    1C        C  672   2.580   3.917   2.532
    1C        C  673   2.514   3.716   2.657
    1C        C  674   2.554   3.852   2.654
    1C        C  675   2.503   3.648   2.781
    1C        C  676   2.520   3.719   2.902
    1C        C  677   2.502   3.512   3.029
    1C        C  678   2.507   3.653   3.026
    1C        C  679   2.504   3.440   3.151
    1C        C  680   2.500   3.514   3.271
    1C        C  681   2.525   3.308   3.397
    1C        C  682   2.503   3.447   3.395
    1C        C  683   2.552   3.240   3.518
    1C        C  684   2.535   3.309   3.640
    1C        C  685   2.612   3.116   3.768
    1C        C  686   2.556   3.246   3.764
    1C        C  687   2.642   3.053   3.890
    1C        C  688   2.604   3.117   4.010
    1C        C  689   2.719   2.937   4.135
    1C        C  690   2.639   3.053   4.131
    1C        C  691   2.761   2.880   4.257
    1C        C  692   2.713   2.934   4.378
    1C        C  693   2.753   2.875   4.500
    1C        C  694   2.625   3.886   2.052
    1C        C  695   2.518   3.705   2.174
    1C        C  696   2.573   3.835   2.171
    1C        C  697   2.497   3.638   2.297
    1C        C  698   2.515   3.711   2.416
    1C        C  699   2.484   3.501   2.539
    1C        C  700   2.499   3.642   2.538
    1C        C  701   2.497   3.434   2.663
    1C        C  702   2.494   3.507   2.783
    1C        C  703   2.523   3.300   2.910
    1C        C  704   2.500   3.440   2.907
    1C        C  705   2.543   3.230   3.031
    1C        C  706   2.527   3.301   3.152
    1C        C  707   2.601   3.107   3.277
    1C        C  708   2.544   3.236   3.276
    1C        C  709   2.635   3.045   3.399
    1C        C  710   2.605   3.109   3.521
    1C        C  711   2.715   2.932   3.644
    1C        C  712   2.638   3.050   3.645
    1C        C  713   2.755   2.875   3.767
    1C        C  714   2.717   2.933   3.890
    1C        C  715   2.759   2.877   4.013
    1C        C  716   2.445   3.500   2.060
    1C        C  717   2.492   3.632   2.057
    1C        C  718   2.463   3.421   2.178
    1C        C  719   2.480   3.497   2.296
    1C        C  720   2.504   3.288   2.422
    1C        C  721   2.478   3.427   2.419
    1C        C  722   2.537   3.223   2.543
    1C        C  723   2.527   3.296   2.664
    1C        C  724   2.594   3.099   2.785
    1C        C  725   2.542   3.231   2.788
    1C        C  726   2.621   3.036   2.909
    1C        C  727   2.595   3.099   3.033
    1C        C  728   2.709   2.922   3.156
    1C        C  729   2.636   3.043   3.156
    1C        C  730   2.750   2.865   3.279
    1C        C  731   2.709   2.924   3.400
    1C        C  732   2.756   2.872   3.523
    1C        C  733   2.487   3.194   2.071
    1C        C  734   2.488   3.280   2.182
    1C        C  735   2.582   3.085   2.304
    1C        C  736   2.518   3.213   2.304
    1C        C  737   2.615   3.022   2.425
    1C        C  738   2.588   3.091   2.545
    1C        C  739   2.701   2.910   2.669
    1C        C  740   2.622   3.028   2.667
    1C        C  741   2.744   2.856   2.792
    1C        C  742   2.702   2.920   2.911
    1C        C  743   2.748   2.865   3.032
    1C        C  744   2.539   3.066   2.072
    1C        C  745   2.685   2.897   2.183
    1C        C  746   2.607   3.015   2.184
    1C        C  747   2.730   2.841   2.304
    1C        C  748   2.688   2.901   2.425
    1C        C  749   2.741   2.852   2.547
    1C        C  750   2.729   2.833   2.066
    1C        C  751   3.650   2.291   1.998
    1C        O  752   3.694   2.181   2.043
    1C        O  753   3.689   2.291   1.863
    1C        C  754   4.643   3.059   1.989
    1C        O  755   4.622   2.948   1.934
    1C        O  756   4.769   3.053   2.049
    1C        C  757   4.453   4.224   1.977
    1C        O  758   4.535   4.300   2.035
    1C        O  759   4.491   4.217   1.842
    1C        C  760   3.578   4.671   1.960
    1C        O  761   3.617   4.789   1.982
    1C        O  762   3.556   4.662   1.822
    1C        C  763   2.864   4.513   1.971
    1C        O  764   2.929   4.540   1.867
    1C        O  765   2.821   4.636   2.025
    1C        C  766   2.333   3.467   1.969
    1C        O  767   2.361   3.418   1.857
    1C        O  768   2.205   3.436   2.019
    1C        C  769   4.707   3.591   5.034
    1C        O  770   4.719   3.528   5.143
    1C        O  771   4.835   3.629   4.991
    1C        C  772   4.275   4.452   5.030
    1C        O  773   4.262   4.444   5.156
    1C        O  774   4.364   4.554   4.997
    1C        C  775   4.155   2.534   5.067
    1C        O  776   4.230   2.435   5.045
    1C        O  777   4.128   2.527   5.204
    1C        C  778   2.873   4.546   5.043
    1C        O  779   2.880   4.664   4.999
    1C        O  780   2.912   4.534   5.177
    1C        C  781   2.440   3.043   5.039
    1C        O  782   2.354   2.980   4.971
    1C        O  783   2.427   3.022   5.176
    1C        C  784   2.411   3.987   5.049
    1C        O  785   2.311   4.052   5.008
    1C        O  786   2.428   3.988   5.188
    1C        C  787   2.943   2.431   1.994
    1C        O  788   2.923   2.472   1.877
    1C        O  789   2.904   2.302   2.029
    1C        C  790   3.207   2.420   5.103
    1C        O  791   3.221   2.295   5.112
    1C        O  792   3.203   2.497   5.220
    1C        H  793   4.238   3.036   5.034
    1C        H  794   4.160   2.812   5.064
    1C        H  795   4.480   3.135   5.068
    1C        H  796   4.566   3.351   5.061
    1C        H  797   4.588   3.809   5.034
    1C        H  798   4.428   3.973   5.051
    1C        H  799   4.316   4.179   5.047
    1C        H  800   4.052   4.561   5.008
    1C        H  801   3.820   4.607   5.032
    1C        H  802   3.586   4.653   5.024
    1C        H  803   3.389   4.518   5.048
    1C        H  804   3.166   4.421   5.032
    1C        H  805   3.895   2.459   5.045
    1C        H  806   3.678   2.450   5.070
    1C        H  807   2.994   2.551   5.060
    1C        H  808   3.441   2.500   5.075
    1C        H  809   2.843   2.704   5.070
    1C        H  810   2.739   2.924   5.066
    1C        H  811   2.534   3.291   5.073
    1C        H  812   2.534   3.502   5.072
    1C        H  813   2.442   3.713   5.040
    1C        H  814   2.548   4.191   5.022
    1C        H  815   2.787   4.283   5.051
    1C        H  816   2.708   2.882   1.973
    1C        H  817   2.872   2.702   1.977
    1C        H  818   3.211   2.441   1.983
    1C        H  819   3.436   2.475   1.976
    1C        H  820   3.863   2.486   1.974
    1C        H  821   4.054   2.606   1.964
    1C        H  822   4.288   2.686   2.003
    1C        H  823   4.416   2.884   1.973
    1C        H  824   4.619   3.306   1.986
    1C        H  825   4.543   3.525   1.955
    1C        H  826   4.534   3.745   1.963
    1C        H  827   3.811   4.538   1.955
    1C        H  828   3.946   4.336   1.949
    1C        H  829   4.179   4.288   1.950
    1C        H  830   4.486   3.964   1.956
    1C        H  831   2.695   3.823   2.000
    1C        H  832   2.732   4.049   1.967
    1C        H  833   2.705   4.308   1.975
    1C        H  834   3.361   4.518   1.952
    1C        H  835   3.151   4.376   1.960
    1C        H  836   2.561   3.017   1.979
    1C        H  837   2.455   3.230   1.975
    1C        H  838   2.449   3.692   1.980
    2V3OU   H29  839   2.805   3.547   5.117
    2V3OU   C27  840   2.780   3.502   5.217
    2V3OU   H27  841   2.718   3.570   5.281
    2V3OU   H28  842   2.726   3.405   5.207
    2V3OU   O11  843   2.902   3.479   5.289
    2V3OU   C15  844   2.917   3.403   5.403
    2V3OU   C13  845   3.048   3.374   5.447
    2V3OU   C14  846   3.075   3.260   5.524
    2V3OU   C16  847   2.969   3.183   5.570
    2V3OU    H6  848   2.992   3.107   5.646
    2V3OU   C12  849   3.215   3.224   5.553
    2V3OU    O2  850   3.239   3.123   5.623
    2V3OU   C10  851   3.330   3.302   5.503
    2V3OU    C8  852   3.459   3.268   5.542
    2V3OU   O10  853   3.486   3.154   5.612
    2V3OU   H26  854   3.402   3.111   5.634
    2V3OU    C6  855   3.565   3.352   5.497
    2V3OU    C5  856   3.536   3.467   5.424
    2V3OU    C4  857   3.701   3.291   5.487
    2V3OU    H4  858   3.722   3.220   5.573
    2V3OU    H5  859   3.700   3.226   5.394
    2V3OU    C2  860   3.812   3.395   5.476
    2V3OU    O6  861   3.805   3.475   5.594
    2V3OU   H21  862   3.764   3.555   5.557
    2V3OU    C3  863   3.780   3.490   5.361
    2V3OU    H2  864   3.860   3.569   5.360
    2V3OU    H3  865   3.781   3.435   5.264
    2V3OU   C25  866   3.946   3.324   5.454
    2V3OU    O7  867   3.989   3.292   5.343
    2V3OU   C26  868   4.031   3.289   5.575
    2V3OU   H22  869   4.063   3.379   5.632
    2V3OU   H23  870   4.118   3.225   5.544
    2V3OU    O8  871   3.960   3.212   5.669
    2V3OU   H24  872   3.928   3.274   5.736
    2V3OU    C1  873   3.647   3.560   5.384
    2V3OU    H1  874   3.623   3.615   5.289
    2V3OU    O3  875   3.664   3.654   5.490
    2V3OU   C19  876   3.616   3.787   5.469
    2V3OU    H9  877   3.519   3.797   5.411
    2V3OU    O4  878   3.710   3.850   5.385
    2V3OU   C20  879   3.845   3.871   5.428
    2V3OU   H10  880   3.890   3.767   5.434
    2V3OU   C24  881   3.608   3.853   5.607
    2V3OU   H16  882   3.539   3.795   5.674
    2V3OU   H17  883   3.561   3.954   5.591
    2V3OU   C23  884   3.748   3.874   5.664
    2V3OU   H15  885   3.789   3.771   5.691
    2V3OU    N1  886   3.732   3.951   5.786
    2V3OU   H19  887   3.811   3.926   5.842
    2V3OU   H20  888   3.645   3.933   5.832
    2V3OU   C21  889   3.842   3.945   5.562
    2V3OU   H11  890   3.949   3.931   5.595
    2V3OU    O5  891   3.820   4.085   5.550
    2V3OU   H18  892   3.774   4.100   5.634
    2V3OU   C22  893   3.910   3.947   5.314
    2V3OU   H12  894   3.860   4.047   5.303
    2V3OU   H13  895   3.902   3.887   5.220
    2V3OU   H14  896   4.021   3.954   5.328
    2V3OU   C11  897   3.158   3.468   5.419
    2V3OU    O1  898   3.134   3.584   5.378
    2V3OU    C9  899   3.297   3.418   5.428
    2V3OU    C7  900   3.402   3.500   5.390
    2V3OU    O9  901   3.385   3.618   5.320
    2V3OU   H25  902   3.288   3.629   5.323
    2V3OU   C17  903   2.816   3.317   5.451
    2V3OU    H7  904   2.717   3.343   5.413
    2V3OU   C18  905   2.837   3.210   5.536
    2V3OU    H8  906   2.757   3.148   5.578
    3SOL     OW  907   3.848   4.058   4.449
    3SOL    HW1  908   3.898   3.978   4.482
    3SOL    HW2  909   3.874   4.139   4.502
    4SOL     OW  910   6.295   0.218   0.500
    4SOL    HW1  911   6.365   0.290   0.498
    4SOL    HW2  912   6.229   0.234   0.427
    5SOL     OW  913   4.582   1.627   1.304
    5SOL    HW1  914   4.498   1.678   1.322
    5SOL    HW2  915   4.595   1.619   1.205
    6SOL     OW  916   5.347   0.393   2.707
    6SOL    HW1  917   5.267   0.373   2.764
    6SOL    HW2  918   5.316   0.427   2.618
    7SOL     OW  919   2.379   4.423   3.327
    7SOL    HW1  920   2.302   4.483   3.309
    7SOL    HW2  921   2.427   4.454   3.409
    8SOL     OW  922   1.994   3.662   5.825
    8SOL    HW1  923   1.925   3.679   5.755
    8SOL    HW2  924   1.995   3.565   5.849
    9SOL     OW  925   6.025   0.981   6.708
    9SOL    HW1  926   6.095   0.965   6.777
    9SOL    HW2  927   5.937   1.000   6.752
   10SOL     OW  928   4.835   4.948   3.147
   10SOL    HW1  929   4.758   4.936   3.083
   10SOL    HW2  930   4.878   5.037   3.130
   11SOL     OW  931   2.414   0.680   0.753
   11SOL    HW1  932   2.385   0.634   0.669
   11SOL    HW2  933   2.508   0.655   0.774
   12SOL     OW  934   3.219   5.277   3.478
   12SOL    HW1  935   3.236   5.241   3.570
   12SOL    HW2  936   3.146   5.345   3.483
   13SOL     OW  937   4.818   6.052   1.637
   13SOL    HW1  938   4.889   5.984   1.620
   13SOL    HW2  939   4.860   6.138   1.665
   14SOL     OW  940   4.273   5.219   4.907
   14SOL    HW1  941   4.240   5.262   4.991
   14SOL    HW2  942   4.297   5.290   4.841
   15SOL     OW  943   0.023   5.722   6.318
   15SOL    HW1  944   6.947   5.742   6.293
   15SOL    HW2  945   0.024   5.678   6.408
   16SOL     OW  946   0.918   3.720   5.547
   16SOL    HW1  947   0.836   3.662   5.546
   16SOL    HW2  948   0.994   3.670   5.588
   17SOL     OW  949   6.237   1.121   4.998
   17SOL    HW1  950   6.328   1.162   5.003
   17SOL    HW2  951   6.169   1.192   4.984
   18SOL     OW  952   3.236   0.775   6.026
   18SOL    HW1  953   3.164   0.706   6.017
   18SOL    HW2  954   3.324   0.730   6.040
   19SOL     OW  955   1.505   1.217   3.217
   19SOL    HW1  956   1.416   1.251   3.187
   19SOL    HW2  957   1.517   1.236   3.314
   20SOL     OW  958   5.860   1.710   5.601
   20SOL    HW1  959   5.762   1.728   5.599
   20SOL    HW2  960   5.909   1.782   5.553
   21SOL     OW  961   2.601   5.014   2.758
   21SOL    HW1  962   2.616   5.043   2.664
   21SOL    HW2  963   2.514   4.966   2.765
   22SOL     OW  964   1.767   6.277   5.810
   22SOL    HW1  965   1.796   6.209   5.743
   22SOL    HW2  966   1.669   6.264   5.830
   23SOL     OW  967   5.235   4.064   2.077
   23SOL    HW1  968   5.286   4.111   2.005
   23SOL    HW2  969   5.283   4.074   2.164
   24SOL     OW  970   4.302   0.868   1.823
   24SOL    HW1  971   4.312   0.887   1.725
   24SOL    HW2  972   4.209   0.833   1.841
   25SOL     OW  973   2.279   0.559   3.994
   25SOL    HW1  974   2.299   0.629   4.063
   25SOL    HW2  975   2.332   0.477   4.013
   26SOL     OW  976   0.814   3.258   6.824
   26SOL    HW1  977   0.812   3.283   6.727
   26SOL    HW2  978   0.898   3.207   6.843
   27SOL     OW  979   7.005   0.939   0.998
   27SOL    HW1  980   0.077   0.899   0.984
   27SOL    HW2  981   7.014   1.023   1.053
   28SOL     OW  982   2.660   1.045   4.627
   28SOL    HW1  983   2.704   1.014   4.543
   28SOL    HW2  984   2.712   1.011   4.706
   29SOL     OW  985   0.052   0.545   0.993
   29SOL    HW1  986   6.987   0.582   1.032
   29SOL    HW2  987   0.124   0.544   1.062
   30SOL     OW  988   4.107   0.554   5.226
   30SOL    HW1  989   4.126   0.596   5.314
   30SOL    HW2  990   4.171   0.478   5.210
   31SOL     OW  991   1.208   3.178   4.851
   31SOL    HW1  992   1.287   3.240   4.842
   31SOL    HW2  993   1.224   3.114   4.926
   32SOL     OW  994   2.187   0.304   1.104
   32SOL    HW1  995   2.110   0.270   1.051
   32SOL    HW2  996   2.247   0.358   1.045
   33SOL     OW  997   0.510   5.388   5.800
   33SOL    HW1  998   0.526   5.329   5.879
   33SOL    HW2  999   0.523   5.483   5.826
   34SOL     OW 1000   2.405   5.419   5.169
   34SOL    HW1 1001   2.388   5.508   5.127
   34SOL    HW2 1002   2.422   5.431   5.266
   35SOL     OW 1003   3.047   3.055   0.364
   35SOL    HW1 1004   3.116   3.003   0.314
   35SOL    HW2 1005   3.083   3.082   0.453
   36SOL     OW 1006   4.460   0.419   4.631
   36SOL    HW1 1007   4.370   0.382   4.655
   36SOL    HW2 1008   4.449   0.509   4.589
   37SOL     OW 1009   2.788   0.875   3.675
   37SOL    HW1 1010   2.797   0.975   3.668
   37SOL    HW2 1011   2.782   0.836   3.583
   38SOL     OW 1012   0.229   4.348   2.783
   38SOL    HW1 1013   0.224   4.448   2.785
   38SOL    HW2 1014   0.317   4.319   2.821
   39SOL     OW 1015   6.726   5.569   5.863
   39SOL    HW1 1016   6.651   5.611   5.916
   39SOL    HW2 1017   6.810   5.571   5.918
   40SOL     OW 1018   3.708   0.813   6.500
   40SOL    HW1 1019   3.716   0.740   6.432
   40SOL    HW2 1020   3.633   0.874   6.474
   41SOL     OW 1021   6.194   4.327   1.589
   41SOL    HW1 1022   6.163   4.254   1.650
   41SOL    HW2 1023   6.116   4.365   1.540
   42SOL     OW 1024   2.250   5.617   5.958
   42SOL    HW1 1025   2.323   5.589   6.020
   42SOL    HW2 1026   2.248   5.555   5.879
   43SOL     OW 1027   4.727   6.408   4.582
   43SOL    HW1 1028   4.810   6.354   4.571
   43SOL    HW2 1029   4.749   6.505   4.573
   44SOL     OW 1030   6.272   1.730   6.163
   44SOL    HW1 1031   6.283   1.778   6.250
   44SOL    HW2 1032   6.181   1.746   6.127
   45SOL     OW 1033   3.283   5.052   6.975
   45SOL    HW1 1034   3.366   5.074   6.922
   45SOL    HW2 1035   3.233   4.979   6.930
   46SOL     OW 1036   0.603   2.813   4.263
   46SOL    HW1 1037   0.523   2.872   4.263
   46SOL    HW2 1038   0.682   2.864   4.229
   47SOL     OW 1039   5.908   3.029   1.816
   47SOL    HW1 1040   5.921   2.974   1.734
   47SOL    HW2 1041   5.826   3.086   1.805
   48SOL     OW 1042   6.080   3.722   0.661
   48SOL    HW1 1043   6.008   3.731   0.730
   48SOL    HW2 1044   6.169   3.722   0.705
   49SOL     OW 1045   4.181   2.995   0.231
   49SOL    HW1 1046   4.123   3.051   0.291
   49SOL    HW2 1047   4.277   3.020   0.245
   50SOL     OW 1048   6.598   3.566   6.566
   50SOL    HW1 1049   6.500   3.554   6.582
   50SOL    HW2 1050   6.648   3.544   6.650
   51SOL     OW 1051   2.635   5.759   2.917
   51SOL    HW1 1052   2.729   5.732   2.899
   51SOL    HW2 1053   2.602   5.817   2.842
   52SOL     OW 1054   5.900   2.897   1.561
   52SOL    HW1 1055   5.902   2.809   1.512
   52SOL    HW2 1056   5.839   2.960   1.513
   53SOL     OW 1057   4.039   0.683   2.264
   53SOL    HW1 1058   3.951   0.713   2.300
   53SOL    HW2 1059   4.042   0.583   2.265
   54SOL     OW 1060   5.513   6.737   0.278
   54SOL    HW1 1061   5.508   6.833   0.303
   54SOL    HW2 1062   5.489   6.680   0.357
   55SOL     OW 1063   1.085   3.429   6.360
   55SOL    HW1 1064   1.182   3.409   6.356
   55SOL    HW2 1065   1.072   3.525   6.385
   56SOL     OW 1066   1.263   2.582   0.216
   56SOL    HW1 1067   1.258   2.482   0.207
   56SOL    HW2 1068   1.204   2.611   0.291
   57SOL     OW 1069   4.549   0.401   6.942
   57SOL    HW1 1070   4.507   0.315   6.915
   57SOL    HW2 1071   4.649   0.391   6.943
   58SOL     OW 1072   0.664   0.453   5.884
   58SOL    HW1 1073   0.594   0.460   5.955
   58SOL    HW2 1074   0.662   0.536   5.828
   59SOL     OW 1075   5.251   3.241   5.755
   59SOL    HW1 1076   5.325   3.260   5.690
   59SOL    HW2 1077   5.200   3.324   5.773
   60SOL     OW 1078   5.508   0.579   2.812
   60SOL    HW1 1079   5.450   0.509   2.771
   60SOL    HW2 1080   5.591   0.591   2.757
   61SOL     OW 1081   6.758   6.876   5.148
   61SOL    HW1 1082   6.827   6.948   5.142
   61SOL    HW2 1083   6.726   6.869   5.242
   62SOL     OW 1084   6.939   2.013   2.160
   62SOL    HW1 1085   6.854   1.960   2.159
   62SOL    HW2 1086   6.919   2.108   2.184
   63SOL     OW 1087   4.525   5.869   5.040
   63SOL    HW1 1088   4.579   5.806   4.984
   63SOL    HW2 1089   4.474   5.930   4.980
   64SOL     OW 1090   0.680   4.587   0.177
   64SOL    HW1 1091   0.772   4.559   0.204
   64SOL    HW2 1092   0.616   4.512   0.194
   65SOL     OW 1093   0.849   6.929   5.393
   65SOL    HW1 1094   0.775   6.878   5.438
   65SOL    HW2 1095   0.908   6.970   5.463
   66SOL     OW 1096   4.274   0.671   2.137
   66SOL    HW1 1097   4.189   0.678   2.190
   66SOL    HW2 1098   4.347   0.638   2.197
   67SOL     OW 1099   0.844   2.249   0.987
   67SOL    HW1 1100   0.927   2.302   1.008
   67SOL    HW2 1101   0.801   2.286   0.905
   68SOL     OW 1102   6.970   1.808   5.491
   68SOL    HW1 1103   6.921   1.811   5.403
   68SOL    HW2 1104   0.038   1.759   5.479
   69SOL     OW 1105   0.934   5.366   6.200
   69SOL    HW1 1106   0.888   5.409   6.277
   69SOL    HW2 1107   0.924   5.267   6.206
   70SOL     OW 1108   5.099   3.574   4.158
   70SOL    HW1 1109   5.036   3.607   4.089
   70SOL    HW2 1110   5.128   3.649   4.217
   71SOL     OW 1111   4.460   1.510   4.194
   71SOL    HW1 1112   4.468   1.609   4.190
   71SOL    HW2 1113   4.528   1.469   4.133
   72SOL     OW 1114   0.371   0.940   3.791
   72SOL    HW1 1115   0.449   0.890   3.753
   72SOL    HW2 1116   0.387   1.038   3.783
   73SOL     OW 1117   2.845   0.772   1.219
   73SOL    HW1 1118   2.922   0.808   1.166
   73SOL    HW2 1119   2.759   0.812   1.185
   74SOL     OW 1120   1.989   2.429   0.774
   74SOL    HW1 1121   2.017   2.349   0.828
   74SOL    HW2 1122   2.045   2.434   0.691
   75SOL     OW 1123   4.142   2.734   0.176
   75SOL    HW1 1124   4.174   2.712   0.084
   75SOL    HW2 1125   4.157   2.831   0.194
   76SOL     OW 1126   3.392   4.712   5.258
   76SOL    HW1 1127   3.294   4.726   5.243
   76SOL    HW2 1128   3.441   4.795   5.232
   77SOL     OW 1129   1.380   4.368   4.382
   77SOL    HW1 1130   1.426   4.400   4.466
   77SOL    HW2 1131   1.420   4.281   4.354
   78SOL     OW 1132   5.008   1.864   0.858
   78SOL    HW1 1133   4.948   1.795   0.898
   78SOL    HW2 1134   5.066   1.904   0.929
   79SOL     OW 1135   1.868   4.945   2.817
   79SOL    HW1 1136   1.826   4.956   2.727
   79SOL    HW2 1137   1.966   4.965   2.810
   80SOL     OW 1138   4.446   2.005   4.546
   80SOL    HW1 1139   4.508   1.937   4.584
   80SOL    HW2 1140   4.464   2.094   4.588
   81SOL     OW 1141   3.346   5.386   1.543
   81SOL    HW1 1142   3.371   5.445   1.466
   81SOL    HW2 1143   3.268   5.329   1.518
   82SOL     OW 1144   1.861   5.870   1.491
   82SOL    HW1 1145   1.849   5.805   1.417
   82SOL    HW2 1146   1.954   5.907   1.489
   83SOL     OW 1147   5.133   1.239   4.606
   83SOL    HW1 1148   5.072   1.180   4.657
   83SOL    HW2 1149   5.222   1.195   4.597
   84SOL     OW 1150   5.546   2.506   2.530
   84SOL    HW1 1151   5.559   2.419   2.482
   84SOL    HW2 1152   5.571   2.582   2.469
   85SOL     OW 1153   1.965   0.504   3.937
   85SOL    HW1 1154   1.938   0.436   4.005
   85SOL    HW2 1155   2.064   0.517   3.939
   86SOL     OW 1156   5.293   0.755   6.768
   86SOL    HW1 1157   5.209   0.785   6.814
   86SOL    HW2 1158   5.297   0.794   6.676
   87SOL     OW 1159   3.051   4.254   0.272
   87SOL    HW1 1160   3.016   4.348   0.272
   87SOL    HW2 1161   3.050   4.218   0.179
   88SOL     OW 1162   3.210   3.654   0.225
   88SOL    HW1 1163   3.273   3.728   0.247
   88SOL    HW2 1164   3.159   3.629   0.307
   89SOL     OW 1165   3.048   3.554   2.914
   89SOL    HW1 1166   2.995   3.525   2.835
   89SOL    HW2 1167   2.989   3.562   2.994
   90SOL     OW 1168   4.853   4.183   3.067
   90SOL    HW1 1169   4.833   4.112   3.000
   90SOL    HW2 1170   4.869   4.142   3.156
   91SOL     OW 1171   4.788   5.010   5.501
   91SOL    HW1 1172   4.872   5.062   5.518
   91SOL    HW2 1173   4.711   5.072   5.492
   92SOL     OW 1174   5.686   4.262   6.355
   92SOL    HW1 1175   5.656   4.352   6.323
   92SOL    HW2 1176   5.666   4.193   6.286
   93SOL     OW 1177   3.008   3.436   2.026
   93SOL    HW1 1178   3.036   3.346   2.058
   93SOL    HW2 1179   3.077   3.504   2.052
   94SOL     OW 1180   3.116   1.671   5.484
   94SOL    HW1 1181   3.186   1.702   5.419
   94SOL    HW2 1182   3.027   1.706   5.455
   95SOL     OW 1183   0.570   0.278   4.678
   95SOL    HW1 1184   0.502   0.351   4.688
   95SOL    HW2 1185   0.654   0.316   4.640
   96SOL     OW 1186   5.209   5.076   0.304
   96SOL    HW1 1187   5.155   5.159   0.319
   96SOL    HW2 1188   5.241   5.041   0.391
   97SOL     OW 1189   2.769   4.979   5.785
   97SOL    HW1 1190   2.754   5.070   5.823
   97SOL    HW2 1191   2.781   4.986   5.686
   98SOL     OW 1192   1.211   2.636   3.073
   98SOL    HW1 1193   1.150   2.629   3.152
   98SOL    HW2 1194   1.306   2.636   3.105
   99SOL     OW 1195   3.778   2.946   4.708
   99SOL    HW1 1196   3.682   2.961   4.731
   99SOL    HW2 1197   3.802   2.851   4.728
  100SOL     OW 1198   0.007   0.252   3.767
  100SOL    HW1 1199   0.048   0.188   3.703
  100SOL    HW2 1200   0.079   0.302   3.815
  101SOL     OW 1201   6.854   3.593   2.512
  101SOL    HW1 1202   6.812   3.509   2.545
  101SOL    HW2 1203   6.783   3.661   2.493
  102SOL     OW 1204   3.083   0.407   0.542
  102SOL    HW1 1205   3.137   0.480   0.500
  102SOL    HW2 1206   3.001   0.446   0.583
  103SOL     OW 1207   2.287   0.778   1.894
  103SOL    HW1 1208   2.285   0.874   1.921
  103SOL    HW2 1209   2.194   0.742   1.888
  104SOL     OW 1210   0.974   4.849   1.479
  104SOL    HW1 1211   0.935   4.773   1.427
  104SOL    HW2 1212   0.966   4.832   1.577
  105SOL     OW 1213   5.312   1.084   5.862
  105SOL    HW1 1214   5.248   1.007   5.860
  105SOL    HW2 1215   5.378   1.074   5.787
  106SOL     OW 1216   5.697   5.194   2.153
  106SOL    HW1 1217   5.769   5.135   2.115
  106SOL    HW2 1218   5.695   5.185   2.253
  107SOL     OW 1219   5.690   0.653   0.985
  107SOL    HW1 1220   5.658   0.575   0.930
  107SOL    HW2 1221   5.653   0.737   0.946
  108SOL     OW 1222   1.837   0.961   5.585
  108SOL    HW1 1223   1.935   0.941   5.585
  108SOL    HW2 1224   1.811   1.000   5.673
  109SOL     OW 1225   1.866   1.087   4.128
  109SOL    HW1 1226   1.877   1.009   4.188
  109SOL    HW2 1227   1.770   1.117   4.129
  110SOL     OW 1228   2.987   4.430   5.564
  110SOL    HW1 1229   3.067   4.462   5.513
  110SOL    HW2 1230   2.918   4.396   5.501
  111SOL     OW 1231   6.429   1.656   1.602
  111SOL    HW1 1232   6.528   1.643   1.593
  111SOL    HW2 1233   6.381   1.578   1.563
  112SOL     OW 1234   4.572   0.146   6.651
  112SOL    HW1 1235   4.663   0.133   6.690
  112SOL    HW2 1236   4.509   0.078   6.688
  113SOL     OW 1237   6.464   6.013   1.650
  113SOL    HW1 1238   6.487   6.108   1.628
  113SOL    HW2 1239   6.435   5.965   1.568
  114SOL     OW 1240   0.390   3.773   3.469
  114SOL    HW1 1241   0.327   3.794   3.394
  114SOL    HW2 1242   0.375   3.678   3.499
  115SOL     OW 1243   5.930   0.993   3.753
  115SOL    HW1 1244   5.882   1.026   3.672
  115SOL    HW2 1245   5.990   1.066   3.787
  116SOL     OW 1246   1.070   4.901   0.475
  116SOL    HW1 1247   1.047   4.981   0.420
  116SOL    HW2 1248   1.169   4.886   0.472
  117SOL     OW 1249   2.283   1.719   6.923
  117SOL    HW1 1250   2.272   1.774   6.840
  117SOL    HW2 1251   2.335   1.636   6.902
  118SOL     OW 1252   1.274   1.603   4.306
  118SOL    HW1 1253   1.235   1.514   4.282
  118SOL    HW2 1254   1.237   1.673   4.247
  119SOL     OW 1255   6.672   6.017   6.423
  119SOL    HW1 1256   6.700   5.961   6.501
  119SOL    HW2 1257   6.575   6.038   6.430
  120SOL     OW 1258   4.771   2.310   4.725
  120SOL    HW1 1259   4.681   2.351   4.713
  120SOL    HW2 1260   4.792   2.305   4.823
  121SOL     OW 1261   1.446   4.213   6.742
  121SOL    HW1 1262   1.492   4.124   6.738
  121SOL    HW2 1263   1.441   4.244   6.837
  122SOL     OW 1264   0.549   3.871   6.938
  122SOL    HW1 1265   0.607   3.867   0.001
  122SOL    HW2 1266   0.462   3.826   6.956
  123SOL     OW 1267   1.013   1.336   1.860
  123SOL    HW1 1268   0.963   1.269   1.805
  123SOL    HW2 1269   1.091   1.371   1.808
  124SOL     OW 1270   2.340   2.877   0.535
  124SOL    HW1 1271   2.310   2.785   0.559
  124SOL    HW2 1272   2.432   2.874   0.496
  125SOL     OW 1273   3.709   3.685   0.124
  125SOL    HW1 1274   3.789   3.678   0.184
  125SOL    HW2 1275   3.709   3.609   0.059
  126SOL     OW 1276   3.776   3.425   4.255
  126SOL    HW1 1277   3.693   3.379   4.287
  126SOL    HW2 1278   3.782   3.515   4.298
  127SOL     OW 1279   0.394   6.046   6.129
  127SOL    HW1 1280   0.296   6.030   6.144
  127SOL    HW2 1281   0.409   6.082   6.037
  128SOL     OW 1282   4.892   3.486   0.818
  128SOL    HW1 1283   4.945   3.470   0.901
  128SOL    HW2 1284   4.927   3.429   0.744
  129SOL     OW 1285   1.512   5.794   1.036
  129SOL    HW1 1286   1.528   5.705   0.993
  129SOL    HW2 1287   1.543   5.790   1.132
  130SOL     OW 1288   5.179   2.535   4.835
  130SOL    HW1 1289   5.130   2.621   4.839
  130SOL    HW2 1290   5.256   2.543   4.772
  131SOL     OW 1291   7.007   2.511   3.854
  131SOL    HW1 1292   7.002   2.436   3.789
  131SOL    HW2 1293   0.073   2.503   3.908
  132SOL     OW 1294   4.130   3.571   2.338
  132SOL    HW1 1295   4.141   3.473   2.324
  132SOL    HW2 1296   4.165   3.597   2.428
  133SOL     OW 1297   5.672   6.496   5.852
  133SOL    HW1 1298   5.647   6.451   5.767
  133SOL    HW2 1299   5.665   6.430   5.927
  134SOL     OW 1300   5.019   0.955   1.813
  134SOL    HW1 1301   4.946   1.017   1.783
  134SOL    HW2 1302   5.031   0.963   1.912
  135SOL     OW 1303   4.899   3.628   3.942
  135SOL    HW1 1304   4.955   3.660   3.866
  135SOL    HW2 1305   4.887   3.702   4.008
  136SOL     OW 1306   3.415   6.703   5.691
  136SOL    HW1 1307   3.425   6.767   5.767
  136SOL    HW2 1308   3.420   6.752   5.604
  137SOL     OW 1309   3.122   2.325   5.624
  137SOL    HW1 1310   3.201   2.384   5.641
  137SOL    HW2 1311   3.068   2.363   5.549
  138SOL     OW 1312   1.118   5.933   6.105
  138SOL    HW1 1313   1.182   5.950   6.030
  138SOL    HW2 1314   1.136   5.843   6.145
  139SOL     OW 1315   2.225   5.976   0.354
  139SOL    HW1 1316   2.181   5.943   0.437
  139SOL    HW2 1317   2.267   6.065   0.372
  140SOL     OW 1318   2.433   0.406   2.243
  140SOL    HW1 1319   2.499   0.394   2.168
  140SOL    HW2 1320   2.344   0.370   2.214
  141SOL     OW 1321   6.562   3.854   0.257
  141SOL    HW1 1322   6.573   3.897   0.346
  141SOL    HW2 1323   6.641   3.874   0.200
  142SOL     OW 1324   1.587   4.313   2.320
  142SOL    HW1 1325   1.534   4.228   2.315
  142SOL    HW2 1326   1.681   4.295   2.293
  143SOL     OW 1327   4.841   6.703   2.270
  143SOL    HW1 1328   4.890   6.627   2.313
  143SOL    HW2 1329   4.744   6.695   2.291
  144SOL     OW 1330   3.413   4.921   3.597
  144SOL    HW1 1331   3.482   4.916   3.669
  144SOL    HW2 1332   3.360   5.005   3.608
  145SOL     OW 1333   6.934   5.078   3.153
  145SOL    HW1 1334   6.909   5.100   3.247
  145SOL    HW2 1335   6.941   4.979   3.142
  146SOL     OW 1336   5.863   1.577   6.455
  146SOL    HW1 1337   5.879   1.501   6.517
  146SOL    HW2 1338   5.810   1.648   6.502
  147SOL     OW 1339   4.877   1.259   5.224
  147SOL    HW1 1340   4.861   1.307   5.310
  147SOL    HW2 1341   4.933   1.178   5.240
  148SOL     OW 1342   1.386   5.241   0.466
  148SOL    HW1 1343   1.337   5.235   0.553
  148SOL    HW2 1344   1.373   5.156   0.414
  149SOL     OW 1345   1.887   2.960   5.646
  149SOL    HW1 1346   1.870   2.967   5.744
  149SOL    HW2 1347   1.978   2.997   5.625
  150SOL     OW 1348   4.175   1.834   4.967
  150SOL    HW1 1349   4.213   1.793   5.050
  150SOL    HW2 1350   4.194   1.774   4.889
  151SOL     OW 1351   4.159   2.816   0.785
  151SOL    HW1 1352   4.202   2.779   0.867
  151SOL    HW2 1353   4.080   2.872   0.810
  152SOL     OW 1354   1.057   1.680   0.326
  152SOL    HW1 1355   1.109   1.620   0.386
  152SOL    HW2 1356   1.119   1.747   0.285
  153SOL     OW 1357   3.162   1.190   3.479
  153SOL    HW1 1358   3.185   1.287   3.489
  153SOL    HW2 1359   3.153   1.149   3.570
  154SOL     OW 1360   5.941   1.439   1.484
  154SOL    HW1 1361   5.949   1.388   1.398
  154SOL    HW2 1362   5.876   1.392   1.544
  155SOL     OW 1363   1.838   0.132   2.138
  155SOL    HW1 1364   1.797   0.115   2.048
  155SOL    HW2 1365   1.868   0.045   2.178
  156SOL     OW 1366   5.158   2.131   0.392
  156SOL    HW1 1367   5.172   2.090   0.482
  156SOL    HW2 1368   5.128   2.226   0.404
  157SOL     OW 1369   4.420   5.132   0.056
  157SOL    HW1 1370   4.418   5.045   0.106
  157SOL    HW2 1371   4.508   5.142   0.010
  158SOL     OW 1372   0.403   2.972   3.124
  158SOL    HW1 1373   0.475   2.917   3.082
  158SOL    HW2 1374   0.441   3.058   3.158
  159SOL     OW 1375   6.155   5.239   0.326
  159SOL    HW1 1376   6.107   5.314   0.372
  159SOL    HW2 1377   6.088   5.176   0.286
  160SOL     OW 1378   6.235   6.943   1.314
  160SOL    HW1 1379   6.329   6.919   1.339
  160SOL    HW2 1380   6.172   6.873   1.349
  161SOL     OW 1381   0.235   6.675   0.324
  161SOL    HW1 1382   0.209   6.580   0.344
  161SOL    HW2 1383   0.241   6.687   0.225
  162SOL     OW 1384   3.930   6.901   6.974
  162SOL    HW1 1385   3.977   6.921   6.888
  162SOL    HW2 1386   3.868   6.824   6.961
  163SOL     OW 1387   6.626   3.649   3.161
  163SOL    HW1 1388   6.723   3.675   3.163
  163SOL    HW2 1389   6.614   3.575   3.094
  164SOL     OW 1390   2.061   2.317   3.528
  164SOL    HW1 1391   2.139   2.334   3.467
  164SOL    HW2 1392   2.092   2.315   3.623
  165SOL     OW 1393   0.743   6.434   3.448
  165SOL    HW1 1394   0.821   6.426   3.387
  165SOL    HW2 1395   0.772   6.478   3.533
  166SOL     OW 1396   7.012   3.528   2.893
  166SOL    HW1 1397   0.003   3.485   2.803
  166SOL    HW2 1398   6.917   3.521   2.923
  167SOL     OW 1399   4.787   2.104   6.885
  167SOL    HW1 1400   4.732   2.141   6.810
  167SOL    HW2 1401   4.727   2.080   6.961
  168SOL     OW 1402   5.057   4.272   2.028
  168SOL    HW1 1403   4.962   4.266   2.059
  168SOL    HW2 1404   5.108   4.193   2.063
  169SOL     OW 1405   6.000   2.182   1.341
  169SOL    HW1 1406   6.029   2.185   1.246
  169SOL    HW2 1407   5.902   2.202   1.347
  170SOL     OW 1408   0.526   5.416   2.817
  170SOL    HW1 1409   0.499   5.416   2.913
  170SOL    HW2 1410   0.626   5.412   2.810
  171SOL     OW 1411   3.050   4.117   0.503
  171SOL    HW1 1412   3.058   4.175   0.422
  171SOL    HW2 1413   3.061   4.173   0.585
  172SOL     OW 1414   6.705   1.783   0.257
  172SOL    HW1 1415   6.736   1.727   0.180
  172SOL    HW2 1416   6.624   1.741   0.298
  173SOL     OW 1417   6.953   2.132   5.071
  173SOL    HW1 1418   6.896   2.147   5.151
  173SOL    HW2 1419   6.986   2.220   5.036
  174SOL     OW 1420   6.341   5.271   5.563
  174SOL    HW1 1421   6.429   5.318   5.571
  174SOL    HW2 1422   6.285   5.316   5.494
  175SOL     OW 1423   0.827   6.902   1.073
  175SOL    HW1 1424   0.796   6.969   1.140
  175SOL    HW2 1425   0.770   6.820   1.080
  176SOL     OW 1426   5.659   4.768   2.246
  176SOL    HW1 1427   5.617   4.859   2.247
  176SOL    HW2 1428   5.754   4.775   2.276
  177SOL     OW 1429   5.946   2.285   4.333
  177SOL    HW1 1430   5.866   2.267   4.390
  177SOL    HW2 1431   6.020   2.223   4.359
  178SOL     OW 1432   1.714   6.423   4.965
  178SOL    HW1 1433   1.762   6.391   5.047
  178SOL    HW2 1434   1.670   6.345   4.920
  179SOL     OW 1435   3.809   4.622   1.386
  179SOL    HW1 1436   3.834   4.532   1.421
  179SOL    HW2 1437   3.859   4.640   1.301
  180SOL     OW 1438   4.550   1.622   0.801
  180SOL    HW1 1439   4.587   1.622   0.708
  180SOL    HW2 1440   4.485   1.547   0.810
  181SOL     OW 1441   3.243   2.104   5.516
  181SOL    HW1 1442   3.192   2.177   5.563
  181SOL    HW2 1443   3.187   2.065   5.443
  182SOL     OW 1444   5.101   2.489   6.899
  182SOL    HW1 1445   5.017   2.509   6.850
  182SOL    HW2 1446   5.107   2.390   6.915
  183SOL     OW 1447   3.639   1.711   3.595
  183SOL    HW1 1448   3.687   1.645   3.653
  183SOL    HW2 1449   3.691   1.796   3.592
  184SOL     OW 1450   5.785   6.051   3.778
  184SOL    HW1 1451   5.785   6.053   3.678
  184SOL    HW2 1452   5.860   5.992   3.810
  185SOL     OW 1453   0.002   1.612   4.107
  185SOL    HW1 1454   6.942   1.596   4.046
  185SOL    HW2 1455   0.069   1.539   4.094
  186SOL     OW 1456   4.646   5.803   4.015
  186SOL    HW1 1457   4.640   5.813   4.114
  186SOL    HW2 1458   4.740   5.780   3.989
  187SOL     OW 1459   4.343   6.461   1.625
  187SOL    HW1 1460   4.325   6.559   1.623
  187SOL    HW2 1461   4.412   6.441   1.695
  188SOL     OW 1462   1.702   3.017   3.144
  188SOL    HW1 1463   1.797   3.018   3.175
  188SOL    HW2 1464   1.696   2.968   3.057
  189SOL     OW 1465   6.087   5.147   6.303
  189SOL    HW1 1466   6.102   5.186   6.212
  189SOL    HW2 1467   6.172   5.106   6.336
  190SOL     OW 1468   6.138   0.198   7.017
  190SOL    HW1 1469   6.226   0.243   6.998
  190SOL    HW2 1470   6.108   0.149   6.936
  191SOL     OW 1471   6.531   1.225   5.518
  191SOL    HW1 1472   6.504   1.225   5.614
  191SOL    HW2 1473   6.567   1.135   5.493
  192SOL     OW 1474   0.814   5.590   0.557
  192SOL    HW1 1475   0.763   5.615   0.475
  192SOL    HW2 1476   0.780   5.644   0.635
  193SOL     OW 1477   2.714   6.185   6.326
  193SOL    HW1 1478   2.618   6.173   6.351
  193SOL    HW2 1479   2.745   6.105   6.275
  194SOL     OW 1480   3.911   6.813   2.000
  194SOL    HW1 1481   3.816   6.788   2.019
  194SOL    HW2 1482   3.914   6.900   1.951
  195SOL     OW 1483   3.230   0.811   1.623
  195SOL    HW1 1484   3.161   0.865   1.576
  195SOL    HW2 1485   3.186   0.736   1.672
  196SOL     OW 1486   2.073   1.237   0.665
  196SOL    HW1 1487   2.071   1.277   0.573
  196SOL    HW2 1488   2.015   1.156   0.667
  197SOL     OW 1489   2.134   6.372   0.705
  197SOL    HW1 1490   2.161   6.468   0.713
  197SOL    HW2 1491   2.085   6.357   0.619
  198SOL     OW 1492   4.308   6.939   6.902
  198SOL    HW1 1493   4.288   7.000   6.979
  198SOL    HW2 1494   4.228   6.933   6.842
  199SOL     OW 1495   6.933   6.333   3.125
  199SOL    HW1 1496   6.977   6.390   3.194
  199SOL    HW2 1497   6.856   6.284   3.167
  200SOL     OW 1498   0.625   3.763   3.635
  200SOL    HW1 1499   0.697   3.734   3.572
  200SOL    HW2 1500   0.552   3.807   3.584
  201SOL     OW 1501   3.269   0.805   0.057
  201SOL    HW1 1502   3.216   0.889   0.051
  201SOL    HW2 1503   3.347   0.810   7.012
  202SOL     OW 1504   3.720   0.231   3.018
  202SOL    HW1 1505   3.740   0.305   2.954
  202SOL    HW2 1506   3.698   0.270   3.108
  203SOL     OW 1507   5.480   3.573   6.294
  203SOL    HW1 1508   5.495   3.645   6.227
  203SOL    HW2 1509   5.392   3.587   6.339
  204SOL     OW 1510   2.372   7.000   0.575
  204SOL    HW1 1511   2.281   6.988   0.535
  204SOL    HW2 1512   2.413   6.910   0.592
  205SOL     OW 1513   6.117   1.673   0.677
  205SOL    HW1 1514   6.129   1.704   0.583
  205SOL    HW2 1515   6.022   1.646   0.692
  206SOL     OW 1516   0.856   4.701   2.172
  206SOL    HW1 1517   0.906   4.787   2.161
  206SOL    HW2 1518   0.902   4.629   2.120
  207SOL     OW 1519   4.515   0.655   5.885
  207SOL    HW1 1520   4.545   0.719   5.814
  207SOL    HW2 1521   4.578   0.577   5.888
  208SOL     OW 1522   4.765   5.570   6.239
  208SOL    HW1 1523   4.825   5.508   6.290
  208SOL    HW2 1524   4.681   5.523   6.214
  209SOL     OW 1525   6.529   5.486   5.477
  209SOL    HW1 1526   6.609   5.474   5.536
  209SOL    HW2 1527   6.478   5.567   5.507
  210SOL     OW 1528   4.130   2.813   1.129
  210SOL    HW1 1529   4.057   2.852   1.073
  210SOL    HW2 1530   4.107   2.718   1.151
  211SOL     OW 1531   1.585   1.078   1.005
  211SOL    HW1 1532   1.518   1.133   1.055
  211SOL    HW2 1533   1.578   0.982   1.034
  212SOL     OW 1534   0.466   4.996   4.196
  212SOL    HW1 1535   0.388   4.938   4.220
  212SOL    HW2 1536   0.528   4.945   4.136
  213SOL     OW 1537   5.283   2.166   6.704
  213SOL    HW1 1538   5.233   2.226   6.766
  213SOL    HW2 1539   5.298   2.078   6.748
  214SOL     OW 1540   0.847   0.157   2.523
  214SOL    HW1 1541   0.812   0.102   2.447
  214SOL    HW2 1542   0.779   0.227   2.547
  215SOL     OW 1543   3.637   3.396   2.785
  215SOL    HW1 1544   3.685   3.346   2.712
  215SOL    HW2 1545   3.585   3.331   2.841
  216SOL     OW 1546   0.922   6.983   6.152
  216SOL    HW1 1547   1.022   6.972   6.153
  216SOL    HW2 1548   0.889   6.997   6.246
  217SOL     OW 1549   0.813   3.118   3.572
  217SOL    HW1 1550   0.842   3.024   3.552
  217SOL    HW2 1551   0.720   3.117   3.608
  218SOL     OW 1552   1.320   3.572   5.485
  218SOL    HW1 1553   1.317   3.668   5.512
  218SOL    HW2 1554   1.368   3.563   5.397
  219SOL     OW 1555   4.663   5.248   0.310
  219SOL    HW1 1556   4.752   5.222   0.350
  219SOL    HW2 1557   4.642   5.343   0.334
  220SOL     OW 1558   2.568   5.396   0.559
  220SOL    HW1 1559   2.493   5.333   0.578
  220SOL    HW2 1560   2.585   5.398   0.460
  221SOL     OW 1561   5.501   1.937   4.143
  221SOL    HW1 1562   5.417   1.978   4.109
  221SOL    HW2 1563   5.554   2.006   4.192
  222SOL     OW 1564   0.500   5.666   5.301
  222SOL    HW1 1565   0.572   5.729   5.271
  222SOL    HW2 1566   0.419   5.718   5.328
  223SOL     OW 1567   6.959   4.219   2.025
  223SOL    HW1 1568   6.896   4.269   1.965
  223SOL    HW2 1569   6.933   4.122   2.027
  224SOL     OW 1570   3.062   2.340   1.688
  224SOL    HW1 1571   3.037   2.394   1.768
  224SOL    HW2 1572   3.005   2.366   1.610
  225SOL     OW 1573   5.795   1.118   6.829
  225SOL    HW1 1574   5.714   1.100   6.885
  225SOL    HW2 1575   5.829   1.210   6.847
  226SOL     OW 1576   0.208   6.011   0.944
  226SOL    HW1 1577   0.225   6.045   1.036
  226SOL    HW2 1578   0.128   6.057   0.905
  227SOL     OW 1579   1.612   3.365   3.706
  227SOL    HW1 1580   1.526   3.321   3.680
  227SOL    HW2 1581   1.602   3.465   3.700
  228SOL     OW 1582   4.723   6.734   3.761
  228SOL    HW1 1583   4.637   6.706   3.803
  228SOL    HW2 1584   4.799   6.712   3.824
  229SOL     OW 1585   6.040   5.991   2.000
  229SOL    HW1 1586   6.025   6.003   2.098
  229SOL    HW2 1587   6.137   5.971   1.984
  230SOL     OW 1588   2.252   4.306   5.105
  230SOL    HW1 1589   2.257   4.218   5.057
  230SOL    HW2 1590   2.328   4.364   5.077
  231SOL     OW 1591   0.475   2.528   6.210
  231SOL    HW1 1592   0.402   2.596   6.207
  231SOL    HW2 1593   0.541   2.553   6.281
  232SOL     OW 1594   2.238   4.462   6.584
  232SOL    HW1 1595   2.326   4.465   6.631
  232SOL    HW2 1596   2.166   4.494   6.645
  233SOL     OW 1597   2.170   0.978   5.668
  233SOL    HW1 1598   2.105   1.046   5.702
  233SOL    HW2 1599   2.242   0.965   5.736
  234SOL     OW 1600   2.837   5.306   6.286
  234SOL    HW1 1601   2.918   5.247   6.291
  234SOL    HW2 1602   2.864   5.401   6.298
  235SOL     OW 1603   2.942   3.621   4.596
  235SOL    HW1 1604   2.852   3.629   4.638
  235SOL    HW2 1605   2.972   3.711   4.564
  236SOL     OW 1606   6.513   2.099   5.506
  236SOL    HW1 1607   6.599   2.063   5.543
  236SOL    HW2 1608   6.440   2.034   5.525
  237SOL     OW 1609   0.334   0.037   1.189
  237SOL    HW1 1610   0.344   6.977   1.128
  237SOL    HW2 1611   0.325   0.120   1.134
  238SOL     OW 1612   5.669   2.892   2.873
  238SOL    HW1 1613   5.630   2.963   2.814
  238SOL    HW2 1614   5.674   2.806   2.821
  239SOL     OW 1615   6.454   5.823   6.595
  239SOL    HW1 1616   6.504   5.846   6.678
  239SOL    HW2 1617   6.367   5.872   6.594
  240SOL     OW 1618   0.151   4.000   5.922
  240SOL    HW1 1619   0.148   3.914   5.872
  240SOL    HW2 1620   0.246   4.019   5.949
  241SOL     OW 1621   0.286   0.782   3.019
  241SOL    HW1 1622   0.235   0.697   3.028
  241SOL    HW2 1623   0.233   0.847   2.964
  242SOL     OW 1624   1.560   3.915   4.130
  242SOL    HW1 1625   1.647   3.869   4.148
  242SOL    HW2 1626   1.484   3.851   4.140
  243SOL     OW 1627   5.872   6.846   5.362
  243SOL    HW1 1628   5.788   6.857   5.414
  243SOL    HW2 1629   5.851   6.847   5.264
  244SOL     OW 1630   5.746   2.051   5.517
  244SOL    HW1 1631   5.813   2.001   5.571
  244SOL    HW2 1632   5.655   2.014   5.535
  245SOL     OW 1633   5.604   2.502   4.008
  245SOL    HW1 1634   5.579   2.414   3.967
  245SOL    HW2 1635   5.697   2.526   3.981
  246SOL     OW 1636   5.022   3.275   3.290
  246SOL    HW1 1637   4.936   3.319   3.315
  246SOL    HW2 1638   5.010   3.176   3.291
  247SOL     OW 1639   2.462   1.448   3.364
  247SOL    HW1 1640   2.422   1.539   3.375
  247SOL    HW2 1641   2.494   1.414   3.453
  248SOL     OW 1642   6.131   1.485   3.196
  248SOL    HW1 1643   6.231   1.476   3.198
  248SOL    HW2 1644   6.101   1.502   3.102
  249SOL     OW 1645   3.466   6.955   3.794
  249SOL    HW1 1646   3.515   0.024   3.796
  249SOL    HW2 1647   3.368   6.971   3.781
  250SOL     OW 1648   5.684   3.192   5.895
  250SOL    HW1 1649   5.606   3.190   5.957
  250SOL    HW2 1650   5.703   3.287   5.869
  251SOL     OW 1651   4.125   2.396   7.013
  251SOL    HW1 1652   4.042   2.390   0.049
  251SOL    HW2 1653   4.185   2.318   0.017
  252SOL     OW 1654   0.069   0.517   5.899
  252SOL    HW1 1655   0.107   0.586   5.961
  252SOL    HW2 1656   7.001   0.483   5.936
  253SOL     OW 1657   3.116   3.565   0.458
  253SOL    HW1 1658   3.025   3.527   0.438
  253SOL    HW2 1659   3.115   3.608   0.549
  254SOL     OW 1660   5.762   3.026   5.101
  254SOL    HW1 1661   5.720   2.991   5.185
  254SOL    HW2 1662   5.691   3.039   5.032
  255SOL     OW 1663   2.822   1.636   3.235
  255SOL    HW1 1664   2.806   1.579   3.154
  255SOL    HW2 1665   2.744   1.697   3.248
  256SOL     OW 1666   5.971   5.102   0.190
  256SOL    HW1 1667   5.902   5.095   0.262
  256SOL    HW2 1668   5.925   5.109   0.101
  257SOL     OW 1669   2.911   6.267   5.887
  257SOL    HW1 1670   2.938   6.350   5.837
  257SOL    HW2 1671   2.858   6.294   5.968
  258SOL     OW 1672   5.446   4.425   4.882
  258SOL    HW1 1673   5.451   4.328   4.859
  258SOL    HW2 1674   5.531   4.454   4.926
  259SOL     OW 1675   1.997   1.994   2.262
  259SOL    HW1 1676   1.942   2.006   2.179
  259SOL    HW2 1677   2.000   1.897   2.285
  260SOL     OW 1678   5.042   0.396   5.655
  260SOL    HW1 1679   5.065   0.301   5.675
  260SOL    HW2 1680   5.095   0.456   5.713
  261SOL     OW 1681   0.863   3.911   2.276
  261SOL    HW1 1682   0.864   3.875   2.369
  261SOL    HW2 1683   0.946   3.882   2.228
  262SOL     OW 1684   0.778   4.650   2.423
  262SOL    HW1 1685   0.767   4.738   2.468
  262SOL    HW2 1686   0.791   4.664   2.325
  263SOL     OW 1687   1.127   2.055   4.405
  263SOL    HW1 1688   1.221   2.086   4.392
  263SOL    HW2 1689   1.076   2.123   4.458
  264SOL     OW 1690   2.416   4.899   6.144
  264SOL    HW1 1691   2.486   4.921   6.076
  264SOL    HW2 1692   2.387   4.983   6.190
  265SOL     OW 1693   5.254   3.839   4.614
  265SOL    HW1 1694   5.203   3.758   4.584
  265SOL    HW2 1695   5.326   3.811   4.678
  266SOL     OW 1696   4.684   1.866   0.481
  266SOL    HW1 1697   4.680   1.776   0.524
  266SOL    HW2 1698   4.592   1.894   0.454
  267SOL     OW 1699   1.383   2.330   6.004
  267SOL    HW1 1700   1.453   2.401   6.003
  267SOL    HW2 1701   1.394   2.273   6.085
  268SOL     OW 1702   4.168   4.825   4.728
  268SOL    HW1 1703   4.264   4.827   4.755
  268SOL    HW2 1704   4.130   4.735   4.746
  269SOL     OW 1705   0.521   1.903   5.604
  269SOL    HW1 1706   0.553   1.993   5.634
  269SOL    HW2 1707   0.451   1.869   5.668
  270SOL     OW 1708   5.503   1.195   3.007
  270SOL    HW1 1709   5.590   1.146   3.002
  270SOL    HW2 1710   5.465   1.187   3.099
  271SOL     OW 1711   1.421   0.761   0.181
  271SOL    HW1 1712   1.458   0.669   0.168
  271SOL    HW2 1713   1.322   0.758   0.166
  272SOL     OW 1714   3.387   5.997   3.407
  272SOL    HW1 1715   3.486   5.987   3.395
  272SOL    HW2 1716   3.340   5.926   3.356
  273SOL     OW 1717   2.320   6.343   5.127
  273SOL    HW1 1718   2.269   6.425   5.101
  273SOL    HW2 1719   2.267   6.291   5.194
  274SOL     OW 1720   6.158   2.190   1.607
  274SOL    HW1 1721   6.110   2.200   1.520
  274SOL    HW2 1722   6.256   2.209   1.594
  275SOL     OW 1723   6.710   5.995   5.101
  275SOL    HW1 1724   6.706   6.063   5.028
  275SOL    HW2 1725   6.638   5.927   5.086
  276SOL     OW 1726   6.651   5.950   3.630
  276SOL    HW1 1727   6.680   5.893   3.707
  276SOL    HW2 1728   6.606   6.032   3.664
  277SOL     OW 1729   4.286   1.358   5.639
  277SOL    HW1 1730   4.229   1.433   5.674
  277SOL    HW2 1731   4.352   1.395   5.573
  278SOL     OW 1732   5.859   3.137   2.453
  278SOL    HW1 1733   5.837   3.039   2.460
  278SOL    HW2 1734   5.778   3.191   2.476
  279SOL     OW 1735   7.000   2.816   4.232
  279SOL    HW1 1736   0.036   2.897   4.211
  279SOL    HW2 1737   0.039   2.735   4.229
  280SOL     OW 1738   3.490   0.833   4.060
  280SOL    HW1 1739   3.477   0.840   3.961
  280SOL    HW2 1740   3.408   0.793   4.101
  281SOL     OW 1741   4.935   6.214   4.064
  281SOL    HW1 1742   4.874   6.149   4.109
  281SOL    HW2 1743   5.020   6.168   4.040
  282SOL     OW 1744   4.402   1.894   0.377
  282SOL    HW1 1745   4.339   1.821   0.349
  282SOL    HW2 1746   4.352   1.980   0.386
  283SOL     OW 1747   6.356   2.070   4.934
  283SOL    HW1 1748   6.287   2.067   4.862
  283SOL    HW2 1749   6.447   2.080   4.893
  284SOL     OW 1750   5.540   5.741   3.743
  284SOL    HW1 1751   5.549   5.752   3.644
  284SOL    HW2 1752   5.627   5.713   3.782
  285SOL     OW 1753   4.062   0.793   6.282
  285SOL    HW1 1754   4.038   0.869   6.221
  285SOL    HW2 1755   4.030   0.707   6.242
  286SOL     OW 1756   3.254   4.955   4.868
  286SOL    HW1 1757   3.157   4.932   4.854
  286SOL    HW2 1758   3.309   4.872   4.863
  287SOL     OW 1759   2.903   6.882   5.957
  287SOL    HW1 1760   2.943   6.825   6.029
  287SOL    HW2 1761   2.976   6.929   5.907
  288SOL     OW 1762   3.583   0.992   0.875
  288SOL    HW1 1763   3.486   1.013   0.882
  288SOL    HW2 1764   3.606   0.972   0.780
  289SOL     OW 1765   6.701   6.084   4.220
  289SOL    HW1 1766   6.798   6.108   4.226
  289SOL    HW2 1767   6.646   6.160   4.253
  290SOL     OW 1768   3.482   0.714   5.183
  290SOL    HW1 1769   3.530   0.802   5.187
  290SOL    HW2 1770   3.455   0.694   5.089
  291SOL     OW 1771   4.173   6.967   4.971
  291SOL    HW1 1772   4.218   6.920   4.895
  291SOL    HW2 1773   4.242   7.016   5.025
  292SOL     OW 1774   4.230   0.245   3.554
  292SOL    HW1 1775   4.193   0.207   3.640
  292SOL    HW2 1776   4.330   0.240   3.556
  293SOL     OW 1777   6.098   6.814   2.386
  293SOL    HW1 1778   6.043   6.825   2.469
  293SOL    HW2 1779   6.176   6.755   2.405
  294SOL     OW 1780   6.324   0.684   5.798
  294SOL    HW1 1781   6.411   0.654   5.760
  294SOL    HW2 1782   6.336   0.768   5.850
  295SOL     OW 1783   1.142   1.776   4.950
  295SOL    HW1 1784   1.076   1.851   4.937
  295SOL    HW2 1785   1.097   1.700   4.996
  296SOL     OW 1786   0.357   2.240   1.714
  296SOL    HW1 1787   0.278   2.222   1.655
  296SOL    HW2 1788   0.326   2.255   1.808
  297SOL     OW 1789   5.697   3.646   3.725
  297SOL    HW1 1790   5.745   3.597   3.797
  297SOL    HW2 1791   5.665   3.581   3.655
  298SOL     OW 1792   3.444   0.833   6.861
  298SOL    HW1 1793   3.542   0.851   6.859
  298SOL    HW2 1794   3.401   0.874   6.780
  299SOL     OW 1795   2.380   1.427   6.213
  299SOL    HW1 1796   2.319   1.491   6.166
  299SOL    HW2 1797   2.408   1.355   6.149
  300SOL     OW 1798   4.105   0.442   2.715
  300SOL    HW1 1799   4.010   0.438   2.745
  300SOL    HW2 1800   4.115   0.513   2.645
  301SOL     OW 1801   6.457   5.187   0.902
  301SOL    HW1 1802   6.540   5.196   0.956
  301SOL    HW2 1803   6.479   5.144   0.814
  302SOL     OW 1804   6.160   5.641   0.943
  302SOL    HW1 1805   6.249   5.595   0.942
  302SOL    HW2 1806   6.123   5.638   1.036
  303SOL     OW 1807   6.028   5.504   1.924
  303SOL    HW1 1808   6.056   5.556   1.843
  303SOL    HW2 1809   5.974   5.562   1.984
  304SOL     OW 1810   2.282   6.733   5.522
  304SOL    HW1 1811   2.251   6.640   5.503
  304SOL    HW2 1812   2.207   6.786   5.561
  305SOL     OW 1813   1.432   3.032   2.511
  305SOL    HW1 1814   1.450   3.072   2.422
  305SOL    HW2 1815   1.511   2.977   2.539
  306SOL     OW 1816   6.670   0.150   2.679
  306SOL    HW1 1817   6.736   0.158   2.604
  306SOL    HW2 1818   6.663   0.238   2.726
  307SOL     OW 1819   3.618   2.903   3.362
  307SOL    HW1 1820   3.647   2.857   3.446
  307SOL    HW2 1821   3.698   2.946   3.318
  308SOL     OW 1822   5.866   1.714   4.122
  308SOL    HW1 1823   5.766   1.706   4.114
  308SOL    HW2 1824   5.890   1.810   4.138
  309SOL     OW 1825   0.701   6.198   5.941
  309SOL    HW1 1826   0.615   6.154   5.916
  309SOL    HW2 1827   0.742   6.150   6.020
  310SOL     OW 1828   5.416   6.466   4.974
  310SOL    HW1 1829   5.508   6.498   4.950
  310SOL    HW2 1830   5.407   6.465   5.074
  311SOL     OW 1831   2.309   5.674   2.806
  311SOL    HW1 1832   2.223   5.623   2.812
  311SOL    HW2 1833   2.334   5.707   2.897
  312SOL     OW 1834   4.631   2.085   3.031
  312SOL    HW1 1835   4.623   2.046   3.123
  312SOL    HW2 1836   4.570   2.036   2.969
  313SOL     OW 1837   4.009   3.617   3.309
  313SOL    HW1 1838   3.962   3.547   3.362
  313SOL    HW2 1839   4.053   3.575   3.229
  314SOL     OW 1840   2.140   6.496   5.504
  314SOL    HW1 1841   2.199   6.415   5.505
  314SOL    HW2 1842   2.107   6.514   5.596
  315SOL     OW 1843   6.442   1.578   3.427
  315SOL    HW1 1844   6.467   1.486   3.395
  315SOL    HW2 1845   6.510   1.644   3.394
  316SOL     OW 1846   3.671   0.919   5.137
  316SOL    HW1 1847   3.682   0.983   5.061
  316SOL    HW2 1848   3.633   0.967   5.216
  317SOL     OW 1849   1.070   1.337   1.575
  317SOL    HW1 1850   1.163   1.309   1.554
  317SOL    HW2 1851   1.069   1.434   1.600
  318SOL     OW 1852   7.012   0.375   5.266
  318SOL    HW1 1853   0.020   0.470   5.252
  318SOL    HW2 1854   6.927   0.356   5.216
  319SOL     OW 1855   1.531   2.523   2.667
  319SOL    HW1 1856   1.524   2.424   2.651
  319SOL    HW2 1857   1.578   2.566   2.590
  320SOL     OW 1858   6.027   2.919   6.564
  320SOL    HW1 1859   6.029   2.882   6.471
  320SOL    HW2 1860   6.026   2.844   6.630
  321SOL     OW 1861   4.365   3.231   1.058
  321SOL    HW1 1862   4.434   3.188   1.000
  321SOL    HW2 1863   4.410   3.267   1.141
  322SOL     OW 1864   3.870   3.449   6.167
  322SOL    HW1 1865   3.820   3.402   6.240
  322SOL    HW2 1866   3.962   3.412   6.160
  323SOL     OW 1867   0.121   3.271   3.586
  323SOL    HW1 1868   0.108   3.216   3.503
  323SOL    HW2 1869   0.097   3.217   3.666
  324SOL     OW 1870   0.564   0.037   3.948
  324SOL    HW1 1871   0.648   0.090   3.933
  324SOL    HW2 1872   0.486   0.098   3.951
  325SOL     OW 1873   0.453   3.630   2.544
  325SOL    HW1 1874   0.550   3.639   2.563
  325SOL    HW2 1875   0.409   3.578   2.618
  326SOL     OW 1876   0.567   6.365   6.622
  326SOL    HW1 1877   0.598   6.333   6.532
  326SOL    HW2 1878   0.642   6.415   6.667
  327SOL     OW 1879   4.220   5.091   3.279
  327SOL    HW1 1880   4.173   5.078   3.366
  327SOL    HW2 1881   4.209   5.009   3.223
  328SOL     OW 1882   2.361   4.281   2.232
  328SOL    HW1 1883   2.296   4.350   2.203
  328SOL    HW2 1884   2.348   4.260   2.329
  329SOL     OW 1885   3.683   3.872   2.082
  329SOL    HW1 1886   3.769   3.898   2.036
  329SOL    HW2 1887   3.649   3.950   2.134
  330SOL     OW 1888   3.618   5.265   0.133
  330SOL    HW1 1889   3.642   5.173   0.102
  330SOL    HW2 1890   3.694   5.304   0.185
  331SOL     OW 1891   5.554   5.453   6.470
  331SOL    HW1 1892   5.620   5.426   6.399
  331SOL    HW2 1893   5.599   5.453   6.559
  332SOL     OW 1894   5.305   2.096   2.871
  332SOL    HW1 1895   5.222   2.136   2.832
  332SOL    HW2 1896   5.375   2.091   2.799
  333SOL     OW 1897   3.612   1.598   6.167
  333SOL    HW1 1898   3.531   1.569   6.116
  333SOL    HW2 1899   3.587   1.614   6.263
  334SOL     OW 1900   3.464   3.449   3.864
  334SOL    HW1 1901   3.402   3.407   3.798
  334SOL    HW2 1902   3.517   3.378   3.910
  335SOL     OW 1903   3.041   0.586   6.010
  335SOL    HW1 1904   2.942   0.592   6.024
  335SOL    HW2 1905   3.060   0.517   5.939
  336SOL     OW 1906   3.161   1.687   3.027
  336SOL    HW1 1907   3.225   1.612   3.009
  336SOL    HW2 1908   3.130   1.726   2.940
  337SOL     OW 1909   2.201   0.443   5.911
  337SOL    HW1 1910   2.241   0.527   5.948
  337SOL    HW2 1911   2.247   0.364   5.952
  338SOL     OW 1912   4.699   1.733   1.528
  338SOL    HW1 1913   4.658   1.706   1.441
  338SOL    HW2 1914   4.670   1.826   1.551
  339SOL     OW 1915   3.799   4.995   4.927
  339SOL    HW1 1916   3.891   5.025   4.901
  339SOL    HW2 1917   3.744   4.981   4.845
  340SOL     OW 1918   4.715   1.845   3.508
  340SOL    HW1 1919   4.690   1.778   3.579
  340SOL    HW2 1920   4.753   1.927   3.551
  341SOL     OW 1921   5.641   6.932   4.030
  341SOL    HW1 1922   5.704   6.964   3.959
  341SOL    HW2 1923   5.683   6.855   4.078
  342SOL     OW 1924   5.219   2.240   1.711
  342SOL    HW1 1925   5.153   2.219   1.639
  342SOL    HW2 1926   5.220   2.166   1.778
  343SOL     OW 1927   0.977   5.768   3.246
  343SOL    HW1 1928   0.968   5.868   3.240
  343SOL    HW2 1929   0.929   5.725   3.170
  344SOL     OW 1930   1.857   1.291   1.870
  344SOL    HW1 1931   1.821   1.284   1.963
  344SOL    HW2 1932   1.900   1.380   1.858
  345SOL     OW 1933   6.047   3.407   4.019
  345SOL    HW1 1934   6.098   3.474   3.966
  345SOL    HW2 1935   6.041   3.321   3.967
  346SOL     OW 1936   1.676   6.905   2.923
  346SOL    HW1 1937   1.628   6.975   2.975
  346SOL    HW2 1938   1.724   6.947   2.846
  347SOL     OW 1939   2.823   5.160   0.564
  347SOL    HW1 1940   2.863   5.201   0.482
  347SOL    HW2 1941   2.792   5.068   0.544
  348SOL     OW 1942   5.299   5.682   2.245
  348SOL    HW1 1943   5.286   5.767   2.195
  348SOL    HW2 1944   5.287   5.605   2.182
  349SOL     OW 1945   6.713   3.950   1.403
  349SOL    HW1 1946   6.621   3.965   1.439
  349SOL    HW2 1947   6.766   3.897   1.469
  350SOL     OW 1948   3.348   3.070   0.257
  350SOL    HW1 1949   3.374   3.136   0.328
  350SOL    HW2 1950   3.425   3.057   0.195
  351SOL     OW 1951   3.278   4.292   1.495
  351SOL    HW1 1952   3.209   4.333   1.554
  351SOL    HW2 1953   3.242   4.209   1.453
  352SOL     OW 1954   4.205   6.909   3.008
  352SOL    HW1 1955   4.136   6.847   3.046
  352SOL    HW2 1956   4.170   6.949   2.923
  353SOL     OW 1957   2.273   6.180   6.544
  353SOL    HW1 1958   2.200   6.228   6.593
  353SOL    HW2 1959   2.318   6.115   6.605
  354SOL     OW 1960   6.729   2.429   0.558
  354SOL    HW1 1961   6.793   2.488   0.608
  354SOL    HW2 1962   6.636   2.444   0.593
  355SOL     OW 1963   2.305   2.337   2.374
  355SOL    HW1 1964   2.209   2.310   2.367
  355SOL    HW2 1965   2.362   2.255   2.379
  356SOL     OW 1966   1.169   6.996   6.218
  356SOL    HW1 1967   1.221   6.947   6.288
  356SOL    HW2 1968   1.147   0.069   6.252
  357SOL     OW 1969   5.748   6.785   4.578
  357SOL    HW1 1970   5.821   6.853   4.574
  357SOL    HW2 1971   5.703   6.778   4.489
  358SOL     OW 1972   5.244   6.137   0.760
  358SOL    HW1 1973   5.297   6.131   0.675
  358SOL    HW2 1974   5.214   6.232   0.773
  359SOL     OW 1975   3.032   2.084   1.941
  359SOL    HW1 1976   3.108   2.111   1.882
  359SOL    HW2 1977   2.975   2.164   1.961
  360SOL     OW 1978   1.534   4.442   4.060
  360SOL    HW1 1979   1.487   4.452   3.972
  360SOL    HW2 1980   1.470   4.460   4.134
  361SOL     OW 1981   6.712   6.250   3.269
  361SOL    HW1 1982   6.747   6.212   3.355
  361SOL    HW2 1983   6.657   6.182   3.221
  362SOL     OW 1984   3.916   4.263   1.154
  362SOL    HW1 1985   4.002   4.218   1.132
  362SOL    HW2 1986   3.919   4.299   1.247
  363SOL     OW 1987   6.242   5.016   2.473
  363SOL    HW1 1988   6.329   5.048   2.511
  363SOL    HW2 1989   6.175   5.008   2.547
  364SOL     OW 1990   0.268   5.299   6.935
  364SOL    HW1 1991   0.360   5.313   6.971
  364SOL    HW2 1992   0.218   5.385   6.938
  365SOL     OW 1993   3.665   1.572   2.315
  365SOL    HW1 1994   3.589   1.575   2.250
  365SOL    HW2 1995   3.642   1.627   2.396
  366SOL     OW 1996   5.860   2.870   0.738
  366SOL    HW1 1997   5.852   2.886   0.640
  366SOL    HW2 1998   5.791   2.925   0.786
  367SOL     OW 1999   4.537   1.895   5.854
  367SOL    HW1 2000   4.536   1.992   5.833
  367SOL    HW2 2001   4.537   1.842   5.769
  368SOL     OW 2002   6.379   2.142   5.941
  368SOL    HW1 2003   6.458   2.108   5.889
  368SOL    HW2 2004   6.379   2.241   5.939
  369SOL     OW 2005   5.404   3.741   2.797
  369SOL    HW1 2006   5.394   3.787   2.709
  369SOL    HW2 2007   5.426   3.809   2.868
  370SOL     OW 2008   2.254   2.901   4.293
  370SOL    HW1 2009   2.336   2.880   4.346
  370SOL    HW2 2010   2.222   2.993   4.315
  371SOL     OW 2011   2.013   3.925   6.936
  371SOL    HW1 2012   2.024   3.970   6.848
  371SOL    HW2 2013   2.103   3.908   6.976
  372SOL     OW 2014   2.706   6.862   5.563
  372SOL    HW1 2015   2.799   6.840   5.594
  372SOL    HW2 2016   2.657   6.778   5.540
  373SOL     OW 2017   6.185   6.504   4.554
  373SOL    HW1 2018   6.186   6.404   4.546
  373SOL    HW2 2019   6.091   6.535   4.567
  374SOL     OW 2020   2.782   1.634   2.530
  374SOL    HW1 2021   2.731   1.701   2.584
  374SOL    HW2 2022   2.747   1.634   2.436
  375SOL     OW 2023   1.123   4.630   5.002
  375SOL    HW1 2024   1.055   4.561   5.027
  375SOL    HW2 2025   1.082   4.721   5.010
  376SOL     OW 2026   2.859   1.015   4.130
  376SOL    HW1 2027   2.906   0.979   4.049
  376SOL    HW2 2028   2.772   0.967   4.142
  377SOL     OW 2029   1.676   2.033   6.688
  377SOL    HW1 2030   1.723   2.117   6.716
  377SOL    HW2 2031   1.580   2.038   6.715
  378SOL     OW 2032   2.883   1.799   1.013
  378SOL    HW1 2033   2.971   1.830   1.049
  378SOL    HW2 2034   2.886   1.803   0.913
  379SOL     OW 2035   6.028   2.402   6.599
  379SOL    HW1 2036   6.091   2.337   6.640
  379SOL    HW2 2037   5.961   2.353   6.542
  380SOL     OW 2038   3.807   1.639   1.477
  380SOL    HW1 2039   3.867   1.641   1.398
  380SOL    HW2 2040   3.820   1.554   1.527
  381SOL     OW 2041   1.697   4.399   3.285
  381SOL    HW1 2042   1.642   4.389   3.368
  381SOL    HW2 2043   1.656   4.346   3.211
  382SOL     OW 2044   6.131   0.697   0.343
  382SOL    HW1 2045   6.169   0.683   0.434
  382SOL    HW2 2046   6.038   0.734   0.350
  383SOL     OW 2047   4.071   2.795   1.436
  383SOL    HW1 2048   4.025   2.866   1.382
  383SOL    HW2 2049   4.018   2.710   1.431
  384SOL     OW 2050   6.472   3.841   4.989
  384SOL    HW1 2051   6.473   3.781   4.909
  384SOL    HW2 2052   6.504   3.932   4.963
  385SOL     OW 2053   4.460   4.835   6.836
  385SOL    HW1 2054   4.435   4.923   6.796
  385SOL    HW2 2055   4.525   4.788   6.776
  386SOL     OW 2056   4.328   0.148   4.487
  386SOL    HW1 2057   4.417   0.140   4.531
  386SOL    HW2 2058   4.261   0.184   4.553
  387SOL     OW 2059   2.187   5.111   3.479
  387SOL    HW1 2060   2.215   5.133   3.385
  387SOL    HW2 2061   2.117   5.177   3.508
  388SOL     OW 2062   1.893   2.591   6.656
  388SOL    HW1 2063   1.953   2.544   6.721
  388SOL    HW2 2064   1.942   2.605   6.570
  389SOL     OW 2065   2.906   3.578   3.303
  389SOL    HW1 2066   2.904   3.587   3.403
  389SOL    HW2 2067   2.938   3.663   3.262
  390SOL     OW 2068   2.518   1.465   4.127
  390SOL    HW1 2069   2.613   1.463   4.097
  390SOL    HW2 2070   2.460   1.501   4.054
  391SOL     OW 2071   1.218   2.661   6.680
  391SOL    HW1 2072   1.276   2.589   6.717
  391SOL    HW2 2073   1.124   2.648   6.710
  392SOL     OW 2074   2.459   5.257   1.750
  392SOL    HW1 2075   2.368   5.235   1.783
  392SOL    HW2 2076   2.462   5.351   1.717
  393SOL     OW 2077   5.952   4.354   4.972
  393SOL    HW1 2078   5.983   4.261   4.987
  393SOL    HW2 2079   5.915   4.363   4.880
  394SOL     OW 2080   6.620   6.421   0.287
  394SOL    HW1 2081   6.619   6.519   0.306
  394SOL    HW2 2082   6.691   6.401   0.219
  395SOL     OW 2083   5.162   4.308   2.493
  395SOL    HW1 2084   5.150   4.211   2.513
  395SOL    HW2 2085   5.082   4.342   2.444
  396SOL     OW 2086   3.433   3.837   3.182
  396SOL    HW1 2087   3.337   3.818   3.201
  396SOL    HW2 2088   3.442   3.932   3.150
  397SOL     OW 2089   4.392   2.266   5.589
  397SOL    HW1 2090   4.453   2.204   5.539
  397SOL    HW2 2091   4.398   2.247   5.687
  398SOL     OW 2092   0.897   5.564   2.306
  398SOL    HW1 2093   0.900   5.465   2.297
  398SOL    HW2 2094   0.959   5.605   2.239
  399SOL     OW 2095   4.567   5.605   1.439
  399SOL    HW1 2096   4.533   5.526   1.490
  399SOL    HW2 2097   4.666   5.611   1.449
  400SOL     OW 2098   0.208   6.768   5.406
  400SOL    HW1 2099   0.232   6.720   5.321
  400SOL    HW2 2100   0.121   6.733   5.441
  401SOL     OW 2101   4.588   1.477   6.245
  401SOL    HW1 2102   4.591   1.455   6.343
  401SOL    HW2 2103   4.498   1.516   6.223
  402SOL     OW 2104   6.498   6.305   2.726
  402SOL    HW1 2105   6.586   6.281   2.686
  402SOL    HW2 2106   6.434   6.331   2.654
  403SOL     OW 2107   4.746   2.402   5.943
  403SOL    HW1 2108   4.697   2.408   6.030
  403SOL    HW2 2109   4.844   2.407   5.960
  404SOL     OW 2110   1.572   6.731   3.563
  404SOL    HW1 2111   1.537   6.801   3.500
  404SOL    HW2 2112   1.589   6.773   3.652
  405SOL     OW 2113   1.732   2.734   0.964
  405SOL    HW1 2114   1.829   2.711   0.962
  405SOL    HW2 2115   1.704   2.750   1.058
  406SOL     OW 2116   1.037   2.730   4.187
  406SOL    HW1 2117   1.003   2.801   4.250
  406SOL    HW2 2118   1.070   2.652   4.239
  407SOL     OW 2119   3.128   0.154   4.617
  407SOL    HW1 2120   3.128   0.232   4.680
  407SOL    HW2 2121   3.102   0.071   4.666
  408SOL     OW 2122   1.365   0.244   3.341
  408SOL    HW1 2123   1.321   0.302   3.410
  408SOL    HW2 2124   1.321   0.258   3.252
  409SOL     OW 2125   6.346   3.217   2.796
  409SOL    HW1 2126   6.271   3.207   2.862
  409SOL    HW2 2127   6.343   3.309   2.756
  410SOL     OW 2128   2.206   0.223   0.396
  410SOL    HW1 2129   2.290   0.273   0.377
  410SOL    HW2 2130   2.188   0.158   0.323
  411SOL     OW 2131   5.756   5.240   6.692
  411SOL    HW1 2132   5.741   5.338   6.684
  411SOL    HW2 2133   5.772   5.200   6.602
  412SOL     OW 2134   3.675   6.344   2.892
  412SOL    HW1 2135   3.618   6.282   2.946
  412SOL    HW2 2136   3.668   6.436   2.930
  413SOL     OW 2137   3.410   5.382   0.280
  413SOL    HW1 2138   3.336   5.391   0.214
  413SOL    HW2 2139   3.494   5.354   0.234
  414SOL     OW 2140   4.300   4.844   1.372
  414SOL    HW1 2141   4.366   4.909   1.336
  414SOL    HW2 2142   4.208   4.883   1.369
  415SOL     OW 2143   1.319   5.893   0.549
  415SOL    HW1 2144   1.371   5.857   0.472
  415SOL    HW2 2145   1.319   5.825   0.623
  416SOL     OW 2146   3.993   5.693   4.738
  416SOL    HW1 2147   3.960   5.599   4.738
  416SOL    HW2 2148   3.919   5.755   4.764
  417SOL     OW 2149   3.175   6.360   1.824
  417SOL    HW1 2150   3.256   6.415   1.844
  417SOL    HW2 2151   3.163   6.291   1.896
  418SOL     OW 2152   4.742   6.292   0.227
  418SOL    HW1 2153   4.678   6.306   0.303
  418SOL    HW2 2154   4.759   6.194   0.216
  419SOL     OW 2155   0.473   0.954   0.830
  419SOL    HW1 2156   0.521   0.866   0.823
  419SOL    HW2 2157   0.405   0.949   0.903
  420SOL     OW 2158   6.110   3.946   1.260
  420SOL    HW1 2159   6.082   3.884   1.333
  420SOL    HW2 2160   6.200   3.984   1.281
  421SOL     OW 2161   1.355   4.614   6.230
  421SOL    HW1 2162   1.261   4.587   6.249
  421SOL    HW2 2163   1.418   4.554   6.279
  422SOL     OW 2164   5.457   4.824   0.470
  422SOL    HW1 2165   5.408   4.781   0.394
  422SOL    HW2 2166   5.451   4.766   0.551
  423SOL     OW 2167   6.068   3.030   6.870
  423SOL    HW1 2168   6.097   2.981   6.952
  423SOL    HW2 2169   5.970   3.046   6.872
  424SOL     OW 2170   2.875   3.689   0.274
  424SOL    HW1 2171   2.901   3.618   0.339
  424SOL    HW2 2172   2.904   3.778   0.308
  425SOL     OW 2173   5.196   1.856   1.395
  425SOL    HW1 2174   5.269   1.905   1.442
  425SOL    HW2 2175   5.120   1.839   1.458
  426SOL     OW 2176   5.096   2.650   5.427
  426SOL    HW1 2177   5.082   2.554   5.454
  426SOL    HW2 2178   5.143   2.653   5.338
  427SOL     OW 2179   5.578   4.487   1.945
  427SOL    HW1 2180   5.624   4.567   1.905
  427SOL    HW2 2181   5.566   4.417   1.875
  428SOL     OW 2182   4.212   0.668   5.474
  428SOL    HW1 2183   4.223   0.681   5.572
  428SOL    HW2 2184   4.291   0.705   5.426
  429SOL     OW 2185   2.008   5.070   0.144
  429SOL    HW1 2186   1.940   5.016   0.194
  429SOL    HW2 2187   1.983   5.075   0.048
  430SOL     OW 2188   1.828   6.898   4.279
  430SOL    HW1 2189   1.756   6.945   4.227
  430SOL    HW2 2190   1.872   6.831   4.220
  431SOL     OW 2191   3.229   1.165   0.132
  431SOL    HW1 2192   3.268   1.249   0.094
  431SOL    HW2 2193   3.300   1.095   0.137
  432SOL     OW 2194   0.022   2.269   0.308
  432SOL    HW1 2195   0.013   2.240   0.213
  432SOL    HW2 2196   0.101   2.330   0.317
  433SOL     OW 2197   2.967   0.200   4.170
  433SOL    HW1 2198   3.064   0.177   4.158
  433SOL    HW2 2199   2.958   0.266   4.245
  434SOL     OW 2200   5.220   4.564   1.269
  434SOL    HW1 2201   5.196   4.606   1.357
  434SOL    HW2 2202   5.152   4.591   1.200
  435SOL     OW 2203   3.683   3.074   5.788
  435SOL    HW1 2204   3.596   3.118   5.768
  435SOL    HW2 2205   3.696   2.996   5.727
  436SOL     OW 2206   1.360   0.162   1.254
  436SOL    HW1 2207   1.385   0.159   1.351
  436SOL    HW2 2208   1.364   0.069   1.216
  437SOL     OW 2209   6.955   6.825   6.579
  437SOL    HW1 2210   6.967   6.726   6.585
  437SOL    HW2 2211   6.858   6.847   6.593
  438SOL     OW 2212   2.014   2.536   2.299
  438SOL    HW1 2213   2.025   2.523   2.397
  438SOL    HW2 2214   2.078   2.606   2.267
  439SOL     OW 2215   6.232   4.667   3.332
  439SOL    HW1 2216   6.278   4.651   3.245
  439SOL    HW2 2217   6.184   4.583   3.360
  440SOL     OW 2218   0.896   2.198   4.551
  440SOL    HW1 2219   0.924   2.281   4.599
  440SOL    HW2 2220   0.799   2.180   4.570
  441SOL     OW 2221   1.127   1.843   3.411
  441SOL    HW1 2222   1.133   1.899   3.493
  441SOL    HW2 2223   1.050   1.874   3.355
  442SOL     OW 2224   0.502   4.375   0.240
  442SOL    HW1 2225   0.522   4.316   0.318
  442SOL    HW2 2226   0.511   4.322   0.155
  443SOL     OW 2227   1.163   4.513   4.670
  443SOL    HW1 2228   1.216   4.582   4.719
  443SOL    HW2 2229   1.203   4.423   4.687
  444SOL     OW 2230   4.633   2.857   6.039
  444SOL    HW1 2231   4.712   2.902   6.082
  444SOL    HW2 2232   4.550   2.907   6.062
  445SOL     OW 2233   2.011   5.487   3.208
  445SOL    HW1 2234   2.078   5.519   3.275
  445SOL    HW2 2235   1.967   5.565   3.164
  446SOL     OW 2236   3.778   4.879   3.555
  446SOL    HW1 2237   3.857   4.854   3.499
  446SOL    HW2 2238   3.713   4.803   3.557
  447SOL     OW 2239   0.148   4.327   6.641
  447SOL    HW1 2240   0.237   4.333   6.686
  447SOL    HW2 2241   0.094   4.255   6.684
  448SOL     OW 2242   3.680   0.642   4.891
  448SOL    HW1 2243   3.689   0.561   4.833
  448SOL    HW2 2244   3.751   0.640   4.962
  449SOL     OW 2245   5.107   0.862   4.948
  449SOL    HW1 2246   5.136   0.949   4.986
  449SOL    HW2 2247   5.157   0.843   4.863
  450SOL     OW 2248   0.283   6.087   3.532
  450SOL    HW1 2249   0.250   6.063   3.441
  450SOL    HW2 2250   0.381   6.105   3.529
  451SOL     OW 2251   0.975   2.314   2.168
  451SOL    HW1 2252   1.055   2.373   2.160
  451SOL    HW2 2253   0.902   2.348   2.109
  452SOL     OW 2254   6.551   5.877   6.841
  452SOL    HW1 2255   6.513   5.937   6.912
  452SOL    HW2 2256   6.646   5.904   6.823
  453SOL     OW 2257   3.033   0.693   6.769
  453SOL    HW1 2258   3.003   0.766   6.707
  453SOL    HW2 2259   2.956   0.632   6.787
  454SOL     OW 2260   6.692   6.029   5.949
  454SOL    HW1 2261   6.764   5.969   5.914
  454SOL    HW2 2262   6.689   6.113   5.895
  455SOL     OW 2263   6.564   0.333   4.433
  455SOL    HW1 2264   6.602   0.422   4.458
  455SOL    HW2 2265   6.555   0.277   4.515
  456SOL     OW 2266   4.782   5.435   5.397
  456SOL    HW1 2267   4.850   5.508   5.393
  456SOL    HW2 2268   4.696   5.467   5.357
  457SOL     OW 2269   1.995   3.913   3.083
  457SOL    HW1 2270   2.083   3.949   3.114
  457SOL    HW2 2271   2.010   3.836   3.021
  458SOL     OW 2272   5.490   5.661   5.525
  458SOL    HW1 2273   5.514   5.641   5.430
  458SOL    HW2 2274   5.528   5.750   5.550
  459SOL     OW 2275   1.458   0.145   3.736
  459SOL    HW1 2276   1.482   0.217   3.671
  459SOL    HW2 2277   1.442   0.186   3.826
  460SOL     OW 2278   0.257   1.358   2.223
  460SOL    HW1 2279   0.162   1.328   2.210
  460SOL    HW2 2280   0.274   1.438   2.166
  461SOL     OW 2281   4.837   6.832   4.860
  461SOL    HW1 2282   4.917   6.801   4.807
  461SOL    HW2 2283   4.838   6.789   4.950
  462SOL     OW 2284   4.246   2.185   6.053
  462SOL    HW1 2285   4.344   2.167   6.047
  462SOL    HW2 2286   4.210   2.204   5.962
  463SOL     OW 2287   6.553   5.573   2.734
  463SOL    HW1 2288   6.620   5.509   2.771
  463SOL    HW2 2289   6.566   5.663   2.776
  464SOL     OW 2290   2.772   1.768   6.434
  464SOL    HW1 2291   2.685   1.755   6.481
  464SOL    HW2 2292   2.847   1.754   6.499
  465SOL     OW 2293   0.905   1.822   4.626
  465SOL    HW1 2294   0.995   1.787   4.602
  465SOL    HW2 2295   0.874   1.886   4.557
  466SOL     OW 2296   0.070   6.106   3.736
  466SOL    HW1 2297   0.148   6.087   3.677
  466SOL    HW2 2298   0.102   6.145   3.822
  467SOL     OW 2299   1.009   0.236   6.272
  467SOL    HW1 2300   1.033   0.324   6.312
  467SOL    HW2 2301   1.039   0.233   6.176
  468SOL     OW 2302   3.235   6.123   0.381
  468SOL    HW1 2303   3.157   6.186   0.374
  468SOL    HW2 2304   3.202   6.030   0.397
  469SOL     OW 2305   2.985   4.519   0.277
  469SOL    HW1 2306   3.019   4.547   0.187
  469SOL    HW2 2307   3.028   4.575   0.348
  470SOL     OW 2308   3.290   0.246   2.406
  470SOL    HW1 2309   3.386   0.257   2.380
  470SOL    HW2 2310   3.233   0.304   2.347
  471SOL     OW 2311   1.576   2.667   4.379
  471SOL    HW1 2312   1.545   2.682   4.285
  471SOL    HW2 2313   1.675   2.685   4.385
  472SOL     OW 2314   4.910   3.575   6.770
  472SOL    HW1 2315   4.913   3.560   6.671
  472SOL    HW2 2316   4.924   3.672   6.790
  473SOL     OW 2317   0.410   2.903   1.244
  473SOL    HW1 2318   0.428   2.992   1.202
  473SOL    HW2 2319   0.315   2.898   1.273
  474SOL     OW 2320   4.852   4.992   3.814
  474SOL    HW1 2321   4.767   4.967   3.860
  474SOL    HW2 2322   4.927   4.993   3.880
  475SOL     OW 2323   6.238   0.422   6.723
  475SOL    HW1 2324   6.180   0.465   6.792
  475SOL    HW2 2325   6.301   0.358   6.767
  476SOL     OW 2326   6.908   4.393   2.226
  476SOL    HW1 2327   6.946   4.351   2.143
  476SOL    HW2 2328   6.971   4.462   2.260
  477SOL     OW 2329   2.290   4.853   4.892
  477SOL    HW1 2330   2.372   4.910   4.903
  477SOL    HW2 2331   2.267   4.810   4.980
  478SOL     OW 2332   3.097   6.165   2.030
  478SOL    HW1 2333   3.125   6.209   2.116
  478SOL    HW2 2334   2.997   6.169   2.022
  479SOL     OW 2335   4.732   2.032   0.260
  479SOL    HW1 2336   4.769   1.951   0.216
  479SOL    HW2 2337   4.701   2.009   0.353
  480SOL     OW 2338   1.601   0.141   6.770
  480SOL    HW1 2339   1.541   0.221   6.770
  480SOL    HW2 2340   1.684   0.162   6.717
  481SOL     OW 2341   2.161   0.064   0.882
  481SOL    HW1 2342   2.245   0.112   0.903
  481SOL    HW2 2343   2.124   0.023   0.965
  482SOL     OW 2344   4.828   4.560   2.544
  482SOL    HW1 2345   4.736   4.525   2.527
  482SOL    HW2 2346   4.843   4.564   2.643
  483SOL     OW 2347   5.463   2.556   1.426
  483SOL    HW1 2348   5.485   2.530   1.520
  483SOL    HW2 2349   5.366   2.578   1.420
  484SOL     OW 2350   1.170   2.513   5.075
  484SOL    HW1 2351   1.186   2.554   5.164
  484SOL    HW2 2352   1.167   2.584   5.005
  485SOL     OW 2353   4.267   5.653   2.157
  485SOL    HW1 2354   4.213   5.593   2.215
  485SOL    HW2 2355   4.361   5.621   2.153
  486SOL     OW 2356   0.641   1.437   0.827
  486SOL    HW1 2357   0.573   1.503   0.859
  486SOL    HW2 2358   0.595   1.352   0.801
  487SOL     OW 2359   0.884   1.431   6.709
  487SOL    HW1 2360   0.810   1.448   6.643
  487SOL    HW2 2361   0.938   1.352   6.678
  488SOL     OW 2362   0.940   0.535   1.369
  488SOL    HW1 2363   0.990   0.621   1.379
  488SOL    HW2 2364   0.977   0.484   1.292
  489SOL     OW 2365   3.402   5.952   0.063
  489SOL    HW1 2366   3.390   5.892   0.143
  489SOL    HW2 2367   3.338   5.924   7.010
  490SOL     OW 2368   6.821   5.860   4.139
  490SOL    HW1 2369   6.787   5.942   4.185
  490SOL    HW2 2370   6.748   5.791   4.136
  491SOL     OW 2371   6.775   2.494   3.346
  491SOL    HW1 2372   6.853   2.554   3.361
  491SOL    HW2 2373   6.804   2.412   3.298
  492SOL     OW 2374   3.067   0.380   4.807
  492SOL    HW1 2375   3.129   0.408   4.734
  492SOL    HW2 2376   2.994   0.448   4.817
  493SOL     OW 2377   5.746   5.481   5.966
  493SOL    HW1 2378   5.715   5.428   5.887
  493SOL    HW2 2379   5.842   5.461   5.985
  494SOL     OW 2380   0.497   6.630   0.024
  494SOL    HW1 2381   0.526   6.603   0.116
  494SOL    HW2 2382   0.409   6.588   0.004
  495SOL     OW 2383   5.565   5.730   3.029
  495SOL    HW1 2384   5.488   5.672   3.052
  495SOL    HW2 2385   5.622   5.745   3.110
  496SOL     OW 2386   5.185   3.023   2.705
  496SOL    HW1 2387   5.123   2.972   2.766
  496SOL    HW2 2388   5.218   2.963   2.633
  497SOL     OW 2389   3.320   1.508   5.636
  497SOL    HW1 2390   3.282   1.542   5.550
  497SOL    HW2 2391   3.273   1.424   5.662
  498SOL     OW 2392   1.142   4.369   1.540
  498SOL    HW1 2393   1.189   4.376   1.452
  498SOL    HW2 2394   1.112   4.274   1.554
  499SOL     OW 2395   3.231   0.771   4.151
  499SOL    HW1 2396   3.143   0.740   4.115
  499SOL    HW2 2397   3.228   0.870   4.165
  500SOL     OW 2398   1.234   4.029   3.265
  500SOL    HW1 2399   1.288   3.957   3.310
  500SOL    HW2 2400   1.178   3.987   3.193
  501SOL     OW 2401   3.315   0.530   0.901
  501SOL    HW1 2402   3.290   0.434   0.915
  501SOL    HW2 2403   3.392   0.536   0.837
  502SOL     OW 2404   6.101   4.515   6.330
  502SOL    HW1 2405   6.017   4.514   6.383
  502SOL    HW2 2406   6.139   4.423   6.326
  503SOL     OW 2407   5.960   4.872   5.844
  503SOL    HW1 2408   5.958   4.904   5.938
  503SOL    HW2 2409   6.054   4.856   5.816
  504SOL     OW 2410   2.827   6.405   3.642
  504SOL    HW1 2411   2.921   6.379   3.663
  504SOL    HW2 2412   2.827   6.479   3.574
  505SOL     OW 2413   3.403   0.487   5.758
  505SOL    HW1 2414   3.499   0.514   5.768
  505SOL    HW2 2415   3.370   0.515   5.668
  506SOL     OW 2416   1.820   5.373   4.807
  506SOL    HW1 2417   1.852   5.307   4.739
  506SOL    HW2 2418   1.891   5.442   4.823
  507SOL     OW 2419   3.593   0.509   4.203
  507SOL    HW1 2420   3.494   0.502   4.215
  507SOL    HW2 2421   3.639   0.484   4.288
  508SOL     OW 2422   6.303   3.536   2.665
  508SOL    HW1 2423   6.339   3.554   2.757
  508SOL    HW2 2424   6.216   3.584   2.654
  509SOL     OW 2425   3.304   1.816   1.837
  509SOL    HW1 2426   3.266   1.837   1.927
  509SOL    HW2 2427   3.397   1.782   1.848
  510SOL     OW 2428   6.705   4.741   5.786
  510SOL    HW1 2429   6.637   4.742   5.712
  510SOL    HW2 2430   6.685   4.816   5.850
  511SOL     OW 2431   0.195   6.550   0.070
  511SOL    HW1 2432   0.176   6.484   0.143
  511SOL    HW2 2433   0.128   6.538   7.015
  512SOL     OW 2434   0.275   3.241   0.482
  512SOL    HW1 2435   0.259   3.252   0.384
  512SOL    HW2 2436   0.188   3.228   0.529
  513SOL     OW 2437   5.975   6.359   3.125
  513SOL    HW1 2438   5.924   6.353   3.039
  513SOL    HW2 2439   6.073   6.369   3.105
  514SOL     OW 2440   6.611   2.263   4.129
  514SOL    HW1 2441   6.580   2.337   4.068
  514SOL    HW2 2442   6.700   2.287   4.167
  515SOL     OW 2443   2.056   0.119   5.940
  515SOL    HW1 2444   2.101   0.131   5.851
  515SOL    HW2 2445   2.007   0.032   5.942
  516SOL     OW 2446   2.713   4.428   1.704
  516SOL    HW1 2447   2.808   4.457   1.722
  516SOL    HW2 2448   2.653   4.465   1.776
  517SOL     OW 2449   5.356   5.959   2.705
  517SOL    HW1 2450   5.338   5.993   2.613
  517SOL    HW2 2451   5.454   5.962   2.724
  518SOL     OW 2452   2.874   1.895   1.835
  518SOL    HW1 2453   2.921   1.976   1.870
  518SOL    HW2 2454   2.777   1.901   1.856
  519SOL     OW 2455   6.887   0.633   5.018
  519SOL    HW1 2456   6.972   0.670   5.055
  519SOL    HW2 2457   6.896   0.623   4.919
  520SOL     OW 2458   5.548   4.595   6.433
  520SOL    HW1 2459   5.498   4.530   6.490
  520SOL    HW2 2460   5.575   4.674   6.489
  521SOL     OW 2461   6.316   2.517   6.500
  521SOL    HW1 2462   6.290   2.521   6.597
  521SOL    HW2 2463   6.284   2.430   6.461
  522SOL     OW 2464   3.850   2.950   5.590
  522SOL    HW1 2465   3.907   2.883   5.638
  522SOL    HW2 2466   3.890   3.041   5.601
  523SOL     OW 2467   0.170   5.077   3.673
  523SOL    HW1 2468   0.158   5.170   3.707
  523SOL    HW2 2469   0.154   5.012   3.747
  524SOL     OW 2470   2.501   1.142   6.477
  524SOL    HW1 2471   2.443   1.151   6.396
  524SOL    HW2 2472   2.547   1.229   6.495
  525SOL     OW 2473   2.785   3.242   6.398
  525SOL    HW1 2474   2.823   3.183   6.327
  525SOL    HW2 2475   2.792   3.338   6.369
  526SOL     OW 2476   2.766   6.742   4.943
  526SOL    HW1 2477   2.720   6.684   4.876
  526SOL    HW2 2478   2.865   6.738   4.927
  527SOL     OW 2479   6.223   3.342   6.196
  527SOL    HW1 2480   6.185   3.415   6.140
  527SOL    HW2 2481   6.149   3.282   6.227
  528SOL     OW 2482   1.195   1.057   3.736
  528SOL    HW1 2483   1.269   1.027   3.796
  528SOL    HW2 2484   1.231   1.122   3.668
  529SOL     OW 2485   0.402   5.353   4.731
  529SOL    HW1 2486   0.429   5.448   4.720
  529SOL    HW2 2487   0.412   5.305   4.643
  530SOL     OW 2488   2.644   2.975   5.336
  530SOL    HW1 2489   2.621   3.019   5.423
  530SOL    HW2 2490   2.564   2.973   5.277
  531SOL     OW 2491   0.246   0.948   1.710
  531SOL    HW1 2492   0.185   0.877   1.676
  531SOL    HW2 2493   0.193   1.020   1.754
  532SOL     OW 2494   0.832   2.814   6.117
  532SOL    HW1 2495   0.761   2.745   6.125
  532SOL    HW2 2496   0.870   2.813   6.024
  533SOL     OW 2497   5.079   5.778   4.352
  533SOL    HW1 2498   5.065   5.701   4.414
  533SOL    HW2 2499   5.116   5.856   4.403
  534SOL     OW 2500   5.274   5.131   3.362
  534SOL    HW1 2501   5.255   5.045   3.314
  534SOL    HW2 2502   5.360   5.123   3.411
  535SOL     OW 2503   1.012   4.427   4.344
  535SOL    HW1 2504   1.105   4.463   4.342
  535SOL    HW2 2505   0.948   4.500   4.371
  536SOL     OW 2506   0.001   5.203   2.105
  536SOL    HW1 2507   0.013   5.149   2.022
  536SOL    HW2 2508   6.981   5.292   2.082
  537SOL     OW 2509   2.057   6.621   3.944
  537SOL    HW1 2510   2.095   6.528   3.942
  537SOL    HW2 2511   1.990   6.631   3.870
  538SOL     OW 2512   1.510   5.911   3.627
  538SOL    HW1 2513   1.430   5.961   3.593
  538SOL    HW2 2514   1.556   5.965   3.697
  539SOL     OW 2515   0.052   6.026   0.432
  539SOL    HW1 2516   0.047   5.980   0.343
  539SOL    HW2 2517   7.010   5.979   0.497
  540SOL     OW 2518   0.503   1.686   2.090
  540SOL    HW1 2519   0.460   1.685   2.180
  540SOL    HW2 2520   0.453   1.749   2.030
  541SOL     OW 2521   2.902   6.497   4.301
  541SOL    HW1 2522   2.997   6.479   4.273
  541SOL    HW2 2523   2.859   6.413   4.332
  542SOL     OW 2524   6.480   6.657   6.824
  542SOL    HW1 2525   6.488   6.575   6.881
  542SOL    HW2 2526   6.554   6.657   6.757
  543SOL     OW 2527   0.420   4.825   5.749
  543SOL    HW1 2528   0.332   4.874   5.747
  543SOL    HW2 2529   0.468   4.839   5.663
  544SOL     OW 2530   1.267   4.321   1.286
  544SOL    HW1 2531   1.234   4.399   1.233
  544SOL    HW2 2532   1.212   4.240   1.264
  545SOL     OW 2533   3.528   1.890   3.407
  545SOL    HW1 2534   3.562   1.809   3.456
  545SOL    HW2 2535   3.450   1.928   3.457
  546SOL     OW 2536   1.827   3.334   1.848
  546SOL    HW1 2537   1.910   3.346   1.795
  546SOL    HW2 2538   1.807   3.237   1.858
  547SOL     OW 2539   2.337   1.368   6.759
  547SOL    HW1 2540   2.359   1.434   6.831
  547SOL    HW2 2541   2.410   1.369   6.691
  548SOL     OW 2542   3.636   2.891   2.845
  548SOL    HW1 2543   3.623   2.881   2.746
  548SOL    HW2 2544   3.552   2.867   2.893
  549SOL     OW 2545   4.278   3.555   1.599
  549SOL    HW1 2546   4.325   3.632   1.643
  549SOL    HW2 2547   4.179   3.571   1.602
  550SOL     OW 2548   6.927   3.000   3.213
  550SOL    HW1 2549   6.910   3.099   3.204
  550SOL    HW2 2550   7.004   2.986   3.275
  551SOL     OW 2551   0.005   1.931   0.587
  551SOL    HW1 2552   6.970   1.900   0.665
  551SOL    HW2 2553   6.994   2.022   0.560
  552SOL     OW 2554   3.541   5.811   0.505
  552SOL    HW1 2555   3.484   5.791   0.585
  552SOL    HW2 2556   3.637   5.801   0.529
  553SOL     OW 2557   1.803   6.640   2.716
  553SOL    HW1 2558   1.852   6.566   2.762
  553SOL    HW2 2559   1.744   6.686   2.781
  554SOL     OW 2560   5.028   0.179   6.620
  554SOL    HW1 2561   4.961   0.104   6.618
  554SOL    HW2 2562   5.024   0.224   6.709
  555SOL     OW 2563   2.388   5.310   4.083
  555SOL    HW1 2564   2.476   5.277   4.115
  555SOL    HW2 2565   2.397   5.405   4.053
  556SOL     OW 2566   6.001   2.502   4.174
  556SOL    HW1 2567   6.100   2.495   4.163
  556SOL    HW2 2568   5.970   2.435   4.241
  557SOL     OW 2569   0.052   6.283   6.523
  557SOL    HW1 2570   0.055   6.186   6.501
  557SOL    HW2 2571   0.138   6.311   6.565
  558SOL     OW 2572   4.215   3.713   5.169
  558SOL    HW1 2573   4.144   3.731   5.100
  558SOL    HW2 2574   4.231   3.614   5.176
  559SOL     OW 2575   6.803   6.236   6.610
  559SOL    HW1 2576   6.795   6.136   6.604
  559SOL    HW2 2577   6.885   6.266   6.562
  560SOL     OW 2578   3.482   6.618   0.735
  560SOL    HW1 2579   3.469   6.525   0.700
  560SOL    HW2 2580   3.393   6.657   0.757
  561SOL     OW 2581   5.740   0.253   6.708
  561SOL    HW1 2582   5.660   0.261   6.649
  561SOL    HW2 2583   5.743   0.330   6.771
  562SOL     OW 2584   4.700   0.961   6.262
  562SOL    HW1 2585   4.622   0.979   6.321
  562SOL    HW2 2586   4.739   1.048   6.230
  563SOL     OW 2587   2.837   6.564   3.387
  563SOL    HW1 2588   2.917   6.504   3.382
  563SOL    HW2 2589   2.763   6.525   3.332
  564SOL     OW 2590   2.270   2.366   6.270
  564SOL    HW1 2591   2.336   2.361   6.195
  564SOL    HW2 2592   2.207   2.441   6.255
  565SOL     OW 2593   4.670   3.201   5.628
  565SOL    HW1 2594   4.644   3.121   5.681
  565SOL    HW2 2595   4.719   3.172   5.545
  566SOL     OW 2596   4.323   4.856   3.467
  566SOL    HW1 2597   4.234   4.824   3.500
  566SOL    HW2 2598   4.342   4.814   3.378
  567SOL     OW 2599   3.031   3.145   4.104
  567SOL    HW1 2600   3.081   3.076   4.053
  567SOL    HW2 2601   3.043   3.234   4.060
  568SOL     OW 2602   3.699   2.322   0.915
  568SOL    HW1 2603   3.663   2.309   1.007
  568SOL    HW2 2604   3.782   2.378   0.919
  569SOL     OW 2605   1.210   3.100   0.511
  569SOL    HW1 2606   1.298   3.053   0.522
  569SOL    HW2 2607   1.160   3.060   0.435
  570SOL     OW 2608   1.336   6.242   0.205
  570SOL    HW1 2609   1.333   6.327   0.152
  570SOL    HW2 2610   1.357   6.166   0.144
  571SOL     OW 2611   3.023   5.752   2.545
  571SOL    HW1 2612   2.927   5.725   2.551
  571SOL    HW2 2613   3.081   5.671   2.536
  572SOL     OW 2614   2.324   4.522   5.831
  572SOL    HW1 2615   2.295   4.570   5.748
  572SOL    HW2 2616   2.254   4.531   5.901
  573SOL     OW 2617   3.423   1.593   5.386
  573SOL    HW1 2618   3.490   1.568   5.456
  573SOL    HW2 2619   3.452   1.556   5.298
  574SOL     OW 2620   2.447   2.044   4.462
  574SOL    HW1 2621   2.403   2.111   4.523
  574SOL    HW2 2622   2.530   2.010   4.506
  575SOL     OW 2623   6.418   3.575   0.600
  575SOL    HW1 2624   6.389   3.599   0.693
  575SOL    HW2 2625   6.431   3.476   0.594
  576SOL     OW 2626   1.265   2.479   1.834
  576SOL    HW1 2627   1.216   2.480   1.747
  576SOL    HW2 2628   1.342   2.416   1.829
  577SOL     OW 2629   2.428   1.482   3.869
  577SOL    HW1 2630   2.408   1.388   3.840
  577SOL    HW2 2631   2.518   1.508   3.836
  578SOL     OW 2632   0.292   3.484   3.505
  578SOL    HW1 2633   0.223   3.416   3.530
  578SOL    HW2 2634   0.374   3.438   3.471
  579SOL     OW 2635   4.139   2.143   1.396
  579SOL    HW1 2636   4.170   2.050   1.414
  579SOL    HW2 2637   4.063   2.166   1.457
  580SOL     OW 2638   0.784   4.862   6.350
  580SOL    HW1 2639   0.854   4.815   6.297
  580SOL    HW2 2640   0.695   4.820   6.332
  581SOL     OW 2641   3.813   3.000   3.634
  581SOL    HW1 2642   3.721   2.962   3.620
  581SOL    HW2 2643   3.868   2.983   3.552
  582SOL     OW 2644   5.791   4.152   2.173
  582SOL    HW1 2645   5.889   4.147   2.155
  582SOL    HW2 2646   5.757   4.061   2.200
  583SOL     OW 2647   2.824   4.738   6.942
  583SOL    HW1 2648   2.807   4.645   6.975
  583SOL    HW2 2649   2.895   4.780   6.998
  584SOL     OW 2650   7.014   4.805   5.331
  584SOL    HW1 2651   0.087   4.821   5.366
  584SOL    HW2 2652   7.016   4.806   5.231
  585SOL     OW 2653   0.036   2.598   5.967
  585SOL    HW1 2654   0.015   2.691   5.998
  585SOL    HW2 2655   0.126   2.596   5.924
  586SOL     OW 2656   2.813   6.989   0.546
  586SOL    HW1 2657   2.844   6.977   0.451
  586SOL    HW2 2658   2.890   6.976   0.608
  587SOL     OW 2659   1.618   2.298   5.196
  587SOL    HW1 2660   1.667   2.279   5.111
  587SOL    HW2 2661   1.549   2.227   5.211
  588SOL     OW 2662   3.619   6.855   1.503
  588SOL    HW1 2663   3.679   6.879   1.426
  588SOL    HW2 2664   3.564   6.775   1.479
  589SOL     OW 2665   3.725   5.079   1.795
  589SOL    HW1 2666   3.672   5.136   1.733
  589SOL    HW2 2667   3.714   5.111   1.889
  590SOL     OW 2668   0.067   2.869   2.093
  590SOL    HW1 2669   0.154   2.821   2.080
  590SOL    HW2 2670   0.070   2.956   2.045
  591SOL     OW 2671   4.374   6.926   3.621
  591SOL    HW1 2672   4.468   6.960   3.620
  591SOL    HW2 2673   4.315   6.993   3.664
  592SOL     OW 2674   4.801   1.044   0.447
  592SOL    HW1 2675   4.798   1.138   0.482
  592SOL    HW2 2676   4.745   0.985   0.506
  593SOL     OW 2677   3.984   2.184   4.040
  593SOL    HW1 2678   4.006   2.096   3.997
  593SOL    HW2 2679   3.885   2.188   4.058
  594SOL     OW 2680   4.250   3.582   6.816
  594SOL    HW1 2681   4.159   3.557   6.783
  594SOL    HW2 2682   4.244   3.604   6.914
  595SOL     OW 2683   3.964   6.638   4.464
  595SOL    HW1 2684   3.911   6.672   4.542
  595SOL    HW2 2685   3.919   6.665   4.379
  596SOL     OW 2686   0.960   4.303   2.292
  596SOL    HW1 2687   1.034   4.246   2.326
  596SOL    HW2 2688   0.872   4.258   2.311
  597SOL     OW 2689   3.385   6.947   6.777
  597SOL    HW1 2690   3.442   0.011   6.773
  597SOL    HW2 2691   3.388   6.909   6.869
  598SOL     OW 2692   3.998   4.693   0.202
  598SOL    HW1 2693   3.986   4.596   0.179
  598SOL    HW2 2694   4.086   4.705   0.248
  599SOL     OW 2695   0.089   0.256   2.709
  599SOL    HW1 2696   0.167   0.312   2.737
  599SOL    HW2 2697   0.009   0.281   2.764
  600SOL     OW 2698   0.984   6.612   0.618
  600SOL    HW1 2699   0.989   6.650   0.710
  600SOL    HW2 2700   0.906   6.650   0.570
  601SOL     OW 2701   2.489   5.946   3.514
  601SOL    HW1 2702   2.556   5.871   3.512
  601SOL    HW2 2703   2.524   6.019   3.572
  602SOL     OW 2704   1.254   0.164   0.699
  602SOL    HW1 2705   1.244   0.153   0.798
  602SOL    HW2 2706   1.346   0.198   0.678
  603SOL     OW 2707   3.857   2.171   3.658
  603SOL    HW1 2708   3.878   2.167   3.561
  603SOL    HW2 2709   3.758   2.158   3.672
  604SOL     OW 2710   1.526   3.396   0.066
  604SOL    HW1 2711   1.524   3.495   0.079
  604SOL    HW2 2712   1.580   3.374   7.003
  605SOL     OW 2713   0.088   5.962   3.335
  605SOL    HW1 2714   0.112   5.931   3.244
  605SOL    HW2 2715   0.085   5.884   3.398
  606SOL     OW 2716   4.229   0.307   5.097
  606SOL    HW1 2717   4.293   0.318   5.021
  606SOL    HW2 2718   4.280   0.312   5.183
  607SOL     OW 2719   5.459   1.356   3.544
  607SOL    HW1 2720   5.536   1.382   3.603
  607SOL    HW2 2721   5.373   1.367   3.594
  608SOL     OW 2722   2.968   0.421   0.941
  608SOL    HW1 2723   2.873   0.411   0.912
  608SOL    HW2 2724   2.999   0.514   0.923
  609SOL     OW 2725   3.428   2.867   4.514
  609SOL    HW1 2726   3.523   2.885   4.540
  609SOL    HW2 2727   3.412   2.900   4.420
  610SOL     OW 2728   5.140   2.377   3.772
  610SOL    HW1 2729   5.180   2.468   3.778
  610SOL    HW2 2730   5.058   2.380   3.714
  611SOL     OW 2731   0.032   0.605   0.062
  611SOL    HW1 2732   0.127   0.616   0.092
  611SOL    HW2 2733   0.030   0.567   6.988
  612SOL     OW 2734   3.514   5.012   5.823
  612SOL    HW1 2735   3.486   5.088   5.764
  612SOL    HW2 2736   3.440   4.989   5.886
  613SOL     OW 2737   3.922   1.666   5.798
  613SOL    HW1 2738   3.915   1.635   5.892
  613SOL    HW2 2739   3.847   1.627   5.744
  614SOL     OW 2740   6.099   4.899   0.803
  614SOL    HW1 2741   6.044   4.866   0.880
  614SOL    HW2 2742   6.039   4.939   0.734
  615SOL     OW 2743   0.731   0.199   0.050
  615SOL    HW1 2744   0.748   0.109   0.089
  615SOL    HW2 2745   0.726   0.192   6.969
  616SOL     OW 2746   5.726   2.239   4.496
  616SOL    HW1 2747   5.648   2.178   4.494
  616SOL    HW2 2748   5.781   2.221   4.577
  617SOL     OW 2749   0.547   4.577   5.808
  617SOL    HW1 2750   0.503   4.667   5.811
  617SOL    HW2 2751   0.602   4.570   5.724
  618SOL     OW 2752   6.286   3.432   1.361
  618SOL    HW1 2753   6.276   3.446   1.262
  618SOL    HW2 2754   6.336   3.510   1.401
  619SOL     OW 2755   3.413   0.829   0.639
  619SOL    HW1 2756   3.337   0.838   0.702
  619SOL    HW2 2757   3.399   0.890   0.561
  620SOL     OW 2758   5.516   3.504   2.293
  620SOL    HW1 2759   5.451   3.545   2.229
  620SOL    HW2 2760   5.607   3.543   2.276
  621SOL     OW 2761   2.672   0.008   6.082
  621SOL    HW1 2762   2.738   6.989   6.016
  621SOL    HW2 2763   2.699   0.101   6.106
  622SOL     OW 2764   1.241   2.326   5.400
  622SOL    HW1 2765   1.322   2.270   5.421
  622SOL    HW2 2766   1.158   2.275   5.424
  623SOL     OW 2767   6.379   6.472   4.178
  623SOL    HW1 2768   6.296   6.483   4.233
  623SOL    HW2 2769   6.427   6.560   4.173
  624SOL     OW 2770   6.378   1.647   6.743
  624SOL    HW1 2771   6.318   1.589   6.688
  624SOL    HW2 2772   6.441   1.589   6.796
  625SOL     OW 2773   2.337   1.259   0.373
  625SOL    HW1 2774   2.363   1.329   0.306
  625SOL    HW2 2775   2.351   1.168   0.332
  626SOL     OW 2776   1.146   5.602   3.634
  626SOL    HW1 2777   1.240   5.573   3.616
  626SOL    HW2 2778   1.123   5.584   3.730
  627SOL     OW 2779   6.209   6.787   0.145
  627SOL    HW1 2780   6.190   6.775   0.047
  627SOL    HW2 2781   6.257   6.873   0.159
  628SOL     OW 2782   5.235   4.280   5.610
  628SOL    HW1 2783   5.227   4.238   5.520
  628SOL    HW2 2784   5.241   4.209   5.680
  629SOL     OW 2785   6.815   0.744   0.195
  629SOL    HW1 2786   6.912   0.722   0.184
  629SOL    HW2 2787   6.790   0.814   0.128
  630SOL     OW 2788   6.826   1.414   1.283
  630SOL    HW1 2789   6.731   1.406   1.251
  630SOL    HW2 2790   6.827   1.420   1.383
  631SOL     OW 2791   2.500   2.513   4.977
  631SOL    HW1 2792   2.415   2.540   5.023
  631SOL    HW2 2793   2.566   2.587   4.984
  632SOL     OW 2794   5.018   3.059   0.541
  632SOL    HW1 2795   5.002   2.984   0.605
  632SOL    HW2 2796   5.079   3.029   0.469
  633SOL     OW 2797   1.732   4.989   1.124
  633SOL    HW1 2798   1.673   5.004   1.044
  633SOL    HW2 2799   1.734   4.891   1.145
  634SOL     OW 2800   3.028   3.600   3.828
  634SOL    HW1 2801   3.049   3.511   3.869
  634SOL    HW2 2802   3.100   3.666   3.853
  635SOL     OW 2803   5.412   1.228   6.687
  635SOL    HW1 2804   5.452   1.213   6.596
  635SOL    HW2 2805   5.316   1.201   6.686
  636SOL     OW 2806   2.797   0.326   6.109
  636SOL    HW1 2807   2.772   0.388   6.183
  636SOL    HW2 2808   2.869   0.264   6.140
  637SOL     OW 2809   6.029   1.035   2.049
  637SOL    HW1 2810   6.075   1.026   2.137
  637SOL    HW2 2811   5.930   1.028   2.062
  638SOL     OW 2812   5.722   3.324   3.871
  638SOL    HW1 2813   5.747   3.305   3.776
  638SOL    HW2 2814   5.748   3.417   3.895
  639SOL     OW 2815   5.472   4.745   3.168
  639SOL    HW1 2816   5.380   4.772   3.195
  639SOL    HW2 2817   5.538   4.777   3.236
  640SOL     OW 2818   0.075   2.762   2.527
  640SOL    HW1 2819   0.171   2.781   2.506
  640SOL    HW2 2820   0.019   2.781   2.446
  641SOL     OW 2821   2.005   4.762   5.477
  641SOL    HW1 2822   1.946   4.842   5.469
  641SOL    HW2 2823   1.955   4.687   5.519
  642SOL     OW 2824   1.196   3.912   4.534
  642SOL    HW1 2825   1.115   3.912   4.593
  642SOL    HW2 2826   1.184   3.980   4.462
  643SOL     OW 2827   5.006   6.451   6.905
  643SOL    HW1 2828   4.918   6.447   6.951
  643SOL    HW2 2829   5.043   6.544   6.911
  644SOL     OW 2830   0.393   0.097   4.526
  644SOL    HW1 2831   0.444   0.017   4.493
  644SOL    HW2 2832   0.449   0.145   4.594
  645SOL     OW 2833   3.587   4.904   3.111
  645SOL    HW1 2834   3.508   4.898   3.050
  645SOL    HW2 2835   3.559   4.879   3.204
  646SOL     OW 2836   3.653   0.660   5.496
  646SOL    HW1 2837   3.749   0.682   5.483
  646SOL    HW2 2838   3.610   0.641   5.408
  647SOL     OW 2839   4.831   2.049   4.659
  647SOL    HW1 2840   4.775   2.122   4.697
  647SOL    HW2 2841   4.900   2.021   4.726
  648SOL     OW 2842   6.087   1.412   2.591
  648SOL    HW1 2843   6.115   1.334   2.647
  648SOL    HW2 2844   6.161   1.478   2.586
  649SOL     OW 2845   2.161   4.836   0.118
  649SOL    HW1 2846   2.147   4.934   0.133
  649SOL    HW2 2847   2.181   4.792   0.206
  650SOL     OW 2848   6.441   5.738   0.480
  650SOL    HW1 2849   6.491   5.821   0.457
  650SOL    HW2 2850   6.500   5.677   0.534
  651SOL     OW 2851   1.354   0.341   5.716
  651SOL    HW1 2852   1.334   0.433   5.683
  651SOL    HW2 2853   1.376   0.282   5.638
  652SOL     OW 2854   4.465   0.651   1.936
  652SOL    HW1 2855   4.419   0.697   1.860
  652SOL    HW2 2856   4.403   0.647   2.015
  653SOL     OW 2857   6.681   6.720   0.915
  653SOL    HW1 2858   6.670   6.748   0.819
  653SOL    HW2 2859   6.687   6.801   0.973
  654SOL     OW 2860   6.679   6.673   5.767
  654SOL    HW1 2861   6.675   6.614   5.686
  654SOL    HW2 2862   6.586   6.689   5.800
  655SOL     OW 2863   0.262   4.828   2.262
  655SOL    HW1 2864   0.295   4.735   2.243
  655SOL    HW2 2865   0.341   4.888   2.276
  656SOL     OW 2866   3.198   6.673   0.811
  656SOL    HW1 2867   3.172   6.630   0.898
  656SOL    HW2 2868   3.126   6.659   0.743
  657SOL     OW 2869   3.663   3.275   1.797
  657SOL    HW1 2870   3.624   3.348   1.852
  657SOL    HW2 2871   3.747   3.242   1.840
  658SOL     OW 2872   2.246   4.199   4.238
  658SOL    HW1 2873   2.166   4.256   4.257
  658SOL    HW2 2874   2.298   4.185   4.322
  659SOL     OW 2875   3.943   6.237   5.761
  659SOL    HW1 2876   3.873   6.200   5.822
  659SOL    HW2 2877   3.900   6.288   5.687
  660SOL     OW 2878   5.245   4.651   2.592
  660SOL    HW1 2879   5.188   4.614   2.665
  660SOL    HW2 2880   5.218   4.611   2.505
  661SOL     OW 2881   4.943   4.333   4.112
  661SOL    HW1 2882   4.994   4.338   4.027
  661SOL    HW2 2883   4.855   4.380   4.101
  662SOL     OW 2884   4.820   2.881   0.023
  662SOL    HW1 2885   4.823   2.902   0.121
  662SOL    HW2 2886   4.728   2.898   7.006
  663SOL     OW 2887   6.803   4.090   6.945
  663SOL    HW1 2888   6.828   4.146   0.005
  663SOL    HW2 2889   6.767   4.002   6.976
  664SOL     OW 2890   1.435   6.241   6.203
  664SOL    HW1 2891   1.489   6.294   6.138
  664SOL    HW2 2892   1.433   6.288   6.291
  665SOL     OW 2893   3.722   5.255   1.401
  665SOL    HW1 2894   3.702   5.297   1.313
  665SOL    HW2 2895   3.640   5.208   1.436
  666SOL     OW 2896   3.800   1.643   0.030
  666SOL    HW1 2897   3.884   1.618   7.001
  666SOL    HW2 2898   3.819   1.714   0.098
  667SOL     OW 2899   0.613   2.834   3.629
  667SOL    HW1 2900   0.704   2.840   3.588
  667SOL    HW2 2901   0.599   2.913   3.689
  668SOL     OW 2902   4.340   6.603   6.944
  668SOL    HW1 2903   4.389   6.689   6.929
  668SOL    HW2 2904   4.352   6.573   0.020
  669SOL     OW 2905   0.774   6.971   3.611
  669SOL    HW1 2906   0.741   6.906   3.680
  669SOL    HW2 2907   0.715   6.967   3.530
  670SOL     OW 2908   3.506   3.599   3.087
  670SOL    HW1 2909   3.431   3.543   3.050
  670SOL    HW2 2910   3.469   3.686   3.120
  671SOL     OW 2911   1.709   6.083   6.047
  671SOL    HW1 2912   1.737   6.154   5.982
  671SOL    HW2 2913   1.661   6.010   5.998
  672SOL     OW 2914   1.497   3.412   4.602
  672SOL    HW1 2915   1.437   3.490   4.622
  672SOL    HW2 2916   1.478   3.379   4.509
  673SOL     OW 2917   4.814   0.648   0.226
  673SOL    HW1 2918   4.836   0.636   0.129
  673SOL    HW2 2919   4.745   0.581   0.253
  674SOL     OW 2920   0.669   2.576   3.624
  674SOL    HW1 2921   0.627   2.667   3.625
  674SOL    HW2 2922   0.767   2.584   3.642
  675SOL     OW 2923   0.739   2.621   4.799
  675SOL    HW1 2924   0.775   2.714   4.795
  675SOL    HW2 2925   0.783   2.571   4.873
  676SOL     OW 2926   2.691   4.815   4.408
  676SOL    HW1 2927   2.667   4.847   4.316
  676SOL    HW2 2928   2.692   4.715   4.410
  677SOL     OW 2929   6.138   0.425   0.769
  677SOL    HW1 2930   6.142   0.329   0.744
  677SOL    HW2 2931   6.156   0.434   0.868
  678SOL     OW 2932   2.681   0.803   5.605
  678SOL    HW1 2933   2.760   0.810   5.545
  678SOL    HW2 2934   2.606   0.857   5.568
  679SOL     OW 2935   3.524   0.996   3.345
  679SOL    HW1 2936   3.615   1.007   3.386
  679SOL    HW2 2937   3.458   1.052   3.395
  680SOL     OW 2938   5.554   3.732   5.481
  680SOL    HW1 2939   5.603   3.689   5.557
  680SOL    HW2 2940   5.456   3.737   5.501
  681SOL     OW 2941   6.443   6.609   1.027
  681SOL    HW1 2942   6.397   6.677   0.970
  681SOL    HW2 2943   6.541   6.611   1.008
  682SOL     OW 2944   1.897   6.799   0.023
  682SOL    HW1 2945   1.957   6.766   6.969
  682SOL    HW2 2946   1.949   6.862   0.082
  683SOL     OW 2947   3.814   1.359   6.091
  683SOL    HW1 2948   3.799   1.455   6.113
  683SOL    HW2 2949   3.731   1.307   6.112
  684SOL     OW 2950   0.186   6.681   6.150
  684SOL    HW1 2951   0.185   6.581   6.143
  684SOL    HW2 2952   0.280   6.712   6.164
  685SOL     OW 2953   4.620   0.014   6.414
  685SOL    HW1 2954   4.687   6.963   6.441
  685SOL    HW2 2955   4.599   0.072   6.493
  686SOL     OW 2956   5.344   2.694   3.376
  686SOL    HW1 2957   5.308   2.694   3.469
  686SOL    HW2 2958   5.276   2.655   3.313
  687SOL     OW 2959   6.789   3.139   6.584
  687SOL    HW1 2960   6.754   3.124   6.677
  687SOL    HW2 2961   6.731   3.092   6.518
  688SOL     OW 2962   2.080   3.598   7.016
  688SOL    HW1 2963   2.160   3.602   0.058
  688SOL    HW2 2964   2.111   3.581   6.922
  689SOL     OW 2965   0.469   4.162   6.545
  689SOL    HW1 2966   0.533   4.116   6.484
  689SOL    HW2 2967   0.400   4.210   6.491
  690SOL     OW 2968   1.247   2.115   3.954
  690SOL    HW1 2969   1.298   2.040   3.996
  690SOL    HW2 2970   1.308   2.169   3.896
  691SOL     OW 2971   1.401   2.406   6.395
  691SOL    HW1 2972   1.436   2.356   6.316
  691SOL    HW2 2973   1.304   2.386   6.407
  692SOL     OW 2974   2.592   6.920   3.101
  692SOL    HW1 2975   2.534   6.908   3.020
  692SOL    HW2 2976   2.682   6.953   3.073
  693SOL     OW 2977   6.443   2.207   2.324
  693SOL    HW1 2978   6.514   2.251   2.380
  693SOL    HW2 2979   6.456   2.234   2.228
  694SOL     OW 2980   3.112   5.436   1.031
  694SOL    HW1 2981   3.046   5.507   1.054
  694SOL    HW2 2982   3.098   5.406   0.936
  695SOL     OW 2983   5.260   5.593   5.177
  695SOL    HW1 2984   5.284   5.518   5.238
  695SOL    HW2 2985   5.184   5.646   5.216
  696SOL     OW 2986   3.315   5.178   2.300
  696SOL    HW1 2987   3.230   5.217   2.263
  696SOL    HW2 2988   3.333   5.091   2.255
  697SOL     OW 2989   0.928   3.320   5.100
  697SOL    HW1 2990   0.992   3.286   5.169
  697SOL    HW2 2991   0.979   3.353   5.021
  698SOL     OW 2992   4.687   0.574   3.384
  698SOL    HW1 2993   4.774   0.555   3.429
  698SOL    HW2 2994   4.636   0.642   3.437
  699SOL     OW 2995   1.634   4.449   1.019
  699SOL    HW1 2996   1.701   4.378   1.040
  699SOL    HW2 2997   1.546   4.425   1.061
  700SOL     OW 2998   2.561   2.499   3.924
  700SOL    HW1 2999   2.570   2.531   4.018
  700SOL    HW2 3000   2.509   2.413   3.922
  701SOL     OW 3001   0.657   4.554   6.889
  701SOL    HW1 3002   0.734   4.495   6.864
  701SOL    HW2 3003   0.632   4.537   6.984
  702SOL     OW 3004   5.220   6.740   5.134
  702SOL    HW1 3005   5.248   6.764   5.041
  702SOL    HW2 3006   5.141   6.678   5.130
  703SOL     OW 3007   4.500   3.371   6.619
  703SOL    HW1 3008   4.531   3.444   6.559
  703SOL    HW2 3009   4.541   3.384   6.710
  704SOL     OW 3010   1.247   1.043   6.269
  704SOL    HW1 3011   1.191   0.961   6.254
  704SOL    HW2 3012   1.333   1.033   6.219
  705SOL     OW 3013   5.140   0.784   3.374
  705SOL    HW1 3014   5.210   0.740   3.318
  705SOL    HW2 3015   5.069   0.718   3.398
  706SOL     OW 3016   3.405   2.003   4.203
  706SOL    HW1 3017   3.460   1.928   4.241
  706SOL    HW2 3018   3.414   2.003   4.103
  707SOL     OW 3019   4.453   0.536   1.587
  707SOL    HW1 3020   4.526   0.492   1.534
  707SOL    HW2 3021   4.488   0.618   1.631
  708SOL     OW 3022   4.656   0.455   1.335
  708SOL    HW1 3023   4.642   0.362   1.369
  708SOL    HW2 3024   4.592   0.473   1.260
  709SOL     OW 3025   1.023   5.132   0.964
  709SOL    HW1 3026   1.083   5.054   0.985
  709SOL    HW2 3027   0.937   5.122   1.015
  710SOL     OW 3028   3.304   3.985   2.286
  710SOL    HW1 3029   3.307   3.885   2.275
  710SOL    HW2 3030   3.220   4.021   2.246
  711SOL     OW 3031   6.571   2.571   5.320
  711SOL    HW1 3032   6.666   2.596   5.302
  711SOL    HW2 3033   6.557   2.475   5.297
  712SOL     OW 3034   0.922   3.566   0.819
  712SOL    HW1 3035   0.990   3.636   0.841
  712SOL    HW2 3036   0.830   3.603   0.833
  713SOL     OW 3037   4.069   3.298   2.282
  713SOL    HW1 3038   4.110   3.300   2.191
  713SOL    HW2 3039   4.007   3.220   2.290
  714SOL     OW 3040   5.656   4.518   5.373
  714SOL    HW1 3041   5.683   4.449   5.305
  714SOL    HW2 3042   5.556   4.526   5.374
  715SOL     OW 3043   4.447   5.673   6.698
  715SOL    HW1 3044   4.462   5.683   6.600
  715SOL    HW2 3045   4.457   5.762   6.743
  716SOL     OW 3046   0.490   5.144   1.588
  716SOL    HW1 3047   0.413   5.100   1.543
  716SOL    HW2 3048   0.556   5.174   1.519
  717SOL     OW 3049   6.036   4.198   6.875
  717SOL    HW1 3050   5.991   4.250   6.948
  717SOL    HW2 3051   6.123   4.162   6.910
  718SOL     OW 3052   3.496   2.714   5.767
  718SOL    HW1 3053   3.461   2.800   5.804
  718SOL    HW2 3054   3.421   2.661   5.727
  719SOL     OW 3055   6.884   2.826   1.283
  719SOL    HW1 3056   6.965   2.812   1.226
  719SOL    HW2 3057   6.898   2.908   1.339
  720SOL     OW 3058   2.367   1.594   5.145
  720SOL    HW1 3059   2.378   1.567   5.241
  720SOL    HW2 3060   2.296   1.537   5.103
  721SOL     OW 3061   1.522   0.481   5.521
  721SOL    HW1 3062   1.543   0.551   5.453
  721SOL    HW2 3063   1.480   0.402   5.476
  722SOL     OW 3064   4.207   6.495   5.216
  722SOL    HW1 3065   4.292   6.490   5.269
  722SOL    HW2 3066   4.216   6.437   5.135
  723SOL     OW 3067   2.419   2.741   1.961
  723SOL    HW1 3068   2.426   2.655   1.911
  723SOL    HW2 3069   2.383   2.725   2.052
  724SOL     OW 3070   0.670   1.699   5.116
  724SOL    HW1 3071   0.656   1.773   5.051
  724SOL    HW2 3072   0.765   1.700   5.148
  725SOL     OW 3073   2.618   5.109   2.015
  725SOL    HW1 3074   2.713   5.085   1.996
  725SOL    HW2 3075   2.569   5.122   1.929
  726SOL     OW 3076   3.058   5.148   6.285
  726SOL    HW1 3077   3.145   5.100   6.291
  726SOL    HW2 3078   2.987   5.094   6.331
  727SOL     OW 3079   3.668   5.732   4.416
  727SOL    HW1 3080   3.749   5.699   4.368
  727SOL    HW2 3081   3.601   5.766   4.350
  728SOL     OW 3082   0.371   3.926   5.539
  728SOL    HW1 3083   0.278   3.894   5.559
  728SOL    HW2 3084   0.396   3.898   5.446
  729SOL     OW 3085   1.986   1.008   0.358
  729SOL    HW1 3086   1.900   1.055   0.340
  729SOL    HW2 3087   1.968   0.924   0.410
  730SOL     OW 3088   6.005   0.161   3.462
  730SOL    HW1 3089   6.096   0.195   3.437
  730SOL    HW2 3090   5.950   0.149   3.380
  731SOL     OW 3091   5.434   3.012   5.053
  731SOL    HW1 3092   5.409   3.044   4.962
  731SOL    HW2 3093   5.370   3.049   5.120
  732SOL     OW 3094   0.687   2.412   1.289
  732SOL    HW1 3095   0.728   2.492   1.245
  732SOL    HW2 3096   0.597   2.437   1.326
  733SOL     OW 3097   5.048   4.432   3.872
  733SOL    HW1 3098   5.019   4.457   3.779
  733SOL    HW2 3099   5.095   4.509   3.914
  734SOL     OW 3100   0.641   4.432   1.515
  734SOL    HW1 3101   0.555   4.394   1.550
  734SOL    HW2 3102   0.623   4.518   1.468
  735SOL     OW 3103   1.910   3.267   0.595
  735SOL    HW1 3104   1.993   3.294   0.645
  735SOL    HW2 3105   1.891   3.335   0.524
  736SOL     OW 3106   6.176   6.437   2.553
  736SOL    HW1 3107   6.078   6.449   2.543
  736SOL    HW2 3108   6.199   6.424   2.650
  737SOL     OW 3109   4.839   3.842   1.263
  737SOL    HW1 3110   4.763   3.845   1.328
  737SOL    HW2 3111   4.822   3.770   1.195
  738SOL     OW 3112   0.465   4.519   4.277
  738SOL    HW1 3113   0.374   4.480   4.262
  738SOL    HW2 3114   0.473   4.547   4.373
  739SOL     OW 3115   4.548   6.868   5.932
  739SOL    HW1 3116   4.544   6.904   5.839
  739SOL    HW2 3117   4.545   6.944   5.997
  740SOL     OW 3118   5.587   0.460   0.785
  740SOL    HW1 3119   5.594   0.437   0.688
  740SOL    HW2 3120   5.513   0.407   0.827
  741SOL     OW 3121   1.236   6.336   3.372
  741SOL    HW1 3122   1.202   6.348   3.465
  741SOL    HW2 3123   1.272   6.422   3.338
  742SOL     OW 3124   2.017   6.453   3.120
  742SOL    HW1 3125   1.940   6.423   3.177
  742SOL    HW2 3126   2.015   6.552   3.111
  743SOL     OW 3127   1.024   4.174   3.884
  743SOL    HW1 3128   1.122   4.157   3.895
  743SOL    HW2 3129   0.987   4.112   3.815
  744SOL     OW 3130   6.773   5.893   6.624
  744SOL    HW1 3131   6.752   5.796   6.610
  744SOL    HW2 3132   6.867   5.903   6.655
  745SOL     OW 3133   0.981   5.293   4.138
  745SOL    HW1 3134   0.905   5.244   4.095
  745SOL    HW2 3135   1.030   5.230   4.199
  746SOL     OW 3136   0.474   6.284   5.318
  746SOL    HW1 3137   0.452   6.379   5.296
  746SOL    HW2 3138   0.562   6.281   5.366
  747SOL     OW 3139   4.511   4.601   3.992
  747SOL    HW1 3140   4.544   4.680   4.044
  747SOL    HW2 3141   4.416   4.583   4.016
  748SOL     OW 3142   4.653   4.618   0.924
  748SOL    HW1 3143   4.616   4.709   0.944
  748SOL    HW2 3144   4.593   4.548   0.963
  749SOL     OW 3145   0.098   2.843   5.024
  749SOL    HW1 3146   0.070   2.930   5.065
  749SOL    HW2 3147   0.124   2.858   4.928
  750SOL     OW 3148   2.957   3.019   0.814
  750SOL    HW1 3149   2.880   3.078   0.789
  750SOL    HW2 3150   2.988   3.042   0.906
  751SOL     OW 3151   4.118   1.568   0.697
  751SOL    HW1 3152   4.135   1.656   0.740
  751SOL    HW2 3153   4.144   1.572   0.600
  752SOL     OW 3154   4.825   2.264   2.068
  752SOL    HW1 3155   4.890   2.192   2.043
  752SOL    HW2 3156   4.810   2.324   1.989
  753SOL     OW 3157   1.686   3.544   4.888
  753SOL    HW1 3158   1.780   3.549   4.853
  753SOL    HW2 3159   1.658   3.448   4.894
  754SOL     OW 3160   5.040   3.843   6.587
  754SOL    HW1 3161   5.138   3.847   6.569
  754SOL    HW2 3162   5.022   3.873   6.681
  755SOL     OW 3163   0.575   5.885   6.634
  755SOL    HW1 3164   0.568   5.816   6.707
  755SOL    HW2 3165   0.604   5.972   6.674
  756SOL     OW 3166   4.816   0.544   2.448
  756SOL    HW1 3167   4.739   0.515   2.504
  756SOL    HW2 3168   4.800   0.637   2.416
  757SOL     OW 3169   0.617   6.651   3.921
  757SOL    HW1 3170   0.553   6.657   3.998
  757SOL    HW2 3171   0.610   6.734   3.865
  758SOL     OW 3172   3.413   1.977   1.311
  758SOL    HW1 3173   3.337   1.935   1.359
  758SOL    HW2 3174   3.428   2.069   1.347
  759SOL     OW 3175   0.466   1.059   0.044
  759SOL    HW1 3176   0.539   1.069   6.995
  759SOL    HW2 3177   0.435   1.149   0.075
  760SOL     OW 3178   4.609   1.814   6.618
  760SOL    HW1 3179   4.514   1.788   6.632
  760SOL    HW2 3180   4.616   1.880   6.544
  761SOL     OW 3181   5.955   3.550   0.485
  761SOL    HW1 3182   5.999   3.613   0.550
  761SOL    HW2 3183   5.931   3.465   0.532
  762SOL     OW 3184   1.837   5.999   3.501
  762SOL    HW1 3185   1.839   6.090   3.542
  762SOL    HW2 3186   1.853   6.005   3.403
  763SOL     OW 3187   4.162   5.841   7.012
  763SOL    HW1 3188   4.082   5.811   6.960
  763SOL    HW2 3189   4.196   5.766   0.049
  764SOL     OW 3190   3.196   1.070   3.241
  764SOL    HW1 3191   3.157   1.133   3.174
  764SOL    HW2 3192   3.171   1.099   3.334
  765SOL     OW 3193   0.941   6.346   1.268
  765SOL    HW1 3194   0.882   6.406   1.322
  765SOL    HW2 3195   0.888   6.267   1.237
  766SOL     OW 3196   6.844   0.657   6.708
  766SOL    HW1 3197   6.781   0.704   6.646
  766SOL    HW2 3198   6.938   0.682   6.686
  767SOL     OW 3199   0.474   6.495   1.678
  767SOL    HW1 3200   0.541   6.555   1.721
  767SOL    HW2 3201   0.390   6.495   1.732
  768SOL     OW 3202   2.124   0.181   2.811
  768SOL    HW1 3203   2.047   0.208   2.753
  768SOL    HW2 3204   2.090   0.119   2.882
  769SOL     OW 3205   3.546   0.384   4.509
  769SOL    HW1 3206   3.611   0.316   4.543
  769SOL    HW2 3207   3.460   0.338   4.484
  770SOL     OW 3208   2.775   5.772   3.304
  770SOL    HW1 3209   2.783   5.729   3.214
  770SOL    HW2 3210   2.699   5.731   3.354
  771SOL     OW 3211   2.067   5.467   2.840
  771SOL    HW1 3212   2.071   5.386   2.898
  771SOL    HW2 3213   1.989   5.460   2.778
  772SOL     OW 3214   6.862   4.422   0.310
  772SOL    HW1 3215   6.880   4.482   0.388
  772SOL    HW2 3216   6.806   4.470   0.243
  773SOL     OW 3217   0.012   3.048   3.721
  773SOL    HW1 3218   0.043   3.095   3.803
  773SOL    HW2 3219   6.974   2.969   3.747
  774SOL     OW 3220   1.515   1.937   2.118
  774SOL    HW1 3221   1.418   1.916   2.124
  774SOL    HW2 3222   1.537   2.011   2.182
  775SOL     OW 3223   1.129   1.831   4.228
  775SOL    HW1 3224   1.128   1.906   4.294
  775SOL    HW2 3225   1.043   1.780   4.235
  776SOL     OW 3226   0.796   6.770   5.783
  776SOL    HW1 3227   0.895   6.756   5.793
  776SOL    HW2 3228   0.763   6.829   5.856
  777SOL     OW 3229   3.505   1.066   1.165
  777SOL    HW1 3230   3.494   1.041   1.069
  777SOL    HW2 3231   3.574   1.138   1.173
  778SOL     OW 3232   4.280   0.669   3.832
  778SOL    HW1 3233   4.297   0.678   3.734
  778SOL    HW2 3234   4.195   0.619   3.846
  779SOL     OW 3235   0.284   1.533   1.999
  779SOL    HW1 3236   0.332   1.621   1.995
  779SOL    HW2 3237   0.195   1.542   1.954
  780SOL     OW 3238   5.866   2.750   4.130
  780SOL    HW1 3239   5.811   2.776   4.210
  780SOL    HW2 3240   5.917   2.667   4.151
  781SOL     OW 3241   6.143   1.301   6.067
  781SOL    HW1 3242   6.047   1.274   6.057
  781SOL    HW2 3243   6.149   1.400   6.076
  782SOL     OW 3244   0.700   3.656   0.907
  782SOL    HW1 3245   0.611   3.672   0.866
  782SOL    HW2 3246   0.690   3.631   1.003
  783SOL     OW 3247   3.010   5.556   0.059
  783SOL    HW1 3248   2.934   5.597   0.008
  783SOL    HW2 3249   3.093   5.609   0.043
  784SOL     OW 3250   4.498   0.547   5.171
  784SOL    HW1 3251   4.452   0.583   5.090
  784SOL    HW2 3252   4.538   0.458   5.149
  785SOL     OW 3253   6.273   1.591   2.529
  785SOL    HW1 3254   6.370   1.604   2.551
  785SOL    HW2 3255   6.263   1.570   2.432
  786SOL     OW 3256   6.875   0.461   0.256
  786SOL    HW1 3257   6.859   0.372   0.212
  786SOL    HW2 3258   6.920   0.522   0.191
  787SOL     OW 3259   2.928   1.341   6.020
  787SOL    HW1 3260   2.971   1.267   6.072
  787SOL    HW2 3261   2.859   1.302   5.959
  788SOL     OW 3262   2.168   3.623   4.469
  788SOL    HW1 3263   2.184   3.527   4.446
  788SOL    HW2 3264   2.197   3.681   4.392
  789SOL     OW 3265   6.285   4.353   2.016
  789SOL    HW1 3266   6.305   4.369   2.113
  789SOL    HW2 3267   6.360   4.389   1.961
  790SOL     OW 3268   2.406   1.459   4.389
  790SOL    HW1 3269   2.436   1.477   4.295
  790SOL    HW2 3270   2.480   1.413   4.439
  791SOL     OW 3271   4.233   0.477   4.084
  791SOL    HW1 3272   4.149   0.511   4.043
  791SOL    HW2 3273   4.291   0.554   4.110
  792SOL     OW 3274   6.222   0.136   2.088
  792SOL    HW1 3275   6.169   0.098   2.163
  792SOL    HW2 3276   6.210   0.235   2.085
  793SOL     OW 3277   4.608   6.573   1.789
  793SOL    HW1 3278   4.673   6.601   1.859
  793SOL    HW2 3279   4.635   6.611   1.700
  794SOL     OW 3280   2.768   4.938   5.465
  794SOL    HW1 3281   2.770   4.840   5.487
  794SOL    HW2 3282   2.860   4.968   5.442
  795SOL     OW 3283   3.392   5.166   5.623
  795SOL    HW1 3284   3.361   5.250   5.578
  795SOL    HW2 3285   3.425   5.101   5.554
  796SOL     OW 3286   0.118   2.200   5.704
  796SOL    HW1 3287   0.211   2.175   5.733
  796SOL    HW2 3288   0.052   2.149   5.759
  797SOL     OW 3289   4.972   2.275   2.347
  797SOL    HW1 3290   5.009   2.312   2.262
  797SOL    HW2 3291   4.955   2.177   2.335
  798SOL     OW 3292   4.486   0.276   0.958
  798SOL    HW1 3293   4.584   0.289   0.974
  798SOL    HW2 3294   4.438   0.363   0.971
  799SOL     OW 3295   6.523   2.096   3.158
  799SOL    HW1 3296   6.612   2.109   3.115
  799SOL    HW2 3297   6.469   2.180   3.149
  800SOL     OW 3298   5.519   0.586   2.050
  800SOL    HW1 3299   5.420   0.579   2.044
  800SOL    HW2 3300   5.560   0.494   2.047
  801SOL     OW 3301   1.157   2.563   3.491
  801SOL    HW1 3302   1.157   2.490   3.422
  801SOL    HW2 3303   1.245   2.611   3.489
  802SOL     OW 3304   4.603   1.578   0.512
  802SOL    HW1 3305   4.531   1.519   0.475
  802SOL    HW2 3306   4.691   1.553   0.472
  803SOL     OW 3307   5.933   6.213   4.366
  803SOL    HW1 3308   5.846   6.243   4.405
  803SOL    HW2 3309   5.944   6.114   4.379
  804SOL     OW 3310   6.811   6.816   0.421
  804SOL    HW1 3311   6.787   6.758   0.342
  804SOL    HW2 3312   6.753   6.793   0.498
  805SOL     OW 3313   4.627   2.947   5.774
  805SOL    HW1 3314   4.643   2.859   5.728
  805SOL    HW2 3315   4.632   2.934   5.873
  806SOL     OW 3316   3.882   1.220   5.430
  806SOL    HW1 3317   3.980   1.201   5.439
  806SOL    HW2 3318   3.869   1.300   5.372
  807SOL     OW 3319   1.130   0.791   3.822
  807SOL    HW1 3320   1.096   0.776   3.915
  807SOL    HW2 3321   1.101   0.882   3.791
  808SOL     OW 3322   4.994   3.207   6.127
  808SOL    HW1 3323   5.075   3.166   6.168
  808SOL    HW2 3324   5.004   3.307   6.125
  809SOL     OW 3325   1.205   4.912   1.041
  809SOL    HW1 3326   1.250   4.838   0.991
  809SOL    HW2 3327   1.266   4.944   1.114
  810SOL     OW 3328   4.300   3.566   1.185
  810SOL    HW1 3329   4.329   3.512   1.106
  810SOL    HW2 3330   4.380   3.596   1.236
  811SOL     OW 3331   4.769   5.736   3.654
  811SOL    HW1 3332   4.813   5.825   3.668
  811SOL    HW2 3333   4.726   5.734   3.564
  812SOL     OW 3334   6.969   0.611   1.310
  812SOL    HW1 3335   6.930   0.676   1.245
  812SOL    HW2 3336   6.903   0.538   1.327
  813SOL     OW 3337   4.421   6.155   3.320
  813SOL    HW1 3338   4.378   6.242   3.347
  813SOL    HW2 3339   4.426   6.150   3.221
  814SOL     OW 3340   5.303   6.296   2.592
  814SOL    HW1 3341   5.217   6.289   2.642
  814SOL    HW2 3342   5.319   6.392   2.567
  815SOL     OW 3343   6.230   2.503   1.882
  815SOL    HW1 3344   6.224   2.566   1.805
  815SOL    HW2 3345   6.197   2.413   1.854
  816SOL     OW 3346   6.474   6.207   0.323
  816SOL    HW1 3347   6.409   6.194   0.248
  816SOL    HW2 3348   6.542   6.276   0.297
  817SOL     OW 3349   1.868   4.315   2.300
  817SOL    HW1 3350   1.833   4.401   2.264
  817SOL    HW2 3351   1.945   4.334   2.362
  818SOL     OW 3352   6.086   2.856   0.359
  818SOL    HW1 3353   6.164   2.821   0.412
  818SOL    HW2 3354   6.025   2.780   0.337
  819SOL     OW 3355   6.008   2.414   4.616
  819SOL    HW1 3356   6.051   2.449   4.533
  819SOL    HW2 3357   5.999   2.489   4.683
  820SOL     OW 3358   1.349   2.904   4.791
  820SOL    HW1 3359   1.289   2.969   4.744
  820SOL    HW2 3360   1.311   2.812   4.784
  821SOL     OW 3361   1.860   4.777   0.364
  821SOL    HW1 3362   1.801   4.801   0.441
  821SOL    HW2 3363   1.814   4.802   0.278
  822SOL     OW 3364   0.908   4.597   4.780
  822SOL    HW1 3365   1.002   4.567   4.763
  822SOL    HW2 3366   0.909   4.683   4.832
  823SOL     OW 3367   5.031   4.431   6.259
  823SOL    HW1 3368   5.047   4.513   6.204
  823SOL    HW2 3369   4.938   4.434   6.297
  824SOL     OW 3370   4.757   1.421   5.039
  824SOL    HW1 3371   4.768   1.518   5.062
  824SOL    HW2 3372   4.794   1.365   5.112
  825SOL     OW 3373   2.195   3.110   2.328
  825SOL    HW1 3374   2.289   3.076   2.320
  825SOL    HW2 3375   2.180   3.181   2.259
  826SOL     OW 3376   5.717   3.611   0.915
  826SOL    HW1 3377   5.699   3.568   0.827
  826SOL    HW2 3378   5.630   3.641   0.956
  827SOL     OW 3379   3.520   5.363   5.969
  827SOL    HW1 3380   3.516   5.463   5.962
  827SOL    HW2 3381   3.429   5.327   5.990
  828SOL     OW 3382   6.214   0.589   5.019
  828SOL    HW1 3383   6.284   0.519   5.031
  828SOL    HW2 3384   6.131   0.547   4.981
  829SOL     OW 3385   3.140   2.991   3.898
  829SOL    HW1 3386   3.123   2.910   3.841
  829SOL    HW2 3387   3.228   2.982   3.944
  830SOL     OW 3388   5.122   4.845   5.457
  830SOL    HW1 3389   5.031   4.805   5.447
  830SOL    HW2 3390   5.180   4.783   5.509
  831SOL     OW 3391   6.835   6.664   4.665
  831SOL    HW1 3392   6.768   6.722   4.616
  831SOL    HW2 3393   6.817   6.568   4.643
  832SOL     OW 3394   2.492   1.482   0.238
  832SOL    HW1 3395   2.470   1.578   0.256
  832SOL    HW2 3396   2.566   1.453   0.298
  833SOL     OW 3397   6.427   6.403   6.398
  833SOL    HW1 3398   6.396   6.422   6.492
  833SOL    HW2 3399   6.410   6.307   6.376
  834SOL     OW 3400   3.453   3.444   3.297
  834SOL    HW1 3401   3.496   3.497   3.224
  834SOL    HW2 3402   3.411   3.506   3.363
  835SOL     OW 3403   4.109   6.956   3.442
  835SOL    HW1 3404   4.155   6.875   3.476
  835SOL    HW2 3405   4.055   6.997   3.515
  836SOL     OW 3406   3.501   6.521   6.751
  836SOL    HW1 3407   3.438   6.454   6.712
  836SOL    HW2 3408   3.522   6.496   6.845
  837SOL     OW 3409   5.473   0.463   0.152
  837SOL    HW1 3410   5.410   0.447   0.076
  837SOL    HW2 3411   5.422   0.490   0.233
  838SOL     OW 3412   1.163   6.696   5.233
  838SOL    HW1 3413   1.153   6.620   5.297
  838SOL    HW2 3414   1.247   6.685   5.179
  839SOL     OW 3415   2.919   1.392   3.362
  839SOL    HW1 3416   2.885   1.481   3.331
  839SOL    HW2 3417   2.993   1.406   3.428
  840SOL     OW 3418   0.729   1.040   6.922
  840SOL    HW1 3419   0.742   1.017   0.000
  840SOL    HW2 3420   0.765   0.966   6.866
  841SOL     OW 3421   6.263   4.091   6.978
  841SOL    HW1 3422   6.315   4.014   6.940
  841SOL    HW2 3423   6.309   4.124   0.042
  842SOL     OW 3424   3.803   5.463   3.281
  842SOL    HW1 3425   3.760   5.374   3.293
  842SOL    HW2 3426   3.847   5.491   3.366
  843SOL     OW 3427   6.072   2.693   0.786
  843SOL    HW1 3428   6.010   2.765   0.756
  843SOL    HW2 3429   6.034   2.647   0.866
  844SOL     OW 3430   5.157   6.394   0.840
  844SOL    HW1 3431   5.223   6.395   0.915
  844SOL    HW2 3432   5.067   6.367   0.875
  845SOL     OW 3433   6.084   3.341   5.217
  845SOL    HW1 3434   6.008   3.312   5.160
  845SOL    HW2 3435   6.112   3.266   5.277
  846SOL     OW 3436   6.063   1.517   0.255
  846SOL    HW1 3437   6.016   1.583   0.197
  846SOL    HW2 3438   6.086   1.560   0.342
  847SOL     OW 3439   6.263   3.554   1.084
  847SOL    HW1 3440   6.288   3.651   1.083
  847SOL    HW2 3441   6.165   3.546   1.101
  848SOL     OW 3442   6.348   0.437   6.128
  848SOL    HW1 3443   6.331   0.339   6.137
  848SOL    HW2 3444   6.283   0.487   6.186
  849SOL     OW 3445   0.479   6.098   5.110
  849SOL    HW1 3446   0.482   6.150   5.024
  849SOL    HW2 3447   0.493   6.160   5.187
  850SOL     OW 3448   4.609   0.824   3.524
  850SOL    HW1 3449   4.649   0.890   3.461
  850SOL    HW2 3450   4.567   0.872   3.601
  851SOL     OW 3451   0.124   1.464   6.671
  851SOL    HW1 3452   0.209   1.517   6.663
  851SOL    HW2 3453   0.046   1.526   6.680
  852SOL     OW 3454   2.543   2.526   6.905
  852SOL    HW1 3455   2.564   2.497   6.812
  852SOL    HW2 3456   2.621   2.503   6.965
  853SOL     OW 3457   0.945   2.963   2.634
  853SOL    HW1 3458   1.010   2.888   2.647
  853SOL    HW2 3459   0.853   2.925   2.622
  854SOL     OW 3460   5.894   6.625   3.093
  854SOL    HW1 3461   5.954   6.576   3.157
  854SOL    HW2 3462   5.801   6.627   3.130
  855SOL     OW 3463   5.568   0.356   1.765
  855SOL    HW1 3464   5.495   0.405   1.718
  855SOL    HW2 3465   5.550   0.258   1.761
  856SOL     OW 3466   1.673   0.599   5.331
  856SOL    HW1 3467   1.642   0.512   5.294
  856SOL    HW2 3468   1.752   0.584   5.390
  857SOL     OW 3469   5.928   3.982   1.062
  857SOL    HW1 3470   5.939   3.944   1.154
  857SOL    HW2 3471   5.930   3.908   0.995
  858SOL     OW 3472   2.682   4.709   1.646
  858SOL    HW1 3473   2.680   4.614   1.678
  858SOL    HW2 3474   2.718   4.768   1.719
  859SOL     OW 3475   5.966   4.818   6.681
  859SOL    HW1 3476   5.986   4.731   6.727
  859SOL    HW2 3477   6.046   4.846   6.627
  860SOL     OW 3478   3.312   4.517   6.927
  860SOL    HW1 3479   3.298   4.430   6.879
  860SOL    HW2 3480   3.410   4.530   6.944
  861SOL     OW 3481   3.064   6.765   4.879
  861SOL    HW1 3482   3.107   6.776   4.969
  861SOL    HW2 3483   3.105   6.687   4.832
  862SOL     OW 3484   6.334   4.430   4.705
  862SOL    HW1 3485   6.299   4.487   4.779
  862SOL    HW2 3486   6.379   4.488   4.637
  863SOL     OW 3487   0.489   0.500   0.751
  863SOL    HW1 3488   0.396   0.471   0.775
  863SOL    HW2 3489   0.486   0.557   0.670
  864SOL     OW 3490   4.956   4.032   3.298
  864SOL    HW1 3491   4.879   3.974   3.327
  864SOL    HW2 3492   5.033   3.974   3.273
  865SOL     OW 3493   1.073   6.796   4.291
  865SOL    HW1 3494   1.016   6.806   4.372
  865SOL    HW2 3495   1.116   6.884   4.269
  866SOL     OW 3496   2.633   1.633   1.998
  866SOL    HW1 3497   2.587   1.686   1.927
  866SOL    HW2 3498   2.730   1.658   2.001
  867SOL     OW 3499   3.174   3.057   0.040
  867SOL    HW1 3500   3.208   3.104   0.122
  867SOL    HW2 3501   3.075   3.042   0.049
  868SOL     OW 3502   5.716   0.184   2.989
  868SOL    HW1 3503   5.640   0.124   2.965
  868SOL    HW2 3504   5.791   0.171   2.923
  869SOL     OW 3505   6.435   6.164   2.433
  869SOL    HW1 3506   6.385   6.086   2.472
  869SOL    HW2 3507   6.527   6.135   2.407
  870SOL     OW 3508   0.156   2.929   1.341
  870SOL    HW1 3509   0.131   2.834   1.360
  870SOL    HW2 3510   0.177   2.976   1.427
  871SOL     OW 3511   6.768   2.499   2.100
  871SOL    HW1 3512   6.697   2.555   2.059
  871SOL    HW2 3513   6.855   2.515   2.053
  872SOL     OW 3514   6.167   2.975   4.625
  872SOL    HW1 3515   6.121   2.888   4.606
  872SOL    HW2 3516   6.223   3.001   4.547
  873SOL     OW 3517   4.064   0.194   2.963
  873SOL    HW1 3518   4.154   0.224   2.995
  873SOL    HW2 3519   4.008   0.166   3.041
  874SOL     OW 3520   1.791   4.585   5.132
  874SOL    HW1 3521   1.732   4.613   5.209
  874SOL    HW2 3522   1.768   4.491   5.106
  875SOL     OW 3523   5.325   4.150   0.719
  875SOL    HW1 3524   5.367   4.234   0.685
  875SOL    HW2 3525   5.306   4.159   0.817
  876SOL     OW 3526   6.478   3.655   2.490
  876SOL    HW1 3527   6.418   3.609   2.555
  876SOL    HW2 3528   6.428   3.671   2.404
  877SOL     OW 3529   5.309   5.051   6.645
  877SOL    HW1 3530   5.314   5.141   6.602
  877SOL    HW2 3531   5.277   4.984   6.577
  878SOL     OW 3532   3.241   5.358   0.059
  878SOL    HW1 3533   3.143   5.372   0.046
  878SOL    HW2 3534   3.265   5.263   0.038
  879SOL     OW 3535   4.732   2.035   2.750
  879SOL    HW1 3536   4.814   2.004   2.797
  879SOL    HW2 3537   4.651   1.994   2.791
  880SOL     OW 3538   3.716   4.686   0.390
  880SOL    HW1 3539   3.637   4.747   0.385
  880SOL    HW2 3540   3.703   4.610   0.327
  881SOL     OW 3541   4.344   4.622   4.470
  881SOL    HW1 3542   4.378   4.623   4.564
  881SOL    HW2 3543   4.401   4.563   4.414
  882SOL     OW 3544   1.204   0.645   4.604
  882SOL    HW1 3545   1.224   0.741   4.626
  882SOL    HW2 3546   1.106   0.635   4.589
  883SOL     OW 3547   3.484   5.201   6.370
  883SOL    HW1 3548   3.506   5.287   6.416
  883SOL    HW2 3549   3.424   5.220   6.292
  884SOL     OW 3550   6.231   3.497   2.025
  884SOL    HW1 3551   6.163   3.438   1.982
  884SOL    HW2 3552   6.191   3.540   2.107
  885SOL     OW 3553   5.958   6.538   0.133
  885SOL    HW1 3554   5.864   6.570   0.132
  885SOL    HW2 3555   6.009   6.585   0.205
  886SOL     OW 3556   3.925   0.872   0.234
  886SOL    HW1 3557   3.900   0.905   0.326
  886SOL    HW2 3558   3.947   0.951   0.176
  887SOL     OW 3559   3.976   0.461   6.525
  887SOL    HW1 3560   4.003   0.507   6.440
  887SOL    HW2 3561   3.969   0.363   6.509
  888SOL     OW 3562   6.759   6.647   3.773
  888SOL    HW1 3563   6.724   6.592   3.849
  888SOL    HW2 3564   6.715   6.737   3.774
  889SOL     OW 3565   0.144   6.355   5.286
  889SOL    HW1 3566   0.046   6.362   5.305
  889SOL    HW2 3567   0.178   6.267   5.320
  890SOL     OW 3568   2.654   4.693   2.234
  890SOL    HW1 3569   2.559   4.697   2.201
  890SOL    HW2 3570   2.715   4.673   2.157
  891SOL     OW 3571   5.872   2.693   1.097
  891SOL    HW1 3572   5.909   2.620   1.039
  891SOL    HW2 3573   5.830   2.654   1.179
  892SOL     OW 3574   2.574   3.418   1.013
  892SOL    HW1 3575   2.573   3.325   1.049
  892SOL    HW2 3576   2.669   3.449   1.006
  893SOL     OW 3577   1.235   0.502   0.297
  893SOL    HW1 3578   1.325   0.510   0.338
  893SOL    HW2 3579   1.166   0.533   0.362
  894SOL     OW 3580   1.244   5.776   4.375
  894SOL    HW1 3581   1.237   5.876   4.381
  894SOL    HW2 3582   1.187   5.734   4.445
  895SOL     OW 3583   2.266   0.262   4.327
  895SOL    HW1 3584   2.328   0.221   4.394
  895SOL    HW2 3585   2.176   0.276   4.370
  896SOL     OW 3586   5.978   6.494   3.511
  896SOL    HW1 3587   5.881   6.472   3.498
  896SOL    HW2 3588   6.007   6.463   3.601
  897SOL     OW 3589   5.098   2.781   6.626
  897SOL    HW1 3590   5.185   2.750   6.664
  897SOL    HW2 3591   5.105   2.879   6.603
  898SOL     OW 3592   5.246   6.441   3.837
  898SOL    HW1 3593   5.199   6.371   3.891
  898SOL    HW2 3594   5.250   6.526   3.890
  899SOL     OW 3595   0.247   4.956   6.741
  899SOL    HW1 3596   0.176   4.908   6.690
  899SOL    HW2 3597   0.205   5.023   6.802
  900SOL     OW 3598   0.301   6.373   3.470
  900SOL    HW1 3599   0.369   6.299   3.473
  900SOL    HW2 3600   0.300   6.420   3.559
  901SOL     OW 3601   6.619   1.124   4.043
  901SOL    HW1 3602   6.623   1.109   3.945
  901SOL    HW2 3603   6.711   1.145   4.077
  902SOL     OW 3604   6.654   0.485   6.148
  902SOL    HW1 3605   6.633   0.438   6.234
  902SOL    HW2 3606   6.570   0.526   6.111
  903SOL     OW 3607   0.139   4.665   0.931
  903SOL    HW1 3608   0.099   4.756   0.919
  903SOL    HW2 3609   0.206   4.648   0.858
  904SOL     OW 3610   1.523   1.682   3.334
  904SOL    HW1 3611   1.588   1.682   3.258
  904SOL    HW2 3612   1.541   1.761   3.393
  905SOL     OW 3613   5.203   2.415   5.779
  905SOL    HW1 3614   5.236   2.503   5.811
  905SOL    HW2 3615   5.141   2.429   5.701
  906SOL     OW 3616   0.075   4.243   6.052
  906SOL    HW1 3617   0.119   4.178   5.990
  906SOL    HW2 3618   0.060   4.330   6.004
  907SOL     OW 3619   6.026   2.485   2.551
  907SOL    HW1 3620   5.955   2.415   2.556
  907SOL    HW2 3621   6.097   2.466   2.619
  908SOL     OW 3622   1.634   6.908   3.751
  908SOL    HW1 3623   1.726   6.926   3.715
  908SOL    HW2 3624   1.577   6.989   3.738
  909SOL     OW 3625   3.304   0.702   1.119
  909SOL    HW1 3626   3.310   0.646   1.037
  909SOL    HW2 3627   3.395   0.713   1.159
  910SOL     OW 3628   1.805   1.096   0.728
  910SOL    HW1 3629   1.710   1.098   0.697
  910SOL    HW2 3630   1.815   1.030   0.802
  911SOL     OW 3631   0.567   4.273   1.281
  911SOL    HW1 3632   0.607   4.265   1.190
  911SOL    HW2 3633   0.627   4.327   1.340
  912SOL     OW 3634   0.039   1.041   6.186
  912SOL    HW1 3635   6.966   1.077   6.164
  912SOL    HW2 3636   0.036   0.941   6.188
  913SOL     OW 3637   2.602   0.947   2.597
  913SOL    HW1 3638   2.571   0.977   2.506
  913SOL    HW2 3639   2.532   0.969   2.665
  914SOL     OW 3640   2.678   6.117   3.659
  914SOL    HW1 3641   2.744   6.068   3.601
  914SOL    HW2 3642   2.695   6.215   3.653
  915SOL     OW 3643   0.491   2.897   0.048
  915SOL    HW1 3644   0.524   2.808   0.017
  915SOL    HW2 3645   0.474   2.893   0.147
  916SOL     OW 3646   2.638   2.214   3.089
  916SOL    HW1 3647   2.700   2.224   3.011
  916SOL    HW2 3648   2.610   2.304   3.121
  917SOL     OW 3649   4.229   1.336   1.388
  917SOL    HW1 3650   4.193   1.386   1.467
  917SOL    HW2 3651   4.209   1.388   1.304
  918SOL     OW 3652   2.454   6.131   6.334
  918SOL    HW1 3653   2.397   6.166   6.408
  918SOL    HW2 3654   2.429   6.035   6.316
  919SOL     OW 3655   1.418   6.027   1.820
  919SOL    HW1 3656   1.404   5.944   1.766
  919SOL    HW2 3657   1.443   6.102   1.759
  920SOL     OW 3658   2.633   0.260   3.149
  920SOL    HW1 3659   2.575   0.193   3.195
  920SOL    HW2 3660   2.597   0.352   3.166
  921SOL     OW 3661   5.703   5.109   4.509
  921SOL    HW1 3662   5.751   5.084   4.593
  921SOL    HW2 3663   5.643   5.034   4.481
  922SOL     OW 3664   3.009   3.482   0.023
  922SOL    HW1 3665   3.090   3.540   0.033
  922SOL    HW2 3666   2.963   3.471   0.111
  923SOL     OW 3667   3.056   6.648   6.412
  923SOL    HW1 3668   3.143   6.601   6.394
  923SOL    HW2 3669   3.042   6.718   6.342
  924SOL     OW 3670   5.977   3.972   2.297
  924SOL    HW1 3671   6.052   4.020   2.343
  924SOL    HW2 3672   5.935   3.909   2.361
  925SOL     OW 3673   0.127   1.932   5.109
  925SOL    HW1 3674   0.154   1.960   5.201
  925SOL    HW2 3675   0.054   1.992   5.076
  926SOL     OW 3676   5.076   6.216   0.373
  926SOL    HW1 3677   5.068   6.295   0.435
  926SOL    HW2 3678   5.045   6.243   0.282
  927SOL     OW 3679   4.615   4.435   4.356
  927SOL    HW1 3680   4.610   4.385   4.443
  927SOL    HW2 3681   4.613   4.370   4.280
  928SOL     OW 3682   1.976   0.566   1.209
  928SOL    HW1 3683   2.008   0.531   1.121
  928SOL    HW2 3684   1.889   0.614   1.196
  929SOL     OW 3685   0.191   2.751   2.809
  929SOL    HW1 3686   0.119   2.804   2.856
  929SOL    HW2 3687   0.155   2.715   2.723
  930SOL     OW 3688   5.423   5.089   4.299
  930SOL    HW1 3689   5.434   5.082   4.200
  930SOL    HW2 3690   5.480   5.021   4.344
  931SOL     OW 3691   1.510   2.263   2.626
  931SOL    HW1 3692   1.432   2.230   2.680
  931SOL    HW2 3693   1.595   2.228   2.666
  932SOL     OW 3694   4.651   5.740   0.911
  932SOL    HW1 3695   4.653   5.641   0.930
  932SOL    HW2 3696   4.582   5.759   0.841
  933SOL     OW 3697   1.572   4.898   2.817
  933SOL    HW1 3698   1.645   4.913   2.884
  933SOL    HW2 3699   1.567   4.977   2.755
  934SOL     OW 3700   3.330   1.131   5.409
  934SOL    HW1 3701   3.343   1.222   5.450
  934SOL    HW2 3702   3.245   1.130   5.357
  935SOL     OW 3703   4.107   3.275   6.115
  935SOL    HW1 3704   4.180   3.338   6.089
  935SOL    HW2 3705   4.084   3.217   6.037
  936SOL     OW 3706   0.664   0.274   0.780
  936SOL    HW1 3707   0.603   0.197   0.801
  936SOL    HW2 3708   0.610   0.358   0.771
  937SOL     OW 3709   4.267   1.651   4.725
  937SOL    HW1 3710   4.241   1.694   4.638
  937SOL    HW2 3711   4.210   1.570   4.740
  938SOL     OW 3712   0.459   3.087   6.078
  938SOL    HW1 3713   0.533   3.084   6.146
  938SOL    HW2 3714   0.477   3.018   6.007
  939SOL     OW 3715   5.214   1.444   5.959
  939SOL    HW1 3716   5.149   1.399   5.897
  939SOL    HW2 3717   5.305   1.443   5.918
  940SOL     OW 3718   6.752   0.965   3.530
  940SOL    HW1 3719   6.790   0.895   3.591
  940SOL    HW2 3720   6.684   1.019   3.580
  941SOL     OW 3721   5.744   1.584   3.650
  941SOL    HW1 3722   5.738   1.570   3.551
  941SOL    HW2 3723   5.801   1.664   3.669
  942SOL     OW 3724   5.144   6.759   5.518
  942SOL    HW1 3725   5.182   6.736   5.607
  942SOL    HW2 3726   5.138   6.677   5.461
  943SOL     OW 3727   5.899   2.455   1.888
  943SOL    HW1 3728   5.952   2.537   1.864
  943SOL    HW2 3729   5.949   2.374   1.861
  944SOL     OW 3730   5.711   3.580   4.603
  944SOL    HW1 3731   5.688   3.674   4.628
  944SOL    HW2 3732   5.810   3.571   4.594
  945SOL     OW 3733   5.386   4.558   4.068
  945SOL    HW1 3734   5.295   4.582   4.032
  945SOL    HW2 3735   5.449   4.546   3.992
  946SOL     OW 3736   6.119   3.037   5.952
  946SOL    HW1 3737   6.198   2.995   5.997
  946SOL    HW2 3738   6.035   3.002   5.994
  947SOL     OW 3739   3.347   2.604   6.326
  947SOL    HW1 3740   3.401   2.631   6.247
  947SOL    HW2 3741   3.408   2.575   6.400
  948SOL     OW 3742   3.917   1.861   0.794
  948SOL    HW1 3743   4.014   1.841   0.779
  948SOL    HW2 3744   3.896   1.951   0.757
  949SOL     OW 3745   6.372   5.164   6.686
  949SOL    HW1 3746   6.275   5.176   6.667
  949SOL    HW2 3747   6.399   5.070   6.665
  950SOL     OW 3748   4.044   5.567   0.918
  950SOL    HW1 3749   4.017   5.471   0.908
  950SOL    HW2 3750   4.140   5.572   0.947
  951SOL     OW 3751   0.683   0.551   1.439
  951SOL    HW1 3752   0.663   0.643   1.472
  951SOL    HW2 3753   0.782   0.541   1.427
  952SOL     OW 3754   5.362   0.722   2.984
  952SOL    HW1 3755   5.429   0.674   2.928
  952SOL    HW2 3756   5.367   0.820   2.965
  953SOL     OW 3757   4.522   5.740   6.123
  953SOL    HW1 3758   4.591   5.806   6.093
  953SOL    HW2 3759   4.470   5.779   6.199
  954SOL     OW 3760   5.771   0.165   1.341
  954SOL    HW1 3761   5.784   0.239   1.407
  954SOL    HW2 3762   5.767   0.203   1.249
  955SOL     OW 3763   0.696   5.971   3.274
  955SOL    HW1 3764   0.714   6.024   3.191
  955SOL    HW2 3765   0.777   5.969   3.331
  956SOL     OW 3766   1.765   1.963   1.117
  956SOL    HW1 3767   1.844   1.921   1.072
  956SOL    HW2 3768   1.682   1.944   1.065
  957SOL     OW 3769   1.924   4.783   4.976
  957SOL    HW1 3770   1.910   4.772   4.878
  957SOL    HW2 3771   1.877   4.709   5.025
  958SOL     OW 3772   5.370   1.929   1.590
  958SOL    HW1 3773   5.426   2.006   1.617
  958SOL    HW2 3774   5.429   1.853   1.562
  959SOL     OW 3775   3.143   4.899   3.183
  959SOL    HW1 3776   3.065   4.844   3.151
  959SOL    HW2 3777   3.181   4.950   3.106
  960SOL     OW 3778   2.135   5.625   4.483
  960SOL    HW1 3779   2.120   5.696   4.552
  960SOL    HW2 3780   2.223   5.639   4.439
  961SOL     OW 3781   4.216   6.734   1.560
  961SOL    HW1 3782   4.184   6.665   1.495
  961SOL    HW2 3783   4.167   6.725   1.646
  962SOL     OW 3784   1.831   0.790   3.579
  962SOL    HW1 3785   1.780   0.827   3.501
  962SOL    HW2 3786   1.842   0.691   3.567
  963SOL     OW 3787   6.458   0.698   1.376
  963SOL    HW1 3788   6.535   0.719   1.436
  963SOL    HW2 3789   6.490   0.647   1.296
  964SOL     OW 3790   5.552   3.664   1.834
  964SOL    HW1 3791   5.487   3.697   1.765
  964SOL    HW2 3792   5.600   3.741   1.875
  965SOL     OW 3793   0.278   1.584   0.438
  965SOL    HW1 3794   0.243   1.582   0.531
  965SOL    HW2 3795   0.270   1.676   0.400
  966SOL     OW 3796   6.273   1.218   2.698
  966SOL    HW1 3797   6.223   1.169   2.627
  966SOL    HW2 3798   6.367   1.236   2.666
  967SOL     OW 3799   0.765   5.443   0.188
  967SOL    HW1 3800   0.864   5.437   0.173
  967SOL    HW2 3801   0.746   5.489   0.275
  968SOL     OW 3802   4.742   2.534   2.193
  968SOL    HW1 3803   4.690   2.487   2.265
  968SOL    HW2 3804   4.816   2.474   2.162
  969SOL     OW 3805   4.468   6.503   6.142
  969SOL    HW1 3806   4.552   6.510   6.089
  969SOL    HW2 3807   4.413   6.426   6.109
  970SOL     OW 3808   4.285   1.806   5.603
  970SOL    HW1 3809   4.364   1.804   5.541
  970SOL    HW2 3810   4.208   1.852   5.557
  971SOL     OW 3811   6.780   1.391   2.208
  971SOL    HW1 3812   6.763   1.478   2.162
  971SOL    HW2 3813   6.700   1.332   2.200
  972SOL     OW 3814   6.610   4.884   0.927
  972SOL    HW1 3815   6.548   4.889   0.850
  972SOL    HW2 3816   6.704   4.870   0.894
  973SOL     OW 3817   6.460   4.621   6.592
  973SOL    HW1 3818   6.456   4.530   6.552
  973SOL    HW2 3819   6.520   4.621   6.672
  974SOL     OW 3820   3.152   0.101   3.178
  974SOL    HW1 3821   3.219   0.173   3.162
  974SOL    HW2 3822   3.103   0.080   3.093
  975SOL     OW 3823   2.857   5.874   5.468
  975SOL    HW1 3824   2.816   5.810   5.533
  975SOL    HW2 3825   2.852   5.966   5.504
  976SOL     OW 3826   6.622   2.954   3.045
  976SOL    HW1 3827   6.678   3.017   3.101
  976SOL    HW2 3828   6.567   2.896   3.105
  977SOL     OW 3829   1.454   1.013   3.854
  977SOL    HW1 3830   1.509   1.028   3.772
  977SOL    HW2 3831   1.495   0.940   3.909
  978SOL     OW 3832   5.607   4.298   4.111
  978SOL    HW1 3833   5.527   4.249   4.076
  978SOL    HW2 3834   5.579   4.390   4.140
  979SOL     OW 3835   6.222   0.415   3.372
  979SOL    HW1 3836   6.144   0.418   3.309
  979SOL    HW2 3837   6.244   0.319   3.392
  980SOL     OW 3838   5.400   2.205   3.989
  980SOL    HW1 3839   5.496   2.217   3.965
  980SOL    HW2 3840   5.349   2.178   3.908
  981SOL     OW 3841   1.161   1.341   4.251
  981SOL    HW1 3842   1.194   1.268   4.311
  981SOL    HW2 3843   1.118   1.300   4.170
  982SOL     OW 3844   1.018   2.348   1.425
  982SOL    HW1 3845   0.943   2.295   1.385
  982SOL    HW2 3846   1.054   2.412   1.357
  983SOL     OW 3847   6.367   1.974   2.984
  983SOL    HW1 3848   6.418   2.015   3.060
  983SOL    HW2 3849   6.282   2.025   2.971
  984SOL     OW 3850   4.629   1.348   5.426
  984SOL    HW1 3851   4.689   1.286   5.476
  984SOL    HW2 3852   4.560   1.296   5.377
  985SOL     OW 3853   3.172   5.444   0.747
  985SOL    HW1 3854   3.174   5.347   0.721
  985SOL    HW2 3855   3.264   5.482   0.740
  986SOL     OW 3856   5.044   5.334   6.175
  986SOL    HW1 3857   5.050   5.399   6.250
  986SOL    HW2 3858   4.951   5.334   6.138
  987SOL     OW 3859   2.939   6.451   1.745
  987SOL    HW1 3860   3.030   6.411   1.752
  987SOL    HW2 3861   2.888   6.435   1.829
  988SOL     OW 3862   3.756   2.831   0.724
  988SOL    HW1 3863   3.660   2.808   0.707
  988SOL    HW2 3864   3.775   2.922   0.687
  989SOL     OW 3865   1.120   0.210   6.006
  989SOL    HW1 3866   1.081   0.189   5.916
  989SOL    HW2 3867   1.206   0.258   5.994
  990SOL     OW 3868   4.851   0.326   3.968
  990SOL    HW1 3869   4.933   0.324   4.025
  990SOL    HW2 3870   4.864   0.390   3.892
  991SOL     OW 3871   1.255   2.288   4.516
  991SOL    HW1 3872   1.329   2.221   4.520
  991SOL    HW2 3873   1.196   2.277   4.597
  992SOL     OW 3874   0.245   3.212   6.398
  992SOL    HW1 3875   0.240   3.173   6.306
  992SOL    HW2 3876   0.155   3.206   6.441
  993SOL     OW 3877   3.340   4.857   2.597
  993SOL    HW1 3878   3.367   4.889   2.506
  993SOL    HW2 3879   3.281   4.924   2.641
  994SOL     OW 3880   3.825   3.700   2.245
  994SOL    HW1 3881   3.777   3.783   2.217
  994SOL    HW2 3882   3.914   3.697   2.200
  995SOL     OW 3883   1.988   3.041   6.186
  995SOL    HW1 3884   2.020   3.127   6.226
  995SOL    HW2 3885   1.906   3.010   6.234
  996SOL     OW 3886   1.779   3.400   2.868
  996SOL    HW1 3887   1.716   3.478   2.869
  996SOL    HW2 3888   1.815   3.385   2.960
  997SOL     OW 3889   0.341   0.897   1.156
  997SOL    HW1 3890   0.420   0.959   1.148
  997SOL    HW2 3891   0.374   0.805   1.176
  998SOL     OW 3892   3.978   6.568   2.078
  998SOL    HW1 3893   3.955   6.663   2.055
  998SOL    HW2 3894   4.004   6.519   1.995
  999SOL     OW 3895   5.833   5.541   0.658
  999SOL    HW1 3896   5.850   5.576   0.750
  999SOL    HW2 3897   5.850   5.613   0.591
 1000SOL     OW 3898   2.309   2.269   3.385
 1000SOL    HW1 3899   2.290   2.174   3.410
 1000SOL    HW2 3900   2.373   2.309   3.450
 1001SOL     OW 3901   4.707   6.811   6.615
 1001SOL    HW1 3902   4.713   6.711   6.609
 1001SOL    HW2 3903   4.616   6.837   6.645
 1002SOL     OW 3904   5.722   1.777   6.533
 1002SOL    HW1 3905   5.719   1.841   6.457
 1002SOL    HW2 3906   5.640   1.789   6.590
 1003SOL     OW 3907   2.927   6.020   2.589
 1003SOL    HW1 3908   2.879   6.048   2.672
 1003SOL    HW2 3909   2.965   5.928   2.601
 1004SOL     OW 3910   6.835   0.204   6.603
 1004SOL    HW1 3911   6.922   0.162   6.626
 1004SOL    HW2 3912   6.814   0.277   6.669
 1005SOL     OW 3913   0.615   0.335   2.526
 1005SOL    HW1 3914   0.613   0.422   2.575
 1005SOL    HW2 3915   0.524   0.294   2.526
 1006SOL     OW 3916   2.207   5.186   1.771
 1006SOL    HW1 3917   2.188   5.156   1.677
 1006SOL    HW2 3918   2.145   5.260   1.796
 1007SOL     OW 3919   6.562   1.338   3.627
 1007SOL    HW1 3920   6.547   1.350   3.529
 1007SOL    HW2 3921   6.492   1.388   3.678
 1008SOL     OW 3922   0.863   2.461   3.880
 1008SOL    HW1 3923   0.791   2.513   3.925
 1008SOL    HW2 3924   0.906   2.517   3.810
 1009SOL     OW 3925   6.976   5.674   4.326
 1009SOL    HW1 3926   6.966   5.730   4.244
 1009SOL    HW2 3927   0.032   5.609   4.313
 1010SOL     OW 3928   4.100   2.120   0.607
 1010SOL    HW1 3929   4.166   2.119   0.532
 1010SOL    HW2 3930   4.010   2.091   0.574
 1011SOL     OW 3931   2.683   5.486   4.081
 1011SOL    HW1 3932   2.648   5.533   4.162
 1011SOL    HW2 3933   2.729   5.401   4.108
 1012SOL     OW 3934   6.416   5.102   0.544
 1012SOL    HW1 3935   6.354   5.181   0.549
 1012SOL    HW2 3936   6.366   5.023   0.508
 1013SOL     OW 3937   1.179   0.883   6.778
 1013SOL    HW1 3938   1.142   0.906   6.689
 1013SOL    HW2 3939   1.250   0.949   6.804
 1014SOL     OW 3940   4.540   5.497   6.055
 1014SOL    HW1 3941   4.510   5.501   5.960
 1014SOL    HW2 3942   4.542   5.589   6.094
 1015SOL     OW 3943   3.940   6.552   5.044
 1015SOL    HW1 3944   3.878   6.627   5.068
 1015SOL    HW2 3945   4.020   6.589   4.997
 1016SOL     OW 3946   3.595   2.352   1.153
 1016SOL    HW1 3947   3.515   2.296   1.131
 1016SOL    HW2 3948   3.576   2.407   1.234
 1017SOL     OW 3949   4.727   2.626   0.835
 1017SOL    HW1 3950   4.777   2.706   0.868
 1017SOL    HW2 3951   4.639   2.656   0.798
 1018SOL     OW 3952   1.665   3.015   3.555
 1018SOL    HW1 3953   1.575   3.059   3.548
 1018SOL    HW2 3954   1.706   3.036   3.643
 1019SOL     OW 3955   0.222   1.357   0.129
 1019SOL    HW1 3956   0.197   1.369   0.225
 1019SOL    HW2 3957   0.317   1.385   0.116
 1020SOL     OW 3958   2.293   0.419   0.876
 1020SOL    HW1 3959   2.325   0.397   0.784
 1020SOL    HW2 3960   2.346   0.495   0.913
 1021SOL     OW 3961   6.501   0.952   1.901
 1021SOL    HW1 3962   6.520   0.864   1.858
 1021SOL    HW2 3963   6.409   0.982   1.877
 1022SOL     OW 3964   4.279   3.484   6.093
 1022SOL    HW1 3965   4.364   3.509   6.141
 1022SOL    HW2 3966   4.207   3.549   6.118
 1023SOL     OW 3967   5.795   0.242   2.490
 1023SOL    HW1 3968   5.701   0.216   2.511
 1023SOL    HW2 3969   5.808   0.245   2.390
 1024SOL     OW 3970   6.250   1.937   4.186
 1024SOL    HW1 3971   6.339   1.969   4.154
 1024SOL    HW2 3972   6.258   1.841   4.213
 1025SOL     OW 3973   3.182   4.593   0.745
 1025SOL    HW1 3974   3.134   4.573   0.659
 1025SOL    HW2 3975   3.236   4.513   0.772
 1026SOL     OW 3976   1.776   1.818   0.470
 1026SOL    HW1 3977   1.740   1.816   0.377
 1026SOL    HW2 3978   1.867   1.779   0.472
 1027SOL     OW 3979   2.886   5.087   1.538
 1027SOL    HW1 3980   2.801   5.140   1.533
 1027SOL    HW2 3981   2.875   5.002   1.488
 1028SOL     OW 3982   2.116   6.077   6.895
 1028SOL    HW1 3983   2.109   5.997   6.955
 1028SOL    HW2 3984   2.212   6.106   6.889
 1029SOL     OW 3985   1.675   0.343   0.273
 1029SOL    HW1 3986   1.634   0.407   0.209
 1029SOL    HW2 3987   1.611   0.323   0.347
 1030SOL     OW 3988   3.717   3.217   5.063
 1030SOL    HW1 3989   3.748   3.205   4.969
 1030SOL    HW2 3990   3.793   3.200   5.126
 1031SOL     OW 3991   3.295   5.066   1.329
 1031SOL    HW1 3992   3.289   5.113   1.241
 1031SOL    HW2 3993   3.213   5.011   1.343
 1032SOL     OW 3994   1.892   1.475   5.481
 1032SOL    HW1 3995   1.846   1.387   5.489
 1032SOL    HW2 3996   1.870   1.517   5.393
 1033SOL     OW 3997   1.770   5.589   1.655
 1033SOL    HW1 3998   1.784   5.593   1.754
 1033SOL    HW2 3999   1.769   5.682   1.618
 1034SOL     OW 4000   2.163   6.017   3.954
 1034SOL    HW1 4001   2.170   6.077   3.874
 1034SOL    HW2 4002   2.191   6.067   4.035
 1035SOL     OW 4003   2.854   1.833   4.541
 1035SOL    HW1 4004   2.924   1.888   4.497
 1035SOL    HW2 4005   2.803   1.782   4.472
 1036SOL     OW 4006   4.277   1.674   1.345
 1036SOL    HW1 4007   4.299   1.769   1.324
 1036SOL    HW2 4008   4.239   1.668   1.437
 1037SOL     OW 4009   0.863   0.820   0.863
 1037SOL    HW1 4010   0.895   0.811   0.768
 1037SOL    HW2 4011   0.830   0.913   0.879
 1038SOL     OW 4012   0.954   1.401   5.303
 1038SOL    HW1 4013   1.031   1.346   5.336
 1038SOL    HW2 4014   0.885   1.341   5.263
 1039SOL     OW 4015   3.678   1.399   4.512
 1039SOL    HW1 4016   3.711   1.320   4.460
 1039SOL    HW2 4017   3.756   1.455   4.540
 1040SOL     OW 4018   5.855   3.379   2.971
 1040SOL    HW1 4019   5.777   3.349   2.915
 1040SOL    HW2 4020   5.854   3.479   2.978
 1041SOL     OW 4021   6.504   0.441   3.983
 1041SOL    HW1 4022   6.604   0.434   3.978
 1041SOL    HW2 4023   6.479   0.534   4.009
 1042SOL     OW 4024   4.693   5.156   1.280
 1042SOL    HW1 4025   4.655   5.248   1.274
 1042SOL    HW2 4026   4.652   5.107   1.357
 1043SOL     OW 4027   3.778   1.614   6.586
 1043SOL    HW1 4028   3.705   1.580   6.526
 1043SOL    HW2 4029   3.749   1.700   6.628
 1044SOL     OW 4030   3.993   2.261   1.615
 1044SOL    HW1 4031   3.915   2.199   1.609
 1044SOL    HW2 4032   3.962   2.350   1.647
 1045SOL     OW 4033   3.320   1.200   2.244
 1045SOL    HW1 4034   3.369   1.116   2.224
 1045SOL    HW2 4035   3.221   1.183   2.239
 1046SOL     OW 4036   2.892   6.964   0.281
 1046SOL    HW1 4037   2.878   6.966   0.183
 1046SOL    HW2 4038   2.948   0.024   0.309
 1047SOL     OW 4039   1.368   5.089   3.214
 1047SOL    HW1 4040   1.362   5.099   3.115
 1047SOL    HW2 4041   1.457   5.119   3.246
 1048SOL     OW 4042   5.345   5.299   5.303
 1048SOL    HW1 4043   5.301   5.234   5.240
 1048SOL    HW2 4044   5.364   5.252   5.390
 1049SOL     OW 4045   6.952   3.998   5.252
 1049SOL    HW1 4046   6.887   4.031   5.183
 1049SOL    HW2 4047   7.013   4.073   5.279
 1050SOL     OW 4048   3.736   6.950   6.737
 1050SOL    HW1 4049   3.683   0.003   6.692
 1050SOL    HW2 4050   3.818   6.930   6.683
 1051SOL     OW 4051   3.913   4.889   0.406
 1051SOL    HW1 4052   3.968   4.855   0.329
 1051SOL    HW2 4053   3.841   4.822   0.427
 1052SOL     OW 4054   4.013   0.129   4.801
 1052SOL    HW1 4055   3.951   0.096   4.729
 1052SOL    HW2 4056   4.067   0.053   4.837
 1053SOL     OW 4057   5.039   5.438   3.736
 1053SOL    HW1 4058   5.062   5.380   3.658
 1053SOL    HW2 4059   4.950   5.410   3.772
 1054SOL     OW 4060   3.020   4.991   5.447
 1054SOL    HW1 4061   3.088   5.006   5.375
 1054SOL    HW2 4062   3.059   5.014   5.536
 1055SOL     OW 4063   5.345   5.392   4.987
 1055SOL    HW1 4064   5.258   5.371   4.942
 1055SOL    HW2 4065   5.336   5.475   5.042
 1056SOL     OW 4066   1.672   5.979   5.227
 1056SOL    HW1 4067   1.721   5.919   5.291
 1056SOL    HW2 4068   1.615   5.923   5.167
 1057SOL     OW 4069   3.036   3.192   3.010
 1057SOL    HW1 4070   2.990   3.277   3.035
 1057SOL    HW2 4071   3.044   3.133   3.091
 1058SOL     OW 4072   4.122   1.577   2.272
 1058SOL    HW1 4073   4.125   1.498   2.332
 1058SOL    HW2 4074   4.101   1.659   2.325
 1059SOL     OW 4075   4.197   1.268   2.105
 1059SOL    HW1 4076   4.282   1.321   2.105
 1059SOL    HW2 4077   4.214   1.179   2.147
 1060SOL     OW 4078   0.750   3.828   5.349
 1060SOL    HW1 4079   0.830   3.779   5.315
 1060SOL    HW2 4080   0.707   3.774   5.422
 1061SOL     OW 4081   3.136   4.928   1.579
 1061SOL    HW1 4082   3.048   4.962   1.545
 1061SOL    HW2 4083   3.124   4.890   1.671
 1062SOL     OW 4084   6.888   5.554   5.366
 1062SOL    HW1 4085   6.831   5.503   5.431
 1062SOL    HW2 4086   6.921   5.638   5.410
 1063SOL     OW 4087   1.406   3.381   1.381
 1063SOL    HW1 4088   1.471   3.428   1.322
 1063SOL    HW2 4089   1.365   3.446   1.445
 1064SOL     OW 4090   1.263   3.430   2.127
 1064SOL    HW1 4091   1.356   3.428   2.165
 1064SOL    HW2 4092   1.250   3.515   2.076
 1065SOL     OW 4093   5.396   0.032   3.912
 1065SOL    HW1 4094   5.435   0.118   3.946
 1065SOL    HW2 4095   5.437   6.974   3.962
 1066SOL     OW 4096   4.922   0.316   4.443
 1066SOL    HW1 4097   4.962   0.307   4.352
 1066SOL    HW2 4098   4.824   0.299   4.438
 1067SOL     OW 4099   1.842   2.297   1.705
 1067SOL    HW1 4100   1.810   2.374   1.649
 1067SOL    HW2 4101   1.828   2.211   1.655
 1068SOL     OW 4102   0.385   3.813   2.255
 1068SOL    HW1 4103   0.292   3.840   2.230
 1068SOL    HW2 4104   0.382   3.747   2.330
 1069SOL     OW 4105   3.904   4.376   0.624
 1069SOL    HW1 4106   3.930   4.280   0.629
 1069SOL    HW2 4107   3.826   4.393   0.685
 1070SOL     OW 4108   1.730   0.691   0.189
 1070SOL    HW1 4109   1.637   0.653   0.191
 1070SOL    HW2 4110   1.785   0.641   0.122
 1071SOL     OW 4111   4.358   6.511   2.873
 1071SOL    HW1 4112   4.357   6.584   2.805
 1071SOL    HW2 4113   4.300   6.436   2.841
 1072SOL     OW 4114   3.188   6.405   2.621
 1072SOL    HW1 4115   3.210   6.336   2.690
 1072SOL    HW2 4116   3.223   6.376   2.532
 1073SOL     OW 4117   3.068   4.818   2.421
 1073SOL    HW1 4118   3.164   4.796   2.439
 1073SOL    HW2 4119   3.050   4.808   2.323
 1074SOL     OW 4120   1.481   4.971   1.825
 1074SOL    HW1 4121   1.525   5.016   1.747
 1074SOL    HW2 4122   1.520   4.880   1.837
 1075SOL     OW 4123   5.887   4.584   3.346
 1075SOL    HW1 4124   5.939   4.506   3.381
 1075SOL    HW2 4125   5.873   4.651   3.418
 1076SOL     OW 4126   0.648   4.454   4.714
 1076SOL    HW1 4127   0.745   4.431   4.727
 1076SOL    HW2 4128   0.623   4.438   4.618
 1077SOL     OW 4129   5.554   0.080   1.077
 1077SOL    HW1 4130   5.492   0.019   1.125
 1077SOL    HW2 4131   5.628   0.027   1.036
 1078SOL     OW 4132   1.206   1.709   1.119
 1078SOL    HW1 4133   1.288   1.687   1.066
 1078SOL    HW2 4134   1.216   1.675   1.212
 1079SOL     OW 4135   2.334   5.818   3.863
 1079SOL    HW1 4136   2.273   5.877   3.915
 1079SOL    HW2 4137   2.394   5.875   3.807
 1080SOL     OW 4138   2.354   5.637   3.624
 1080SOL    HW1 4139   2.333   5.699   3.699
 1080SOL    HW2 4140   2.366   5.544   3.660
 1081SOL     OW 4141   1.488   0.981   6.144
 1081SOL    HW1 4142   1.492   0.910   6.074
 1081SOL    HW2 4143   1.518   1.068   6.105
 1082SOL     OW 4144   1.407   0.214   5.465
 1082SOL    HW1 4145   1.318   0.245   5.431
 1082SOL    HW2 4146   1.414   0.115   5.453
 1083SOL     OW 4147   3.487   3.142   1.989
 1083SOL    HW1 4148   3.559   3.124   2.056
 1083SOL    HW2 4149   3.528   3.177   1.905
 1084SOL     OW 4150   6.183   4.970   1.111
 1084SOL    HW1 4151   6.108   4.911   1.082
 1084SOL    HW2 4152   6.267   4.916   1.119
 1085SOL     OW 4153   1.737   5.000   4.020
 1085SOL    HW1 4154   1.666   5.058   4.061
 1085SOL    HW2 4155   1.819   5.054   4.003
 1086SOL     OW 4156   5.255   5.968   3.347
 1086SOL    HW1 4157   5.236   5.924   3.259
 1086SOL    HW2 4158   5.169   5.989   3.394
 1087SOL     OW 4159   5.008   2.909   5.390
 1087SOL    HW1 4160   5.055   2.822   5.404
 1087SOL    HW2 4161   5.051   2.980   5.444
 1088SOL     OW 4162   5.618   4.863   3.512
 1088SOL    HW1 4163   5.638   4.873   3.415
 1088SOL    HW2 4164   5.555   4.787   3.526
 1089SOL     OW 4165   0.185   0.409   4.829
 1089SOL    HW1 4166   0.192   0.340   4.901
 1089SOL    HW2 4167   0.089   0.435   4.816
 1090SOL     OW 4168   1.680   1.555   5.745
 1090SOL    HW1 4169   1.715   1.487   5.809
 1090SOL    HW2 4170   1.755   1.607   5.706
 1091SOL     OW 4171   1.603   1.910   4.311
 1091SOL    HW1 4172   1.618   1.811   4.302
 1091SOL    HW2 4173   1.669   1.959   4.255
 1092SOL     OW 4174   2.255   4.011   1.320
 1092SOL    HW1 4175   2.300   3.923   1.331
 1092SOL    HW2 4176   2.301   4.063   1.248
 1093SOL     OW 4177   1.246   2.821   2.438
 1093SOL    HW1 4178   1.276   2.748   2.499
 1093SOL    HW2 4179   1.306   2.900   2.449
 1094SOL     OW 4180   0.235   6.548   1.457
 1094SOL    HW1 4181   0.321   6.583   1.495
 1094SOL    HW2 4182   0.233   6.449   1.467
 1095SOL     OW 4183   6.055   3.374   6.501
 1095SOL    HW1 4184   6.017   3.332   6.419
 1095SOL    HW2 4185   6.031   3.471   6.504
 1096SOL     OW 4186   3.273   4.631   1.509
 1096SOL    HW1 4187   3.207   4.695   1.470
 1096SOL    HW2 4188   3.362   4.645   1.468
 1097SOL     OW 4189   1.585   4.701   4.966
 1097SOL    HW1 4190   1.613   4.680   5.059
 1097SOL    HW2 4191   1.665   4.698   4.906
 1098SOL     OW 4192   4.801   2.338   1.581
 1098SOL    HW1 4193   4.719   2.290   1.551
 1098SOL    HW2 4194   4.881   2.298   1.537
 1099SOL     OW 4195   4.228   1.833   4.217
 1099SOL    HW1 4196   4.272   1.777   4.287
 1099SOL    HW2 4197   4.164   1.896   4.260
 1100SOL     OW 4198   1.534   1.145   6.593
 1100SOL    HW1 4199   1.499   1.076   6.530
 1100SOL    HW2 4200   1.632   1.133   6.605
 1101SOL     OW 4201   5.325   3.212   1.340
 1101SOL    HW1 4202   5.249   3.149   1.352
 1101SOL    HW2 4203   5.396   3.169   1.285
 1102SOL     OW 4204   0.526   4.254   4.205
 1102SOL    HW1 4205   0.466   4.328   4.235
 1102SOL    HW2 4206   0.606   4.250   4.265
 1103SOL     OW 4207   1.327   1.726   1.728
 1103SOL    HW1 4208   1.313   1.770   1.640
 1103SOL    HW2 4209   1.412   1.758   1.769
 1104SOL     OW 4210   2.723   4.931   6.265
 1104SOL    HW1 4211   2.670   4.851   6.294
 1104SOL    HW2 4212   2.700   4.954   6.171
 1105SOL     OW 4213   4.766   4.145   6.750
 1105SOL    HW1 4214   4.828   4.187   6.684
 1105SOL    HW2 4215   4.779   4.187   6.840
 1106SOL     OW 4216   6.815   2.553   5.784
 1106SOL    HW1 4217   6.820   2.615   5.862
 1106SOL    HW2 4218   6.905   2.512   5.769
 1107SOL     OW 4219   0.697   0.346   0.470
 1107SOL    HW1 4220   0.638   0.290   0.412
 1107SOL    HW2 4221   0.685   0.319   0.566
 1108SOL     OW 4222   2.151   0.789   6.187
 1108SOL    HW1 4223   2.127   0.729   6.264
 1108SOL    HW2 4224   2.203   0.867   6.221
 1109SOL     OW 4225   3.909   6.135   4.033
 1109SOL    HW1 4226   3.928   6.041   4.064
 1109SOL    HW2 4227   3.944   6.199   4.101
 1110SOL     OW 4228   2.722   2.819   1.611
 1110SOL    HW1 4229   2.745   2.782   1.521
 1110SOL    HW2 4230   2.725   2.746   1.679
 1111SOL     OW 4231   5.627   0.800   6.863
 1111SOL    HW1 4232   5.548   0.751   6.825
 1111SOL    HW2 4233   5.615   0.898   6.850
 1112SOL     OW 4234   6.579   0.567   2.498
 1112SOL    HW1 4235   6.667   0.525   2.516
 1112SOL    HW2 4236   6.526   0.573   2.583
 1113SOL     OW 4237   6.602   3.433   2.578
 1113SOL    HW1 4238   6.575   3.341   2.551
 1113SOL    HW2 4239   6.533   3.499   2.546
 1114SOL     OW 4240   4.413   0.512   6.150
 1114SOL    HW1 4241   4.391   0.567   6.069
 1114SOL    HW2 4242   4.404   0.568   6.232
 1115SOL     OW 4243   3.620   3.157   0.797
 1115SOL    HW1 4244   3.614   3.251   0.763
 1115SOL    HW2 4245   3.529   3.119   0.807
 1116SOL     OW 4246   4.915   5.715   4.126
 1116SOL    HW1 4247   4.977   5.736   4.051
 1116SOL    HW2 4248   4.966   5.714   4.212
 1117SOL     OW 4249   2.412   2.515   1.487
 1117SOL    HW1 4250   2.333   2.492   1.430
 1117SOL    HW2 4251   2.461   2.592   1.446
 1118SOL     OW 4252   2.335   5.179   3.271
 1118SOL    HW1 4253   2.418   5.124   3.264
 1118SOL    HW2 4254   2.360   5.274   3.290
 1119SOL     OW 4255   4.356   4.022   1.690
 1119SOL    HW1 4256   4.351   4.050   1.594
 1119SOL    HW2 4257   4.389   4.098   1.746
 1120SOL     OW 4258   5.263   0.044   6.214
 1120SOL    HW1 4259   5.318   6.988   6.249
 1120SOL    HW2 4260   5.319   0.125   6.202
 1121SOL     OW 4261   5.011   2.934   1.967
 1121SOL    HW1 4262   4.927   2.948   2.019
 1121SOL    HW2 4263   4.989   2.893   1.878
 1122SOL     OW 4264   5.773   3.275   6.962
 1122SOL    HW1 4265   5.799   3.329   6.882
 1122SOL    HW2 4266   5.748   3.182   6.933
 1123SOL     OW 4267   4.857   1.179   2.034
 1123SOL    HW1 4268   4.879   1.255   1.972
 1123SOL    HW2 4269   4.934   1.162   2.095
 1124SOL     OW 4270   6.555   3.425   5.275
 1124SOL    HW1 4271   6.613   3.409   5.195
 1124SOL    HW2 4272   6.540   3.523   5.287
 1125SOL     OW 4273   2.798   2.772   5.364
 1125SOL    HW1 4274   2.756   2.859   5.336
 1125SOL    HW2 4275   2.771   2.751   5.458
 1126SOL     OW 4276   4.705   0.138   0.697
 1126SOL    HW1 4277   4.717   0.199   0.775
 1126SOL    HW2 4278   4.784   0.145   0.636
 1127SOL     OW 4279   2.783   4.910   0.443
 1127SOL    HW1 4280   2.720   4.872   0.375
 1127SOL    HW2 4281   2.777   4.858   0.528
 1128SOL     OW 4282   3.611   2.068   3.687
 1128SOL    HW1 4283   3.535   2.077   3.623
 1128SOL    HW2 4284   3.648   1.975   3.681
 1129SOL     OW 4285   4.170   0.770   6.806
 1129SOL    HW1 4286   4.212   0.691   6.852
 1129SOL    HW2 4287   4.225   0.851   6.825
 1130SOL     OW 4288   1.441   3.863   0.760
 1130SOL    HW1 4289   1.408   3.853   0.854
 1130SOL    HW2 4290   1.453   3.772   0.719
 1131SOL     OW 4291   0.501   5.951   5.507
 1131SOL    HW1 4292   0.578   5.953   5.570
 1131SOL    HW2 4293   0.440   5.875   5.530
 1132SOL     OW 4294   4.906   6.979   5.746
 1132SOL    HW1 4295   4.839   0.034   5.759
 1132SOL    HW2 4296   4.998   7.018   5.743
 1133SOL     OW 4297   1.119   2.563   1.269
 1133SOL    HW1 4298   1.198   2.620   1.291
 1133SOL    HW2 4299   1.108   2.557   1.169
 1134SOL     OW 4300   5.970   2.687   6.980
 1134SOL    HW1 4301   5.970   2.766   0.023
 1134SOL    HW2 4302   5.879   2.646   6.979
 1135SOL     OW 4303   3.071   2.210   3.649
 1135SOL    HW1 4304   2.994   2.249   3.699
 1135SOL    HW2 4305   3.044   2.190   3.555
 1136SOL     OW 4306   2.594   5.695   3.508
 1136SOL    HW1 4307   2.496   5.699   3.528
 1136SOL    HW2 4308   2.630   5.606   3.536
 1137SOL     OW 4309   1.397   2.007   6.731
 1137SOL    HW1 4310   1.326   1.937   6.719
 1137SOL    HW2 4311   1.362   2.096   6.701
 1138SOL     OW 4312   2.522   3.278   6.308
 1138SOL    HW1 4313   2.501   3.374   6.287
 1138SOL    HW2 4314   2.612   3.272   6.351
 1139SOL     OW 4315   1.211   6.547   2.669
 1139SOL    HW1 4316   1.191   6.561   2.765
 1139SOL    HW2 4317   1.310   6.542   2.655
 1140SOL     OW 4318   3.240   1.552   3.319
 1140SOL    HW1 4319   3.166   1.610   3.351
 1140SOL    HW2 4320   3.219   1.517   3.228
 1141SOL     OW 4321   5.536   5.669   5.259
 1141SOL    HW1 4322   5.609   5.667   5.190
 1141SOL    HW2 4323   5.452   5.703   5.216
 1142SOL     OW 4324   5.121   0.482   4.401
 1142SOL    HW1 4325   5.033   0.442   4.427
 1142SOL    HW2 4326   5.107   0.546   4.325
 1143SOL     OW 4327   4.058   2.025   3.080
 1143SOL    HW1 4328   4.087   1.965   3.154
 1143SOL    HW2 4329   4.130   2.091   3.060
 1144SOL     OW 4330   0.862   4.309   4.060
 1144SOL    HW1 4331   0.906   4.382   4.113
 1144SOL    HW2 4332   0.930   4.267   4.000
 1145SOL     OW 4333   6.852   5.428   4.468
 1145SOL    HW1 4334   6.876   5.522   4.445
 1145SOL    HW2 4335   6.901   5.365   4.406
 1146SOL     OW 4336   6.004   2.142   1.055
 1146SOL    HW1 4337   5.935   2.070   1.062
 1146SOL    HW2 4338   6.081   2.110   1.001
 1147SOL     OW 4339   0.331   4.148   2.471
 1147SOL    HW1 4340   0.242   4.179   2.503
 1147SOL    HW2 4341   0.339   4.049   2.485
 1148SOL     OW 4342   3.713   6.292   6.345
 1148SOL    HW1 4343   3.656   6.334   6.416
 1148SOL    HW2 4344   3.768   6.363   6.300
 1149SOL     OW 4345   6.643   3.447   2.899
 1149SOL    HW1 4346   6.619   3.421   2.806
 1149SOL    HW2 4347   6.707   3.380   2.937
 1150SOL     OW 4348   2.017   4.995   0.801
 1150SOL    HW1 4349   2.060   4.926   0.860
 1150SOL    HW2 4350   2.045   5.086   0.831
 1151SOL     OW 4351   5.839   5.138   6.422
 1151SOL    HW1 4352   5.917   5.114   6.363
 1151SOL    HW2 4353   5.756   5.143   6.367
 1152SOL     OW 4354   1.573   0.042   4.958
 1152SOL    HW1 4355   1.594   0.124   4.906
 1152SOL    HW2 4356   1.607   0.052   5.052
 1153SOL     OW 4357   2.275   5.955   2.825
 1153SOL    HW1 4358   2.252   5.862   2.853
 1153SOL    HW2 4359   2.374   5.964   2.815
 1154SOL     OW 4360   0.652   3.754   2.174
 1154SOL    HW1 4361   0.714   3.818   2.219
 1154SOL    HW2 4362   0.559   3.769   2.208
 1155SOL     OW 4363   2.971   5.920   1.057
 1155SOL    HW1 4364   2.967   5.897   1.154
 1155SOL    HW2 4365   3.066   5.936   1.030
 1156SOL     OW 4366   2.609   0.869   4.101
 1156SOL    HW1 4367   2.631   0.854   4.005
 1156SOL    HW2 4368   2.518   0.832   4.121
 1157SOL     OW 4369   0.222   2.253   4.527
 1157SOL    HW1 4370   0.237   2.218   4.435
 1157SOL    HW2 4371   0.125   2.244   4.550
 1158SOL     OW 4372   5.525   4.771   6.050
 1158SOL    HW1 4373   5.601   4.766   5.984
 1158SOL    HW2 4374   5.458   4.839   6.018
 1159SOL     OW 4375   3.567   5.722   2.575
 1159SOL    HW1 4376   3.557   5.623   2.586
 1159SOL    HW2 4377   3.482   5.767   2.603
 1160SOL     OW 4378   4.080   3.604   2.638
 1160SOL    HW1 4379   4.101   3.684   2.695
 1160SOL    HW2 4380   4.075   3.522   2.695
 1161SOL     OW 4381   5.491   0.303   3.522
 1161SOL    HW1 4382   5.532   0.379   3.472
 1161SOL    HW2 4383   5.562   0.242   3.556
 1162SOL     OW 4384   3.564   3.473   1.928
 1162SOL    HW1 4385   3.573   3.537   2.003
 1162SOL    HW2 4386   3.468   3.466   1.901
 1163SOL     OW 4387   4.975   2.062   1.955
 1163SOL    HW1 4388   4.896   2.006   1.931
 1163SOL    HW2 4389   5.058   2.020   1.917
 1164SOL     OW 4390   5.365   2.737   2.806
 1164SOL    HW1 4391   5.391   2.789   2.725
 1164SOL    HW2 4392   5.329   2.800   2.876
 1165SOL     OW 4393   0.925   3.369   3.536
 1165SOL    HW1 4394   1.023   3.347   3.537
 1165SOL    HW2 4395   0.872   3.285   3.534
 1166SOL     OW 4396   4.282   2.601   6.197
 1166SOL    HW1 4397   4.304   2.661   6.120
 1166SOL    HW2 4398   4.228   2.524   6.166
 1167SOL     OW 4399   4.421   0.751   5.318
 1167SOL    HW1 4400   4.402   0.817   5.246
 1167SOL    HW2 4401   4.449   0.664   5.278
 1168SOL     OW 4402   6.995   6.488   3.748
 1168SOL    HW1 4403   6.951   6.419   3.691
 1168SOL    HW2 4404   6.928   6.557   3.775
 1169SOL     OW 4405   0.942   3.409   1.767
 1169SOL    HW1 4406   0.891   3.489   1.798
 1169SOL    HW2 4407   1.038   3.418   1.794
 1170SOL     OW 4408   3.489   1.373   2.693
 1170SOL    HW1 4409   3.498   1.275   2.710
 1170SOL    HW2 4410   3.488   1.391   2.595
 1171SOL     OW 4411   2.903   5.557   1.123
 1171SOL    HW1 4412   2.840   5.490   1.160
 1171SOL    HW2 4413   2.932   5.619   1.196
 1172SOL     OW 4414   3.241   3.669   4.283
 1172SOL    HW1 4415   3.155   3.695   4.238
 1172SOL    HW2 4416   3.306   3.745   4.277
 1173SOL     OW 4417   3.021   0.780   5.740
 1173SOL    HW1 4418   3.083   0.841   5.790
 1173SOL    HW2 4419   3.014   0.693   5.788
 1174SOL     OW 4420   2.570   6.113   0.770
 1174SOL    HW1 4421   2.646   6.051   0.751
 1174SOL    HW2 4422   2.486   6.060   0.781
 1175SOL     OW 4423   6.259   4.709   6.253
 1175SOL    HW1 4424   6.298   4.674   6.167
 1175SOL    HW2 4425   6.182   4.651   6.280
 1176SOL     OW 4426   5.874   4.998   0.996
 1176SOL    HW1 4427   5.786   4.970   1.035
 1176SOL    HW2 4428   5.921   5.059   1.060
 1177SOL     OW 4429   6.758   2.966   5.852
 1177SOL    HW1 4430   6.821   2.957   5.775
 1177SOL    HW2 4431   6.671   3.005   5.821
 1178SOL     OW 4432   5.405   3.370   2.511
 1178SOL    HW1 4433   5.445   3.434   2.445
 1178SOL    HW2 4434   5.313   3.345   2.480
 1179SOL     OW 4435   1.965   4.217   0.626
 1179SOL    HW1 4436   1.907   4.182   0.700
 1179SOL    HW2 4437   1.951   4.316   0.617
 1180SOL     OW 4438   2.173   1.628   3.761
 1180SOL    HW1 4439   2.217   1.703   3.812
 1180SOL    HW2 4440   2.243   1.566   3.727
 1181SOL     OW 4441   1.389   4.425   3.824
 1181SOL    HW1 4442   1.381   4.390   3.731
 1181SOL    HW2 4443   1.319   4.495   3.840
 1182SOL     OW 4444   1.837   4.342   3.646
 1182SOL    HW1 4445   1.890   4.426   3.661
 1182SOL    HW2 4446   1.742   4.357   3.675
 1183SOL     OW 4447   4.256   5.882   1.542
 1183SOL    HW1 4448   4.255   5.982   1.543
 1183SOL    HW2 4449   4.334   5.850   1.489
 1184SOL     OW 4450   3.036   2.895   5.352
 1184SOL    HW1 4451   2.947   2.850   5.356
 1184SOL    HW2 4452   3.067   2.914   5.446
 1185SOL     OW 4453   2.224   6.896   6.900
 1185SOL    HW1 4454   2.309   6.934   6.938
 1185SOL    HW2 4455   2.154   6.968   6.897
 1186SOL     OW 4456   5.964   0.894   4.587
 1186SOL    HW1 4457   5.891   0.827   4.577
 1186SOL    HW2 4458   6.040   0.870   4.525
 1187SOL     OW 4459   5.935   6.639   4.812
 1187SOL    HW1 4460   5.927   6.620   4.715
 1187SOL    HW2 4461   5.952   6.737   4.826
 1188SOL     OW 4462   2.075   6.556   5.759
 1188SOL    HW1 4463   2.141   6.630   5.768
 1188SOL    HW2 4464   2.038   6.532   5.849
 1189SOL     OW 4465   5.853   1.098   1.400
 1189SOL    HW1 4466   5.775   1.081   1.460
 1189SOL    HW2 4467   5.937   1.103   1.454
 1190SOL     OW 4468   4.045   5.274   3.149
 1190SOL    HW1 4469   4.113   5.212   3.190
 1190SOL    HW2 4470   4.011   5.234   3.064
 1191SOL     OW 4471   3.158   5.738   5.598
 1191SOL    HW1 4472   3.127   5.730   5.503
 1191SOL    HW2 4473   3.088   5.700   5.659
 1192SOL     OW 4474   6.082   4.564   2.931
 1192SOL    HW1 4475   6.103   4.643   2.989
 1192SOL    HW2 4476   6.012   4.589   2.864
 1193SOL     OW 4477   5.121   0.174   4.592
 1193SOL    HW1 4478   5.200   0.181   4.530
 1193SOL    HW2 4479   5.045   0.227   4.555
 1194SOL     OW 4480   6.467   0.867   1.070
 1194SOL    HW1 4481   6.516   0.781   1.082
 1194SOL    HW2 4482   6.374   0.848   1.038
 1195SOL     OW 4483   5.459   0.635   6.169
 1195SOL    HW1 4484   5.553   0.633   6.137
 1195SOL    HW2 4485   5.449   0.575   6.248
 1196SOL     OW 4486   0.045   5.186   2.577
 1196SOL    HW1 4487   0.088   5.205   2.489
 1196SOL    HW2 4488   0.008   5.093   2.576
 1197SOL     OW 4489   4.155   5.668   5.708
 1197SOL    HW1 4490   4.192   5.756   5.740
 1197SOL    HW2 4491   4.138   5.673   5.609
 1198SOL     OW 4492   3.388   1.992   3.037
 1198SOL    HW1 4493   3.394   2.019   3.133
 1198SOL    HW2 4494   3.295   2.008   3.005
 1199SOL     OW 4495   3.188   3.662   1.983
 1199SOL    HW1 4496   3.214   3.756   1.961
 1199SOL    HW2 4497   3.254   3.599   1.943
 1200SOL     OW 4498   3.899   4.097   6.277
 1200SOL    HW1 4499   3.949   4.170   6.325
 1200SOL    HW2 4500   3.840   4.138   6.207
 1201SOL     OW 4501   1.156   1.744   4.544
 1201SOL    HW1 4502   1.174   1.698   4.457
 1201SOL    HW2 4503   1.191   1.837   4.541
 1202SOL     OW 4504   5.139   0.491   4.911
 1202SOL    HW1 4505   5.221   0.535   4.949
 1202SOL    HW2 4506   5.073   0.562   4.884
 1203SOL     OW 4507   5.420   0.298   0.966
 1203SOL    HW1 4508   5.475   0.234   1.020
 1203SOL    HW2 4509   5.371   0.360   1.027
 1204SOL     OW 4510   3.489   1.199   0.359
 1204SOL    HW1 4511   3.492   1.137   0.281
 1204SOL    HW2 4512   3.455   1.151   0.439
 1205SOL     OW 4513   6.388   2.432   5.906
 1205SOL    HW1 4514   6.305   2.488   5.910
 1205SOL    HW2 4515   6.434   2.446   5.818
 1206SOL     OW 4516   1.546   1.782   4.681
 1206SOL    HW1 4517   1.574   1.761   4.587
 1206SOL    HW2 4518   1.577   1.709   4.742
 1207SOL     OW 4519   5.561   0.200   0.138
 1207SOL    HW1 4520   5.661   0.196   0.143
 1207SOL    HW2 4521   5.532   0.296   0.135
 1208SOL     OW 4522   3.435   3.796   2.569
 1208SOL    HW1 4523   3.404   3.740   2.492
 1208SOL    HW2 4524   3.370   3.786   2.645
 1209SOL     OW 4525   5.988   5.671   4.986
 1209SOL    HW1 4526   6.016   5.761   4.954
 1209SOL    HW2 4527   6.020   5.601   4.923
 1210SOL     OW 4528   4.227   0.192   2.636
 1210SOL    HW1 4529   4.325   0.176   2.653
 1210SOL    HW2 4530   4.194   0.264   2.698
 1211SOL     OW 4531   1.466   3.625   3.762
 1211SOL    HW1 4532   1.400   3.697   3.784
 1211SOL    HW2 4533   1.497   3.581   3.846
 1212SOL     OW 4534   1.250   4.282   4.755
 1212SOL    HW1 4535   1.229   4.238   4.842
 1212SOL    HW2 4536   1.266   4.213   4.685
 1213SOL     OW 4537   6.520   2.897   5.049
 1213SOL    HW1 4538   6.466   2.897   4.965
 1213SOL    HW2 4539   6.615   2.922   5.028
 1214SOL     OW 4540   1.812   3.818   4.243
 1214SOL    HW1 4541   1.817   3.790   4.339
 1214SOL    HW2 4542   1.905   3.833   4.208
 1215SOL     OW 4543   2.167   4.529   3.145
 1215SOL    HW1 4544   2.113   4.596   3.195
 1215SOL    HW2 4545   2.192   4.567   3.055
 1216SOL     OW 4546   1.106   6.624   1.552
 1216SOL    HW1 4547   1.135   6.710   1.510
 1216SOL    HW2 4548   1.142   6.548   1.498
 1217SOL     OW 4549   1.097   6.469   0.428
 1217SOL    HW1 4550   1.074   6.529   0.505
 1217SOL    HW2 4551   1.153   6.520   0.362
 1218SOL     OW 4552   0.688   3.657   4.523
 1218SOL    HW1 4553   0.614   3.636   4.459
 1218SOL    HW2 4554   0.696   3.756   4.535
 1219SOL     OW 4555   4.151   5.779   0.766
 1219SOL    HW1 4556   4.102   5.702   0.806
 1219SOL    HW2 4557   4.092   5.824   0.699
 1220SOL     OW 4558   5.611   2.612   2.822
 1220SOL    HW1 4559   5.603   2.548   2.745
 1220SOL    HW2 4560   5.524   2.657   2.837
 1221SOL     OW 4561   5.515   3.303   0.978
 1221SOL    HW1 4562   5.555   3.231   1.034
 1221SOL    HW2 4563   5.490   3.381   1.035
 1222SOL     OW 4564   0.061   6.857   0.479
 1222SOL    HW1 4565   6.981   6.840   0.468
 1222SOL    HW2 4566   0.112   6.794   0.421
 1223SOL     OW 4567   6.154   0.164   6.436
 1223SOL    HW1 4568   6.250   0.187   6.456
 1223SOL    HW2 4569   6.151   0.084   6.377
 1224SOL     OW 4570   4.425   5.793   0.742
 1224SOL    HW1 4571   4.325   5.780   0.745
 1224SOL    HW2 4572   4.445   5.891   0.743
 1225SOL     OW 4573   4.504   2.174   0.574
 1225SOL    HW1 4574   4.522   2.244   0.643
 1225SOL    HW2 4575   4.555   2.091   0.596
 1226SOL     OW 4576   5.991   5.814   1.350
 1226SOL    HW1 4577   5.908   5.798   1.404
 1226SOL    HW2 4578   6.055   5.870   1.403
 1227SOL     OW 4579   5.608   4.174   5.383
 1227SOL    HW1 4580   5.664   4.225   5.319
 1227SOL    HW2 4581   5.551   4.237   5.436
 1228SOL     OW 4582   3.622   3.125   2.254
 1228SOL    HW1 4583   3.537   3.173   2.275
 1228SOL    HW2 4584   3.610   3.027   2.267
 1229SOL     OW 4585   1.800   5.891   2.523
 1229SOL    HW1 4586   1.730   5.962   2.523
 1229SOL    HW2 4587   1.791   5.836   2.439
 1230SOL     OW 4588   4.802   5.099   2.108
 1230SOL    HW1 4589   4.864   5.081   2.185
 1230SOL    HW2 4590   4.783   5.197   2.103
 1231SOL     OW 4591   1.922   2.294   6.405
 1231SOL    HW1 4592   1.957   2.387   6.396
 1231SOL    HW2 4593   1.829   2.296   6.441
 1232SOL     OW 4594   3.219   0.405   5.238
 1232SOL    HW1 4595   3.317   0.420   5.255
 1232SOL    HW2 4596   3.193   0.448   5.151
 1233SOL     OW 4597   0.138   4.878   3.900
 1233SOL    HW1 4598   0.194   4.796   3.914
 1233SOL    HW2 4599   0.166   4.949   3.964
 1234SOL     OW 4600   6.977   3.290   6.471
 1234SOL    HW1 4601   6.910   3.251   6.535
 1234SOL    HW2 4602   0.002   3.369   6.513
 1235SOL     OW 4603   5.528   4.506   0.234
 1235SOL    HW1 4604   5.454   4.452   0.274
 1235SOL    HW2 4605   5.504   4.530   0.140
 1236SOL     OW 4606   2.221   0.866   0.861
 1236SOL    HW1 4607   2.261   0.776   0.847
 1236SOL    HW2 4608   2.294   0.933   0.875
 1237SOL     OW 4609   1.482   0.242   4.667
 1237SOL    HW1 4610   1.560   0.271   4.721
 1237SOL    HW2 4611   1.402   0.297   4.690
 1238SOL     OW 4612   0.191   6.815   3.876
 1238SOL    HW1 4613   0.197   6.763   3.790
 1238SOL    HW2 4614   0.205   6.753   3.953
 1239SOL     OW 4615   5.806   5.585   4.249
 1239SOL    HW1 4616   5.875   5.546   4.311
 1239SOL    HW2 4617   5.822   5.551   4.156
 1240SOL     OW 4618   6.037   5.121   2.665
 1240SOL    HW1 4619   6.048   5.178   2.746
 1240SOL    HW2 4620   5.939   5.109   2.645
 1241SOL     OW 4621   5.876   5.123   4.147
 1241SOL    HW1 4622   5.788   5.171   4.152
 1241SOL    HW2 4623   5.935   5.156   4.220
 1242SOL     OW 4624   1.431   3.879   6.890
 1242SOL    HW1 4625   1.412   3.836   6.979
 1242SOL    HW2 4626   1.482   3.964   6.904
 1243SOL     OW 4627   1.160   4.125   4.959
 1243SOL    HW1 4628   1.108   4.051   5.000
 1243SOL    HW2 4629   1.257   4.101   4.957
 1244SOL     OW 4630   5.590   6.886   4.776
 1244SOL    HW1 4631   5.564   6.970   4.729
 1244SOL    HW2 4632   5.656   6.835   4.720
 1245SOL     OW 4633   5.372   6.402   1.699
 1245SOL    HW1 4634   5.318   6.322   1.673
 1245SOL    HW2 4635   5.347   6.479   1.639
 1246SOL     OW 4636   4.813   2.038   0.675
 1246SOL    HW1 4637   4.881   1.995   0.733
 1246SOL    HW2 4638   4.789   1.976   0.600
 1247SOL     OW 4639   6.611   6.420   3.533
 1247SOL    HW1 4640   6.703   6.451   3.555
 1247SOL    HW2 4641   6.582   6.460   3.446
 1248SOL     OW 4642   0.244   6.962   4.955
 1248SOL    HW1 4643   0.147   6.949   4.935
 1248SOL    HW2 4644   0.253   7.003   5.046
 1249SOL     OW 4645   0.490   4.427   1.008
 1249SOL    HW1 4646   0.442   4.366   0.945
 1249SOL    HW2 4647   0.434   4.441   1.090
 1250SOL     OW 4648   5.841   3.176   5.412
 1250SOL    HW1 4649   5.816   3.082   5.389
 1250SOL    HW2 4650   5.940   3.188   5.401
 1251SOL     OW 4651   2.420   0.638   2.432
 1251SOL    HW1 4652   2.503   0.683   2.399
 1251SOL    HW2 4653   2.409   0.551   2.383
 1252SOL     OW 4654   2.129   5.349   0.056
 1252SOL    HW1 4655   2.133   5.327   0.153
 1252SOL    HW2 4656   2.152   5.268   0.002
 1253SOL     OW 4657   3.303   0.944   0.953
 1253SOL    HW1 4658   3.269   0.874   1.016
 1253SOL    HW2 4659   3.227   0.979   0.898
 1254SOL     OW 4660   6.387   1.239   2.411
 1254SOL    HW1 4661   6.348   1.319   2.365
 1254SOL    HW2 4662   6.446   1.270   2.486
 1255SOL     OW 4663   5.214   1.889   5.032
 1255SOL    HW1 4664   5.236   1.817   5.099
 1255SOL    HW2 4665   5.298   1.933   5.002
 1256SOL     OW 4666   0.261   5.765   4.176
 1256SOL    HW1 4667   0.269   5.693   4.107
 1256SOL    HW2 4668   0.188   5.828   4.150
 1257SOL     OW 4669   0.471   4.745   3.845
 1257SOL    HW1 4670   0.516   4.834   3.840
 1257SOL    HW2 4671   0.531   4.675   3.807
 1258SOL     OW 4672   3.297   6.359   4.509
 1258SOL    HW1 4673   3.392   6.332   4.499
 1258SOL    HW2 4674   3.256   6.371   4.418
 1259SOL     OW 4675   4.907   0.468   5.191
 1259SOL    HW1 4676   4.900   0.543   5.126
 1259SOL    HW2 4677   4.979   0.488   5.258
 1260SOL     OW 4678   1.718   0.330   2.337
 1260SOL    HW1 4679   1.675   0.413   2.301
 1260SOL    HW2 4680   1.765   0.282   2.263
 1261SOL     OW 4681   6.941   4.695   6.362
 1261SOL    HW1 4682   6.955   4.597   6.377
 1261SOL    HW2 4683   6.857   4.724   6.408
 1262SOL     OW 4684   5.104   5.137   0.986
 1262SOL    HW1 4685   5.031   5.095   1.040
 1262SOL    HW2 4686   5.114   5.233   1.012
 1263SOL     OW 4687   0.314   2.218   0.977
 1263SOL    HW1 4688   0.390   2.244   0.917
 1263SOL    HW2 4689   0.294   2.121   0.966
 1264SOL     OW 4690   0.699   3.310   3.108
 1264SOL    HW1 4691   0.789   3.269   3.095
 1264SOL    HW2 4692   0.659   3.277   3.193
 1265SOL     OW 4693   0.090   4.267   4.874
 1265SOL    HW1 4694   7.016   4.302   4.861
 1265SOL    HW2 4695   0.146   4.292   4.795
 1266SOL     OW 4696   3.219   1.730   5.210
 1266SOL    HW1 4697   3.307   1.683   5.222
 1266SOL    HW2 4698   3.176   1.699   5.126
 1267SOL     OW 4699   0.322   4.945   3.316
 1267SOL    HW1 4700   0.304   4.851   3.287
 1267SOL    HW2 4701   0.417   4.954   3.345
 1268SOL     OW 4702   5.553   2.742   6.138
 1268SOL    HW1 4703   5.573   2.828   6.186
 1268SOL    HW2 4704   5.477   2.756   6.075
 1269SOL     OW 4705   6.922   5.978   5.297
 1269SOL    HW1 4706   6.942   6.065   5.343
 1269SOL    HW2 4707   6.858   5.994   5.222
 1270SOL     OW 4708   2.116   3.802   4.665
 1270SOL    HW1 4709   2.075   3.883   4.624
 1270SOL    HW2 4710   2.150   3.741   4.593
 1271SOL     OW 4711   3.310   1.681   2.592
 1271SOL    HW1 4712   3.270   1.599   2.551
 1271SOL    HW2 4713   3.243   1.722   2.655
 1272SOL     OW 4714   6.570   5.265   1.253
 1272SOL    HW1 4715   6.593   5.347   1.305
 1272SOL    HW2 4716   6.483   5.278   1.206
 1273SOL     OW 4717   2.569   4.778   6.835
 1273SOL    HW1 4718   2.551   4.695   6.782
 1273SOL    HW2 4719   2.654   4.767   6.887
 1274SOL     OW 4720   0.050   2.698   1.490
 1274SOL    HW1 4721   0.058   2.739   1.581
 1274SOL    HW2 4722   6.972   2.693   1.465
 1275SOL     OW 4723   4.384   0.815   4.716
 1275SOL    HW1 4724   4.362   0.778   4.626
 1275SOL    HW2 4725   4.396   0.740   4.781
 1276SOL     OW 4726   0.065   0.384   2.248
 1276SOL    HW1 4727   0.067   0.332   2.333
 1276SOL    HW2 4728   0.034   0.477   2.266
 1277SOL     OW 4729   0.168   0.752   4.511
 1277SOL    HW1 4730   0.239   0.758   4.580
 1277SOL    HW2 4731   0.185   0.819   4.439
 1278SOL     OW 4732   1.903   1.939   5.532
 1278SOL    HW1 4733   1.877   2.001   5.458
 1278SOL    HW2 4734   1.820   1.908   5.580
 1279SOL     OW 4735   2.873   6.374   0.654
 1279SOL    HW1 4736   2.784   6.367   0.698
 1279SOL    HW2 4737   2.938   6.312   0.697
 1280SOL     OW 4738   2.204   0.021   3.115
 1280SOL    HW1 4739   2.112   0.009   3.153
 1280SOL    HW2 4740   2.206   7.002   3.023
 1281SOL     OW 4741   1.705   6.125   3.245
 1281SOL    HW1 4742   1.744   6.098   3.157
 1281SOL    HW2 4743   1.605   6.118   3.240
 1282SOL     OW 4744   0.754   1.354   1.104
 1282SOL    HW1 4745   0.849   1.376   1.127
 1282SOL    HW2 4746   0.738   1.373   1.007
 1283SOL     OW 4747   5.494   4.350   5.612
 1283SOL    HW1 4748   5.396   4.332   5.615
 1283SOL    HW2 4749   5.518   4.419   5.681
 1284SOL     OW 4750   2.652   2.576   1.731
 1284SOL    HW1 4751   2.554   2.558   1.746
 1284SOL    HW2 4752   2.705   2.521   1.795
 1285SOL     OW 4753   4.864   2.908   6.205
 1285SOL    HW1 4754   4.963   2.900   6.207
 1285SOL    HW2 4755   4.836   2.988   6.259
 1286SOL     OW 4756   5.418   4.094   2.284
 1286SOL    HW1 4757   5.470   4.171   2.247
 1286SOL    HW2 4758   5.419   4.099   2.384
 1287SOL     OW 4759   5.738   5.489   6.686
 1287SOL    HW1 4760   5.827   5.486   6.731
 1287SOL    HW2 4761   5.683   5.562   6.727
 1288SOL     OW 4762   0.613   2.635   6.988
 1288SOL    HW1 4763   0.562   2.553   6.963
 1288SOL    HW2 4764   0.709   2.611   7.004
 1289SOL     OW 4765   6.773   6.345   2.240
 1289SOL    HW1 4766   6.743   6.281   2.169
 1289SOL    HW2 4767   6.832   6.297   2.304
 1290SOL     OW 4768   0.473   0.346   6.727
 1290SOL    HW1 4769   0.384   0.332   6.770
 1290SOL    HW2 4770   0.479   0.441   6.695
 1291SOL     OW 4771   1.395   4.948   6.216
 1291SOL    HW1 4772   1.407   4.853   6.245
 1291SOL    HW2 4773   1.481   4.998   6.227
 1292SOL     OW 4774   6.990   4.612   1.285
 1292SOL    HW1 4775   6.952   4.697   1.246
 1292SOL    HW2 4776   6.927   4.575   1.353
 1293SOL     OW 4777   2.267   1.856   6.695
 1293SOL    HW1 4778   2.298   1.950   6.708
 1293SOL    HW2 4779   2.213   1.850   6.611
 1294SOL     OW 4780   0.580   3.277   2.290
 1294SOL    HW1 4781   0.501   3.336   2.275
 1294SOL    HW2 4782   0.591   3.216   2.212
 1295SOL     OW 4783   5.438   2.893   2.359
 1295SOL    HW1 4784   5.429   2.970   2.297
 1295SOL    HW2 4785   5.350   2.877   2.405
 1296SOL     OW 4786   3.589   2.281   6.054
 1296SOL    HW1 4787   3.663   2.347   6.047
 1296SOL    HW2 4788   3.512   2.322   6.104
 1297SOL     OW 4789   6.284   1.707   5.585
 1297SOL    HW1 4790   6.242   1.657   5.509
 1297SOL    HW2 4791   6.383   1.692   5.584
 1298SOL     OW 4792   5.553   3.465   3.160
 1298SOL    HW1 4793   5.472   3.416   3.193
 1298SOL    HW2 4794   5.635   3.423   3.197
 1299SOL     OW 4795   1.748   4.012   3.263
 1299SOL    HW1 4796   1.749   4.040   3.359
 1299SOL    HW2 4797   1.839   3.980   3.237
 1300SOL     OW 4798   3.118   3.335   1.627
 1300SOL    HW1 4799   3.107   3.271   1.703
 1300SOL    HW2 4800   3.032   3.344   1.577
 1301SOL     OW 4801   1.000   6.834   3.638
 1301SOL    HW1 4802   1.084   6.876   3.602
 1301SOL    HW2 4803   0.920   6.882   3.602
 1302SOL     OW 4804   1.999   6.332   5.310
 1302SOL    HW1 4805   2.010   6.408   5.374
 1302SOL    HW2 4806   2.079   6.272   5.316
 1303SOL     OW 4807   3.950   1.573   1.213
 1303SOL    HW1 4808   4.000   1.495   1.176
 1303SOL    HW2 4809   4.012   1.652   1.219
 1304SOL     OW 4810   1.576   0.413   6.336
 1304SOL    HW1 4811   1.636   0.443   6.262
 1304SOL    HW2 4812   1.556   0.316   6.326
 1305SOL     OW 4813   4.844   6.027   4.503
 1305SOL    HW1 4814   4.926   6.021   4.560
 1305SOL    HW2 4815   4.768   5.980   4.549
 1306SOL     OW 4816   1.537   4.095   4.696
 1306SOL    HW1 4817   1.550   4.023   4.627
 1306SOL    HW2 4818   1.612   4.091   4.762
 1307SOL     OW 4819   1.474   3.144   5.058
 1307SOL    HW1 4820   1.457   3.204   4.980
 1307SOL    HW2 4821   1.546   3.079   5.035
 1308SOL     OW 4822   4.465   5.582   4.148
 1308SOL    HW1 4823   4.480   5.660   4.087
 1308SOL    HW2 4824   4.544   5.520   4.141
 1309SOL     OW 4825   5.208   3.053   5.198
 1309SOL    HW1 4826   5.123   3.020   5.157
 1309SOL    HW2 4827   5.191   3.080   5.293
 1310SOL     OW 4828   6.074   4.077   4.379
 1310SOL    HW1 4829   6.091   4.031   4.291
 1310SOL    HW2 4830   5.996   4.138   4.370
 1311SOL     OW 4831   6.083   0.055   4.270
 1311SOL    HW1 4832   6.023   0.072   4.192
 1311SOL    HW2 4833   6.068   0.125   4.340
 1312SOL     OW 4834   0.690   0.662   0.020
 1312SOL    HW1 4835   0.708   0.570   0.056
 1312SOL    HW2 4836   0.632   0.713   0.084
 1313SOL     OW 4837   3.220   5.729   4.881
 1313SOL    HW1 4838   3.238   5.633   4.860
 1313SOL    HW2 4839   3.301   5.771   4.921
 1314SOL     OW 4840   1.176   1.773   5.778
 1314SOL    HW1 4841   1.174   1.699   5.711
 1314SOL    HW2 4842   1.223   1.741   5.861
 1315SOL     OW 4843   1.837   1.188   1.078
 1315SOL    HW1 4844   1.887   1.109   1.114
 1315SOL    HW2 4845   1.756   1.157   1.029
 1316SOL     OW 4846   2.208   0.350   3.611
 1316SOL    HW1 4847   2.142   0.418   3.580
 1316SOL    HW2 4848   2.284   0.396   3.658
 1317SOL     OW 4849   0.683   4.348   4.433
 1317SOL    HW1 4850   0.766   4.294   4.446
 1317SOL    HW2 4851   0.708   4.441   4.406
 1318SOL     OW 4852   0.337   1.046   0.547
 1318SOL    HW1 4853   0.310   0.986   0.472
 1318SOL    HW2 4854   0.289   1.019   0.631
 1319SOL     OW 4855   6.659   1.220   0.933
 1319SOL    HW1 4856   6.743   1.272   0.947
 1319SOL    HW2 4857   6.676   1.144   0.871
 1320SOL     OW 4858   5.867   4.498   6.439
 1320SOL    HW1 4859   5.799   4.469   6.371
 1320SOL    HW2 4860   5.828   4.490   6.531
 1321SOL     OW 4861   4.506   3.422   0.054
 1321SOL    HW1 4862   4.462   3.332   0.058
 1321SOL    HW2 4863   4.540   3.439   6.981
 1322SOL     OW 4864   6.143   0.904   3.501
 1322SOL    HW1 4865   6.055   0.869   3.531
 1322SOL    HW2 4866   6.147   0.904   3.401
 1323SOL     OW 4867   6.239   1.482   5.364
 1323SOL    HW1 4868   6.176   1.551   5.327
 1323SOL    HW2 4869   6.190   1.423   5.428
 1324SOL     OW 4870   1.655   2.469   1.556
 1324SOL    HW1 4871   1.609   2.508   1.636
 1324SOL    HW2 4872   1.587   2.450   1.485
 1325SOL     OW 4873   1.776   6.396   3.296
 1325SOL    HW1 4874   1.857   6.377   3.351
 1325SOL    HW2 4875   1.728   6.311   3.275
 1326SOL     OW 4876   5.021   2.386   4.620
 1326SOL    HW1 4877   4.935   2.386   4.670
 1326SOL    HW2 4878   5.092   2.344   4.676
 1327SOL     OW 4879   2.773   5.399   2.770
 1327SOL    HW1 4880   2.684   5.443   2.785
 1327SOL    HW2 4881   2.787   5.328   2.838
 1328SOL     OW 4882   1.684   2.355   6.056
 1328SOL    HW1 4883   1.783   2.372   6.058
 1328SOL    HW2 4884   1.666   2.262   6.088
 1329SOL     OW 4885   0.579   1.476   0.336
 1329SOL    HW1 4886   0.527   1.549   0.380
 1329SOL    HW2 4887   0.666   1.512   0.302
 1330SOL     OW 4888   6.574   0.629   1.021
 1330SOL    HW1 4889   6.587   0.540   1.066
 1330SOL    HW2 4890   6.555   0.615   0.924
 1331SOL     OW 4891   5.686   0.890   2.454
 1331SOL    HW1 4892   5.681   0.936   2.542
 1331SOL    HW2 4893   5.766   0.922   2.404
 1332SOL     OW 4894   4.218   1.984   1.731
 1332SOL    HW1 4895   4.188   2.042   1.806
 1332SOL    HW2 4896   4.300   2.023   1.689
 1333SOL     OW 4897   3.659   4.175   5.014
 1333SOL    HW1 4898   3.660   4.151   5.111
 1333SOL    HW2 4899   3.598   4.253   4.999
 1334SOL     OW 4900   1.427   4.026   4.990
 1334SOL    HW1 4901   1.429   4.036   5.090
 1334SOL    HW2 4902   1.517   4.050   4.953
 1335SOL     OW 4903   2.176   6.155   2.647
 1335SOL    HW1 4904   2.233   6.237   2.652
 1335SOL    HW2 4905   2.218   6.081   2.700
 1336SOL     OW 4906   1.258   1.718   6.781
 1336SOL    HW1 4907   1.175   1.773   6.771
 1336SOL    HW2 4908   1.309   1.749   6.861
 1337SOL     OW 4909   1.947   2.602   6.394
 1337SOL    HW1 4910   1.870   2.621   6.333
 1337SOL    HW2 4911   2.033   2.622   6.346
 1338SOL     OW 4912   4.323   4.382   6.381
 1338SOL    HW1 4913   4.417   4.382   6.347
 1338SOL    HW2 4914   4.311   4.458   6.446
 1339SOL     OW 4915   6.941   4.823   6.116
 1339SOL    HW1 4916   6.841   4.828   6.111
 1339SOL    HW2 4917   6.968   4.777   6.200
 1340SOL     OW 4918   1.300   2.182   0.383
 1340SOL    HW1 4919   1.393   2.203   0.352
 1340SOL    HW2 4920   1.292   2.204   0.481
 1341SOL     OW 4921   3.795   1.075   4.619
 1341SOL    HW1 4922   3.757   1.027   4.540
 1341SOL    HW2 4923   3.758   1.035   4.703
 1342SOL     OW 4924   1.017   6.242   6.383
 1342SOL    HW1 4925   1.035   6.248   6.285
 1342SOL    HW2 4926   1.082   6.298   6.433
 1343SOL     OW 4927   3.488   6.150   2.405
 1343SOL    HW1 4928   3.500   6.051   2.398
 1343SOL    HW2 4929   3.541   6.184   2.483
 1344SOL     OW 4930   6.467   1.886   2.727
 1344SOL    HW1 4931   6.395   1.900   2.795
 1344SOL    HW2 4932   6.440   1.929   2.641
 1345SOL     OW 4933   0.556   0.987   3.243
 1345SOL    HW1 4934   0.562   1.082   3.211
 1345SOL    HW2 4935   0.580   0.925   3.168
 1346SOL     OW 4936   0.238   6.811   3.550
 1346SOL    HW1 4937   0.248   6.721   3.592
 1346SOL    HW2 4938   0.240   6.802   3.450
 1347SOL     OW 4939   6.566   6.528   3.295
 1347SOL    HW1 4940   6.543   6.593   3.222
 1347SOL    HW2 4941   6.597   6.443   3.254
 1348SOL     OW 4942   5.689   4.887   4.067
 1348SOL    HW1 4943   5.771   4.864   4.120
 1348SOL    HW2 4944   5.642   4.803   4.041
 1349SOL     OW 4945   4.534   2.780   0.274
 1349SOL    HW1 4946   4.534   2.880   0.285
 1349SOL    HW2 4947   4.628   2.747   0.275
 1350SOL     OW 4948   3.192   5.635   6.604
 1350SOL    HW1 4949   3.120   5.634   6.673
 1350SOL    HW2 4950   3.259   5.564   6.625
 1351SOL     OW 4951   0.410   0.337   4.032
 1351SOL    HW1 4952   0.451   0.417   3.989
 1351SOL    HW2 4953   0.310   0.343   4.023
 1352SOL     OW 4954   6.911   0.572   3.147
 1352SOL    HW1 4955   6.924   0.671   3.139
 1352SOL    HW2 4956   6.822   0.553   3.187
 1353SOL     OW 4957   0.243   4.206   5.107
 1353SOL    HW1 4958   0.197   4.177   5.191
 1353SOL    HW2 4959   0.176   4.222   5.036
 1354SOL     OW 4960   0.226   0.551   1.223
 1354SOL    HW1 4961   0.305   0.585   1.274
 1354SOL    HW2 4962   0.144   0.557   1.280
 1355SOL     OW 4963   5.198   4.014   0.214
 1355SOL    HW1 4964   5.109   4.025   0.170
 1355SOL    HW2 4965   5.188   3.955   0.295
 1356SOL     OW 4966   3.324   4.106   2.534
 1356SOL    HW1 4967   3.321   4.051   2.451
 1356SOL    HW2 4968   3.416   4.105   2.572
 1357SOL     OW 4969   2.621   3.005   6.977
 1357SOL    HW1 4970   2.701   2.974   6.925
 1357SOL    HW2 4971   2.652   3.057   0.039
 1358SOL     OW 4972   2.343   2.746   6.484
 1358SOL    HW1 4973   2.349   2.814   6.557
 1358SOL    HW2 4974   2.370   2.657   6.520
 1359SOL     OW 4975   6.145   3.725   1.457
 1359SOL    HW1 4976   6.241   3.701   1.439
 1359SOL    HW2 4977   6.113   3.677   1.539
 1360SOL     OW 4978   3.595   3.708   3.370
 1360SOL    HW1 4979   3.557   3.768   3.301
 1360SOL    HW2 4980   3.676   3.751   3.411
 1361SOL     OW 4981   0.782   6.575   6.416
 1361SOL    HW1 4982   0.841   6.599   6.340
 1361SOL    HW2 4983   0.746   6.482   6.402
 1362SOL     OW 4984   3.055   3.521   5.753
 1362SOL    HW1 4985   2.955   3.519   5.761
 1362SOL    HW2 4986   3.092   3.591   5.814
 1363SOL     OW 4987   6.722   5.845   3.258
 1363SOL    HW1 4988   6.665   5.925   3.239
 1363SOL    HW2 4989   6.759   5.852   3.351
 1364SOL     OW 4990   0.050   3.437   0.816
 1364SOL    HW1 4991   0.077   3.341   0.806
 1364SOL    HW2 4992   0.009   3.469   0.731
 1365SOL     OW 4993   1.284   3.293   5.911
 1365SOL    HW1 4994   1.332   3.269   5.995
 1365SOL    HW2 4995   1.281   3.393   5.901
 1366SOL     OW 4996   6.925   2.562   0.734
 1366SOL    HW1 4997   6.900   2.491   0.799
 1366SOL    HW2 4998   6.978   2.633   0.780
 1367SOL     OW 4999   0.884   4.057   3.694
 1367SOL    HW1 5000   0.786   4.035   3.694
 1367SOL    HW2 5001   0.911   4.091   3.604
 1368SOL     OW 5002   6.563   6.979   4.363
 1368SOL    HW1 5003   6.494   0.020   4.406
 1368SOL    HW2 5004   6.606   0.009   4.287
 1369SOL     OW 5005   1.622   6.093   2.405
 1369SOL    HW1 5006   1.663   6.164   2.463
 1369SOL    HW2 5007   1.615   6.127   2.311
 1370SOL     OW 5008   6.787   2.551   4.231
 1370SOL    HW1 5009   6.709   2.554   4.168
 1370SOL    HW2 5010   6.832   2.640   4.232
 1371SOL     OW 5011   5.950   1.449   4.727
 1371SOL    HW1 5012   5.905   1.440   4.639
 1371SOL    HW2 5013   6.039   1.492   4.715
 1372SOL     OW 5014   6.344   3.081   0.313
 1372SOL    HW1 5015   6.416   3.085   0.383
 1372SOL    HW2 5016   6.274   3.016   0.341
 1373SOL     OW 5017   4.406   2.488   1.158
 1373SOL    HW1 5018   4.371   2.582   1.169
 1373SOL    HW2 5019   4.381   2.434   1.238
 1374SOL     OW 5020   5.055   3.516   1.054
 1374SOL    HW1 5021   5.031   3.557   1.142
 1374SOL    HW2 5022   5.152   3.490   1.054
 1375SOL     OW 5023   6.786   6.102   5.582
 1375SOL    HW1 5024   6.771   6.008   5.611
 1375SOL    HW2 5025   6.747   6.164   5.650
 1376SOL     OW 5026   2.903   4.997   6.454
 1376SOL    HW1 5027   2.839   4.977   6.380
 1376SOL    HW2 5028   2.863   5.064   6.516
 1377SOL     OW 5029   0.958   2.625   3.686
 1377SOL    HW1 5030   1.017   2.612   3.607
 1377SOL    HW2 5031   1.001   2.690   3.750
 1378SOL     OW 5032   4.230   2.298   4.596
 1378SOL    HW1 5033   4.267   2.316   4.504
 1378SOL    HW2 5034   4.130   2.303   4.593
 1379SOL     OW 5035   5.037   4.927   1.907
 1379SOL    HW1 5036   5.108   4.962   1.845
 1379SOL    HW2 5037   4.992   5.003   1.952
 1380SOL     OW 5038   6.284   6.258   1.343
 1380SOL    HW1 5039   6.280   6.356   1.322
 1380SOL    HW2 5040   6.312   6.247   1.439
 1381SOL     OW 5041   6.000   2.343   5.806
 1381SOL    HW1 5042   6.009   2.443   5.810
 1381SOL    HW2 5043   6.001   2.305   5.898
 1382SOL     OW 5044   4.643   2.588   1.476
 1382SOL    HW1 5045   4.609   2.566   1.567
 1382SOL    HW2 5046   4.735   2.551   1.464
 1383SOL     OW 5047   1.519   6.584   2.031
 1383SOL    HW1 5048   1.598   6.531   2.000
 1383SOL    HW2 5049   1.437   6.554   1.982
 1384SOL     OW 5050   4.684   0.468   0.373
 1384SOL    HW1 5051   4.606   0.407   0.362
 1384SOL    HW2 5052   4.691   0.496   0.468
 1385SOL     OW 5053   1.814   4.588   3.485
 1385SOL    HW1 5054   1.889   4.610   3.422
 1385SOL    HW2 5055   1.756   4.518   3.444
 1386SOL     OW 5056   3.148   6.370   3.936
 1386SOL    HW1 5057   3.230   6.315   3.955
 1386SOL    HW2 5058   3.068   6.324   3.973
 1387SOL     OW 5059   3.862   5.645   1.266
 1387SOL    HW1 5060   3.765   5.651   1.246
 1387SOL    HW2 5061   3.914   5.687   1.192
 1388SOL     OW 5062   5.784   0.343   1.601
 1388SOL    HW1 5063   5.695   0.354   1.646
 1388SOL    HW2 5064   5.796   0.417   1.534
 1389SOL     OW 5065   6.165   0.859   3.216
 1389SOL    HW1 5066   6.131   0.777   3.170
 1389SOL    HW2 5067   6.091   0.924   3.227
 1390SOL     OW 5068   1.229   3.245   6.678
 1390SOL    HW1 5069   1.164   3.320   6.666
 1390SOL    HW2 5070   1.272   3.251   6.768
 1391SOL     OW 5071   6.857   1.306   3.857
 1391SOL    HW1 5072   6.856   1.206   3.856
 1391SOL    HW2 5073   6.906   1.339   3.776
 1392SOL     OW 5074   5.744   5.130   6.147
 1392SOL    HW1 5075   5.749   5.114   6.049
 1392SOL    HW2 5076   5.744   5.042   6.195
 1393SOL     OW 5077   6.388   5.740   5.355
 1393SOL    HW1 5078   6.447   5.761   5.277
 1393SOL    HW2 5079   6.300   5.706   5.322
 1394SOL     OW 5080   2.843   5.550   5.340
 1394SOL    HW1 5081   2.859   5.486   5.414
 1394SOL    HW2 5082   2.813   5.500   5.258
 1395SOL     OW 5083   2.785   4.752   5.927
 1395SOL    HW1 5084   2.713   4.685   5.907
 1395SOL    HW2 5085   2.773   4.832   5.869
 1396SOL     OW 5086   1.309   0.407   3.857
 1396SOL    HW1 5087   1.362   0.392   3.940
 1396SOL    HW2 5088   1.211   0.407   3.879
 1397SOL     OW 5089   6.936   0.555   4.477
 1397SOL    HW1 5090   6.963   0.469   4.434
 1397SOL    HW2 5091   7.017   0.604   4.508
 1398SOL     OW 5092   1.722   0.615   5.737
 1398SOL    HW1 5093   1.640   0.633   5.682
 1398SOL    HW2 5094   1.727   0.517   5.758
 1399SOL     OW 5095   3.632   6.562   1.416
 1399SOL    HW1 5096   3.600   6.472   1.388
 1399SOL    HW2 5097   3.632   6.568   1.516
 1400SOL     OW 5098   0.409   1.976   2.650
 1400SOL    HW1 5099   0.384   1.935   2.737
 1400SOL    HW2 5100   0.436   1.904   2.586
 1401SOL     OW 5101   6.959   1.350   5.536
 1401SOL    HW1 5102   7.006   1.423   5.487
 1401SOL    HW2 5103   6.890   1.390   5.596
 1402SOL     OW 5104   0.238   3.909   6.907
 1402SOL    HW1 5105   0.203   3.987   6.958
 1402SOL    HW2 5106   0.256   3.936   6.812
 1403SOL     OW 5107   2.798   1.231   1.746
 1403SOL    HW1 5108   2.879   1.175   1.763
 1403SOL    HW2 5109   2.747   1.194   1.669
 1404SOL     OW 5110   5.535   0.386   0.478
 1404SOL    HW1 5111   5.575   0.391   0.387
 1404SOL    HW2 5112   5.457   0.448   0.483
 1405SOL     OW 5113   2.346   4.144   1.096
 1405SOL    HW1 5114   2.443   4.139   1.070
 1405SOL    HW2 5115   2.291   4.166   1.016
 1406SOL     OW 5116   1.561   5.426   1.716
 1406SOL    HW1 5117   1.581   5.329   1.698
 1406SOL    HW2 5118   1.627   5.482   1.666
 1407SOL     OW 5119   0.289   1.793   1.913
 1407SOL    HW1 5120   0.355   1.840   1.854
 1407SOL    HW2 5121   0.215   1.856   1.935
 1408SOL     OW 5122   5.247   0.707   5.984
 1408SOL    HW1 5123   5.260   0.644   5.908
 1408SOL    HW2 5124   5.324   0.699   6.048
 1409SOL     OW 5125   0.585   0.028   5.656
 1409SOL    HW1 5126   0.542   6.957   5.661
 1409SOL    HW2 5127   0.590   0.068   5.748
 1410SOL     OW 5128   2.237   3.723   6.553
 1410SOL    HW1 5129   2.225   3.711   6.454
 1410SOL    HW2 5130   2.204   3.814   6.579
 1411SOL     OW 5131   2.779   6.267   3.171
 1411SOL    HW1 5132   2.720   6.196   3.210
 1411SOL    HW2 5133   2.735   6.356   3.181
 1412SOL     OW 5134   0.446   2.104   7.017
 1412SOL    HW1 5135   0.501   2.082   0.079
 1412SOL    HW2 5136   0.491   2.069   6.935
 1413SOL     OW 5137   1.778   0.845   5.001
 1413SOL    HW1 5138   1.867   0.891   5.010
 1413SOL    HW2 5139   1.719   0.898   4.940
 1414SOL     OW 5140   2.425   1.163   1.696
 1414SOL    HW1 5141   2.388   1.075   1.667
 1414SOL    HW2 5142   2.452   1.158   1.793
 1415SOL     OW 5143   2.768   0.581   4.223
 1415SOL    HW1 5144   2.676   0.569   4.187
 1415SOL    HW2 5145   2.804   0.492   4.252
 1416SOL     OW 5146   4.645   4.601   3.730
 1416SOL    HW1 5147   4.657   4.690   3.685
 1416SOL    HW2 5148   4.558   4.600   3.778
 1417SOL     OW 5149   2.118   2.076   0.455
 1417SOL    HW1 5150   2.076   1.998   0.409
 1417SOL    HW2 5151   2.178   2.124   0.391
 1418SOL     OW 5152   2.970   3.308   3.484
 1418SOL    HW1 5153   2.948   3.362   3.403
 1418SOL    HW2 5154   2.971   3.367   3.564
 1419SOL     OW 5155   3.161   6.571   4.700
 1419SOL    HW1 5156   3.204   6.507   4.636
 1419SOL    HW2 5157   3.088   6.523   4.750
 1420SOL     OW 5158   1.958   6.325   2.019
 1420SOL    HW1 5159   1.944   6.309   2.117
 1420SOL    HW2 5160   1.902   6.261   1.967
 1421SOL     OW 5161   1.949   2.805   3.027
 1421SOL    HW1 5162   1.902   2.740   3.086
 1421SOL    HW2 5163   1.955   2.893   3.073
 1422SOL     OW 5164   2.536   4.495   1.894
 1422SOL    HW1 5165   2.459   4.435   1.871
 1422SOL    HW2 5166   2.561   4.482   1.990
 1423SOL     OW 5167   4.913   6.423   2.296
 1423SOL    HW1 5168   4.929   6.382   2.385
 1423SOL    HW2 5169   4.993   6.410   2.238
 1424SOL     OW 5170   6.540   4.121   4.916
 1424SOL    HW1 5171   6.485   4.180   4.975
 1424SOL    HW2 5172   6.630   4.107   4.958
 1425SOL     OW 5173   1.794   6.363   4.402
 1425SOL    HW1 5174   1.728   6.359   4.478
 1425SOL    HW2 5175   1.746   6.349   4.316
 1426SOL     OW 5176   1.035   2.774   5.534
 1426SOL    HW1 5177   1.062   2.690   5.582
 1426SOL    HW2 5178   1.083   2.852   5.574
 1427SOL     OW 5179   0.284   6.812   2.900
 1427SOL    HW1 5180   0.249   6.762   2.820
 1427SOL    HW2 5181   0.374   6.776   2.925
 1428SOL     OW 5182   5.660   2.420   0.964
 1428SOL    HW1 5183   5.613   2.479   0.898
 1428SOL    HW2 5184   5.628   2.441   1.056
 1429SOL     OW 5185   6.292   2.247   0.130
 1429SOL    HW1 5186   6.235   2.329   0.137
 1429SOL    HW2 5187   6.239   2.173   0.089
 1430SOL     OW 5188   1.995   4.567   3.765
 1430SOL    HW1 5189   2.042   4.615   3.692
 1430SOL    HW2 5190   1.970   4.631   3.837
 1431SOL     OW 5191   2.240   1.875   0.827
 1431SOL    HW1 5192   2.293   1.796   0.796
 1431SOL    HW2 5193   2.161   1.843   0.881
 1432SOL     OW 5194   2.942   1.486   2.985
 1432SOL    HW1 5195   2.932   1.524   2.892
 1432SOL    HW2 5196   2.851   1.463   3.020
 1433SOL     OW 5197   4.587   1.398   3.960
 1433SOL    HW1 5198   4.540   1.311   3.975
 1433SOL    HW2 5199   4.686   1.383   3.961
 1434SOL     OW 5200   6.624   0.953   5.653
 1434SOL    HW1 5201   6.677   1.010   5.716
 1434SOL    HW2 5202   6.687   0.896   5.599
 1435SOL     OW 5203   5.629   0.792   2.184
 1435SOL    HW1 5204   5.609   0.795   2.282
 1435SOL    HW2 5205   5.593   0.707   2.145
 1436SOL     OW 5206   5.245   3.964   0.503
 1436SOL    HW1 5207   5.334   3.922   0.486
 1436SOL    HW2 5208   5.258   4.052   0.550
 1437SOL     OW 5209   2.450   2.447   3.578
 1437SOL    HW1 5210   2.454   2.425   3.675
 1437SOL    HW2 5211   2.384   2.521   3.563
 1438SOL     OW 5212   3.293   6.311   1.375
 1438SOL    HW1 5213   3.390   6.293   1.394
 1438SOL    HW2 5214   3.237   6.270   1.446
 1439SOL     OW 5215   6.931   5.738   1.482
 1439SOL    HW1 5216   6.906   5.800   1.556
 1439SOL    HW2 5217   6.899   5.646   1.503
 1440SOL     OW 5218   3.226   3.771   1.360
 1440SOL    HW1 5219   3.285   3.748   1.438
 1440SOL    HW2 5220   3.135   3.733   1.374
 1441SOL     OW 5221   5.983   0.481   2.460
 1441SOL    HW1 5222   5.943   0.390   2.456
 1441SOL    HW2 5223   6.010   0.510   2.368
 1442SOL     OW 5224   6.357   5.655   0.219
 1442SOL    HW1 5225   6.413   5.687   0.295
 1442SOL    HW2 5226   6.392   5.567   0.186
 1443SOL     OW 5227   0.544   2.369   2.404
 1443SOL    HW1 5228   0.637   2.346   2.434
 1443SOL    HW2 5229   0.510   2.297   2.343
 1444SOL     OW 5230   5.590   0.141   0.580
 1444SOL    HW1 5231   5.518   0.163   0.645
 1444SOL    HW2 5232   5.626   0.226   0.540
 1445SOL     OW 5233   0.965   3.285   2.759
 1445SOL    HW1 5234   0.995   3.200   2.801
 1445SOL    HW2 5235   0.989   3.284   2.662
 1446SOL     OW 5236   6.824   0.883   6.488
 1446SOL    HW1 5237   6.816   0.959   6.424
 1446SOL    HW2 5238   6.841   0.798   6.437
 1447SOL     OW 5239   5.966   5.260   3.826
 1447SOL    HW1 5240   5.984   5.244   3.729
 1447SOL    HW2 5241   6.038   5.316   3.865
 1448SOL     OW 5242   6.481   2.676   4.688
 1448SOL    HW1 5243   6.567   2.651   4.734
 1448SOL    HW2 5244   6.478   2.633   4.598
 1449SOL     OW 5245   0.679   4.039   5.174
 1449SOL    HW1 5246   0.695   4.020   5.077
 1449SOL    HW2 5247   0.685   3.954   5.226
 1450SOL     OW 5248   1.108   2.807   6.201
 1450SOL    HW1 5249   1.164   2.736   6.159
 1450SOL    HW2 5250   1.011   2.788   6.184
 1451SOL     OW 5251   1.311   6.007   2.589
 1451SOL    HW1 5252   1.215   6.003   2.562
 1451SOL    HW2 5253   1.355   6.085   2.544
 1452SOL     OW 5254   4.397   2.541   5.295
 1452SOL    HW1 5255   4.315   2.524   5.241
 1452SOL    HW2 5256   4.372   2.547   5.392
 1453SOL     OW 5257   0.617   4.484   5.264
 1453SOL    HW1 5258   0.568   4.403   5.231
 1453SOL    HW2 5259   0.702   4.494   5.212
 1454SOL     OW 5260   2.030   2.314   2.984
 1454SOL    HW1 5261   2.070   2.370   3.057
 1454SOL    HW2 5262   2.079   2.332   2.898
 1455SOL     OW 5263   1.388   6.267   2.497
 1455SOL    HW1 5264   1.360   6.288   2.404
 1455SOL    HW2 5265   1.483   6.294   2.510
 1456SOL     OW 5266   6.260   6.138   5.836
 1456SOL    HW1 5267   6.337   6.089   5.876
 1456SOL    HW2 5268   6.177   6.083   5.844
 1457SOL     OW 5269   1.002   4.378   0.080
 1457SOL    HW1 5270   1.069   4.314   0.044
 1457SOL    HW2 5271   0.942   4.408   0.006
 1458SOL     OW 5272   5.388   5.182   5.542
 1458SOL    HW1 5273   5.292   5.172   5.569
 1458SOL    HW2 5274   5.427   5.091   5.528
 1459SOL     OW 5275   4.326   6.753   6.138
 1459SOL    HW1 5276   4.351   6.833   6.193
 1459SOL    HW2 5277   4.394   6.682   6.151
 1460SOL     OW 5278   1.684   6.993   4.688
 1460SOL    HW1 5279   1.762   0.037   4.683
 1460SOL    HW2 5280   1.610   0.019   4.740
 1461SOL     OW 5281   0.199   3.849   3.288
 1461SOL    HW1 5282   0.126   3.915   3.309
 1461SOL    HW2 5283   0.193   3.823   3.192
 1462SOL     OW 5284   1.259   0.665   6.647
 1462SOL    HW1 5285   1.170   0.645   6.608
 1462SOL    HW2 5286   1.253   0.743   6.709
 1463SOL     OW 5287   1.019   4.681   5.594
 1463SOL    HW1 5288   0.950   4.693   5.666
 1463SOL    HW2 5289   1.110   4.694   5.633
 1464SOL     OW 5290   6.883   4.543   3.369
 1464SOL    HW1 5291   6.783   4.553   3.365
 1464SOL    HW2 5292   6.926   4.628   3.339
 1465SOL     OW 5293   2.025   2.067   4.242
 1465SOL    HW1 5294   2.016   2.086   4.144
 1465SOL    HW2 5295   1.953   2.115   4.292
 1466SOL     OW 5296   4.117   2.241   2.310
 1466SOL    HW1 5297   4.065   2.212   2.230
 1466SOL    HW2 5298   4.060   2.236   2.392
 1467SOL     OW 5299   2.155   1.479   4.180
 1467SOL    HW1 5300   2.221   1.539   4.136
 1467SOL    HW2 5301   2.160   1.388   4.138
 1468SOL     OW 5302   1.912   5.129   1.730
 1468SOL    HW1 5303   1.932   5.222   1.700
 1468SOL    HW2 5304   1.881   5.131   1.826
 1469SOL     OW 5305   0.036   6.139   2.694
 1469SOL    HW1 5306   0.039   6.161   2.792
 1469SOL    HW2 5307   0.035   6.224   2.641
 1470SOL     OW 5308   0.117   2.197   1.615
 1470SOL    HW1 5309   0.054   2.271   1.592
 1470SOL    HW2 5310   0.065   2.113   1.632
 1471SOL     OW 5311   0.973   0.320   0.447
 1471SOL    HW1 5312   0.993   0.227   0.477
 1471SOL    HW2 5313   0.878   0.342   0.467
 1472SOL     OW 5314   3.030   5.929   0.117
 1472SOL    HW1 5315   3.005   5.927   0.021
 1472SOL    HW2 5316   3.094   5.855   0.138
 1473SOL     OW 5317   2.643   5.557   4.627
 1473SOL    HW1 5318   2.719   5.598   4.677
 1473SOL    HW2 5319   2.557   5.579   4.672
 1474SOL     OW 5320   3.856   4.349   1.687
 1474SOL    HW1 5321   3.949   4.328   1.658
 1474SOL    HW2 5322   3.808   4.264   1.709
 1475SOL     OW 5323   4.716   1.429   0.014
 1475SOL    HW1 5324   4.801   1.478   7.010
 1475SOL    HW2 5325   4.715   1.341   6.986
 1476SOL     OW 5326   2.629   1.168   1.495
 1476SOL    HW1 5327   2.562   1.188   1.567
 1476SOL    HW2 5328   2.606   1.221   1.413
 1477SOL     OW 5329   3.938   0.292   0.230
 1477SOL    HW1 5330   3.876   0.246   0.167
 1477SOL    HW2 5331   3.974   0.375   0.186
 1478SOL     OW 5332   5.579   6.456   5.492
 1478SOL    HW1 5333   5.522   6.401   5.553
 1478SOL    HW2 5334   5.587   6.549   5.528
 1479SOL     OW 5335   3.537   3.434   1.421
 1479SOL    HW1 5336   3.602   3.454   1.495
 1479SOL    HW2 5337   3.587   3.406   1.340
 1480SOL     OW 5338   2.494   0.082   6.361
 1480SOL    HW1 5339   2.450   0.031   6.286
 1480SOL    HW2 5340   2.592   0.089   6.342
 1481SOL     OW 5341   5.979   3.067   5.698
 1481SOL    HW1 5342   6.002   3.063   5.795
 1481SOL    HW2 5343   5.990   2.976   5.658
 1482SOL     OW 5344   4.435   0.567   0.714
 1482SOL    HW1 5345   4.427   0.657   0.670
 1482SOL    HW2 5346   4.364   0.559   0.784
 1483SOL     OW 5347   5.466   2.561   5.306
 1483SOL    HW1 5348   5.506   2.527   5.221
 1483SOL    HW2 5349   5.525   2.632   5.344
 1484SOL     OW 5350   4.819   5.441   3.551
 1484SOL    HW1 5351   4.851   5.516   3.608
 1484SOL    HW2 5352   4.829   5.354   3.600
 1485SOL     OW 5353   5.324   0.836   3.847
 1485SOL    HW1 5354   5.265   0.877   3.916
 1485SOL    HW2 5355   5.285   0.748   3.818
 1486SOL     OW 5356   5.078   6.947   3.478
 1486SOL    HW1 5357   5.164   6.950   3.530
 1486SOL    HW2 5358   5.045   6.853   3.473
 1487SOL     OW 5359   0.270   0.884   6.726
 1487SOL    HW1 5360   0.274   0.855   6.821
 1487SOL    HW2 5361   0.294   0.981   6.719
 1488SOL     OW 5362   5.690   0.398   3.324
 1488SOL    HW1 5363   5.720   0.305   3.302
 1488SOL    HW2 5364   5.663   0.445   3.240
 1489SOL     OW 5365   3.767   4.569   5.881
 1489SOL    HW1 5366   3.739   4.657   5.916
 1489SOL    HW2 5367   3.691   4.526   5.831
 1490SOL     OW 5368   0.465   3.136   1.058
 1490SOL    HW1 5369   0.507   3.209   1.005
 1490SOL    HW2 5370   0.434   3.063   0.997
 1491SOL     OW 5371   6.803   4.230   2.420
 1491SOL    HW1 5372   6.875   4.171   2.456
 1491SOL    HW2 5373   6.843   4.295   2.356
 1492SOL     OW 5374   6.373   0.319   1.850
 1492SOL    HW1 5375   6.442   0.366   1.906
 1492SOL    HW2 5376   6.398   0.326   1.754
 1493SOL     OW 5377   3.658   1.230   6.634
 1493SOL    HW1 5378   3.613   1.246   6.546
 1493SOL    HW2 5379   3.697   1.138   6.634
 1494SOL     OW 5380   5.711   2.934   6.773
 1494SOL    HW1 5381   5.693   2.840   6.745
 1494SOL    HW2 5382   5.672   2.951   6.863
 1495SOL     OW 5383   6.546   3.913   3.961
 1495SOL    HW1 5384   6.579   3.995   4.007
 1495SOL    HW2 5385   6.590   3.832   4.000
 1496SOL     OW 5386   0.036   0.277   0.013
 1496SOL    HW1 5387   0.027   0.357   6.972
 1496SOL    HW2 5388   6.964   0.249   0.045
 1497SOL     OW 5389   4.911   3.156   2.521
 1497SOL    HW1 5390   4.871   3.103   2.596
 1497SOL    HW2 5391   4.952   3.239   2.558
 1498SOL     OW 5392   2.782   4.798   0.712
 1498SOL    HW1 5393   2.782   4.699   0.731
 1498SOL    HW2 5394   2.831   4.845   0.785
 1499SOL     OW 5395   0.562   3.896   5.984
 1499SOL    HW1 5396   0.623   3.864   6.057
 1499SOL    HW2 5397   0.602   3.874   5.895
 1500SOL     OW 5398   1.247   5.950   6.509
 1500SOL    HW1 5399   1.305   6.022   6.546
 1500SOL    HW2 5400   1.298   5.900   6.438
 1501SOL     OW 5401   6.029   1.965   6.625
 1501SOL    HW1 5402   6.050   1.944   6.529
 1501SOL    HW2 5403   6.016   1.880   6.676
 1502SOL     OW 5404   5.624   2.035   6.123
 1502SOL    HW1 5405   5.565   1.954   6.120
 1502SOL    HW2 5406   5.694   2.023   6.194
 1503SOL     OW 5407   0.682   2.868   2.578
 1503SOL    HW1 5408   0.627   2.798   2.533
 1503SOL    HW2 5409   0.622   2.938   2.616
 1504SOL     OW 5410   0.666   0.285   3.693
 1504SOL    HW1 5411   0.702   0.247   3.779
 1504SOL    HW2 5412   0.569   0.263   3.685
 1505SOL     OW 5413   5.241   6.725   5.751
 1505SOL    HW1 5414   5.313   6.659   5.772
 1505SOL    HW2 5415   5.264   6.814   5.792
 1506SOL     OW 5416   1.425   0.527   0.486
 1506SOL    HW1 5417   1.511   0.497   0.528
 1506SOL    HW2 5418   1.367   0.568   0.556
 1507SOL     OW 5419   0.052   1.872   4.090
 1507SOL    HW1 5420   0.034   1.775   4.108
 1507SOL    HW2 5421   6.985   1.924   4.092
 1508SOL     OW 5422   0.231   1.447   0.902
 1508SOL    HW1 5423   0.162   1.464   0.972
 1508SOL    HW2 5424   0.304   1.515   0.909
 1509SOL     OW 5425   4.908   1.377   4.826
 1509SOL    HW1 5426   4.822   1.381   4.877
 1509SOL    HW2 5427   4.924   1.284   4.794
 1510SOL     OW 5428   4.616   0.092   4.354
 1510SOL    HW1 5429   4.666   0.033   4.290
 1510SOL    HW2 5430   4.518   0.081   4.341
 1511SOL     OW 5431   3.393   3.895   4.209
 1511SOL    HW1 5432   3.446   3.870   4.127
 1511SOL    HW2 5433   3.450   3.951   4.269
 1512SOL     OW 5434   5.874   5.265   1.491
 1512SOL    HW1 5435   5.811   5.315   1.551
 1512SOL    HW2 5436   5.845   5.170   1.483
 1513SOL     OW 5437   3.350   0.206   4.445
 1513SOL    HW1 5438   3.374   0.139   4.376
 1513SOL    HW2 5439   3.268   0.175   4.495
 1514SOL     OW 5440   3.429   2.298   5.817
 1514SOL    HW1 5441   3.487   2.298   5.898
 1514SOL    HW2 5442   3.468   2.238   5.748
 1515SOL     OW 5443   6.550   1.254   2.199
 1515SOL    HW1 5444   6.477   1.249   2.131
 1515SOL    HW2 5445   6.513   1.231   2.289
 1516SOL     OW 5446   6.032   5.283   5.139
 1516SOL    HW1 5447   6.076   5.373   5.128
 1516SOL    HW2 5448   6.099   5.218   5.174
 1517SOL     OW 5449   4.460   6.845   2.932
 1517SOL    HW1 5450   4.384   6.859   2.996
 1517SOL    HW2 5451   4.427   6.795   2.852
 1518SOL     OW 5452   6.203   3.157   0.733
 1518SOL    HW1 5453   6.126   3.192   0.786
 1518SOL    HW2 5454   6.177   3.149   0.637
 1519SOL     OW 5455   6.538   4.578   1.032
 1519SOL    HW1 5456   6.477   4.504   1.059
 1519SOL    HW2 5457   6.567   4.565   0.937
 1520SOL     OW 5458   0.932   4.804   1.790
 1520SOL    HW1 5459   0.834   4.788   1.799
 1520SOL    HW2 5460   0.972   4.731   1.733
 1521SOL     OW 5461   1.951   4.700   0.012
 1521SOL    HW1 5462   2.027   4.758   0.042
 1521SOL    HW2 5463   1.864   4.744   0.036
 1522SOL     OW 5464   5.654   5.271   4.149
 1522SOL    HW1 5465   5.605   5.313   4.225
 1522SOL    HW2 5466   5.594   5.205   4.103
 1523SOL     OW 5467   3.375   6.746   6.581
 1523SOL    HW1 5468   3.396   6.818   6.647
 1523SOL    HW2 5469   3.434   6.667   6.597
 1524SOL     OW 5470   3.005   1.929   2.407
 1524SOL    HW1 5471   3.034   2.013   2.361
 1524SOL    HW2 5472   2.931   1.950   2.471
 1525SOL     OW 5473   6.147   3.022   1.325
 1525SOL    HW1 5474   6.197   2.938   1.343
 1525SOL    HW2 5475   6.154   3.083   1.404
 1526SOL     OW 5476   0.430   1.134   6.336
 1526SOL    HW1 5477   0.362   1.096   6.398
 1526SOL    HW2 5478   0.384   1.173   6.256
 1527SOL     OW 5479   3.913   0.639   4.702
 1527SOL    HW1 5480   3.819   0.627   4.670
 1527SOL    HW2 5481   3.942   0.733   4.685
 1528SOL     OW 5482   3.771   4.951   1.302
 1528SOL    HW1 5483   3.737   4.883   1.237
 1528SOL    HW2 5484   3.694   4.990   1.353
 1529SOL     OW 5485   4.767   1.224   6.819
 1529SOL    HW1 5486   4.775   1.133   6.858
 1529SOL    HW2 5487   4.829   1.233   6.741
 1530SOL     OW 5488   3.066   0.977   1.465
 1530SOL    HW1 5489   2.968   0.999   1.461
 1530SOL    HW2 5490   3.102   0.970   1.372
 1531SOL     OW 5491   4.785   0.684   4.744
 1531SOL    HW1 5492   4.762   0.591   4.771
 1531SOL    HW2 5493   4.729   0.749   4.796
 1532SOL     OW 5494   3.445   4.313   5.570
 1532SOL    HW1 5495   3.461   4.392   5.511
 1532SOL    HW2 5496   3.360   4.268   5.543
 1533SOL     OW 5497   5.599   5.824   0.238
 1533SOL    HW1 5498   5.610   5.725   0.231
 1533SOL    HW2 5499   5.607   5.865   0.147
 1534SOL     OW 5500   3.757   5.342   6.702
 1534SOL    HW1 5501   3.703   5.422   6.729
 1534SOL    HW2 5502   3.773   5.345   6.603
 1535SOL     OW 5503   5.411   6.099   4.979
 1535SOL    HW1 5504   5.362   6.186   4.978
 1535SOL    HW2 5505   5.363   6.035   5.039
 1536SOL     OW 5506   3.798   4.970   6.900
 1536SOL    HW1 5507   3.857   5.050   6.900
 1536SOL    HW2 5508   3.775   4.946   6.805
 1537SOL     OW 5509   4.308   5.458   3.617
 1537SOL    HW1 5510   4.385   5.405   3.581
 1537SOL    HW2 5511   4.287   5.426   3.710
 1538SOL     OW 5512   3.070   0.805   0.242
 1538SOL    HW1 5513   3.156   0.785   0.196
 1538SOL    HW2 5514   2.993   0.773   0.186
 1539SOL     OW 5515   4.903   3.208   2.242
 1539SOL    HW1 5516   4.870   3.142   2.175
 1539SOL    HW2 5517   4.890   3.172   2.334
 1540SOL     OW 5518   0.434   6.553   5.281
 1540SOL    HW1 5519   0.358   6.579   5.222
 1540SOL    HW2 5520   0.517   6.599   5.251
 1541SOL     OW 5521   2.929   3.407   4.228
 1541SOL    HW1 5522   2.958   3.405   4.324
 1541SOL    HW2 5523   2.861   3.336   4.212
 1542SOL     OW 5524   6.454   0.026   1.929
 1542SOL    HW1 5525   6.384   0.070   1.986
 1542SOL    HW2 5526   6.529   0.090   1.914
 1543SOL     OW 5527   3.748   5.215   5.755
 1543SOL    HW1 5528   3.651   5.235   5.742
 1543SOL    HW2 5529   3.764   5.184   5.848
 1544SOL     OW 5530   3.019   3.925   3.611
 1544SOL    HW1 5531   3.076   3.981   3.671
 1544SOL    HW2 5532   2.994   3.978   3.530
 1545SOL     OW 5533   5.918   0.839   2.813
 1545SOL    HW1 5534   5.974   0.913   2.849
 1545SOL    HW2 5535   5.888   0.780   2.888
 1546SOL     OW 5536   5.473   6.080   5.978
 1546SOL    HW1 5537   5.447   6.046   6.069
 1546SOL    HW2 5538   5.429   6.024   5.908
 1547SOL     OW 5539   1.754   3.639   1.370
 1547SOL    HW1 5540   1.753   3.695   1.453
 1547SOL    HW2 5541   1.697   3.682   1.300
 1548SOL     OW 5542   5.353   3.529   0.376
 1548SOL    HW1 5543   5.276   3.467   0.361
 1548SOL    HW2 5544   5.359   3.593   0.299
 1549SOL     OW 5545   4.672   1.209   3.351
 1549SOL    HW1 5546   4.681   1.109   3.349
 1549SOL    HW2 5547   4.576   1.234   3.361
 1550SOL     OW 5548   3.246   3.402   1.394
 1550SOL    HW1 5549   3.206   3.396   1.485
 1550SOL    HW2 5550   3.343   3.425   1.401
 1551SOL     OW 5551   1.138   5.294   6.772
 1551SOL    HW1 5552   1.139   5.294   6.872
 1551SOL    HW2 5553   1.230   5.316   6.737
 1552SOL     OW 5554   1.687   5.504   0.694
 1552SOL    HW1 5555   1.765   5.442   0.703
 1552SOL    HW2 5556   1.678   5.533   0.599
 1553SOL     OW 5557   6.676   1.663   6.267
 1553SOL    HW1 5558   6.597   1.630   6.216
 1553SOL    HW2 5559   6.708   1.590   6.328
 1554SOL     OW 5560   2.983   2.104   3.407
 1554SOL    HW1 5561   3.059   2.135   3.350
 1554SOL    HW2 5562   2.897   2.120   3.358
 1555SOL     OW 5563   6.057   3.566   6.800
 1555SOL    HW1 5564   5.987   3.508   6.760
 1555SOL    HW2 5565   6.131   3.508   6.837
 1556SOL     OW 5566   1.816   1.415   6.061
 1556SOL    HW1 5567   1.864   1.498   6.033
 1556SOL    HW2 5568   1.802   1.356   5.981
 1557SOL     OW 5569   2.172   4.189   6.222
 1557SOL    HW1 5570   2.224   4.262   6.267
 1557SOL    HW2 5571   2.093   4.229   6.176
 1558SOL     OW 5572   6.445   0.700   4.078
 1558SOL    HW1 5573   6.496   0.786   4.068
 1558SOL    HW2 5574   6.420   0.688   4.174
 1559SOL     OW 5575   1.797   3.525   6.504
 1559SOL    HW1 5576   1.755   3.551   6.591
 1559SOL    HW2 5577   1.791   3.602   6.441
 1560SOL     OW 5578   0.301   0.603   6.141
 1560SOL    HW1 5579   0.328   0.545   6.065
 1560SOL    HW2 5580   0.381   0.622   6.198
 1561SOL     OW 5581   4.559   6.429   3.719
 1561SOL    HW1 5582   4.546   6.512   3.772
 1561SOL    HW2 5583   4.611   6.362   3.774
 1562SOL     OW 5584   4.908   5.959   2.581
 1562SOL    HW1 5585   4.957   5.974   2.667
 1562SOL    HW2 5586   4.842   6.032   2.566
 1563SOL     OW 5587   2.761   0.579   5.440
 1563SOL    HW1 5588   2.761   0.499   5.500
 1563SOL    HW2 5589   2.822   0.648   5.478
 1564SOL     OW 5590   1.081   0.499   3.103
 1564SOL    HW1 5591   0.997   0.460   3.142
 1564SOL    HW2 5592   1.123   0.560   3.170
 1565SOL     OW 5593   4.605   4.390   2.808
 1565SOL    HW1 5594   4.557   4.430   2.730
 1565SOL    HW2 5595   4.662   4.314   2.776
 1566SOL     OW 5596   5.755   3.767   3.161
 1566SOL    HW1 5597   5.810   3.825   3.101
 1566SOL    HW2 5598   5.703   3.702   3.106
 1567SOL     OW 5599   5.842   6.131   0.023
 1567SOL    HW1 5600   5.793   6.216   0.041
 1567SOL    HW2 5601   5.827   6.104   6.946
 1568SOL     OW 5602   1.431   6.985   0.503
 1568SOL    HW1 5603   1.399   6.945   0.588
 1568SOL    HW2 5604   1.382   6.944   0.426
 1569SOL     OW 5605   4.309   6.048   3.586
 1569SOL    HW1 5606   4.305   6.063   3.487
 1569SOL    HW2 5607   4.404   6.058   3.617
 1570SOL     OW 5608   2.650   0.554   0.825
 1570SOL    HW1 5609   2.629   0.495   0.903
 1570SOL    HW2 5610   2.632   0.505   0.740
 1571SOL     OW 5611   5.876   3.423   1.286
 1571SOL    HW1 5612   5.850   3.470   1.370
 1571SOL    HW2 5613   5.896   3.327   1.306
 1572SOL     OW 5614   0.559   0.579   2.667
 1572SOL    HW1 5615   0.499   0.630   2.729
 1572SOL    HW2 5616   0.642   0.633   2.650
 1573SOL     OW 5617   5.225   0.969   1.609
 1573SOL    HW1 5618   5.152   0.962   1.677
 1573SOL    HW2 5619   5.199   1.033   1.537
 1574SOL     OW 5620   0.448   1.888   1.550
 1574SOL    HW1 5621   0.463   1.918   1.644
 1574SOL    HW2 5622   0.483   1.795   1.538
 1575SOL     OW 5623   2.423   1.884   0.513
 1575SOL    HW1 5624   2.518   1.884   0.543
 1575SOL    HW2 5625   2.382   1.974   0.531
 1576SOL     OW 5626   6.087   6.313   4.167
 1576SOL    HW1 5627   6.156   6.247   4.138
 1576SOL    HW2 5628   6.041   6.279   4.250
 1577SOL     OW 5629   2.343   1.553   4.688
 1577SOL    HW1 5630   2.349   1.524   4.593
 1577SOL    HW2 5631   2.250   1.585   4.707
 1578SOL     OW 5632   6.189   3.440   5.522
 1578SOL    HW1 5633   6.177   3.343   5.499
 1578SOL    HW2 5634   6.283   3.456   5.551
 1579SOL     OW 5635   0.001   1.697   3.240
 1579SOL    HW1 5636   7.015   1.610   3.289
 1579SOL    HW2 5637   0.064   1.688   3.162
 1580SOL     OW 5638   2.602   4.078   5.357
 1580SOL    HW1 5639   2.694   4.085   5.319
 1580SOL    HW2 5640   2.542   4.031   5.292
 1581SOL     OW 5641   6.986   4.292   4.448
 1581SOL    HW1 5642   0.027   4.302   4.528
 1581SOL    HW2 5643   6.989   4.375   4.393
 1582SOL     OW 5644   1.159   5.362   4.498
 1582SOL    HW1 5645   1.236   5.409   4.454
 1582SOL    HW2 5646   1.073   5.404   4.469
 1583SOL     OW 5647   1.878   2.461   4.057
 1583SOL    HW1 5648   1.927   2.506   4.131
 1583SOL    HW2 5649   1.918   2.371   4.040
 1584SOL     OW 5650   2.278   6.878   4.893
 1584SOL    HW1 5651   2.362   6.844   4.852
 1584SOL    HW2 5652   2.294   6.969   4.931
 1585SOL     OW 5653   5.535   1.660   3.214
 1585SOL    HW1 5654   5.511   1.749   3.254
 1585SOL    HW2 5655   5.482   1.646   3.130
 1586SOL     OW 5656   4.068   3.720   2.114
 1586SOL    HW1 5657   4.121   3.677   2.187
 1586SOL    HW2 5658   4.118   3.715   2.029
 1587SOL     OW 5659   2.815   5.233   5.889
 1587SOL    HW1 5660   2.895   5.200   5.938
 1587SOL    HW2 5661   2.835   5.322   5.849
 1588SOL     OW 5662   4.960   1.537   3.222
 1588SOL    HW1 5663   5.001   1.627   3.204
 1588SOL    HW2 5664   4.901   1.543   3.303
 1589SOL     OW 5665   5.923   3.793   3.519
 1589SOL    HW1 5666   5.827   3.777   3.494
 1589SOL    HW2 5667   5.927   3.830   3.612
 1590SOL     OW 5668   1.648   6.501   6.993
 1590SOL    HW1 5669   1.671   6.404   6.998
 1590SOL    HW2 5670   1.671   6.545   0.061
 1591SOL     OW 5671   0.770   4.740   2.750
 1591SOL    HW1 5672   0.830   4.678   2.699
 1591SOL    HW2 5673   0.785   4.728   2.848
 1592SOL     OW 5674   2.960   3.716   1.419
 1592SOL    HW1 5675   2.959   3.678   1.511
 1592SOL    HW2 5676   2.928   3.646   1.354
 1593SOL     OW 5677   1.291   6.291   4.648
 1593SOL    HW1 5678   1.283   6.230   4.569
 1593SOL    HW2 5679   1.254   6.381   4.625
 1594SOL     OW 5680   0.199   5.528   3.421
 1594SOL    HW1 5681   0.282   5.565   3.380
 1594SOL    HW2 5682   0.180   5.438   3.383
 1595SOL     OW 5683   0.070   4.794   6.596
 1595SOL    HW1 5684   0.110   4.733   6.528
 1595SOL    HW2 5685   0.047   4.742   6.679
 1596SOL     OW 5686   1.552   4.286   5.126
 1596SOL    HW1 5687   1.612   4.308   5.049
 1596SOL    HW2 5688   1.472   4.344   5.124
 1597SOL     OW 5689   2.564   5.651   0.851
 1597SOL    HW1 5690   2.656   5.687   0.862
 1597SOL    HW2 5691   2.514   5.707   0.784
 1598SOL     OW 5692   0.437   3.965   0.298
 1598SOL    HW1 5693   0.501   4.036   0.328
 1598SOL    HW2 5694   0.344   4.000   0.306
 1599SOL     OW 5695   4.340   3.267   5.928
 1599SOL    HW1 5696   4.372   3.298   5.839
 1599SOL    HW2 5697   4.324   3.346   5.988
 1600SOL     OW 5698   5.313   1.630   4.807
 1600SOL    HW1 5699   5.380   1.691   4.850
 1600SOL    HW2 5700   5.235   1.617   4.867
 1601SOL     OW 5701   1.827   4.858   4.228
 1601SOL    HW1 5702   1.851   4.932   4.291
 1601SOL    HW2 5703   1.807   4.896   4.138
 1602SOL     OW 5704   1.421   5.533   3.644
 1602SOL    HW1 5705   1.494   5.476   3.608
 1602SOL    HW2 5706   1.460   5.610   3.694
 1603SOL     OW 5707   1.235   6.671   1.786
 1603SOL    HW1 5708   1.195   6.666   1.695
 1603SOL    HW2 5709   1.292   6.591   1.802
 1604SOL     OW 5710   6.123   5.242   6.638
 1604SOL    HW1 5711   6.150   5.337   6.622
 1604SOL    HW2 5712   6.026   5.231   6.616
 1605SOL     OW 5713   6.531   0.294   2.204
 1605SOL    HW1 5714   6.631   0.294   2.199
 1605SOL    HW2 5715   6.497   0.200   2.209
 1606SOL     OW 5716   4.435   0.895   5.558
 1606SOL    HW1 5717   4.513   0.874   5.616
 1606SOL    HW2 5718   4.435   0.834   5.478
 1607SOL     OW 5719   4.908   2.833   0.922
 1607SOL    HW1 5720   4.910   2.796   1.015
 1607SOL    HW2 5721   4.936   2.929   0.924
 1608SOL     OW 5722   1.213   0.440   6.467
 1608SOL    HW1 5723   1.291   0.499   6.447
 1608SOL    HW2 5724   1.244   0.360   6.519
 1609SOL     OW 5725   5.955   2.250   6.058
 1609SOL    HW1 5726   6.036   2.205   6.097
 1609SOL    HW2 5727   5.953   2.345   6.090
 1610SOL     OW 5728   5.477   4.157   4.856
 1610SOL    HW1 5729   5.441   4.129   4.767
 1610SOL    HW2 5730   5.570   4.123   4.867
 1611SOL     OW 5731   3.894   3.094   2.318
 1611SOL    HW1 5732   3.799   3.124   2.311
 1611SOL    HW2 5733   3.912   3.062   2.411
 1612SOL     OW 5734   2.361   1.493   5.423
 1612SOL    HW1 5735   2.402   1.414   5.468
 1612SOL    HW2 5736   2.263   1.478   5.410
 1613SOL     OW 5737   2.378   5.831   0.726
 1613SOL    HW1 5738   2.325   5.912   0.751
 1613SOL    HW2 5739   2.321   5.749   0.735
 1614SOL     OW 5740   6.883   3.411   0.540
 1614SOL    HW1 5741   6.858   3.328   0.590
 1614SOL    HW2 5742   6.822   3.423   0.462
 1615SOL     OW 5743   6.933   4.971   1.074
 1615SOL    HW1 5744   6.982   5.004   1.155
 1615SOL    HW2 5745   6.999   4.942   1.005
 1616SOL     OW 5746   4.467   2.411   6.361
 1616SOL    HW1 5747   4.401   2.465   6.309
 1616SOL    HW2 5748   4.419   2.361   6.433
 1617SOL     OW 5749   5.891   0.258   2.231
 1617SOL    HW1 5750   5.960   0.196   2.268
 1617SOL    HW2 5751   5.932   0.314   2.158
 1618SOL     OW 5752   0.065   3.764   1.485
 1618SOL    HW1 5753   0.097   3.858   1.478
 1618SOL    HW2 5754   0.106   3.708   1.413
 1619SOL     OW 5755   1.401   3.451   4.246
 1619SOL    HW1 5756   1.484   3.491   4.286
 1619SOL    HW2 5757   1.425   3.402   4.162
 1620SOL     OW 5758   2.105   5.885   0.580
 1620SOL    HW1 5759   2.007   5.867   0.592
 1620SOL    HW2 5760   2.157   5.803   0.606
 1621SOL     OW 5761   0.431   0.624   6.702
 1621SOL    HW1 5762   0.391   0.579   6.781
 1621SOL    HW2 5763   0.368   0.694   6.667
 1622SOL     OW 5764   1.582   2.342   4.754
 1622SOL    HW1 5765   1.622   2.252   4.739
 1622SOL    HW2 5766   1.529   2.341   4.838
 1623SOL     OW 5767   2.867   2.683   6.364
 1623SOL    HW1 5768   2.945   2.693   6.303
 1623SOL    HW2 5769   2.844   2.772   6.403
 1624SOL     OW 5770   2.269   0.788   6.800
 1624SOL    HW1 5771   2.336   0.854   6.766
 1624SOL    HW2 5772   2.203   0.767   6.727
 1625SOL     OW 5773   1.570   5.341   1.981
 1625SOL    HW1 5774   1.518   5.259   2.008
 1625SOL    HW2 5775   1.562   5.354   1.882
 1626SOL     OW 5776   2.291   2.286   6.959
 1626SOL    HW1 5777   2.306   2.262   6.863
 1626SOL    HW2 5778   2.292   2.202   7.015
 1627SOL     OW 5779   6.232   1.652   4.270
 1627SOL    HW1 5780   6.331   1.662   4.262
 1627SOL    HW2 5781   6.208   1.555   4.271
 1628SOL     OW 5782   3.436   4.992   0.219
 1628SOL    HW1 5783   3.389   5.013   0.133
 1628SOL    HW2 5784   3.535   4.989   0.204
 1629SOL     OW 5785   2.945   2.156   4.561
 1629SOL    HW1 5786   2.940   2.079   4.624
 1629SOL    HW2 5787   3.037   2.162   4.523
 1630SOL     OW 5788   0.784   5.725   5.277
 1630SOL    HW1 5789   0.822   5.668   5.350
 1630SOL    HW2 5790   0.758   5.814   5.314
 1631SOL     OW 5791   6.876   0.675   6.042
 1631SOL    HW1 5792   6.804   0.743   6.048
 1631SOL    HW2 5793   6.836   0.584   6.033
 1632SOL     OW 5794   0.089   1.153   6.846
 1632SOL    HW1 5795   0.157   1.203   6.793
 1632SOL    HW2 5796   0.023   1.110   6.784
 1633SOL     OW 5797   5.864   2.841   2.490
 1633SOL    HW1 5798   5.883   2.793   2.575
 1633SOL    HW2 5799   5.789   2.797   2.442
 1634SOL     OW 5800   4.213   5.489   6.297
 1634SOL    HW1 5801   4.219   5.391   6.311
 1634SOL    HW2 5802   4.293   5.521   6.247
 1635SOL     OW 5803   6.489   5.847   4.742
 1635SOL    HW1 5804   6.547   5.774   4.706
 1635SOL    HW2 5805   6.547   5.921   4.777
 1636SOL     OW 5806   2.452   4.841   1.589
 1636SOL    HW1 5807   2.543   4.802   1.595
 1636SOL    HW2 5808   2.419   4.863   1.681
 1637SOL     OW 5809   6.721   2.500   2.590
 1637SOL    HW1 5810   6.735   2.599   2.599
 1637SOL    HW2 5811   6.669   2.481   2.507
 1638SOL     OW 5812   6.901   3.199   4.077
 1638SOL    HW1 5813   6.833   3.207   4.004
 1638SOL    HW2 5814   6.868   3.245   4.159
 1639SOL     OW 5815   5.527   6.018   3.015
 1639SOL    HW1 5816   5.522   5.921   2.992
 1639SOL    HW2 5817   5.530   6.029   3.115
 1640SOL     OW 5818   5.899   2.260   0.390
 1640SOL    HW1 5819   5.799   2.254   0.387
 1640SOL    HW2 5820   5.931   2.317   0.314
 1641SOL     OW 5821   5.331   3.135   3.431
 1641SOL    HW1 5822   5.267   3.111   3.504
 1641SOL    HW2 5823   5.352   3.054   3.377
 1642SOL     OW 5824   6.750   3.560   0.025
 1642SOL    HW1 5825   6.800   3.631   6.995
 1642SOL    HW2 5826   6.665   3.598   0.060
 1643SOL     OW 5827   3.517   6.694   4.947
 1643SOL    HW1 5828   3.478   6.769   4.893
 1643SOL    HW2 5829   3.559   6.627   4.887
 1644SOL     OW 5830   2.763   2.537   1.439
 1644SOL    HW1 5831   2.731   2.481   1.362
 1644SOL    HW2 5832   2.715   2.510   1.522
 1645SOL     OW 5833   2.789   6.108   5.620
 1645SOL    HW1 5834   2.835   6.145   5.700
 1645SOL    HW2 5835   2.790   6.176   5.546
 1646SOL     OW 5836   2.768   4.860   1.358
 1646SOL    HW1 5837   2.678   4.859   1.402
 1646SOL    HW2 5838   2.757   4.852   1.259
 1647SOL     OW 5839   6.090   2.659   3.254
 1647SOL    HW1 5840   6.064   2.579   3.307
 1647SOL    HW2 5841   6.099   2.634   3.158
 1648SOL     OW 5842   5.224   6.471   2.224
 1648SOL    HW1 5843   5.277   6.416   2.289
 1648SOL    HW2 5844   5.284   6.504   2.152
 1649SOL     OW 5845   3.298   0.324   2.748
 1649SOL    HW1 5846   3.228   0.285   2.688
 1649SOL    HW2 5847   3.366   0.372   2.693
 1650SOL     OW 5848   2.879   0.001   3.984
 1650SOL    HW1 5849   2.780   0.013   3.977
 1650SOL    HW2 5850   2.915   0.064   4.053
 1651SOL     OW 5851   0.282   0.322   0.277
 1651SOL    HW1 5852   0.231   0.356   0.199
 1651SOL    HW2 5853   0.225   0.259   0.330
 1652SOL     OW 5854   2.511   1.968   0.860
 1652SOL    HW1 5855   2.411   1.972   0.862
 1652SOL    HW2 5856   2.545   1.937   0.949
 1653SOL     OW 5857   0.258   5.167   1.418
 1653SOL    HW1 5858   0.232   5.070   1.418
 1653SOL    HW2 5859   0.187   5.220   1.372
 1654SOL     OW 5860   6.787   3.004   2.398
 1654SOL    HW1 5861   6.734   3.063   2.460
 1654SOL    HW2 5862   6.778   3.039   2.304
 1655SOL     OW 5863   5.650   4.565   6.191
 1655SOL    HW1 5864   5.617   4.587   6.282
 1655SOL    HW2 5865   5.607   4.626   6.124
 1656SOL     OW 5866   1.873   3.784   3.552
 1656SOL    HW1 5867   1.904   3.794   3.647
 1656SOL    HW2 5868   1.777   3.756   3.551
 1657SOL     OW 5869   1.249   0.648   5.699
 1657SOL    HW1 5870   1.177   0.700   5.654
 1657SOL    HW2 5871   1.222   0.628   5.793
 1658SOL     OW 5872   6.594   6.440   2.969
 1658SOL    HW1 5873   6.535   6.394   2.903
 1658SOL    HW2 5874   6.674   6.476   2.922
 1659SOL     OW 5875   3.616   2.323   6.519
 1659SOL    HW1 5876   3.626   2.311   6.618
 1659SOL    HW2 5877   3.632   2.419   6.496
 1660SOL     OW 5878   0.781   5.259   3.766
 1660SOL    HW1 5879   0.786   5.359   3.776
 1660SOL    HW2 5880   0.766   5.236   3.670
 1661SOL     OW 5881   3.262   1.846   2.355
 1661SOL    HW1 5882   3.305   1.767   2.399
 1661SOL    HW2 5883   3.167   1.854   2.385
 1662SOL     OW 5884   6.530   1.720   3.020
 1662SOL    HW1 5885   6.590   1.741   2.944
 1662SOL    HW2 5886   6.456   1.788   3.024
 1663SOL     OW 5887   3.398   0.351   3.367
 1663SOL    HW1 5888   3.393   0.373   3.269
 1663SOL    HW2 5889   3.456   0.270   3.380
 1664SOL     OW 5890   1.593   0.124   4.186
 1664SOL    HW1 5891   1.546   0.183   4.120
 1664SOL    HW2 5892   1.559   0.144   4.278
 1665SOL     OW 5893   0.160   1.439   2.743
 1665SOL    HW1 5894   0.063   1.453   2.724
 1665SOL    HW2 5895   0.173   1.352   2.790
 1666SOL     OW 5896   6.193   3.174   6.608
 1666SOL    HW1 5897   6.145   3.251   6.565
 1666SOL    HW2 5898   6.133   3.131   6.675
 1667SOL     OW 5899   5.859   6.918   0.203
 1667SOL    HW1 5900   5.896   6.830   0.233
 1667SOL    HW2 5901   5.880   6.931   0.106
 1668SOL     OW 5902   4.769   0.092   4.839
 1668SOL    HW1 5903   4.789   7.014   4.856
 1668SOL    HW2 5904   4.854   0.145   4.846
 1669SOL     OW 5905   5.476   5.906   0.016
 1669SOL    HW1 5906   5.480   5.987   6.975
 1669SOL    HW2 5907   5.429   5.832   6.987
 1670SOL     OW 5908   6.308   5.537   6.108
 1670SOL    HW1 5909   6.252   5.559   6.188
 1670SOL    HW2 5910   6.298   5.440   6.086
 1671SOL     OW 5911   4.550   2.819   0.983
 1671SOL    HW1 5912   4.575   2.898   1.040
 1671SOL    HW2 5913   4.515   2.746   1.042
 1672SOL     OW 5914   2.076   4.405   2.445
 1672SOL    HW1 5915   2.167   4.390   2.485
 1672SOL    HW2 5916   2.025   4.470   2.501
 1673SOL     OW 5917   6.381   2.891   4.819
 1673SOL    HW1 5918   6.300   2.919   4.768
 1673SOL    HW2 5919   6.421   2.810   4.777
 1674SOL     OW 5920   1.320   4.147   1.030
 1674SOL    HW1 5921   1.406   4.097   1.036
 1674SOL    HW2 5922   1.251   4.101   1.086
 1675SOL     OW 5923   4.467   0.755   6.804
 1675SOL    HW1 5924   4.480   0.717   6.713
 1675SOL    HW2 5925   4.433   0.684   6.866
 1676SOL     OW 5926   2.252   1.089   2.482
 1676SOL    HW1 5927   2.346   1.057   2.471
 1676SOL    HW2 5928   2.196   1.055   2.407
 1677SOL     OW 5929   5.458   1.959   5.508
 1677SOL    HW1 5930   5.369   1.987   5.543
 1677SOL    HW2 5931   5.468   1.992   5.414
 1678SOL     OW 5932   5.311   5.358   3.502
 1678SOL    HW1 5933   5.310   5.276   3.445
 1678SOL    HW2 5934   5.349   5.336   3.592
 1679SOL     OW 5935   1.634   3.971   5.615
 1679SOL    HW1 5936   1.594   4.041   5.556
 1679SOL    HW2 5937   1.578   3.961   5.697
 1680SOL     OW 5938   0.967   1.849   3.842
 1680SOL    HW1 5939   0.892   1.790   3.812
 1680SOL    HW2 5940   0.930   1.933   3.882
 1681SOL     OW 5941   5.996   5.217   1.120
 1681SOL    HW1 5942   6.043   5.249   1.038
 1681SOL    HW2 5943   5.922   5.281   1.143
 1682SOL     OW 5944   0.211   3.188   4.751
 1682SOL    HW1 5945   0.233   3.108   4.807
 1682SOL    HW2 5946   0.272   3.192   4.672
 1683SOL     OW 5947   3.915   4.923   1.042
 1683SOL    HW1 5948   3.897   4.910   1.139
 1683SOL    HW2 5949   3.982   4.855   1.011
 1684SOL     OW 5950   0.585   6.355   4.987
 1684SOL    HW1 5951   0.649   6.281   5.009
 1684SOL    HW2 5952   0.626   6.443   5.009
 1685SOL     OW 5953   1.961   0.926   6.414
 1685SOL    HW1 5954   1.970   0.836   6.457
 1685SOL    HW2 5955   1.878   0.971   6.447
 1686SOL     OW 5956   1.506   5.604   5.781
 1686SOL    HW1 5957   1.581   5.584   5.844
 1686SOL    HW2 5958   1.444   5.526   5.777
 1687SOL     OW 5959   2.079   3.767   2.107
 1687SOL    HW1 5960   2.052   3.742   2.200
 1687SOL    HW2 5961   2.091   3.685   2.052
 1688SOL     OW 5962   1.365   1.751   3.030
 1688SOL    HW1 5963   1.436   1.815   3.060
 1688SOL    HW2 5964   1.382   1.724   2.936
 1689SOL     OW 5965   3.295   2.163   1.859
 1689SOL    HW1 5966   3.366   2.211   1.808
 1689SOL    HW2 5967   3.300   2.190   1.956
 1690SOL     OW 5968   1.637   2.018   3.088
 1690SOL    HW1 5969   1.721   2.072   3.081
 1690SOL    HW2 5970   1.656   1.932   3.135
 1691SOL     OW 5971   5.447   4.103   3.229
 1691SOL    HW1 5972   5.425   4.048   3.310
 1691SOL    HW2 5973   5.391   4.186   3.229
 1692SOL     OW 5974   6.663   0.131   1.146
 1692SOL    HW1 5975   6.733   0.193   1.111
 1692SOL    HW2 5976   6.669   0.127   1.245
 1693SOL     OW 5977   1.834   2.371   3.723
 1693SOL    HW1 5978   1.754   2.359   3.783
 1693SOL    HW2 5979   1.834   2.299   3.654
 1694SOL     OW 5980   4.274   6.340   5.014
 1694SOL    HW1 5981   4.208   6.270   4.988
 1694SOL    HW2 5982   4.367   6.304   5.006
 1695SOL     OW 5983   2.153   2.009   5.440
 1695SOL    HW1 5984   2.084   1.940   5.456
 1695SOL    HW2 5985   2.121   2.098   5.473
 1696SOL     OW 5986   4.931   5.500   0.406
 1696SOL    HW1 5987   4.832   5.503   0.388
 1696SOL    HW2 5988   4.947   5.489   0.504
 1697SOL     OW 5989   0.548   6.768   0.896
 1697SOL    HW1 5990   0.595   6.733   0.978
 1697SOL    HW2 5991   0.586   6.724   0.815
 1698SOL     OW 5992   4.827   1.851   1.235
 1698SOL    HW1 5993   4.837   1.775   1.299
 1698SOL    HW2 5994   4.807   1.815   1.143
 1699SOL     OW 5995   2.741   2.362   1.198
 1699SOL    HW1 5996   2.682   2.285   1.174
 1699SOL    HW2 5997   2.816   2.367   1.132
 1700SOL     OW 5998   6.624   2.525   3.551
 1700SOL    HW1 5999   6.677   2.516   3.635
 1700SOL    HW2 6000   6.680   2.500   3.473
 1701SOL     OW 6001   5.684   2.558   4.811
 1701SOL    HW1 6002   5.590   2.553   4.843
 1701SOL    HW2 6003   5.743   2.506   4.872
 1702SOL     OW 6004   6.614   3.960   1.114
 1702SOL    HW1 6005   6.685   3.980   1.047
 1702SOL    HW2 6006   6.656   3.942   1.203
 1703SOL     OW 6007   3.047   3.914   1.829
 1703SOL    HW1 6008   3.131   3.952   1.868
 1703SOL    HW2 6009   3.015   3.974   1.755
 1704SOL     OW 6010   0.637   1.243   0.457
 1704SOL    HW1 6011   0.733   1.227   0.435
 1704SOL    HW2 6012   0.601   1.317   0.400
 1705SOL     OW 6013   3.484   2.231   1.421
 1705SOL    HW1 6014   3.399   2.269   1.384
 1705SOL    HW2 6015   3.477   2.225   1.520
 1706SOL     OW 6016   4.191   0.572   1.494
 1706SOL    HW1 6017   4.291   0.577   1.502
 1706SOL    HW2 6018   4.162   0.477   1.507
 1707SOL     OW 6019   4.402   1.454   2.310
 1707SOL    HW1 6020   4.502   1.449   2.301
 1707SOL    HW2 6021   4.378   1.509   2.390
 1708SOL     OW 6022   6.770   5.994   2.829
 1708SOL    HW1 6023   6.745   6.070   2.769
 1708SOL    HW2 6024   6.853   6.019   2.880
 1709SOL     OW 6025   2.266   6.889   2.391
 1709SOL    HW1 6026   2.187   6.940   2.357
 1709SOL    HW2 6027   2.323   6.861   2.314
 1710SOL     OW 6028   0.113   3.896   3.585
 1710SOL    HW1 6029   0.164   3.971   3.627
 1710SOL    HW2 6030   0.138   3.888   3.489
 1711SOL     OW 6031   1.366   4.494   5.006
 1711SOL    HW1 6032   1.280   4.541   4.986
 1711SOL    HW2 6033   1.441   4.560   5.004
 1712SOL     OW 6034   0.752   4.036   6.571
 1712SOL    HW1 6035   0.680   3.983   6.616
 1712SOL    HW2 6036   0.797   4.096   6.638
 1713SOL     OW 6037   2.044   2.457   1.364
 1713SOL    HW1 6038   1.980   2.531   1.382
 1713SOL    HW2 6039   2.055   2.402   1.448
 1714SOL     OW 6040   3.752   1.902   6.685
 1714SOL    HW1 6041   3.654   1.892   6.702
 1714SOL    HW2 6042   3.766   1.956   6.603
 1715SOL     OW 6043   6.749   3.112   3.587
 1715SOL    HW1 6044   6.783   3.034   3.534
 1715SOL    HW2 6045   6.805   3.122   3.669
 1716SOL     OW 6046   5.830   6.909   1.293
 1716SOL    HW1 6047   5.817   7.008   1.301
 1716SOL    HW2 6048   5.883   6.875   1.370
 1717SOL     OW 6049   2.394   6.026   6.740
 1717SOL    HW1 6050   2.411   5.931   6.714
 1717SOL    HW2 6051   2.459   6.053   6.811
 1718SOL     OW 6052   2.185   3.010   0.302
 1718SOL    HW1 6053   2.250   2.991   0.229
 1718SOL    HW2 6054   2.229   2.996   0.391
 1719SOL     OW 6055   2.051   3.333   1.686
 1719SOL    HW1 6056   2.137   3.283   1.693
 1719SOL    HW2 6057   2.068   3.431   1.692
 1720SOL     OW 6058   6.658   1.936   0.902
 1720SOL    HW1 6059   6.749   1.897   0.897
 1720SOL    HW2 6060   6.602   1.901   0.827
 1721SOL     OW 6061   1.540   6.311   2.887
 1721SOL    HW1 6062   1.528   6.361   2.801
 1721SOL    HW2 6063   1.468   6.337   2.951
 1722SOL     OW 6064   5.638   0.017   2.770
 1722SOL    HW1 6065   5.628   6.945   2.731
 1722SOL    HW2 6066   5.587   0.083   2.715
 1723SOL     OW 6067   6.409   2.362   3.141
 1723SOL    HW1 6068   6.456   2.446   3.116
 1723SOL    HW2 6069   6.411   2.351   3.240
 1724SOL     OW 6070   6.037   1.016   0.120
 1724SOL    HW1 6071   6.034   1.034   0.218
 1724SOL    HW2 6072   5.976   0.939   0.098
 1725SOL     OW 6073   3.552   4.430   0.023
 1725SOL    HW1 6074   3.626   4.497   0.023
 1725SOL    HW2 6075   3.591   4.338   0.030
 1726SOL     OW 6076   6.773   4.559   4.687
 1726SOL    HW1 6077   6.706   4.633   4.686
 1726SOL    HW2 6078   6.736   4.480   4.636
 1727SOL     OW 6079   3.700   3.285   4.756
 1727SOL    HW1 6080   3.709   3.385   4.759
 1727SOL    HW2 6081   3.606   3.261   4.733
 1728SOL     OW 6082   5.096   4.490   4.293
 1728SOL    HW1 6083   5.111   4.551   4.216
 1728SOL    HW2 6084   5.040   4.413   4.265
 1729SOL     OW 6085   1.694   4.152   2.959
 1729SOL    HW1 6086   1.780   4.197   2.936
 1729SOL    HW2 6087   1.696   4.124   3.055
 1730SOL     OW 6088   6.492   1.201   5.028
 1730SOL    HW1 6089   6.532   1.168   5.114
 1730SOL    HW2 6090   6.562   1.249   4.975
 1731SOL     OW 6091   1.622   4.722   1.873
 1731SOL    HW1 6092   1.565   4.641   1.866
 1731SOL    HW2 6093   1.700   4.703   1.933
 1732SOL     OW 6094   2.283   4.522   6.989
 1732SOL    HW1 6095   2.292   4.565   6.900
 1732SOL    HW2 6096   2.208   4.456   6.987
 1733SOL     OW 6097   1.489   3.689   2.265
 1733SOL    HW1 6098   1.504   3.618   2.333
 1733SOL    HW2 6099   1.394   3.718   2.267
 1734SOL     OW 6100   4.639   2.865   1.459
 1734SOL    HW1 6101   4.632   2.765   1.463
 1734SOL    HW2 6102   4.679   2.899   1.543
 1735SOL     OW 6103   5.749   5.835   1.483
 1735SOL    HW1 6104   5.784   5.798   1.569
 1735SOL    HW2 6105   5.704   5.762   1.431
 1736SOL     OW 6106   4.728   2.490   0.024
 1736SOL    HW1 6107   4.738   2.550   6.963
 1736SOL    HW2 6108   4.644   2.436   0.015
 1737SOL     OW 6109   2.429   0.296   3.770
 1737SOL    HW1 6110   2.511   0.354   3.774
 1737SOL    HW2 6111   2.420   0.245   3.855
 1738SOL     OW 6112   1.986   3.011   3.243
 1738SOL    HW1 6113   1.932   3.078   3.294
 1738SOL    HW2 6114   1.992   2.926   3.296
 1739SOL     OW 6115   4.390   2.125   4.947
 1739SOL    HW1 6116   4.459   2.054   4.940
 1739SOL    HW2 6117   4.338   2.112   5.032
 1740SOL     OW 6118   6.810   1.166   6.410
 1740SOL    HW1 6119   6.712   1.148   6.402
 1740SOL    HW2 6120   6.828   1.261   6.383
 1741SOL     OW 6121   1.555   0.957   2.597
 1741SOL    HW1 6122   1.525   0.862   2.609
 1741SOL    HW2 6123   1.651   0.958   2.569
 1742SOL     OW 6124   4.494   6.582   6.399
 1742SOL    HW1 6125   4.566   6.649   6.381
 1742SOL    HW2 6126   4.479   6.527   6.318
 1743SOL     OW 6127   1.301   0.946   1.998
 1743SOL    HW1 6128   1.340   0.871   1.945
 1743SOL    HW2 6129   1.323   1.033   1.956
 1744SOL     OW 6130   2.156   0.280   1.805
 1744SOL    HW1 6131   2.148   0.350   1.875
 1744SOL    HW2 6132   2.127   0.317   1.717
 1745SOL     OW 6133   6.489   1.659   4.178
 1745SOL    HW1 6134   6.557   1.732   4.183
 1745SOL    HW2 6135   6.478   1.630   4.083
 1746SOL     OW 6136   2.836   5.974   5.923
 1746SOL    HW1 6137   2.820   6.072   5.921
 1746SOL    HW2 6138   2.856   5.945   6.017
 1747SOL     OW 6139   4.777   6.688   1.971
 1747SOL    HW1 6140   4.704   6.756   1.966
 1747SOL    HW2 6141   4.828   6.700   2.056
 1748SOL     OW 6142   6.420   1.742   3.713
 1748SOL    HW1 6143   6.458   1.650   3.700
 1748SOL    HW2 6144   6.361   1.764   3.635
 1749SOL     OW 6145   3.964   6.606   5.877
 1749SOL    HW1 6146   4.024   6.668   5.825
 1749SOL    HW2 6147   3.904   6.558   5.813
 1750SOL     OW 6148   5.286   1.195   2.830
 1750SOL    HW1 6149   5.351   1.131   2.788
 1750SOL    HW2 6150   5.309   1.208   2.926
 1751SOL     OW 6151   3.016   4.947   4.193
 1751SOL    HW1 6152   3.008   4.973   4.289
 1751SOL    HW2 6153   2.968   5.013   4.136
 1752SOL     OW 6154   6.449   2.509   0.962
 1752SOL    HW1 6155   6.457   2.444   0.886
 1752SOL    HW2 6156   6.538   2.551   0.979
 1753SOL     OW 6157   0.528   0.368   0.119
 1753SOL    HW1 6158   0.450   0.312   0.147
 1753SOL    HW2 6159   0.609   0.310   0.110
 1754SOL     OW 6160   3.762   3.776   0.971
 1754SOL    HW1 6161   3.822   3.843   1.015
 1754SOL    HW2 6162   3.669   3.787   1.006
 1755SOL     OW 6163   5.088   4.526   1.671
 1755SOL    HW1 6164   5.059   4.554   1.763
 1755SOL    HW2 6165   5.132   4.602   1.625
 1756SOL     OW 6166   5.979   4.758   4.960
 1756SOL    HW1 6167   6.000   4.846   5.002
 1756SOL    HW2 6168   5.929   4.773   4.875
 1757SOL     OW 6169   1.981   6.839   4.933
 1757SOL    HW1 6170   1.945   6.925   4.969
 1757SOL    HW2 6171   2.076   6.852   4.904
 1758SOL     OW 6172   2.754   1.179   3.329
 1758SOL    HW1 6173   2.819   1.107   3.304
 1758SOL    HW2 6174   2.802   1.266   3.337
 1759SOL     OW 6175   0.417   5.019   6.419
 1759SOL    HW1 6176   0.476   5.095   6.392
 1759SOL    HW2 6177   0.463   4.932   6.398
 1760SOL     OW 6178   6.489   1.964   1.357
 1760SOL    HW1 6179   6.550   1.921   1.424
 1760SOL    HW2 6180   6.469   2.058   1.384
 1761SOL     OW 6181   6.551   0.249   0.717
 1761SOL    HW1 6182   6.541   0.300   0.632
 1761SOL    HW2 6183   6.503   0.296   0.790
 1762SOL     OW 6184   6.248   1.927   5.332
 1762SOL    HW1 6185   6.255   2.024   5.307
 1762SOL    HW2 6186   6.217   1.874   5.253
 1763SOL     OW 6187   2.117   3.944   4.384
 1763SOL    HW1 6188   2.062   4.027   4.374
 1763SOL    HW2 6189   2.099   3.883   4.307
 1764SOL     OW 6190   2.010   4.082   2.379
 1764SOL    HW1 6191   1.946   4.154   2.350
 1764SOL    HW2 6192   2.075   4.120   2.445
 1765SOL     OW 6193   3.192   1.269   6.751
 1765SOL    HW1 6194   3.203   1.352   6.806
 1765SOL    HW2 6195   3.146   1.199   6.805
 1766SOL     OW 6196   5.288   2.619   4.393
 1766SOL    HW1 6197   5.374   2.618   4.343
 1766SOL    HW2 6198   5.235   2.538   4.369
 1767SOL     OW 6199   5.243   4.061   2.944
 1767SOL    HW1 6200   5.263   4.143   2.890
 1767SOL    HW2 6201   5.328   4.024   2.981
 1768SOL     OW 6202   4.430   0.295   4.932
 1768SOL    HW1 6203   4.502   0.250   4.986
 1768SOL    HW2 6204   4.430   0.259   4.839
 1769SOL     OW 6205   4.202   2.015   4.444
 1769SOL    HW1 6206   4.268   2.060   4.384
 1769SOL    HW2 6207   4.240   2.008   4.536
 1770SOL     OW 6208   1.581   5.403   4.681
 1770SOL    HW1 6209   1.660   5.393   4.742
 1770SOL    HW2 6210   1.611   5.441   4.594
 1771SOL     OW 6211   2.942   6.039   6.514
 1771SOL    HW1 6212   2.965   6.134   6.534
 1771SOL    HW2 6213   2.867   6.009   6.573
 1772SOL     OW 6214   3.579   0.114   4.041
 1772SOL    HW1 6215   3.655   0.141   4.101
 1772SOL    HW2 6216   3.598   0.145   3.948
 1773SOL     OW 6217   2.569   5.068   5.380
 1773SOL    HW1 6218   2.644   5.014   5.419
 1773SOL    HW2 6219   2.523   5.118   5.454
 1774SOL     OW 6220   4.326   5.748   1.783
 1774SOL    HW1 6221   4.425   5.737   1.781
 1774SOL    HW2 6222   4.295   5.793   1.699
 1775SOL     OW 6223   1.514   3.878   3.446
 1775SOL    HW1 6224   1.526   3.865   3.348
 1775SOL    HW2 6225   1.559   3.962   3.474
 1776SOL     OW 6226   3.859   6.381   4.491
 1776SOL    HW1 6227   3.859   6.373   4.391
 1776SOL    HW2 6228   3.891   6.472   4.517
 1777SOL     OW 6229   3.825   5.380   6.416
 1777SOL    HW1 6230   3.923   5.398   6.408
 1777SOL    HW2 6231   3.787   5.361   6.326
 1778SOL     OW 6232   4.542   3.578   5.707
 1778SOL    HW1 6233   4.570   3.618   5.620
 1778SOL    HW2 6234   4.480   3.501   5.690
 1779SOL     OW 6235   4.415   0.595   4.907
 1779SOL    HW1 6236   4.316   0.577   4.907
 1779SOL    HW2 6237   4.464   0.509   4.892
 1780SOL     OW 6238   3.837   2.878   6.962
 1780SOL    HW1 6239   3.877   2.840   6.879
 1780SOL    HW2 6240   3.747   2.838   6.978
 1781SOL     OW 6241   4.050   5.987   2.740
 1781SOL    HW1 6242   4.013   6.023   2.826
 1781SOL    HW2 6243   4.148   6.008   2.734
 1782SOL     OW 6244   2.938   1.509   2.717
 1782SOL    HW1 6245   2.903   1.563   2.641
 1782SOL    HW2 6246   3.031   1.478   2.696
 1783SOL     OW 6247   1.876   5.707   5.797
 1783SOL    HW1 6248   1.903   5.739   5.706
 1783SOL    HW2 6249   1.934   5.750   5.866
 1784SOL     OW 6250   4.185   1.460   6.286
 1784SOL    HW1 6251   4.104   1.465   6.227
 1784SOL    HW2 6252   4.252   1.399   6.244
 1785SOL     OW 6253   6.346   3.919   2.910
 1785SOL    HW1 6254   6.262   3.869   2.927
 1785SOL    HW2 6255   6.404   3.867   2.847
 1786SOL     OW 6256   2.107   2.710   6.990
 1786SOL    HW1 6257   2.036   2.764   0.016
 1786SOL    HW2 6258   2.067   2.625   6.954
 1787SOL     OW 6259   2.681   1.368   4.969
 1787SOL    HW1 6260   2.618   1.433   4.927
 1787SOL    HW2 6261   2.629   1.294   5.013
 1788SOL     OW 6262   2.738   3.510   6.936
 1788SOL    HW1 6263   2.824   3.471   6.969
 1788SOL    HW2 6264   2.757   3.585   6.872
 1789SOL     OW 6265   5.829   1.621   2.362
 1789SOL    HW1 6266   5.732   1.636   2.344
 1789SOL    HW2 6267   5.878   1.708   2.360
 1790SOL     OW 6268   4.224   6.277   3.827
 1790SOL    HW1 6269   4.150   6.269   3.760
 1790SOL    HW2 6270   4.273   6.190   3.834
 1791SOL     OW 6271   6.145   0.453   3.682
 1791SOL    HW1 6272   6.161   0.544   3.718
 1791SOL    HW2 6273   6.157   0.453   3.583
 1792SOL     OW 6274   6.408   3.193   5.270
 1792SOL    HW1 6275   6.365   3.180   5.181
 1792SOL    HW2 6276   6.441   3.287   5.278
 1793SOL     OW 6277   6.014   6.990   3.633
 1793SOL    HW1 6278   6.005   0.044   3.565
 1793SOL    HW2 6279   6.031   6.903   3.587
 1794SOL     OW 6280   5.243   6.522   5.420
 1794SOL    HW1 6281   5.296   6.485   5.344
 1794SOL    HW2 6282   5.259   6.466   5.502
 1795SOL     OW 6283   0.981   1.889   1.456
 1795SOL    HW1 6284   0.987   1.863   1.360
 1795SOL    HW2 6285   1.052   1.957   1.477
 1796SOL     OW 6286   2.734   1.002   5.229
 1796SOL    HW1 6287   2.651   0.980   5.280
 1796SOL    HW2 6288   2.727   1.094   5.191
 1797SOL     OW 6289   1.427   6.916   0.791
 1797SOL    HW1 6290   1.350   6.909   0.855
 1797SOL    HW2 6291   1.511   6.934   0.843
 1798SOL     OW 6292   4.653   2.162   3.902
 1798SOL    HW1 6293   4.641   2.176   4.000
 1798SOL    HW2 6294   4.576   2.202   3.852
 1799SOL     OW 6295   6.816   2.677   5.224
 1799SOL    HW1 6296   6.834   2.579   5.221
 1799SOL    HW2 6297   6.892   2.723   5.271
 1800SOL     OW 6298   4.303   4.633   1.901
 1800SOL    HW1 6299   4.211   4.642   1.863
 1800SOL    HW2 6300   4.359   4.709   1.868
 1801SOL     OW 6301   0.106   0.105   1.645
 1801SOL    HW1 6302   0.196   0.072   1.673
 1801SOL    HW2 6303   0.104   0.114   1.545
 1802SOL     OW 6304   5.093   5.286   4.178
 1802SOL    HW1 6305   5.177   5.287   4.124
 1802SOL    HW2 6306   5.116   5.301   4.275
 1803SOL     OW 6307   0.325   5.658   6.444
 1803SOL    HW1 6308   0.240   5.608   6.459
 1803SOL    HW2 6309   0.315   5.752   6.477
 1804SOL     OW 6310   2.379   3.750   5.326
 1804SOL    HW1 6311   2.459   3.736   5.385
 1804SOL    HW2 6312   2.377   3.844   5.294
 1805SOL     OW 6313   5.650   4.222   5.885
 1805SOL    HW1 6314   5.647   4.122   5.878
 1805SOL    HW2 6315   5.593   4.262   5.814
 1806SOL     OW 6316   0.494   0.051   6.951
 1806SOL    HW1 6317   0.426   0.122   6.968
 1806SOL    HW2 6318   0.551   0.077   6.873
 1807SOL     OW 6319   5.138   2.824   4.765
 1807SOL    HW1 6320   5.171   2.821   4.670
 1807SOL    HW2 6321   5.217   2.820   4.827
 1808SOL     OW 6322   0.351   4.315   5.762
 1808SOL    HW1 6323   0.363   4.407   5.797
 1808SOL    HW2 6324   0.266   4.276   5.797
 1809SOL     OW 6325   1.894   2.506   5.026
 1809SOL    HW1 6326   1.966   2.568   4.996
 1809SOL    HW2 6327   1.813   2.518   4.968
 1810SOL     OW 6328   2.931   6.979   3.640
 1810SOL    HW1 6329   2.893   0.044   3.681
 1810SOL    HW2 6330   2.862   6.938   3.580
 1811SOL     OW 6331   5.875   5.840   3.495
 1811SOL    HW1 6332   5.927   5.766   3.538
 1811SOL    HW2 6333   5.777   5.824   3.505
 1812SOL     OW 6334   4.222   5.859   4.800
 1812SOL    HW1 6335   4.200   5.923   4.873
 1812SOL    HW2 6336   4.147   5.794   4.789
 1813SOL     OW 6337   5.960   4.119   0.833
 1813SOL    HW1 6338   5.950   4.080   0.924
 1813SOL    HW2 6339   6.057   4.116   0.806
 1814SOL     OW 6340   5.437   6.951   2.419
 1814SOL    HW1 6341   5.491   6.987   2.343
 1814SOL    HW2 6342   5.340   6.953   2.394
 1815SOL     OW 6343   0.861   2.032   2.666
 1815SOL    HW1 6344   0.832   1.998   2.576
 1815SOL    HW2 6345   0.814   2.118   2.685
 1816SOL     OW 6346   2.978   3.465   1.230
 1816SOL    HW1 6347   3.056   3.431   1.178
 1816SOL    HW2 6348   2.973   3.417   1.318
 1817SOL     OW 6349   2.586   6.803   2.595
 1817SOL    HW1 6350   2.559   6.789   2.499
 1817SOL    HW2 6351   2.673   6.757   2.613
 1818SOL     OW 6352   1.147   0.061   3.056
 1818SOL    HW1 6353   1.198   0.146   3.064
 1818SOL    HW2 6354   1.174   0.014   2.972
 1819SOL     OW 6355   1.112   4.065   1.896
 1819SOL    HW1 6356   1.031   4.115   1.865
 1819SOL    HW2 6357   1.192   4.125   1.890
 1820SOL     OW 6358   3.720   1.150   3.032
 1820SOL    HW1 6359   3.809   1.192   3.014
 1820SOL    HW2 6360   3.660   1.163   2.953
 1821SOL     OW 6361   0.690   1.303   2.209
 1821SOL    HW1 6362   0.649   1.326   2.298
 1821SOL    HW2 6363   0.742   1.218   2.217
 1822SOL     OW 6364   3.087   2.148   1.195
 1822SOL    HW1 6365   3.041   2.230   1.162
 1822SOL    HW2 6366   3.102   2.156   1.294
 1823SOL     OW 6367   3.716   5.968   3.427
 1823SOL    HW1 6368   3.781   5.926   3.363
 1823SOL    HW2 6369   3.727   6.067   3.426
 1824SOL     OW 6370   4.013   2.125   1.021
 1824SOL    HW1 6371   3.971   2.174   1.097
 1824SOL    HW2 6372   4.000   2.027   1.033
 1825SOL     OW 6373   1.306   0.231   2.308
 1825SOL    HW1 6374   1.320   0.241   2.406
 1825SOL    HW2 6375   1.338   0.315   2.262
 1826SOL     OW 6376   3.388   1.322   1.527
 1826SOL    HW1 6377   3.327   1.350   1.600
 1826SOL    HW2 6378   3.344   1.253   1.470
 1827SOL     OW 6379   0.152   5.129   2.328
 1827SOL    HW1 6380   0.081   5.133   2.258
 1827SOL    HW2 6381   0.209   5.048   2.313
 1828SOL     OW 6382   0.426   2.403   7.012
 1828SOL    HW1 6383   0.426   2.305   6.991
 1828SOL    HW2 6384   0.333   2.439   7.002
 1829SOL     OW 6385   4.629   0.168   3.242
 1829SOL    HW1 6386   4.633   0.071   3.265
 1829SOL    HW2 6387   4.535   0.201   3.250
 1830SOL     OW 6388   5.521   5.796   4.010
 1830SOL    HW1 6389   5.424   5.812   4.026
 1830SOL    HW2 6390   5.536   5.782   3.912
 1831SOL     OW 6391   5.797   6.648   2.808
 1831SOL    HW1 6392   5.722   6.698   2.851
 1831SOL    HW2 6393   5.858   6.612   2.878
 1832SOL     OW 6394   5.351   2.128   0.952
 1832SOL    HW1 6395   5.449   2.124   0.934
 1832SOL    HW2 6396   5.336   2.167   1.044
 1833SOL     OW 6397   5.576   0.951   4.890
 1833SOL    HW1 6398   5.513   1.003   4.832
 1833SOL    HW2 6399   5.670   0.977   4.869
 1834SOL     OW 6400   3.339   4.102   6.944
 1834SOL    HW1 6401   3.352   4.003   6.951
 1834SOL    HW2 6402   3.424   4.148   6.968
 1835SOL     OW 6403   1.326   4.658   1.654
 1835SOL    HW1 6404   1.413   4.622   1.620
 1835SOL    HW2 6405   1.290   4.725   1.589
 1836SOL     OW 6406   0.028   2.205   1.094
 1836SOL    HW1 6407   0.101   2.205   1.025
 1836SOL    HW2 6408   0.066   2.185   1.184
 1837SOL     OW 6409   0.448   2.186   3.582
 1837SOL    HW1 6410   0.524   2.242   3.549
 1837SOL    HW2 6411   0.370   2.246   3.603
 1838SOL     OW 6412   0.186   1.884   3.594
 1838SOL    HW1 6413   0.219   1.961   3.539
 1838SOL    HW2 6414   0.169   1.915   3.687
 1839SOL     OW 6415   4.665   2.726   5.003
 1839SOL    HW1 6416   4.593   2.657   4.992
 1839SOL    HW2 6417   4.722   2.728   4.921
 1840SOL     OW 6418   3.182   6.174   1.604
 1840SOL    HW1 6419   3.252   6.119   1.648
 1840SOL    HW2 6420   3.149   6.244   1.667
 1841SOL     OW 6421   1.937   3.605   4.810
 1841SOL    HW1 6422   2.003   3.640   4.743
 1841SOL    HW2 6423   1.983   3.589   4.897
 1842SOL     OW 6424   0.756   5.698   0.310
 1842SOL    HW1 6425   0.855   5.709   0.311
 1842SOL    HW2 6426   0.714   5.771   0.363
 1843SOL     OW 6427   2.199   2.540   4.478
 1843SOL    HW1 6428   2.258   2.619   4.458
 1843SOL    HW2 6429   2.192   2.528   4.577
 1844SOL     OW 6430   3.746   1.257   5.653
 1844SOL    HW1 6431   3.815   1.256   5.725
 1844SOL    HW2 6432   3.789   1.234   5.566
 1845SOL     OW 6433   2.158   0.559   6.336
 1845SOL    HW1 6434   2.235   0.602   6.383
 1845SOL    HW2 6435   2.188   0.471   6.299
 1846SOL     OW 6436   4.042   2.100   6.610
 1846SOL    HW1 6437   3.954   2.118   6.566
 1846SOL    HW2 6438   4.052   2.002   6.626
 1847SOL     OW 6439   1.588   0.848   6.355
 1847SOL    HW1 6440   1.532   0.858   6.437
 1847SOL    HW2 6441   1.547   0.900   6.280
 1848SOL     OW 6442   1.915   5.753   2.733
 1848SOL    HW1 6443   1.937   5.842   2.774
 1848SOL    HW2 6444   1.886   5.767   2.638
 1849SOL     OW 6445   4.188   1.345   0.510
 1849SOL    HW1 6446   4.187   1.346   0.610
 1849SOL    HW2 6447   4.148   1.259   0.477
 1850SOL     OW 6448   6.357   2.001   2.476
 1850SOL    HW1 6449   6.258   1.993   2.490
 1850SOL    HW2 6450   6.376   2.083   2.422
 1851SOL     OW 6451   6.966   1.198   1.105
 1851SOL    HW1 6452   0.031   1.230   1.063
 1851SOL    HW2 6453   6.916   1.276   1.144
 1852SOL     OW 6454   4.584   3.879   1.039
 1852SOL    HW1 6455   4.585   3.953   1.106
 1852SOL    HW2 6456   4.490   3.850   1.023
 1853SOL     OW 6457   0.903   3.268   2.126
 1853SOL    HW1 6458   0.991   3.229   2.151
 1853SOL    HW2 6459   0.898   3.363   2.156
 1854SOL     OW 6460   2.908   6.237   4.005
 1854SOL    HW1 6461   2.863   6.154   4.037
 1854SOL    HW2 6462   2.843   6.293   3.954
 1855SOL     OW 6463   4.570   4.588   0.136
 1855SOL    HW1 6464   4.651   4.647   0.131
 1855SOL    HW2 6465   4.544   4.574   0.231
 1856SOL     OW 6466   6.316   3.066   5.648
 1856SOL    HW1 6467   6.334   2.986   5.705
 1856SOL    HW2 6468   6.309   3.147   5.707
 1857SOL     OW 6469   3.699   0.950   5.633
 1857SOL    HW1 6470   3.768   0.931   5.564
 1857SOL    HW2 6471   3.744   0.963   5.722
 1858SOL     OW 6472   6.071   3.081   3.528
 1858SOL    HW1 6473   6.044   3.036   3.613
 1858SOL    HW2 6474   6.011   3.051   3.453
 1859SOL     OW 6475   4.018   1.389   3.712
 1859SOL    HW1 6476   4.006   1.305   3.660
 1859SOL    HW2 6477   4.077   1.370   3.792
 1860SOL     OW 6478   6.827   1.052   3.282
 1860SOL    HW1 6479   6.804   1.021   3.375
 1860SOL    HW2 6480   6.742   1.071   3.232
 1861SOL     OW 6481   4.724   6.436   2.073
 1861SOL    HW1 6482   4.761   6.515   2.024
 1861SOL    HW2 6483   4.775   6.421   2.157
 1862SOL     OW 6484   2.058   6.699   6.851
 1862SOL    HW1 6485   2.071   6.646   6.935
 1862SOL    HW2 6486   2.126   6.773   6.847
 1863SOL     OW 6487   2.384   2.550   0.540
 1863SOL    HW1 6488   2.475   2.563   0.580
 1863SOL    HW2 6489   2.394   2.531   0.442
 1864SOL     OW 6490   1.161   0.303   5.417
 1864SOL    HW1 6491   1.105   0.247   5.356
 1864SOL    HW2 6492   1.108   0.330   5.497
 1865SOL     OW 6493   3.687   0.573   5.751
 1865SOL    HW1 6494   3.669   0.618   5.663
 1865SOL    HW2 6495   3.750   0.496   5.736
 1866SOL     OW 6496   4.872   4.689   2.320
 1866SOL    HW1 6497   4.867   4.629   2.240
 1866SOL    HW2 6498   4.878   4.633   2.403
 1867SOL     OW 6499   0.776   4.238   0.637
 1867SOL    HW1 6500   0.842   4.294   0.588
 1867SOL    HW2 6501   0.824   4.176   0.699
 1868SOL     OW 6502   5.178   4.710   0.072
 1868SOL    HW1 6503   5.115   4.632   0.069
 1868SOL    HW2 6504   5.156   4.772   7.015
 1869SOL     OW 6505   6.592   2.295   4.626
 1869SOL    HW1 6506   6.643   2.312   4.710
 1869SOL    HW2 6507   6.502   2.338   4.631
 1870SOL     OW 6508   2.060   4.392   5.728
 1870SOL    HW1 6509   2.085   4.335   5.650
 1870SOL    HW2 6510   2.132   4.387   5.797
 1871SOL     OW 6511   1.072   6.749   0.199
 1871SOL    HW1 6512   1.044   6.844   0.214
 1871SOL    HW2 6513   1.042   6.718   0.109
 1872SOL     OW 6514   3.698   4.208   6.955
 1872SOL    HW1 6515   3.665   4.116   6.932
 1872SOL    HW2 6516   3.769   4.236   6.891
 1873SOL     OW 6517   4.398   1.239   5.287
 1873SOL    HW1 6518   4.343   1.193   5.357
 1873SOL    HW2 6519   4.375   1.201   5.197
 1874SOL     OW 6520   2.674   1.514   1.054
 1874SOL    HW1 6521   2.626   1.564   1.126
 1874SOL    HW2 6522   2.772   1.518   1.070
 1875SOL     OW 6523   0.940   0.839   6.534
 1875SOL    HW1 6524   0.953   0.747   6.572
 1875SOL    HW2 6525   0.925   0.833   6.436
 1876SOL     OW 6526   3.290   0.664   5.555
 1876SOL    HW1 6527   3.270   0.673   5.458
 1876SOL    HW2 6528   3.209   0.690   5.608
 1877SOL     OW 6529   0.581   0.242   3.273
 1877SOL    HW1 6530   0.637   0.178   3.325
 1877SOL    HW2 6531   0.569   0.207   3.180
 1878SOL     OW 6532   6.927   2.016   3.782
 1878SOL    HW1 6533   6.923   1.943   3.713
 1878SOL    HW2 6534   7.009   2.005   3.837
 1879SOL     OW 6535   1.016   3.887   4.196
 1879SOL    HW1 6536   0.998   3.818   4.127
 1879SOL    HW2 6537   1.017   3.844   4.287
 1880SOL     OW 6538   6.986   1.227   4.738
 1880SOL    HW1 6539   6.914   1.294   4.751
 1880SOL    HW2 6540   0.011   1.206   4.825
 1881SOL     OW 6541   5.593   2.300   2.344
 1881SOL    HW1 6542   5.530   2.352   2.287
 1881SOL    HW2 6543   5.610   2.210   2.302
 1882SOL     OW 6544   1.228   4.362   6.499
 1882SOL    HW1 6545   1.281   4.423   6.558
 1882SOL    HW2 6546   1.141   4.406   6.475
 1883SOL     OW 6547   6.308   2.489   2.651
 1883SOL    HW1 6548   6.353   2.574   2.625
 1883SOL    HW2 6549   6.375   2.428   2.696
 1884SOL     OW 6550   1.032   1.974   0.683
 1884SOL    HW1 6551   1.024   2.005   0.778
 1884SOL    HW2 6552   1.049   1.875   0.682
 1885SOL     OW 6553   1.713   2.055   6.216
 1885SOL    HW1 6554   1.642   1.998   6.175
 1885SOL    HW2 6555   1.678   2.097   6.300
 1886SOL     OW 6556   1.821   0.063   1.774
 1886SOL    HW1 6557   1.888   0.004   1.819
 1886SOL    HW2 6558   1.791   0.021   1.689
 1887SOL     OW 6559   0.667   5.637   5.850
 1887SOL    HW1 6560   0.739   5.607   5.787
 1887SOL    HW2 6561   0.693   5.615   5.944
 1888SOL     OW 6562   3.067   2.037   6.800
 1888SOL    HW1 6563   3.087   2.056   6.704
 1888SOL    HW2 6564   3.118   1.956   6.830
 1889SOL     OW 6565   0.223   3.466   4.174
 1889SOL    HW1 6566   0.314   3.502   4.153
 1889SOL    HW2 6567   0.153   3.524   4.131
 1890SOL     OW 6568   0.896   5.740   3.954
 1890SOL    HW1 6569   0.856   5.721   4.044
 1890SOL    HW2 6570   0.996   5.746   3.962
 1891SOL     OW 6571   4.568   2.547   1.753
 1891SOL    HW1 6572   4.593   2.613   1.824
 1891SOL    HW2 6573   4.475   2.515   1.770
 1892SOL     OW 6574   0.258   0.304   2.041
 1892SOL    HW1 6575   0.216   0.347   2.121
 1892SOL    HW2 6576   0.186   0.279   1.976
 1893SOL     OW 6577   3.421   2.819   2.035
 1893SOL    HW1 6578   3.403   2.918   2.034
 1893SOL    HW2 6579   3.508   2.801   1.990
 1894SOL     OW 6580   3.536   3.851   4.001
 1894SOL    HW1 6581   3.570   3.758   4.014
 1894SOL    HW2 6582   3.542   3.875   3.904
 1895SOL     OW 6583   4.266   6.778   0.700
 1895SOL    HW1 6584   4.254   6.775   0.601
 1895SOL    HW2 6585   4.271   6.873   0.730
 1896SOL     OW 6586   5.931   1.468   0.705
 1896SOL    HW1 6587   6.000   1.420   0.651
 1896SOL    HW2 6588   5.924   1.426   0.796
 1897SOL     OW 6589   1.798   5.003   2.554
 1897SOL    HW1 6590   1.883   4.996   2.502
 1897SOL    HW2 6591   1.751   5.088   2.530
 1898SOL     OW 6592   2.350   4.549   2.823
 1898SOL    HW1 6593   2.332   4.451   2.820
 1898SOL    HW2 6594   2.396   4.576   2.738
 1899SOL     OW 6595   0.491   1.337   0.121
 1899SOL    HW1 6596   0.519   1.377   0.208
 1899SOL    HW2 6597   0.555   1.364   0.049
 1900SOL     OW 6598   2.273   0.634   0.019
 1900SOL    HW1 6599   2.361   0.600   0.053
 1900SOL    HW2 6600   2.283   0.667   6.944
 1901SOL     OW 6601   2.636   2.330   0.787
 1901SOL    HW1 6602   2.611   2.233   0.794
 1901SOL    HW2 6603   2.605   2.378   0.869
 1902SOL     OW 6604   2.654   0.694   4.456
 1902SOL    HW1 6605   2.710   0.655   4.383
 1902SOL    HW2 6606   2.670   0.793   4.461
 1903SOL     OW 6607   0.819   3.506   2.849
 1903SOL    HW1 6608   0.798   3.463   2.937
 1903SOL    HW2 6609   0.864   3.439   2.790
 1904SOL     OW 6610   5.726   5.119   2.979
 1904SOL    HW1 6611   5.682   5.123   3.069
 1904SOL    HW2 6612   5.822   5.145   2.988
 1905SOL     OW 6613   0.824   0.451   3.481
 1905SOL    HW1 6614   0.858   0.523   3.542
 1905SOL    HW2 6615   0.817   0.365   3.532
 1906SOL     OW 6616   2.970   0.879   6.098
 1906SOL    HW1 6617   3.053   0.860   6.046
 1906SOL    HW2 6618   2.901   0.810   6.077
 1907SOL     OW 6619   4.935   2.659   1.154
 1907SOL    HW1 6620   4.852   2.604   1.149
 1907SOL    HW2 6621   4.927   2.725   1.229
 1908SOL     OW 6622   3.895   6.574   6.276
 1908SOL    HW1 6623   3.956   6.626   6.336
 1908SOL    HW2 6624   3.801   6.605   6.288
 1909SOL     OW 6625   0.624   3.448   3.652
 1909SOL    HW1 6626   0.681   3.523   3.619
 1909SOL    HW2 6627   0.680   3.381   3.701
 1910SOL     OW 6628   6.780   6.559   5.300
 1910SOL    HW1 6629   6.772   6.656   5.322
 1910SOL    HW2 6630   6.689   6.523   5.276
 1911SOL     OW 6631   6.979   3.983   4.811
 1911SOL    HW1 6632   6.971   3.936   4.899
 1911SOL    HW2 6633   7.016   4.074   4.825
 1912SOL     OW 6634   2.766   5.639   2.606
 1912SOL    HW1 6635   2.752   5.542   2.622
 1912SOL    HW2 6636   2.680   5.688   2.623
 1913SOL     OW 6637   2.419   0.104   4.524
 1913SOL    HW1 6638   2.432   0.142   4.615
 1913SOL    HW2 6639   2.506   0.107   4.474
 1914SOL     OW 6640   4.074   3.634   0.042
 1914SOL    HW1 6641   4.085   3.671   0.134
 1914SOL    HW2 6642   4.084   3.708   6.994
 1915SOL     OW 6643   4.914   3.067   5.824
 1915SOL    HW1 6644   4.873   3.103   5.740
 1915SOL    HW2 6645   4.852   3.083   5.901
 1916SOL     OW 6646   4.491   6.260   1.115
 1916SOL    HW1 6647   4.502   6.273   1.214
 1916SOL    HW2 6648   4.402   6.220   1.097
 1917SOL     OW 6649   2.867   3.454   0.438
 1917SOL    HW1 6650   2.858   3.389   0.513
 1917SOL    HW2 6651   2.895   3.404   0.355
 1918SOL     OW 6652   0.789   0.870   4.623
 1918SOL    HW1 6653   0.827   0.924   4.548
 1918SOL    HW2 6654   0.707   0.916   4.659
 1919SOL     OW 6655   1.575   1.376   0.803
 1919SOL    HW1 6656   1.566   1.288   0.850
 1919SOL    HW2 6657   1.649   1.371   0.736
 1920SOL     OW 6658   6.131   2.833   2.413
 1920SOL    HW1 6659   6.047   2.868   2.454
 1920SOL    HW2 6660   6.209   2.887   2.446
 1921SOL     OW 6661   1.001   2.983   6.954
 1921SOL    HW1 6662   1.005   2.990   6.854
 1921SOL    HW2 6663   1.025   3.071   6.995
 1922SOL     OW 6664   3.240   3.241   2.046
 1922SOL    HW1 6665   3.328   3.194   2.034
 1922SOL    HW2 6666   3.170   3.174   2.071
 1923SOL     OW 6667   4.231   1.148   0.189
 1923SOL    HW1 6668   4.305   1.184   0.131
 1923SOL    HW2 6669   4.270   1.096   0.264
 1924SOL     OW 6670   4.618   6.902   0.726
 1924SOL    HW1 6671   4.558   6.890   0.805
 1924SOL    HW2 6672   4.643   6.999   0.718
 1925SOL     OW 6673   1.024   4.580   1.666
 1925SOL    HW1 6674   1.099   4.520   1.639
 1925SOL    HW2 6675   0.950   4.526   1.704
 1926SOL     OW 6676   3.236   0.246   1.991
 1926SOL    HW1 6677   3.160   0.252   1.926
 1926SOL    HW2 6678   3.203   0.263   2.084
 1927SOL     OW 6679   2.601   3.719   0.825
 1927SOL    HW1 6680   2.554   3.664   0.757
 1927SOL    HW2 6681   2.541   3.736   0.903
 1928SOL     OW 6682   4.953   4.902   4.214
 1928SOL    HW1 6683   4.877   4.954   4.253
 1928SOL    HW2 6684   4.917   4.834   4.149
 1929SOL     OW 6685   2.651   0.760   2.342
 1929SOL    HW1 6686   2.706   0.841   2.364
 1929SOL    HW2 6687   2.587   0.782   2.269
 1930SOL     OW 6688   5.322   3.610   6.706
 1930SOL    HW1 6689   5.393   3.654   6.651
 1930SOL    HW2 6690   5.358   3.526   6.747
 1931SOL     OW 6691   0.765   1.829   6.763
 1931SOL    HW1 6692   0.826   1.776   6.822
 1931SOL    HW2 6693   0.779   1.802   6.667
 1932SOL     OW 6694   4.565   2.610   3.427
 1932SOL    HW1 6695   4.566   2.531   3.487
 1932SOL    HW2 6696   4.488   2.604   3.364
 1933SOL     OW 6697   0.563   1.699   0.558
 1933SOL    HW1 6698   0.474   1.659   0.580
 1933SOL    HW2 6699   0.551   1.793   0.527
 1934SOL     OW 6700   0.547   0.309   5.257
 1934SOL    HW1 6701   0.540   0.397   5.304
 1934SOL    HW2 6702   0.501   0.239   5.311
 1935SOL     OW 6703   4.697   4.398   4.015
 1935SOL    HW1 6704   4.634   4.473   3.992
 1935SOL    HW2 6705   4.683   4.322   3.952
 1936SOL     OW 6706   5.074   3.749   3.765
 1936SOL    HW1 6707   5.143   3.686   3.730
 1936SOL    HW2 6708   5.112   3.842   3.768
 1937SOL     OW 6709   4.517   6.066   6.591
 1937SOL    HW1 6710   4.526   6.157   6.552
 1937SOL    HW2 6711   4.578   6.003   6.542
 1938SOL     OW 6712   1.291   2.889   6.879
 1938SOL    HW1 6713   1.390   2.885   6.872
 1938SOL    HW2 6714   1.251   2.896   6.788
 1939SOL     OW 6715   0.315   5.645   4.513
 1939SOL    HW1 6716   0.412   5.622   4.510
 1939SOL    HW2 6717   0.291   5.697   4.431
 1940SOL     OW 6718   5.838   4.481   2.112
 1940SOL    HW1 6719   5.751   4.448   2.076
 1940SOL    HW2 6720   5.864   4.566   2.066
 1941SOL     OW 6721   0.260   2.699   3.620
 1941SOL    HW1 6722   0.345   2.709   3.672
 1941SOL    HW2 6723   0.281   2.674   3.526
 1942SOL     OW 6724   5.597   4.028   2.775
 1942SOL    HW1 6725   5.685   4.056   2.812
 1942SOL    HW2 6726   5.539   3.994   2.848
 1943SOL     OW 6727   1.245   1.512   2.088
 1943SOL    HW1 6728   1.250   1.602   2.132
 1943SOL    HW2 6729   1.227   1.442   2.157
 1944SOL     OW 6730   6.840   3.904   0.551
 1944SOL    HW1 6731   6.845   3.814   0.507
 1944SOL    HW2 6732   6.744   3.930   0.563
 1945SOL     OW 6733   4.092   6.433   0.833
 1945SOL    HW1 6734   4.088   6.336   0.812
 1945SOL    HW2 6735   4.015   6.457   0.892
 1946SOL     OW 6736   5.845   6.051   1.268
 1946SOL    HW1 6737   5.943   6.059   1.246
 1946SOL    HW2 6738   5.827   5.960   1.303
 1947SOL     OW 6739   6.371   5.184   3.705
 1947SOL    HW1 6740   6.331   5.126   3.776
 1947SOL    HW2 6741   6.346   5.279   3.722
 1948SOL     OW 6742   6.140   3.885   2.612
 1948SOL    HW1 6743   6.042   3.905   2.614
 1948SOL    HW2 6744   6.189   3.955   2.663
 1949SOL     OW 6745   3.661   4.369   0.432
 1949SOL    HW1 6746   3.653   4.287   0.489
 1949SOL    HW2 6747   3.745   4.418   0.456
 1950SOL     OW 6748   3.659   3.617   4.045
 1950SOL    HW1 6749   3.744   3.568   4.063
 1950SOL    HW2 6750   3.581   3.556   4.057
 1951SOL     OW 6751   6.604   4.279   5.743
 1951SOL    HW1 6752   6.538   4.207   5.725
 1951SOL    HW2 6753   6.574   4.364   5.700
 1952SOL     OW 6754   4.847   4.096   1.318
 1952SOL    HW1 6755   4.850   3.999   1.294
 1952SOL    HW2 6756   4.940   4.128   1.335
 1953SOL     OW 6757   6.866   1.476   6.439
 1953SOL    HW1 6758   6.910   1.454   6.526
 1953SOL    HW2 6759   6.931   1.463   6.364
 1954SOL     OW 6760   5.476   0.958   1.745
 1954SOL    HW1 6761   5.456   0.942   1.842
 1954SOL    HW2 6762   5.393   0.942   1.692
 1955SOL     OW 6763   0.671   1.563   1.883
 1955SOL    HW1 6764   0.691   1.465   1.894
 1955SOL    HW2 6765   0.627   1.597   1.965
 1956SOL     OW 6766   5.461   0.929   2.802
 1956SOL    HW1 6767   5.538   0.950   2.742
 1956SOL    HW2 6768   5.380   0.909   2.747
 1957SOL     OW 6769   4.911   3.145   3.872
 1957SOL    HW1 6770   4.865   3.218   3.922
 1957SOL    HW2 6771   5.005   3.173   3.850
 1958SOL     OW 6772   4.649   1.557   1.032
 1958SOL    HW1 6773   4.709   1.477   1.033
 1958SOL    HW2 6774   4.631   1.584   0.937
 1959SOL     OW 6775   6.421   6.999   3.943
 1959SOL    HW1 6776   6.428   0.079   3.961
 1959SOL    HW2 6777   6.363   6.956   4.012
 1960SOL     OW 6778   6.156   2.548   2.994
 1960SOL    HW1 6779   6.091   2.507   2.930
 1960SOL    HW2 6780   6.235   2.581   2.944
 1961SOL     OW 6781   6.496   4.670   4.636
 1961SOL    HW1 6782   6.442   4.695   4.555
 1961SOL    HW2 6783   6.476   4.734   4.710
 1962SOL     OW 6784   1.334   6.002   2.852
 1962SOL    HW1 6785   1.300   6.079   2.905
 1962SOL    HW2 6786   1.361   6.034   2.761
 1963SOL     OW 6787   0.879   1.067   1.848
 1963SOL    HW1 6788   0.909   1.014   1.769
 1963SOL    HW2 6789   0.828   1.007   1.910
 1964SOL     OW 6790   5.388   4.378   1.578
 1964SOL    HW1 6791   5.303   4.426   1.599
 1964SOL    HW2 6792   5.373   4.314   1.503
 1965SOL     OW 6793   0.843   3.917   3.957
 1965SOL    HW1 6794   0.847   3.827   3.914
 1965SOL    HW2 6795   0.922   3.929   4.018
 1966SOL     OW 6796   1.583   4.750   1.113
 1966SOL    HW1 6797   1.530   4.784   1.191
 1966SOL    HW2 6798   1.599   4.652   1.123
 1967SOL     OW 6799   6.577   2.550   4.061
 1967SOL    HW1 6800   6.547   2.645   4.075
 1967SOL    HW2 6801   6.606   2.538   3.966
 1968SOL     OW 6802   2.456   0.939   5.510
 1968SOL    HW1 6803   2.399   0.962   5.588
 1968SOL    HW2 6804   2.437   1.003   5.435
 1969SOL     OW 6805   2.997   0.803   1.862
 1969SOL    HW1 6806   2.958   0.788   1.953
 1969SOL    HW2 6807   3.033   0.896   1.856
 1970SOL     OW 6808   6.332   6.725   5.318
 1970SOL    HW1 6809   6.238   6.751   5.296
 1970SOL    HW2 6810   6.393   6.803   5.302
 1971SOL     OW 6811   1.541   6.997   5.748
 1971SOL    HW1 6812   1.574   6.916   5.797
 1971SOL    HW2 6813   1.448   7.019   5.778
 1972SOL     OW 6814   5.895   2.642   1.443
 1972SOL    HW1 6815   5.844   2.567   1.400
 1972SOL    HW2 6816   5.986   2.610   1.470
 1973SOL     OW 6817   2.717   3.491   1.450
 1973SOL    HW1 6818   2.774   3.409   1.439
 1973SOL    HW2 6819   2.681   3.518   1.361
 1974SOL     OW 6820   4.145   6.446   4.424
 1974SOL    HW1 6821   4.236   6.467   4.458
 1974SOL    HW2 6822   4.082   6.520   4.449
 1975SOL     OW 6823   2.043   2.822   3.700
 1975SOL    HW1 6824   1.994   2.750   3.748
 1975SOL    HW2 6825   1.986   2.858   3.626
 1976SOL     OW 6826   6.238   0.017   6.801
 1976SOL    HW1 6827   6.196   6.971   6.865
 1976SOL    HW2 6828   6.167   0.069   6.754
 1977SOL     OW 6829   2.768   3.324   6.673
 1977SOL    HW1 6830   2.791   3.297   6.579
 1977SOL    HW2 6831   2.685   3.276   6.702
 1978SOL     OW 6832   2.561   6.215   2.691
 1978SOL    HW1 6833   2.487   6.279   2.674
 1978SOL    HW2 6834   2.631   6.259   2.747
 1979SOL     OW 6835   6.156   5.111   6.900
 1979SOL    HW1 6836   6.065   5.093   6.863
 1979SOL    HW2 6837   6.165   5.208   6.923
 1980SOL     OW 6838   2.817   0.621   2.503
 1980SOL    HW1 6839   2.751   0.671   2.447
 1980SOL    HW2 6840   2.805   0.523   2.489
 1981SOL     OW 6841   4.849   2.827   2.981
 1981SOL    HW1 6842   4.766   2.834   3.035
 1981SOL    HW2 6843   4.867   2.730   2.961
 1982SOL     OW 6844   6.251   3.639   4.064
 1982SOL    HW1 6845   6.329   3.578   4.053
 1982SOL    HW2 6846   6.251   3.706   3.990
 1983SOL     OW 6847   0.468   0.027   0.815
 1983SOL    HW1 6848   0.402   0.091   0.855
 1983SOL    HW2 6849   0.444   6.952   0.841
 1984SOL     OW 6850   5.074   2.410   5.214
 1984SOL    HW1 6851   4.989   2.461   5.204
 1984SOL    HW2 6852   5.151   2.474   5.219
 1985SOL     OW 6853   6.492   4.927   1.664
 1985SOL    HW1 6854   6.556   4.914   1.588
 1985SOL    HW2 6855   6.400   4.944   1.627
 1986SOL     OW 6856   2.967   0.889   6.587
 1986SOL    HW1 6857   2.933   0.843   6.505
 1986SOL    HW2 6858   2.975   0.987   6.570
 1987SOL     OW 6859   1.629   1.261   4.160
 1987SOL    HW1 6860   1.617   1.249   4.259
 1987SOL    HW2 6861   1.544   1.238   4.113
 1988SOL     OW 6862   0.645   1.537   1.293
 1988SOL    HW1 6863   0.546   1.526   1.301
 1988SOL    HW2 6864   0.682   1.465   1.234
 1989SOL     OW 6865   2.779   5.677   4.853
 1989SOL    HW1 6866   2.751   5.770   4.879
 1989SOL    HW2 6867   2.780   5.619   4.934
 1990SOL     OW 6868   3.927   0.493   0.012
 1990SOL    HW1 6869   3.833   0.478   0.042
 1990SOL    HW2 6870   3.937   0.587   6.999
 1991SOL     OW 6871   2.784   5.616   6.921
 1991SOL    HW1 6872   2.734   5.687   6.971
 1991SOL    HW2 6873   2.720   5.562   6.867
 1992SOL     OW 6874   6.772   6.314   0.047
 1992SOL    HW1 6875   6.734   6.222   0.048
 1992SOL    HW2 6876   6.872   6.309   0.043
 1993SOL     OW 6877   2.302   2.782   4.827
 1993SOL    HW1 6878   2.294   2.697   4.879
 1993SOL    HW2 6879   2.348   2.851   4.883
 1994SOL     OW 6880   4.197   3.240   0.737
 1994SOL    HW1 6881   4.145   3.169   0.691
 1994SOL    HW2 6882   4.189   3.326   0.686
 1995SOL     OW 6883   5.451   2.379   4.618
 1995SOL    HW1 6884   5.447   2.477   4.640
 1995SOL    HW2 6885   5.404   2.363   4.531
 1996SOL     OW 6886   3.115   1.864   1.141
 1996SOL    HW1 6887   3.125   1.963   1.154
 1996SOL    HW2 6888   3.156   1.816   1.219
 1997SOL     OW 6889   3.346   1.583   3.787
 1997SOL    HW1 6890   3.431   1.626   3.757
 1997SOL    HW2 6891   3.274   1.652   3.797
 1998SOL     OW 6892   1.337   3.217   1.166
 1998SOL    HW1 6893   1.354   3.288   1.234
 1998SOL    HW2 6894   1.269   3.153   1.202
 1999SOL     OW 6895   0.487   0.380   4.966
 1999SOL    HW1 6896   0.471   0.290   4.925
 1999SOL    HW2 6897   0.508   0.370   5.063
 2000SOL     OW 6898   4.126   3.668   6.204
 2000SOL    HW1 6899   4.101   3.694   6.297
 2000SOL    HW2 6900   4.085   3.734   6.140
 2001SOL     OW 6901   1.895   1.892   6.737
 2001SOL    HW1 6902   1.807   1.938   6.722
 2001SOL    HW2 6903   1.935   1.866   6.649
 2002SOL     OW 6904   0.327   5.507   1.088
 2002SOL    HW1 6905   0.236   5.484   1.055
 2002SOL    HW2 6906   0.332   5.605   1.106
 2003SOL     OW 6907   6.500   5.319   2.100
 2003SOL    HW1 6908   6.502   5.223   2.070
 2003SOL    HW2 6909   6.417   5.363   2.067
 2004SOL     OW 6910   3.695   0.397   3.561
 2004SOL    HW1 6911   3.727   0.303   3.550
 2004SOL    HW2 6912   3.755   0.446   3.624
 2005SOL     OW 6913   0.010   6.001   0.145
 2005SOL    HW1 6914   0.082   5.945   0.104
 2005SOL    HW2 6915   0.006   6.089   0.097
 2006SOL     OW 6916   5.477   0.292   4.024
 2006SOL    HW1 6917   5.437   0.366   4.078
 2006SOL    HW2 6918   5.574   0.313   4.007
 2007SOL     OW 6919   4.874   4.487   1.016
 2007SOL    HW1 6920   4.806   4.550   0.978
 2007SOL    HW2 6921   4.844   4.455   1.106
 2008SOL     OW 6922   2.113   3.908   3.777
 2008SOL    HW1 6923   2.111   3.961   3.862
 2008SOL    HW2 6924   2.139   3.968   3.701
 2009SOL     OW 6925   6.118   6.189   1.612
 2009SOL    HW1 6926   6.049   6.138   1.665
 2009SOL    HW2 6927   6.076   6.271   1.573
 2010SOL     OW 6928   1.413   2.444   1.416
 2010SOL    HW1 6929   1.389   2.360   1.367
 2010SOL    HW2 6930   1.415   2.520   1.351
 2011SOL     OW 6931   6.978   0.070   5.374
 2011SOL    HW1 6932   0.051   0.109   5.379
 2011SOL    HW2 6933   6.949   0.065   5.278
 2012SOL     OW 6934   1.569   3.640   1.965
 2012SOL    HW1 6935   1.654   3.683   1.933
 2012SOL    HW2 6936   1.566   3.641   2.065
 2013SOL     OW 6937   0.366   2.996   3.397
 2013SOL    HW1 6938   0.431   2.921   3.401
 2013SOL    HW2 6939   0.341   3.013   3.301
 2014SOL     OW 6940   3.180   0.373   3.511
 2014SOL    HW1 6941   3.121   0.296   3.488
 2014SOL    HW2 6942   3.259   0.374   3.448
 2015SOL     OW 6943   3.767   1.024   1.424
 2015SOL    HW1 6944   3.725   1.080   1.496
 2015SOL    HW2 6945   3.748   0.928   1.443
 2016SOL     OW 6946   1.561   6.012   5.517
 2016SOL    HW1 6947   1.577   5.987   5.422
 2016SOL    HW2 6948   1.501   5.945   5.561
 2017SOL     OW 6949   4.336   6.495   3.324
 2017SOL    HW1 6950   4.307   6.491   3.419
 2017SOL    HW2 6951   4.274   6.554   3.272
 2018SOL     OW 6952   0.178   2.333   3.277
 2018SOL    HW1 6953   0.211   2.322   3.183
 2018SOL    HW2 6954   0.078   2.334   3.278
 2019SOL     OW 6955   6.253   4.929   6.400
 2019SOL    HW1 6956   6.275   4.881   6.484
 2019SOL    HW2 6957   6.264   4.867   6.322
 2020SOL     OW 6958   1.493   6.264   5.800
 2020SOL    HW1 6959   1.499   6.287   5.897
 2020SOL    HW2 6960   1.442   6.179   5.789
 2021SOL     OW 6961   6.212   6.426   3.334
 2021SOL    HW1 6962   6.267   6.391   3.411
 2021SOL    HW2 6963   6.116   6.405   3.351
 2022SOL     OW 6964   1.965   4.136   5.010
 2022SOL    HW1 6965   2.054   4.089   5.006
 2022SOL    HW2 6966   1.927   4.126   5.102
 2023SOL     OW 6967   0.019   0.476   6.839
 2023SOL    HW1 6968   6.974   0.528   6.782
 2023SOL    HW2 6969   0.088   0.433   6.782
 2024SOL     OW 6970   0.189   5.396   4.034
 2024SOL    HW1 6971   0.202   5.394   4.133
 2024SOL    HW2 6972   0.170   5.489   4.004
 2025SOL     OW 6973   2.459   1.048   4.296
 2025SOL    HW1 6974   2.470   1.051   4.197
 2025SOL    HW2 6975   2.368   1.082   4.321
 2026SOL     OW 6976   5.673   0.898   6.437
 2026SOL    HW1 6977   5.703   0.822   6.495
 2026SOL    HW2 6978   5.574   0.895   6.426
 2027SOL     OW 6979   0.662   5.889   1.404
 2027SOL    HW1 6980   0.760   5.865   1.402
 2027SOL    HW2 6981   0.608   5.806   1.392
 2028SOL     OW 6982   3.812   6.026   2.600
 2028SOL    HW1 6983   3.828   6.014   2.502
 2028SOL    HW2 6984   3.899   6.024   2.648
 2029SOL     OW 6985   0.006   2.006   6.572
 2029SOL    HW1 6986   0.092   1.954   6.576
 2029SOL    HW2 6987   6.988   2.002   6.479
 2030SOL     OW 6988   3.421   6.252   3.052
 2030SOL    HW1 6989   3.397   6.189   3.126
 2030SOL    HW2 6990   3.426   6.345   3.088
 2031SOL     OW 6991   6.864   5.753   2.787
 2031SOL    HW1 6992   6.906   5.737   2.876
 2031SOL    HW2 6993   6.818   5.841   2.788
 2032SOL     OW 6994   3.357   1.555   6.661
 2032SOL    HW1 6995   3.424   1.500   6.711
 2032SOL    HW2 6996   3.278   1.572   6.720
 2033SOL     OW 6997   1.238   0.989   0.854
 2033SOL    HW1 6998   1.240   0.900   0.900
 2033SOL    HW2 6999   1.245   1.061   0.922
 2034SOL     OW 7000   1.279   5.382   5.722
 2034SOL    HW1 7001   1.324   5.296   5.698
 2034SOL    HW2 7002   1.274   5.392   5.821
 2035SOL     OW 7003   6.445   6.780   1.896
 2035SOL    HW1 7004   6.443   6.879   1.890
 2035SOL    HW2 7005   6.453   6.741   1.804
 2036SOL     OW 7006   1.038   3.347   3.030
 2036SOL    HW1 7007   1.044   3.254   2.996
 2036SOL    HW2 7008   1.122   3.397   3.008
 2037SOL     OW 7009   0.047   2.969   6.411
 2037SOL    HW1 7010   6.985   2.916   6.438
 2037SOL    HW2 7011   0.018   3.046   6.354
 2038SOL     OW 7012   2.713   1.218   0.105
 2038SOL    HW1 7013   2.644   1.286   0.079
 2038SOL    HW2 7014   2.804   1.261   0.104
 2039SOL     OW 7015   0.019   5.902   2.375
 2039SOL    HW1 7016   0.118   5.920   2.378
 2039SOL    HW2 7017   7.010   5.856   2.459
 2040SOL     OW 7018   2.328   2.590   0.075
 2040SOL    HW1 7019   2.381   2.535   0.011
 2040SOL    HW2 7020   2.248   2.628   0.027
 2041SOL     OW 7021   1.861   6.941   5.875
 2041SOL    HW1 7022   1.798   6.969   5.947
 2041SOL    HW2 7023   1.816   6.953   5.786
 2042SOL     OW 7024   4.658   0.439   6.362
 2042SOL    HW1 7025   4.750   0.403   6.346
 2042SOL    HW2 7026   4.613   0.458   6.275
 2043SOL     OW 7027   0.065   2.678   1.166
 2043SOL    HW1 7028   0.002   2.601   1.178
 2043SOL    HW2 7029   0.148   2.647   1.120
 2044SOL     OW 7030   5.371   1.376   0.843
 2044SOL    HW1 7031   5.444   1.428   0.798
 2044SOL    HW2 7032   5.369   1.398   0.940
 2045SOL     OW 7033   1.721   5.533   5.923
 2045SOL    HW1 7034   1.777   5.596   5.869
 2045SOL    HW2 7035   1.779   5.486   5.990
 2046SOL     OW 7036   0.618   1.603   5.472
 2046SOL    HW1 7037   0.569   1.582   5.387
 2046SOL    HW2 7038   0.682   1.678   5.456
 2047SOL     OW 7039   6.235   2.568   0.189
 2047SOL    HW1 7040   6.269   2.573   0.095
 2047SOL    HW2 7041   6.312   2.579   0.252
 2048SOL     OW 7042   0.822   1.490   4.024
 2048SOL    HW1 7043   0.796   1.436   3.944
 2048SOL    HW2 7044   0.912   1.460   4.057
 2049SOL     OW 7045   4.522   1.577   4.708
 2049SOL    HW1 7046   4.434   1.623   4.694
 2049SOL    HW2 7047   4.553   1.538   4.621
 2050SOL     OW 7048   0.635   1.683   4.006
 2050SOL    HW1 7049   0.567   1.658   3.937
 2050SOL    HW2 7050   0.693   1.605   4.026
 2051SOL     OW 7051   3.213   6.789   1.153
 2051SOL    HW1 7052   3.122   6.755   1.130
 2051SOL    HW2 7053   3.268   6.796   1.069
 2052SOL     OW 7054   1.923   4.034   0.174
 2052SOL    HW1 7055   1.894   4.126   0.199
 2052SOL    HW2 7056   1.959   4.035   0.080
 2053SOL     OW 7057   1.134   5.452   3.969
 2053SOL    HW1 7058   1.074   5.388   4.017
 2053SOL    HW2 7059   1.148   5.534   4.026
 2054SOL     OW 7060   3.246   3.255   2.799
 2054SOL    HW1 7061   3.151   3.258   2.830
 2054SOL    HW2 7062   3.249   3.263   2.700
 2055SOL     OW 7063   1.191   2.696   4.807
 2055SOL    HW1 7064   1.236   2.626   4.752
 2055SOL    HW2 7065   1.102   2.718   4.767
 2056SOL     OW 7066   3.777   5.119   0.793
 2056SOL    HW1 7067   3.719   5.142   0.714
 2056SOL    HW2 7068   3.741   5.039   0.839
 2057SOL     OW 7069   5.687   2.498   4.500
 2057SOL    HW1 7070   5.724   2.406   4.491
 2057SOL    HW2 7071   5.648   2.510   4.591
 2058SOL     OW 7072   1.064   6.997   3.368
 2058SOL    HW1 7073   1.153   6.994   3.323
 2058SOL    HW2 7074   1.005   6.927   3.328
 2059SOL     OW 7075   2.519   0.378   5.769
 2059SOL    HW1 7076   2.584   0.330   5.710
 2059SOL    HW2 7077   2.438   0.402   5.716
 2060SOL     OW 7078   1.318   3.278   0.253
 2060SOL    HW1 7079   1.304   3.183   0.226
 2060SOL    HW2 7080   1.400   3.313   0.208
 2061SOL     OW 7081   2.046   2.243   2.413
 2061SOL    HW1 7082   1.968   2.298   2.444
 2061SOL    HW2 7083   2.014   2.170   2.353
 2062SOL     OW 7084   6.531   5.786   5.104
 2062SOL    HW1 7085   6.479   5.766   5.021
 2062SOL    HW2 7086   6.609   5.724   5.110
 2063SOL     OW 7087   1.657   0.067   5.263
 2063SOL    HW1 7088   1.573   0.019   5.240
 2063SOL    HW2 7089   1.679   0.053   5.359
 2064SOL     OW 7090   0.683   3.300   4.098
 2064SOL    HW1 7091   0.630   3.319   4.181
 2064SOL    HW2 7092   0.639   3.342   4.019
 2065SOL     OW 7093   4.706   2.810   5.456
 2065SOL    HW1 7094   4.713   2.906   5.486
 2065SOL    HW2 7095   4.643   2.804   5.379
 2066SOL     OW 7096   5.759   3.286   5.637
 2066SOL    HW1 7097   5.775   3.268   5.540
 2066SOL    HW2 7098   5.795   3.209   5.691
 2067SOL     OW 7099   6.907   4.542   1.563
 2067SOL    HW1 7100   6.812   4.511   1.576
 2067SOL    HW2 7101   6.939   4.586   1.647
 2068SOL     OW 7102   3.920   0.910   3.793
 2068SOL    HW1 7103   4.004   0.926   3.844
 2068SOL    HW2 7104   3.935   0.836   3.727
 2069SOL     OW 7105   6.725   1.822   4.114
 2069SOL    HW1 7106   6.776   1.769   4.046
 2069SOL    HW2 7107   6.728   1.919   4.090
 2070SOL     OW 7108   1.200   3.416   1.846
 2070SOL    HW1 7109   1.233   3.322   1.832
 2070SOL    HW2 7110   1.266   3.466   1.902
 2071SOL     OW 7111   6.255   1.367   5.829
 2071SOL    HW1 7112   6.187   1.347   5.900
 2071SOL    HW2 7113   6.280   1.464   5.834
 2072SOL     OW 7114   3.871   4.751   5.303
 2072SOL    HW1 7115   3.965   4.720   5.294
 2072SOL    HW2 7116   3.822   4.692   5.367
 2073SOL     OW 7117   3.791   5.905   6.973
 2073SOL    HW1 7118   3.841   5.902   0.041
 2073SOL    HW2 7119   3.779   6.000   6.944
 2074SOL     OW 7120   1.991   3.919   5.897
 2074SOL    HW1 7121   1.966   3.976   5.818
 2074SOL    HW2 7122   2.026   3.831   5.864
 2075SOL     OW 7123   0.122   2.018   1.953
 2075SOL    HW1 7124   0.032   2.024   1.996
 2075SOL    HW2 7125   0.185   2.082   1.998
 2076SOL     OW 7126   5.443   6.653   4.674
 2076SOL    HW1 7127   5.506   6.621   4.745
 2076SOL    HW2 7128   5.472   6.743   4.642
 2077SOL     OW 7129   0.459   3.415   1.471
 2077SOL    HW1 7130   0.501   3.333   1.432
 2077SOL    HW2 7131   0.527   3.488   1.476
 2078SOL     OW 7132   2.414   4.875   5.796
 2078SOL    HW1 7133   2.475   4.796   5.802
 2078SOL    HW2 7134   2.336   4.862   5.857
 2079SOL     OW 7135   5.323   1.492   1.591
 2079SOL    HW1 7136   5.381   1.544   1.528
 2079SOL    HW2 7137   5.280   1.416   1.543
 2080SOL     OW 7138   2.803   2.176   5.287
 2080SOL    HW1 7139   2.781   2.085   5.254
 2080SOL    HW2 7140   2.874   2.217   5.230
 2081SOL     OW 7141   0.180   0.013   3.081
 2081SOL    HW1 7142   0.201   6.964   3.010
 2081SOL    HW2 7143   0.097   0.063   3.057
 2082SOL     OW 7144   0.321   5.820   2.392
 2082SOL    HW1 7145   0.413   5.842   2.361
 2082SOL    HW2 7146   0.325   5.782   2.484
 2083SOL     OW 7147   6.969   6.185   4.187
 2083SOL    HW1 7148   0.010   6.223   4.258
 2083SOL    HW2 7149   6.966   6.248   4.109
 2084SOL     OW 7150   0.838   1.521   2.289
 2084SOL    HW1 7151   0.851   1.611   2.247
 2084SOL    HW2 7152   0.793   1.460   2.223
 2085SOL     OW 7153   5.221   5.812   6.774
 2085SOL    HW1 7154   5.260   5.872   6.704
 2085SOL    HW2 7155   5.212   5.719   6.737
 2086SOL     OW 7156   4.803   0.270   6.912
 2086SOL    HW1 7157   4.785   0.318   6.826
 2086SOL    HW2 7158   4.891   0.300   6.949
 2087SOL     OW 7159   4.291   2.136   0.400
 2087SOL    HW1 7160   4.239   2.196   0.340
 2087SOL    HW2 7161   4.358   2.190   0.452
 2088SOL     OW 7162   0.205   5.733   5.388
 2088SOL    HW1 7163   0.114   5.756   5.424
 2088SOL    HW2 7164   0.222   5.785   5.305
 2089SOL     OW 7165   3.048   3.307   5.922
 2089SOL    HW1 7166   2.962   3.256   5.914
 2089SOL    HW2 7167   3.064   3.358   5.837
 2090SOL     OW 7168   4.513   3.466   5.285
 2090SOL    HW1 7169   4.596   3.498   5.239
 2090SOL    HW2 7170   4.536   3.391   5.347
 2091SOL     OW 7171   6.405   5.872   1.441
 2091SOL    HW1 7172   6.415   5.773   1.451
 2091SOL    HW2 7173   6.431   5.898   1.348
 2092SOL     OW 7174   4.658   3.639   1.162
 2092SOL    HW1 7175   4.617   3.650   1.253
 2092SOL    HW2 7176   4.634   3.718   1.105
 2093SOL     OW 7177   3.905   2.169   2.792
 2093SOL    HW1 7178   3.876   2.082   2.751
 2093SOL    HW2 7179   3.857   2.182   2.879
 2094SOL     OW 7180   5.903   3.033   0.250
 2094SOL    HW1 7181   5.981   2.983   0.287
 2094SOL    HW2 7182   5.930   3.127   0.229
 2095SOL     OW 7183   5.886   6.345   3.732
 2095SOL    HW1 7184   5.814   6.344   3.662
 2095SOL    HW2 7185   5.863   6.280   3.804
 2096SOL     OW 7186   4.310   6.447   2.141
 2096SOL    HW1 7187   4.321   6.526   2.080
 2096SOL    HW2 7188   4.385   6.383   2.126
 2097SOL     OW 7189   2.004   4.575   6.775
 2097SOL    HW1 7190   2.024   4.496   6.834
 2097SOL    HW2 7191   1.991   4.656   6.832
 2098SOL     OW 7192   3.914   6.581   2.922
 2098SOL    HW1 7193   3.905   6.563   2.824
 2098SOL    HW2 7194   3.823   6.600   2.961
 2099SOL     OW 7195   5.053   1.148   0.315
 2099SOL    HW1 7196   5.023   1.093   0.393
 2099SOL    HW2 7197   5.026   1.103   0.230
 2100SOL     OW 7198   5.667   1.139   0.226
 2100SOL    HW1 7199   5.766   1.152   0.233
 2100SOL    HW2 7200   5.625   1.167   0.312
 2101SOL     OW 7201   6.990   6.548   1.512
 2101SOL    HW1 7202   6.979   6.586   1.604
 2101SOL    HW2 7203   0.061   6.572   1.477
 2102SOL     OW 7204   4.031   3.630   1.306
 2102SOL    HW1 7205   4.008   3.543   1.350
 2102SOL    HW2 7206   4.126   3.627   1.274
 2103SOL     OW 7207   2.948   5.821   6.813
 2103SOL    HW1 7208   2.900   5.741   6.850
 2103SOL    HW2 7209   2.882   5.883   6.770
 2104SOL     OW 7210   0.876   4.724   3.000
 2104SOL    HW1 7211   0.920   4.791   3.060
 2104SOL    HW2 7212   0.945   4.662   2.964
 2105SOL     OW 7213   4.949   4.598   6.958
 2105SOL    HW1 7214   4.941   4.641   6.868
 2105SOL    HW2 7215   4.884   4.522   6.965
 2106SOL     OW 7216   4.906   3.603   2.330
 2106SOL    HW1 7217   4.879   3.556   2.413
 2106SOL    HW2 7218   4.945   3.537   2.265
 2107SOL     OW 7219   5.457   3.720   5.229
 2107SOL    HW1 7220   5.495   3.737   5.320
 2107SOL    HW2 7221   5.467   3.623   5.206
 2108SOL     OW 7222   5.937   6.830   6.132
 2108SOL    HW1 7223   5.881   6.831   6.049
 2108SOL    HW2 7224   6.026   6.790   6.111
 2109SOL     OW 7225   3.269   5.819   3.233
 2109SOL    HW1 7226   3.307   5.744   3.179
 2109SOL    HW2 7227   3.194   5.861   3.182
 2110SOL     OW 7228   3.300   0.586   6.768
 2110SOL    HW1 7229   3.353   0.667   6.792
 2110SOL    HW2 7230   3.202   0.606   6.774
 2111SOL     OW 7231   1.062   3.208   5.520
 2111SOL    HW1 7232   1.155   3.206   5.556
 2111SOL    HW2 7233   1.065   3.221   5.421
 2112SOL     OW 7234   0.134   1.602   0.695
 2112SOL    HW1 7235   0.161   1.536   0.765
 2112SOL    HW2 7236   0.048   1.572   0.653
 2113SOL     OW 7237   2.087   0.283   4.535
 2113SOL    HW1 7238   1.995   0.247   4.522
 2113SOL    HW2 7239   2.083   0.383   4.544
 2114SOL     OW 7240   1.549   2.840   6.925
 2114SOL    HW1 7241   1.571   2.912   6.992
 2114SOL    HW2 7242   1.630   2.819   6.871
 2115SOL     OW 7243   0.472   5.442   3.088
 2115SOL    HW1 7244   0.463   5.379   3.166
 2115SOL    HW2 7245   0.459   5.536   3.120
 2116SOL     OW 7246   0.991   2.241   0.089
 2116SOL    HW1 7247   0.935   2.294   0.153
 2116SOL    HW2 7248   0.989   2.144   0.115
 2117SOL     OW 7249   5.679   1.519   2.074
 2117SOL    HW1 7250   5.647   1.599   2.023
 2117SOL    HW2 7251   5.600   1.471   2.113
 2118SOL     OW 7252   6.436   3.368   2.260
 2118SOL    HW1 7253   6.493   3.446   2.233
 2118SOL    HW2 7254   6.340   3.389   2.240
 2119SOL     OW 7255   2.522   0.321   6.883
 2119SOL    HW1 7256   2.581   0.253   6.927
 2119SOL    HW2 7257   2.480   0.280   6.802
 2120SOL     OW 7258   5.967   1.801   0.970
 2120SOL    HW1 7259   6.040   1.854   0.928
 2120SOL    HW2 7260   5.895   1.862   1.003
 2121SOL     OW 7261   1.976   1.159   5.871
 2121SOL    HW1 7262   1.882   1.173   5.838
 2121SOL    HW2 7263   1.973   1.119   5.963
 2122SOL     OW 7264   6.127   0.298   5.197
 2122SOL    HW1 7265   6.175   0.321   5.282
 2122SOL    HW2 7266   6.165   0.352   5.122
 2123SOL     OW 7267   1.162   6.255   2.936
 2123SOL    HW1 7268   1.126   6.226   2.847
 2123SOL    HW2 7269   1.208   6.343   2.927
 2124SOL     OW 7270   3.130   2.854   5.626
 2124SOL    HW1 7271   3.193   2.930   5.644
 2124SOL    HW2 7272   3.066   2.845   5.703
 2125SOL     OW 7273   1.626   5.855   3.356
 2125SOL    HW1 7274   1.677   5.941   3.348
 2125SOL    HW2 7275   1.580   5.853   3.445
 2126SOL     OW 7276   3.768   3.695   6.759
 2126SOL    HW1 7277   3.749   3.601   6.788
 2126SOL    HW2 7278   3.867   3.710   6.756
 2127SOL     OW 7279   0.508   2.923   5.855
 2127SOL    HW1 7280   0.494   2.828   5.883
 2127SOL    HW2 7281   0.456   2.942   5.772
 2128SOL     OW 7282   5.288   3.540   1.872
 2128SOL    HW1 7283   5.383   3.559   1.848
 2128SOL    HW2 7284   5.232   3.537   1.789
 2129SOL     OW 7285   5.576   4.521   3.873
 2129SOL    HW1 7286   5.642   4.448   3.890
 2129SOL    HW2 7287   5.556   4.526   3.775
 2130SOL     OW 7288   1.337   1.178   2.524
 2130SOL    HW1 7289   1.276   1.147   2.597
 2130SOL    HW2 7290   1.421   1.124   2.525
 2131SOL     OW 7291   5.392   1.782   5.808
 2131SOL    HW1 7292   5.466   1.831   5.855
 2131SOL    HW2 7293   5.355   1.839   5.735
 2132SOL     OW 7294   2.513   1.754   6.592
 2132SOL    HW1 7295   2.557   1.808   6.663
 2132SOL    HW2 7296   2.413   1.762   6.600
 2133SOL     OW 7297   2.202   1.711   1.789
 2133SOL    HW1 7298   2.280   1.743   1.735
 2133SOL    HW2 7299   2.227   1.706   1.885
 2134SOL     OW 7300   0.831   6.415   4.624
 2134SOL    HW1 7301   0.872   6.459   4.705
 2134SOL    HW2 7302   0.900   6.410   4.551
 2135SOL     OW 7303   0.461   1.151   3.625
 2135SOL    HW1 7304   0.396   1.191   3.689
 2135SOL    HW2 7305   0.554   1.168   3.658
 2136SOL     OW 7306   0.696   3.361   4.481
 2136SOL    HW1 7307   0.623   3.387   4.417
 2136SOL    HW2 7308   0.656   3.341   4.570
 2137SOL     OW 7309   1.418   6.965   5.291
 2137SOL    HW1 7310   1.440   6.873   5.322
 2137SOL    HW2 7311   1.319   6.972   5.274
 2138SOL     OW 7312   0.091   2.779   0.718
 2138SOL    HW1 7313   0.173   2.824   0.684
 2138SOL    HW2 7314   0.053   2.720   0.646
 2139SOL     OW 7315   3.233   0.477   4.622
 2139SOL    HW1 7316   3.332   0.480   4.606
 2139SOL    HW2 7317   3.187   0.533   4.553
 2140SOL     OW 7318   2.099   6.185   3.734
 2140SOL    HW1 7319   2.074   6.281   3.721
 2140SOL    HW2 7320   2.142   6.150   3.651
 2141SOL     OW 7321   5.918   2.385   0.939
 2141SOL    HW1 7322   5.935   2.299   0.987
 2141SOL    HW2 7323   5.821   2.410   0.948
 2142SOL     OW 7324   1.992   1.908   3.701
 2142SOL    HW1 7325   1.956   1.817   3.683
 2142SOL    HW2 7326   2.020   1.915   3.797
 2143SOL     OW 7327   3.249   0.221   1.560
 2143SOL    HW1 7328   3.245   0.292   1.631
 2143SOL    HW2 7329   3.188   0.146   1.586
 2144SOL     OW 7330   1.018   1.009   3.521
 2144SOL    HW1 7331   1.045   1.030   3.615
 2144SOL    HW2 7332   1.097   1.014   3.461
 2145SOL     OW 7333   3.590   5.282   3.668
 2145SOL    HW1 7334   3.546   5.216   3.606
 2145SOL    HW2 7335   3.544   5.280   3.757
 2146SOL     OW 7336   3.100   2.905   1.923
 2146SOL    HW1 7337   3.174   2.851   1.962
 2146SOL    HW2 7338   3.059   2.856   1.847
 2147SOL     OW 7339   0.557   1.585   6.166
 2147SOL    HW1 7340   0.538   1.502   6.219
 2147SOL    HW2 7341   0.554   1.664   6.227
 2148SOL     OW 7342   4.897   3.686   3.558
 2148SOL    HW1 7343   4.934   3.624   3.488
 2148SOL    HW2 7344   4.962   3.694   3.633
 2149SOL     OW 7345   3.735   0.986   1.981
 2149SOL    HW1 7346   3.679   1.043   1.921
 2149SOL    HW2 7347   3.825   0.972   1.939
 2150SOL     OW 7348   3.374   2.153   3.546
 2150SOL    HW1 7349   3.340   2.170   3.453
 2150SOL    HW2 7350   3.304   2.178   3.612
 2151SOL     OW 7351   3.767   2.666   5.759
 2151SOL    HW1 7352   3.682   2.710   5.730
 2151SOL    HW2 7353   3.843   2.731   5.750
 2152SOL     OW 7354   6.236   6.676   2.058
 2152SOL    HW1 7355   6.263   6.640   2.147
 2152SOL    HW2 7356   6.317   6.693   2.002
 2153SOL     OW 7357   4.673   1.677   3.720
 2153SOL    HW1 7358   4.579   1.641   3.726
 2153SOL    HW2 7359   4.738   1.602   3.726
 2154SOL     OW 7360   2.803   5.806   4.565
 2154SOL    HW1 7361   2.860   5.772   4.639
 2154SOL    HW2 7362   2.762   5.893   4.591
 2155SOL     OW 7363   1.347   4.301   0.342
 2155SOL    HW1 7364   1.283   4.277   0.415
 2155SOL    HW2 7365   1.376   4.218   0.294
 2156SOL     OW 7366   1.398   0.541   2.471
 2156SOL    HW1 7367   1.386   0.517   2.374
 2156SOL    HW2 7368   1.333   0.614   2.494
 2157SOL     OW 7369   0.141   1.281   4.970
 2157SOL    HW1 7370   0.185   1.207   5.021
 2157SOL    HW2 7371   0.184   1.368   4.995
 2158SOL     OW 7372   4.073   0.005   1.071
 2158SOL    HW1 7373   4.073   0.038   1.166
 2158SOL    HW2 7374   4.143   6.953   1.061
 2159SOL     OW 7375   1.433   6.812   4.659
 2159SOL    HW1 7376   1.431   6.839   4.756
 2159SOL    HW2 7377   1.493   6.733   4.649
 2160SOL     OW 7378   2.974   4.574   1.045
 2160SOL    HW1 7379   3.004   4.666   1.020
 2160SOL    HW2 7380   3.052   4.511   1.041
 2161SOL     OW 7381   4.848   3.343   3.531
 2161SOL    HW1 7382   4.825   3.249   3.554
 2161SOL    HW2 7383   4.802   3.369   3.446
 2162SOL     OW 7384   1.924   0.786   6.776
 2162SOL    HW1 7385   1.867   0.706   6.758
 2162SOL    HW2 7386   2.001   0.787   6.713
 2163SOL     OW 7387   1.532   0.922   0.363
 2163SOL    HW1 7388   1.485   0.866   0.295
 2163SOL    HW2 7389   1.470   0.992   0.398
 2164SOL     OW 7390   2.100   0.740   6.561
 2164SOL    HW1 7391   2.195   0.743   6.530
 2164SOL    HW2 7392   2.053   0.664   6.515
 2165SOL     OW 7393   1.588   0.134   2.960
 2165SOL    HW1 7394   1.603   0.203   3.031
 2165SOL    HW2 7395   1.521   0.168   2.895
 2166SOL     OW 7396   1.453   2.528   5.085
 2166SOL    HW1 7397   1.366   2.486   5.058
 2166SOL    HW2 7398   1.506   2.463   5.140
 2167SOL     OW 7399   3.488   0.717   1.905
 2167SOL    HW1 7400   3.544   0.737   1.986
 2167SOL    HW2 7401   3.467   0.802   1.858
 2168SOL     OW 7402   5.729   3.758   4.197
 2168SOL    HW1 7403   5.637   3.721   4.205
 2168SOL    HW2 7404   5.743   3.829   4.266
 2169SOL     OW 7405   4.994   2.575   6.398
 2169SOL    HW1 7406   5.026   2.617   6.482
 2169SOL    HW2 7407   4.904   2.611   6.374
 2170SOL     OW 7408   4.729   5.003   4.852
 2170SOL    HW1 7409   4.652   5.010   4.916
 2170SOL    HW2 7410   4.800   4.946   4.893
 2171SOL     OW 7411   6.761   3.412   0.253
 2171SOL    HW1 7412   6.759   3.497   0.201
 2171SOL    HW2 7413   6.799   3.339   0.197
 2172SOL     OW 7414   3.001   0.908   1.027
 2172SOL    HW1 7415   2.910   0.932   0.995
 2172SOL    HW2 7416   3.031   0.824   0.982
 2173SOL     OW 7417   4.907   1.494   5.414
 2173SOL    HW1 7418   4.893   1.588   5.383
 2173SOL    HW2 7419   4.820   1.454   5.441
 2174SOL     OW 7420   6.765   5.007   4.849
 2174SOL    HW1 7421   6.835   4.954   4.896
 2174SOL    HW2 7422   6.763   4.982   4.752
 2175SOL     OW 7423   2.898   0.430   3.860
 2175SOL    HW1 7424   2.968   0.365   3.890
 2175SOL    HW2 7425   2.940   0.520   3.848
 2176SOL     OW 7426   2.108   2.621   3.293
 2176SOL    HW1 7427   2.164   2.548   3.253
 2176SOL    HW2 7428   2.023   2.582   3.329
 2177SOL     OW 7429   0.368   2.301   0.594
 2177SOL    HW1 7430   0.354   2.204   0.577
 2177SOL    HW2 7431   0.287   2.352   0.565
 2178SOL     OW 7432   0.790   4.197   0.178
 2178SOL    HW1 7433   0.855   4.268   0.149
 2178SOL    HW2 7434   0.836   4.109   0.181
 2179SOL     OW 7435   1.669   5.243   4.351
 2179SOL    HW1 7436   1.755   5.200   4.326
 2179SOL    HW2 7437   1.685   5.340   4.371
 2180SOL     OW 7438   3.085   3.989   2.606
 2180SOL    HW1 7439   3.175   4.019   2.574
 2180SOL    HW2 7440   3.025   4.068   2.617
 2181SOL     OW 7441   5.581   5.902   5.571
 2181SOL    HW1 7442   5.660   5.904   5.633
 2181SOL    HW2 7443   5.504   5.951   5.613
 2182SOL     OW 7444   6.934   3.157   6.234
 2182SOL    HW1 7445   6.915   3.230   6.300
 2182SOL    HW2 7446   7.017   3.179   6.182
 2183SOL     OW 7447   3.279   2.757   0.617
 2183SOL    HW1 7448   3.312   2.774   0.524
 2183SOL    HW2 7449   3.356   2.753   0.680
 2184SOL     OW 7450   4.109   2.368   6.199
 2184SOL    HW1 7451   4.155   2.281   6.185
 2184SOL    HW2 7452   4.087   2.379   6.296
 2185SOL     OW 7453   1.727   0.686   1.219
 2185SOL    HW1 7454   1.747   0.748   1.295
 2185SOL    HW2 7455   1.643   0.635   1.239
 2186SOL     OW 7456   0.360   5.699   3.014
 2186SOL    HW1 7457   0.331   5.613   2.972
 2186SOL    HW2 7458   0.451   5.724   2.979
 2187SOL     OW 7459   6.460   1.641   0.319
 2187SOL    HW1 7460   6.469   1.634   0.419
 2187SOL    HW2 7461   6.443   1.550   0.282
 2188SOL     OW 7462   5.588   6.785   3.484
 2188SOL    HW1 7463   5.549   6.731   3.559
 2188SOL    HW2 7464   5.622   6.872   3.520
 2189SOL     OW 7465   2.185   6.786   5.848
 2189SOL    HW1 7466   2.249   6.851   5.805
 2189SOL    HW2 7467   2.172   6.811   5.944
 2190SOL     OW 7468   5.624   2.227   1.591
 2190SOL    HW1 7469   5.611   2.165   1.668
 2190SOL    HW2 7470   5.618   2.322   1.623
 2191SOL     OW 7471   3.293   2.972   6.400
 2191SOL    HW1 7472   3.269   2.882   6.437
 2191SOL    HW2 7473   3.212   3.030   6.401
 2192SOL     OW 7474   4.382   5.676   5.170
 2192SOL    HW1 7475   4.432   5.642   5.250
 2192SOL    HW2 7476   4.434   5.750   5.128
 2193SOL     OW 7477   0.766   5.249   5.469
 2193SOL    HW1 7478   0.784   5.207   5.379
 2193SOL    HW2 7479   0.671   5.280   5.473
 2194SOL     OW 7480   2.324   6.626   0.843
 2194SOL    HW1 7481   2.347   6.705   0.787
 2194SOL    HW2 7482   2.392   6.554   0.830
 2195SOL     OW 7483   1.155   5.332   2.826
 2195SOL    HW1 7484   1.088   5.262   2.852
 2195SOL    HW2 7485   1.127   5.420   2.864
 2196SOL     OW 7486   3.597   2.012   6.151
 2196SOL    HW1 7487   3.617   2.107   6.131
 2196SOL    HW2 7488   3.648   1.953   6.089
 2197SOL     OW 7489   4.941   5.044   1.591
 2197SOL    HW1 7490   5.019   5.050   1.653
 2197SOL    HW2 7491   4.856   5.047   1.644
 2198SOL     OW 7492   6.567   3.993   0.512
 2198SOL    HW1 7493   6.487   3.934   0.519
 2198SOL    HW2 7494   6.539   4.085   0.486
 2199SOL     OW 7495   4.310   6.988   1.323
 2199SOL    HW1 7496   4.302   0.043   1.257
 2199SOL    HW2 7497   4.283   0.003   1.414
 2200SOL     OW 7498   3.768   0.890   4.404
 2200SOL    HW1 7499   3.761   0.809   4.462
 2200SOL    HW2 7500   3.767   0.863   4.308
 2201SOL     OW 7501   5.762   3.594   2.230
 2201SOL    HW1 7502   5.806   3.669   2.279
 2201SOL    HW2 7503   5.832   3.541   2.182
 2202SOL     OW 7504   4.386   5.783   3.584
 2202SOL    HW1 7505   4.357   5.734   3.667
 2202SOL    HW2 7506   4.356   5.878   3.589
 2203SOL     OW 7507   3.661   2.095   3.328
 2203SOL    HW1 7508   3.640   2.136   3.416
 2203SOL    HW2 7509   3.612   2.008   3.319
 2204SOL     OW 7510   3.184   2.389   0.306
 2204SOL    HW1 7511   3.183   2.354   0.400
 2204SOL    HW2 7512   3.093   2.425   0.284
 2205SOL     OW 7513   2.992   0.045   0.933
 2205SOL    HW1 7514   3.028   0.007   0.848
 2205SOL    HW2 7515   2.919   7.005   0.968
 2206SOL     OW 7516   2.915   2.963   0.069
 2206SOL    HW1 7517   2.851   2.989   0.141
 2206SOL    HW2 7518   2.875   2.891   0.012
 2207SOL     OW 7519   1.080   4.519   6.180
 2207SOL    HW1 7520   1.059   4.443   6.118
 2207SOL    HW2 7521   1.041   4.500   6.270
 2208SOL     OW 7522   0.352   3.589   1.781
 2208SOL    HW1 7523   0.257   3.558   1.785
 2208SOL    HW2 7524   0.411   3.511   1.763
 2209SOL     OW 7525   1.109   5.550   6.375
 2209SOL    HW1 7526   1.044   5.550   6.299
 2209SOL    HW2 7527   1.133   5.456   6.399
 2210SOL     OW 7528   0.987   5.955   4.199
 2210SOL    HW1 7529   0.933   5.884   4.153
 2210SOL    HW2 7530   1.029   6.014   4.130
 2211SOL     OW 7531   5.914   1.103   5.726
 2211SOL    HW1 7532   6.007   1.133   5.747
 2211SOL    HW2 7533   5.909   1.072   5.631
 2212SOL     OW 7534   1.418   0.619   6.336
 2212SOL    HW1 7535   1.489   0.688   6.323
 2212SOL    HW2 7536   1.460   0.529   6.343
 2213SOL     OW 7537   3.953   2.121   3.423
 2213SOL    HW1 7538   3.924   2.133   3.328
 2213SOL    HW2 7539   4.030   2.057   3.427
 2214SOL     OW 7540   5.166   0.031   4.841
 2214SOL    HW1 7541   5.227   0.101   4.879
 2214SOL    HW2 7542   5.132   0.061   4.752
 2215SOL     OW 7543   6.470   2.600   5.005
 2215SOL    HW1 7544   6.558   2.563   4.976
 2215SOL    HW2 7545   6.485   2.674   5.071
 2216SOL     OW 7546   1.591   6.618   1.098
 2216SOL    HW1 7547   1.620   6.539   1.151
 2216SOL    HW2 7548   1.656   6.693   1.111
 2217SOL     OW 7549   3.970   0.144   1.275
 2217SOL    HW1 7550   3.907   0.140   1.352
 2217SOL    HW2 7551   4.027   0.226   1.282
 2218SOL     OW 7552   0.569   5.660   6.835
 2218SOL    HW1 7553   0.484   5.712   6.829
 2218SOL    HW2 7554   0.590   5.618   6.747
 2219SOL     OW 7555   1.978   3.710   2.908
 2219SOL    HW1 7556   2.018   3.625   2.943
 2219SOL    HW2 7557   1.904   3.689   2.845
 2220SOL     OW 7558   0.349   1.355   6.036
 2220SOL    HW1 7559   0.436   1.353   5.987
 2220SOL    HW2 7560   0.326   1.263   6.068
 2221SOL     OW 7561   6.524   2.314   1.268
 2221SOL    HW1 7562   6.473   2.289   1.185
 2221SOL    HW2 7563   6.496   2.405   1.298
 2222SOL     OW 7564   4.595   6.693   2.481
 2222SOL    HW1 7565   4.621   6.607   2.525
 2222SOL    HW2 7566   4.647   6.768   2.522
 2223SOL     OW 7567   5.749   5.393   3.595
 2223SOL    HW1 7568   5.747   5.294   3.606
 2223SOL    HW2 7569   5.781   5.415   3.503
 2224SOL     OW 7570   1.851   4.474   1.267
 2224SOL    HW1 7571   1.797   4.516   1.340
 2224SOL    HW2 7572   1.798   4.401   1.224
 2225SOL     OW 7573   6.302   4.890   2.255
 2225SOL    HW1 7574   6.229   4.916   2.191
 2225SOL    HW2 7575   6.289   4.938   2.342
 2226SOL     OW 7576   3.669   3.990   0.774
 2226SOL    HW1 7577   3.641   4.059   0.841
 2226SOL    HW2 7578   3.768   3.979   0.777
 2227SOL     OW 7579   6.665   4.004   5.284
 2227SOL    HW1 7580   6.763   3.992   5.266
 2227SOL    HW2 7581   6.626   3.917   5.314
 2228SOL     OW 7582   3.251   4.553   5.976
 2228SOL    HW1 7583   3.267   4.633   6.033
 2228SOL    HW2 7584   3.313   4.556   5.897
 2229SOL     OW 7585   4.350   0.744   3.564
 2229SOL    HW1 7586   4.439   0.757   3.519
 2229SOL    HW2 7587   4.298   0.829   3.558
 2230SOL     OW 7588   1.164   6.639   6.419
 2230SOL    HW1 7589   1.074   6.670   6.450
 2230SOL    HW2 7590   1.170   6.539   6.427
 2231SOL     OW 7591   2.228   0.081   2.004
 2231SOL    HW1 7592   2.170   0.137   1.945
 2231SOL    HW2 7593   2.237   0.124   2.094
 2232SOL     OW 7594   6.165   2.562   2.345
 2232SOL    HW1 7595   6.153   2.659   2.367
 2232SOL    HW2 7596   6.140   2.506   2.424
 2233SOL     OW 7597   3.804   0.147   0.037
 2233SOL    HW1 7598   3.848   0.078   6.998
 2233SOL    HW2 7599   3.758   0.215   6.998
 2234SOL     OW 7600   3.856   1.428   0.706
 2234SOL    HW1 7601   3.950   1.463   0.700
 2234SOL    HW2 7602   3.823   1.436   0.800
 2235SOL     OW 7603   1.185   6.637   0.854
 2235SOL    HW1 7604   1.187   6.538   0.866
 2235SOL    HW2 7605   1.186   6.681   0.943
 2236SOL     OW 7606   0.723   3.748   1.217
 2236SOL    HW1 7607   0.666   3.823   1.249
 2236SOL    HW2 7608   0.799   3.783   1.163
 2237SOL     OW 7609   5.978   2.804   4.488
 2237SOL    HW1 7610   5.922   2.730   4.451
 2237SOL    HW2 7611   5.954   2.890   4.444
 2238SOL     OW 7612   0.753   5.748   1.963
 2238SOL    HW1 7613   0.741   5.739   1.864
 2238SOL    HW2 7614   0.693   5.683   2.010
 2239SOL     OW 7615   4.485   5.158   3.275
 2239SOL    HW1 7616   4.485   5.218   3.195
 2239SOL    HW2 7617   4.401   5.104   3.277
 2240SOL     OW 7618   5.568   5.057   2.448
 2240SOL    HW1 7619   5.515   5.138   2.475
 2240SOL    HW2 7620   5.506   4.986   2.415
 2241SOL     OW 7621   0.304   6.951   2.088
 2241SOL    HW1 7622   0.350   0.020   2.098
 2241SOL    HW2 7623   0.221   6.963   2.034
 2242SOL     OW 7624   4.894   2.068   3.001
 2242SOL    HW1 7625   4.796   2.083   2.989
 2242SOL    HW2 7626   4.932   2.142   3.057
 2243SOL     OW 7627   2.456   6.108   5.028
 2243SOL    HW1 7628   2.527   6.101   5.099
 2243SOL    HW2 7629   2.405   6.193   5.039
 2244SOL     OW 7630   2.789   0.944   4.399
 2244SOL    HW1 7631   2.785   1.012   4.325
 2244SOL    HW2 7632   2.869   0.885   4.385
 2245SOL     OW 7633   1.099   1.055   2.388
 2245SOL    HW1 7634   1.141   0.969   2.357
 2245SOL    HW2 7635   1.147   1.132   2.346
 2246SOL     OW 7636   0.748   4.127   5.955
 2246SOL    HW1 7637   0.676   4.059   5.946
 2246SOL    HW2 7638   0.709   4.212   5.990
 2247SOL     OW 7639   2.162   2.657   6.207
 2247SOL    HW1 7640   2.203   2.646   6.116
 2247SOL    HW2 7641   2.226   2.706   6.266
 2248SOL     OW 7642   4.777   3.688   5.572
 2248SOL    HW1 7643   4.705   3.705   5.503
 2248SOL    HW2 7644   4.753   3.735   5.657
 2249SOL     OW 7645   5.221   5.664   3.620
 2249SOL    HW1 7646   5.153   5.600   3.656
 2249SOL    HW2 7647   5.287   5.615   3.563
 2250SOL     OW 7648   0.255   4.358   0.865
 2250SOL    HW1 7649   0.268   4.314   0.776
 2250SOL    HW2 7650   0.205   4.297   0.925
 2251SOL     OW 7651   5.602   1.060   7.007
 2251SOL    HW1 7652   5.519   1.005   7.015
 2251SOL    HW2 7653   5.628   1.095   0.078
 2252SOL     OW 7654   4.854   2.668   5.651
 2252SOL    HW1 7655   4.785   2.648   5.721
 2252SOL    HW2 7656   4.809   2.704   5.569
 2253SOL     OW 7657   2.562   3.291   0.360
 2253SOL    HW1 7658   2.538   3.253   0.449
 2253SOL    HW2 7659   2.578   3.390   0.369
 2254SOL     OW 7660   2.965   4.030   6.261
 2254SOL    HW1 7661   2.926   4.094   6.195
 2254SOL    HW2 7662   2.947   3.936   6.231
 2255SOL     OW 7663   6.014   2.696   1.794
 2255SOL    HW1 7664   6.029   2.770   1.860
 2255SOL    HW2 7665   6.083   2.701   1.722
 2256SOL     OW 7666   4.513   4.826   1.794
 2256SOL    HW1 7667   4.588   4.761   1.783
 2256SOL    HW2 7668   4.541   4.899   1.856
 2257SOL     OW 7669   1.920   4.208   3.903
 2257SOL    HW1 7670   1.934   4.276   3.831
 2257SOL    HW2 7671   1.838   4.231   3.955
 2258SOL     OW 7672   1.703   5.486   4.450
 2258SOL    HW1 7673   1.800   5.503   4.432
 2258SOL    HW2 7674   1.654   5.573   4.452
 2259SOL     OW 7675   4.969   3.820   6.861
 2259SOL    HW1 7676   4.914   3.861   6.935
 2259SOL    HW2 7677   5.066   3.830   6.883
 2260SOL     OW 7678   5.541   5.090   1.482
 2260SOL    HW1 7679   5.579   5.016   1.538
 2260SOL    HW2 7680   5.592   5.096   1.396
 2261SOL     OW 7681   5.367   6.766   0.013
 2261SOL    HW1 7682   5.453   6.762   6.981
 2261SOL    HW2 7683   5.385   6.762   0.111
 2262SOL     OW 7684   4.821   2.061   3.677
 2262SOL    HW1 7685   4.771   2.105   3.751
 2262SOL    HW2 7686   4.809   2.113   3.593
 2263SOL     OW 7687   0.925   5.276   5.694
 2263SOL    HW1 7688   0.868   5.285   5.612
 2263SOL    HW2 7689   0.999   5.211   5.676
 2264SOL     OW 7690   3.583   3.231   4.424
 2264SOL    HW1 7691   3.637   3.150   4.399
 2264SOL    HW2 7692   3.502   3.236   4.365
 2265SOL     OW 7693   6.953   6.919   1.699
 2265SOL    HW1 7694   6.879   6.939   1.763
 2265SOL    HW2 7695   7.000   7.004   1.675
 2266SOL     OW 7696   5.917   0.317   0.409
 2266SOL    HW1 7697   5.922   0.225   0.447
 2266SOL    HW2 7698   5.999   0.335   0.354
 2267SOL     OW 7699   6.362   2.832   5.789
 2267SOL    HW1 7700   6.354   2.820   5.888
 2267SOL    HW2 7701   6.297   2.771   5.743
 2268SOL     OW 7702   7.009   6.014   6.477
 2268SOL    HW1 7703   0.055   5.958   6.425
 2268SOL    HW2 7704   6.917   6.002   6.438
 2269SOL     OW 7705   6.589   5.256   5.937
 2269SOL    HW1 7706   6.561   5.192   5.865
 2269SOL    HW2 7707   6.688   5.266   5.937
 2270SOL     OW 7708   4.163   3.250   2.030
 2270SOL    HW1 7709   4.179   3.291   1.941
 2270SOL    HW2 7710   4.235   3.185   2.051
 2271SOL     OW 7711   6.455   4.649   2.221
 2271SOL    HW1 7712   6.482   4.653   2.125
 2271SOL    HW2 7713   6.407   4.733   2.246
 2272SOL     OW 7714   5.854   1.986   5.820
 2272SOL    HW1 7715   5.805   2.066   5.856
 2272SOL    HW2 7716   5.827   1.905   5.871
 2273SOL     OW 7717   0.550   1.542   3.181
 2273SOL    HW1 7718   0.510   1.632   3.168
 2273SOL    HW2 7719   0.518   1.503   3.267
 2274SOL     OW 7720   0.855   3.404   4.271
 2274SOL    HW1 7721   0.809   3.354   4.344
 2274SOL    HW2 7722   0.802   3.398   4.187
 2275SOL     OW 7723   5.003   6.808   3.793
 2275SOL    HW1 7724   4.976   6.904   3.788
 2275SOL    HW2 7725   5.004   6.768   3.701
 2276SOL     OW 7726   4.026   4.555   1.721
 2276SOL    HW1 7727   3.947   4.502   1.693
 2276SOL    HW2 7728   4.086   4.570   1.643
 2277SOL     OW 7729   3.539   3.282   0.129
 2277SOL    HW1 7730   3.578   3.240   0.211
 2277SOL    HW2 7731   3.596   3.260   0.050
 2278SOL     OW 7732   5.322   5.779   1.502
 2278SOL    HW1 7733   5.330   5.755   1.405
 2278SOL    HW2 7734   5.398   5.838   1.528
 2279SOL     OW 7735   5.605   3.336   4.511
 2279SOL    HW1 7736   5.612   3.394   4.430
 2279SOL    HW2 7737   5.688   3.342   4.565
 2280SOL     OW 7738   6.046   6.375   6.468
 2280SOL    HW1 7739   6.122   6.388   6.532
 2280SOL    HW2 7740   6.066   6.421   6.382
 2281SOL     OW 7741   4.002   2.538   1.214
 2281SOL    HW1 7742   3.945   2.604   1.262
 2281SOL    HW2 7743   3.967   2.446   1.229
 2282SOL     OW 7744   4.665   5.823   2.731
 2282SOL    HW1 7745   4.653   5.723   2.730
 2282SOL    HW2 7746   4.750   5.846   2.778
 2283SOL     OW 7747   0.093   3.022   3.447
 2283SOL    HW1 7748   0.183   2.980   3.455
 2283SOL    HW2 7749   0.052   3.031   3.537
 2284SOL     OW 7750   2.060   2.615   1.694
 2284SOL    HW1 7751   2.066   2.567   1.606
 2284SOL    HW2 7752   2.119   2.695   1.692
 2285SOL     OW 7753   1.773   4.093   0.890
 2285SOL    HW1 7754   1.760   4.018   0.955
 2285SOL    HW2 7755   1.721   4.074   0.806
 2286SOL     OW 7756   6.686   6.418   5.017
 2286SOL    HW1 7757   6.778   6.380   5.003
 2286SOL    HW2 7758   6.690   6.518   5.010
 2287SOL     OW 7759   2.159   2.532   1.928
 2287SOL    HW1 7760   2.160   2.596   2.005
 2287SOL    HW2 7761   2.086   2.557   1.865
 2288SOL     OW 7762   6.916   6.278   3.589
 2288SOL    HW1 7763   6.989   6.232   3.640
 2288SOL    HW2 7764   6.870   6.211   3.529
 2289SOL     OW 7765   5.543   1.688   2.325
 2289SOL    HW1 7766   5.485   1.702   2.245
 2289SOL    HW2 7767   5.501   1.730   2.405
 2290SOL     OW 7768   3.100   3.086   2.590
 2290SOL    HW1 7769   3.034   3.160   2.577
 2290SOL    HW2 7770   3.087   3.046   2.681
 2291SOL     OW 7771   1.766   2.551   0.517
 2291SOL    HW1 7772   1.743   2.634   0.568
 2291SOL    HW2 7773   1.830   2.496   0.570
 2292SOL     OW 7774   4.479   2.205   3.433
 2292SOL    HW1 7775   4.421   2.138   3.478
 2292SOL    HW2 7776   4.569   2.165   3.417
 2293SOL     OW 7777   6.195   1.360   6.824
 2293SOL    HW1 7778   6.166   1.447   6.863
 2293SOL    HW2 7779   6.180   1.286   6.890
 2294SOL     OW 7780   1.057   2.240   6.029
 2294SOL    HW1 7781   1.146   2.224   5.986
 2294SOL    HW2 7782   1.023   2.330   6.003
 2295SOL     OW 7783   6.094   6.832   1.891
 2295SOL    HW1 7784   6.150   6.835   1.808
 2295SOL    HW2 7785   6.140   6.775   1.959
 2296SOL     OW 7786   2.688   5.728   3.881
 2296SOL    HW1 7787   2.785   5.728   3.859
 2296SOL    HW2 7788   2.668   5.654   3.945
 2297SOL     OW 7789   4.137   4.655   5.287
 2297SOL    HW1 7790   4.166   4.569   5.245
 2297SOL    HW2 7791   4.182   4.665   5.376
 2298SOL     OW 7792   3.752   3.614   4.970
 2298SOL    HW1 7793   3.683   3.557   4.926
 2298SOL    HW2 7794   3.711   3.659   5.050
 2299SOL     OW 7795   5.359   2.761   4.969
 2299SOL    HW1 7796   5.399   2.714   4.890
 2299SOL    HW2 7797   5.418   2.838   4.995
 2300SOL     OW 7798   3.804   6.379   2.168
 2300SOL    HW1 7799   3.854   6.461   2.138
 2300SOL    HW2 7800   3.710   6.404   2.190
 2301SOL     OW 7801   3.513   3.526   4.821
 2301SOL    HW1 7802   3.501   3.516   4.722
 2301SOL    HW2 7803   3.436   3.482   4.867
 2302SOL     OW 7804   4.805   2.491   0.476
 2302SOL    HW1 7805   4.724   2.523   0.526
 2302SOL    HW2 7806   4.850   2.419   0.528
 2303SOL     OW 7807   3.403   2.180   1.021
 2303SOL    HW1 7808   3.326   2.156   1.080
 2303SOL    HW2 7809   3.461   2.099   1.007
 2304SOL     OW 7810   5.925   6.108   1.791
 2304SOL    HW1 7811   5.841   6.058   1.771
 2304SOL    HW2 7812   5.975   6.061   1.864
 2305SOL     OW 7813   1.774   1.255   5.253
 2305SOL    HW1 7814   1.804   1.349   5.239
 2305SOL    HW2 7815   1.703   1.232   5.187
 2306SOL     OW 7816   1.990   5.283   3.540
 2306SOL    HW1 7817   1.970   5.288   3.638
 2306SOL    HW2 7818   1.931   5.348   3.491
 2307SOL     OW 7819   0.650   2.194   5.497
 2307SOL    HW1 7820   0.748   2.213   5.498
 2307SOL    HW2 7821   0.618   2.181   5.590
 2308SOL     OW 7822   2.572   4.350   1.500
 2308SOL    HW1 7823   2.629   4.374   1.578
 2308SOL    HW2 7824   2.490   4.407   1.500
 2309SOL     OW 7825   1.614   6.316   4.608
 2309SOL    HW1 7826   1.652   6.273   4.690
 2309SOL    HW2 7827   1.574   6.405   4.633
 2310SOL     OW 7828   4.652   6.729   1.556
 2310SOL    HW1 7829   4.683   6.815   1.597
 2310SOL    HW2 7830   4.631   6.744   1.459
 2311SOL     OW 7831   2.498   6.226   1.340
 2311SOL    HW1 7832   2.492   6.132   1.307
 2311SOL    HW2 7833   2.442   6.286   1.283
 2312SOL     OW 7834   3.461   4.890   2.825
 2312SOL    HW1 7835   3.557   4.870   2.844
 2312SOL    HW2 7836   3.442   4.875   2.728
 2313SOL     OW 7837   4.975   5.039   2.345
 2313SOL    HW1 7838   5.062   5.067   2.304
 2313SOL    HW2 7839   4.968   4.939   2.344
 2314SOL     OW 7840   2.787   5.992   4.069
 2314SOL    HW1 7841   2.715   5.980   4.000
 2314SOL    HW2 7842   2.748   5.976   4.160
 2315SOL     OW 7843   3.967   3.361   0.066
 2315SOL    HW1 7844   4.031   3.436   0.083
 2315SOL    HW2 7845   3.942   3.360   6.987
 2316SOL     OW 7846   5.423   2.962   3.006
 2316SOL    HW1 7847   5.383   3.047   2.970
 2316SOL    HW2 7848   5.500   2.934   2.948
 2317SOL     OW 7849   1.562   4.684   3.321
 2317SOL    HW1 7850   1.627   4.618   3.281
 2317SOL    HW2 7851   1.568   4.680   3.421
 2318SOL     OW 7852   0.124   0.938   3.660
 2318SOL    HW1 7853   0.217   0.917   3.691
 2318SOL    HW2 7854   0.092   0.865   3.599
 2319SOL     OW 7855   1.291   3.799   3.911
 2319SOL    HW1 7856   1.283   3.891   3.874
 2319SOL    HW2 7857   1.323   3.803   4.006
 2320SOL     OW 7858   0.090   2.943   4.533
 2320SOL    HW1 7859   0.109   2.870   4.467
 2320SOL    HW2 7860   0.005   2.923   4.581
 2321SOL     OW 7861   2.848   6.674   5.289
 2321SOL    HW1 7862   2.753   6.700   5.269
 2321SOL    HW2 7863   2.905   6.693   5.210
 2322SOL     OW 7864   1.985   0.284   4.984
 2322SOL    HW1 7865   1.949   0.265   5.076
 2322SOL    HW2 7866   2.045   0.364   4.988
 2323SOL     OW 7867   4.502   5.427   1.911
 2323SOL    HW1 7868   4.457   5.340   1.931
 2323SOL    HW2 7869   4.520   5.475   1.997
 2324SOL     OW 7870   0.076   5.341   3.260
 2324SOL    HW1 7871   0.120   5.263   3.303
 2324SOL    HW2 7872   0.068   5.325   3.161
 2325SOL     OW 7873   0.313   3.470   0.890
 2325SOL    HW1 7874   0.309   3.466   0.990
 2325SOL    HW2 7875   0.222   3.491   0.854
 2326SOL     OW 7876   1.446   5.352   6.728
 2326SOL    HW1 7877   1.488   5.441   6.744
 2326SOL    HW2 7878   1.485   5.285   6.791
 2327SOL     OW 7879   4.726   2.592   4.167
 2327SOL    HW1 7880   4.748   2.634   4.255
 2327SOL    HW2 7881   4.811   2.574   4.116
 2328SOL     OW 7882   4.515   0.248   3.529
 2328SOL    HW1 7883   4.548   0.155   3.512
 2328SOL    HW2 7884   4.584   0.314   3.499
 2329SOL     OW 7885   0.899   6.331   3.719
 2329SOL    HW1 7886   0.881   6.234   3.736
 2329SOL    HW2 7887   0.877   6.383   3.801
 2330SOL     OW 7888   0.420   4.132   2.890
 2330SOL    HW1 7889   0.329   4.136   2.932
 2330SOL    HW2 7890   0.482   4.192   2.940
 2331SOL     OW 7891   0.847   4.523   5.140
 2331SOL    HW1 7892   0.894   4.435   5.150
 2331SOL    HW2 7893   0.806   4.529   5.050
 2332SOL     OW 7894   5.741   2.542   6.088
 2332SOL    HW1 7895   5.800   2.583   6.019
 2332SOL    HW2 7896   5.672   2.608   6.117
 2333SOL     OW 7897   1.156   5.874   3.561
 2333SOL    HW1 7898   1.232   5.934   3.540
 2333SOL    HW2 7899   1.187   5.800   3.622
 2334SOL     OW 7900   3.096   6.834   6.756
 2334SOL    HW1 7901   3.166   6.764   6.740
 2334SOL    HW2 7902   3.126   6.896   6.829
 2335SOL     OW 7903   5.300   6.710   4.241
 2335SOL    HW1 7904   5.235   6.637   4.267
 2335SOL    HW2 7905   5.260   6.799   4.262
 2336SOL     OW 7906   5.472   1.506   5.859
 2336SOL    HW1 7907   5.544   1.482   5.923
 2336SOL    HW2 7908   5.460   1.606   5.858
 2337SOL     OW 7909   5.341   6.839   3.277
 2337SOL    HW1 7910   5.434   6.864   3.306
 2337SOL    HW2 7911   5.303   6.913   3.221
 2338SOL     OW 7912   0.728   6.653   6.882
 2338SOL    HW1 7913   0.733   6.593   6.803
 2338SOL    HW2 7914   0.638   6.646   6.924
 2339SOL     OW 7915   3.530   4.090   0.268
 2339SOL    HW1 7916   3.552   4.108   0.364
 2339SOL    HW2 7917   3.614   4.084   0.215
 2340SOL     OW 7918   3.367   5.517   4.503
 2340SOL    HW1 7919   3.275   5.486   4.528
 2340SOL    HW2 7920   3.396   5.472   4.419
 2341SOL     OW 7921   5.330   5.173   0.817
 2341SOL    HW1 7922   5.389   5.096   0.796
 2341SOL    HW2 7923   5.283   5.157   0.903
 2342SOL     OW 7924   6.285   0.376   5.424
 2342SOL    HW1 7925   6.268   0.318   5.503
 2342SOL    HW2 7926   6.287   0.472   5.452
 2343SOL     OW 7927   1.214   6.554   1.154
 2343SOL    HW1 7928   1.223   6.512   1.244
 2343SOL    HW2 7929   1.158   6.636   1.161
 2344SOL     OW 7930   2.162   2.384   2.754
 2344SOL    HW1 7931   2.254   2.376   2.714
 2344SOL    HW2 7932   2.115   2.462   2.713
 2345SOL     OW 7933   1.906   1.255   4.422
 2345SOL    HW1 7934   1.983   1.293   4.473
 2345SOL    HW2 7935   1.917   1.274   4.324
 2346SOL     OW 7936   5.317   3.848   5.719
 2346SOL    HW1 7937   5.318   3.946   5.740
 2346SOL    HW2 7938   5.227   3.822   5.686
 2347SOL     OW 7939   1.551   2.964   1.741
 2347SOL    HW1 7940   1.488   2.902   1.787
 2347SOL    HW2 7941   1.615   3.003   1.808
 2348SOL     OW 7942   2.551   6.661   2.347
 2348SOL    HW1 7943   2.638   6.633   2.387
 2348SOL    HW2 7944   2.487   6.584   2.347
 2349SOL     OW 7945   5.897   6.033   5.588
 2349SOL    HW1 7946   5.861   6.125   5.572
 2349SOL    HW2 7947   5.996   6.032   5.570
 2350SOL     OW 7948   2.405   7.006   6.121
 2350SOL    HW1 7949   2.357   0.056   6.066
 2350SOL    HW2 7950   2.504   0.006   6.118
 2351SOL     OW 7951   2.366   5.621   4.304
 2351SOL    HW1 7952   2.333   5.527   4.299
 2351SOL    HW2 7953   2.463   5.621   4.331
 2352SOL     OW 7954   0.494   3.027   2.684
 2352SOL    HW1 7955   0.531   3.112   2.722
 2352SOL    HW2 7956   0.423   3.048   2.618
 2353SOL     OW 7957   3.328   4.816   5.540
 2353SOL    HW1 7958   3.238   4.855   5.560
 2353SOL    HW2 7959   3.358   4.844   5.449
 2354SOL     OW 7960   3.839   2.134   0.805
 2354SOL    HW1 7961   3.775   2.195   0.852
 2354SOL    HW2 7962   3.922   2.125   0.859
 2355SOL     OW 7963   0.291   6.413   0.954
 2355SOL    HW1 7964   0.385   6.380   0.961
 2355SOL    HW2 7965   0.253   6.426   1.045
 2356SOL     OW 7966   2.611   4.898   3.643
 2356SOL    HW1 7967   2.696   4.893   3.591
 2356SOL    HW2 7968   2.545   4.957   3.596
 2357SOL     OW 7969   6.770   4.004   1.707
 2357SOL    HW1 7970   6.717   4.020   1.790
 2357SOL    HW2 7971   6.847   4.068   1.704
 2358SOL     OW 7972   3.851   2.367   6.025
 2358SOL    HW1 7973   3.932   2.360   6.083
 2358SOL    HW2 7974   3.838   2.280   5.977
 2359SOL     OW 7975   1.350   1.924   5.615
 2359SOL    HW1 7976   1.439   1.944   5.655
 2359SOL    HW2 7977   1.288   1.891   5.686
 2360SOL     OW 7978   3.874   4.666   0.757
 2360SOL    HW1 7979   3.820   4.583   0.772
 2360SOL    HW2 7980   3.892   4.676   0.659
 2361SOL     OW 7981   3.475   6.131   1.803
 2361SOL    HW1 7982   3.503   6.037   1.822
 2361SOL    HW2 7983   3.403   6.158   1.867
 2362SOL     OW 7984   4.055   5.902   4.109
 2362SOL    HW1 7985   4.058   5.915   4.010
 2362SOL    HW2 7986   4.104   5.818   4.133
 2363SOL     OW 7987   3.489   3.790   0.673
 2363SOL    HW1 7988   3.489   3.803   0.574
 2363SOL    HW2 7989   3.557   3.852   0.714
 2364SOL     OW 7990   4.719   1.620   1.849
 2364SOL    HW1 7991   4.694   1.552   1.918
 2364SOL    HW2 7992   4.683   1.592   1.760
 2365SOL     OW 7993   5.236   3.847   4.259
 2365SOL    HW1 7994   5.159   3.833   4.321
 2365SOL    HW2 7995   5.205   3.898   4.179
 2366SOL     OW 7996   2.524   4.558   5.201
 2366SOL    HW1 7997   2.562   4.650   5.215
 2366SOL    HW2 7998   2.458   4.537   5.273
 2367SOL     OW 7999   0.580   4.348   5.987
 2367SOL    HW1 8000   0.506   4.281   5.978
 2367SOL    HW2 8001   0.559   4.428   5.931
 2368SOL     OW 8002   5.612   6.566   4.378
 2368SOL    HW1 8003   5.628   6.521   4.465
 2368SOL    HW2 8004   5.553   6.509   4.321
 2369SOL     OW 8005   3.047   1.890   3.610
 2369SOL    HW1 8006   3.035   1.961   3.541
 2369SOL    HW2 8007   3.143   1.889   3.639
 2370SOL     OW 8008   5.521   2.477   1.686
 2370SOL    HW1 8009   5.572   2.519   1.761
 2370SOL    HW2 8010   5.428   2.457   1.717
 2371SOL     OW 8011   0.929   6.844   3.032
 2371SOL    HW1 8012   0.845   6.886   2.997
 2371SOL    HW2 8013   0.926   6.841   3.132
 2372SOL     OW 8014   6.473   1.169   5.807
 2372SOL    HW1 8015   6.445   1.073   5.811
 2372SOL    HW2 8016   6.391   1.227   5.798
 2373SOL     OW 8017   5.953   6.304   5.974
 2373SOL    HW1 8018   5.977   6.218   6.019
 2373SOL    HW2 8019   5.860   6.298   5.938
 2374SOL     OW 8020   5.960   5.971   2.540
 2374SOL    HW1 8021   5.940   6.019   2.454
 2374SOL    HW2 8022   5.925   5.878   2.536
 2375SOL     OW 8023   1.035   0.748   4.083
 2375SOL    HW1 8024   1.030   0.654   4.050
 2375SOL    HW2 8025   1.110   0.756   4.149
 2376SOL     OW 8026   6.151   1.547   2.907
 2376SOL    HW1 8027   6.150   1.647   2.901
 2376SOL    HW2 8028   6.081   1.508   2.847
 2377SOL     OW 8029   3.771   4.864   5.999
 2377SOL    HW1 8030   3.832   4.845   6.076
 2377SOL    HW2 8031   3.825   4.882   5.917
 2378SOL     OW 8032   0.075   1.032   0.114
 2378SOL    HW1 8033   7.018   1.086   0.151
 2378SOL    HW2 8034   0.151   1.093   0.093
 2379SOL     OW 8035   6.723   5.034   1.276
 2379SOL    HW1 8036   6.749   5.005   1.183
 2379SOL    HW2 8037   6.678   5.123   1.271
 2380SOL     OW 8038   4.942   4.832   4.971
 2380SOL    HW1 8039   5.005   4.846   5.047
 2380SOL    HW2 8040   4.989   4.784   4.897
 2381SOL     OW 8041   3.009   5.366   4.698
 2381SOL    HW1 8042   3.031   5.315   4.615
 2381SOL    HW2 8043   2.934   5.322   4.746
 2382SOL     OW 8044   1.097   6.038   1.560
 2382SOL    HW1 8045   1.132   5.990   1.480
 2382SOL    HW2 8046   1.019   5.988   1.597
 2383SOL     OW 8047   5.057   5.801   5.277
 2383SOL    HW1 8048   5.122   5.833   5.345
 2383SOL    HW2 8049   5.014   5.881   5.233
 2384SOL     OW 8050   0.647   2.060   1.987
 2384SOL    HW1 8051   0.735   2.011   1.983
 2384SOL    HW2 8052   0.662   2.156   1.965
 2385SOL     OW 8053   0.757   1.754   0.921
 2385SOL    HW1 8054   0.782   1.682   0.856
 2385SOL    HW2 8055   0.671   1.731   0.965
 2386SOL     OW 8056   4.651   5.814   4.295
 2386SOL    HW1 8057   4.697   5.725   4.308
 2386SOL    HW2 8058   4.695   5.882   4.354
 2387SOL     OW 8059   1.743   1.447   3.853
 2387SOL    HW1 8060   1.697   1.387   3.918
 2387SOL    HW2 8061   1.832   1.474   3.889
 2388SOL     OW 8062   6.511   1.835   5.337
 2388SOL    HW1 8063   6.536   1.932   5.329
 2388SOL    HW2 8064   6.412   1.827   5.345
 2389SOL     OW 8065   5.735   4.603   4.210
 2389SOL    HW1 8066   5.814   4.658   4.182
 2389SOL    HW2 8067   5.663   4.664   4.243
 2390SOL     OW 8068   4.733   4.089   5.871
 2390SOL    HW1 8069   4.661   4.127   5.813
 2390SOL    HW2 8070   4.698   4.074   5.964
 2391SOL     OW 8071   3.750   3.711   6.487
 2391SOL    HW1 8072   3.666   3.743   6.442
 2391SOL    HW2 8073   3.737   3.713   6.586
 2392SOL     OW 8074   3.274   5.781   4.536
 2392SOL    HW1 8075   3.181   5.766   4.569
 2392SOL    HW2 8076   3.316   5.693   4.515
 2393SOL     OW 8077   3.047   4.949   1.295
 2393SOL    HW1 8078   3.027   5.017   1.225
 2393SOL    HW2 8079   2.970   4.886   1.304
 2394SOL     OW 8080   0.780   2.485   3.085
 2394SOL    HW1 8081   0.761   2.531   2.998
 2394SOL    HW2 8082   0.696   2.443   3.119
 2395SOL     OW 8083   0.240   2.472   5.329
 2395SOL    HW1 8084   0.328   2.462   5.375
 2395SOL    HW2 8085   0.250   2.450   5.232
 2396SOL     OW 8086   6.667   1.013   5.225
 2396SOL    HW1 8087   6.744   1.028   5.162
 2396SOL    HW2 8088   6.665   0.918   5.254
 2397SOL     OW 8089   0.523   5.218   4.943
 2397SOL    HW1 8090   0.513   5.281   4.866
 2397SOL    HW2 8091   0.451   5.235   5.010
 2398SOL     OW 8092   2.969   5.683   3.862
 2398SOL    HW1 8093   2.984   5.588   3.836
 2398SOL    HW2 8094   3.020   5.704   3.945
 2399SOL     OW 8095   2.797   2.342   3.817
 2399SOL    HW1 8096   2.741   2.403   3.873
 2399SOL    HW2 8097   2.867   2.298   3.875
 2400SOL     OW 8098   1.364   3.889   0.450
 2400SOL    HW1 8099   1.450   3.845   0.423
 2400SOL    HW2 8100   1.302   3.820   0.487
 2401SOL     OW 8101   3.509   0.221   5.871
 2401SOL    HW1 8102   3.428   0.181   5.830
 2401SOL    HW2 8103   3.507   0.320   5.860
 2402SOL     OW 8104   0.972   2.814   1.971
 2402SOL    HW1 8105   0.938   2.791   1.880
 2402SOL    HW2 8106   0.898   2.805   2.037
 2403SOL     OW 8107   3.465   4.138   3.132
 2403SOL    HW1 8108   3.366   4.127   3.125
 2403SOL    HW2 8109   3.486   4.214   3.193
 2404SOL     OW 8110   6.724   1.614   0.746
 2404SOL    HW1 8111   6.797   1.586   0.684
 2404SOL    HW2 8112   6.678   1.695   0.709
 2405SOL     OW 8113   2.774   3.918   0.738
 2405SOL    HW1 8114   2.758   3.912   0.639
 2405SOL    HW2 8115   2.741   3.834   0.781
 2406SOL     OW 8116   2.648   6.816   5.181
 2406SOL    HW1 8117   2.564   6.868   5.168
 2406SOL    HW2 8118   2.670   6.767   5.097
 2407SOL     OW 8119   3.795   1.138   3.894
 2407SOL    HW1 8120   3.825   1.048   3.861
 2407SOL    HW2 8121   3.764   1.193   3.816
 2408SOL     OW 8122   2.546   6.254   4.582
 2408SOL    HW1 8123   2.599   6.330   4.618
 2408SOL    HW2 8124   2.458   6.249   4.629
 2409SOL     OW 8125   2.534   2.528   1.008
 2409SOL    HW1 8126   2.602   2.598   0.988
 2409SOL    HW2 8127   2.563   2.474   1.087
 2410SOL     OW 8128   6.895   3.945   5.900
 2410SOL    HW1 8129   6.878   4.043   5.889
 2410SOL    HW2 8130   6.988   3.931   5.932
 2411SOL     OW 8131   2.518   3.581   0.086
 2411SOL    HW1 8132   2.597   3.550   0.034
 2411SOL    HW2 8133   2.499   3.677   0.065
 2412SOL     OW 8134   2.953   1.820   6.624
 2412SOL    HW1 8135   2.934   1.918   6.619
 2412SOL    HW2 8136   3.044   1.802   6.588
 2413SOL     OW 8137   0.416   2.428   6.684
 2413SOL    HW1 8138   0.362   2.501   6.725
 2413SOL    HW2 8139   0.506   2.464   6.657
 2414SOL     OW 8140   6.077   2.294   4.851
 2414SOL    HW1 8141   6.146   2.363   4.873
 2414SOL    HW2 8142   6.037   2.315   4.762
 2415SOL     OW 8143   2.820   5.994   0.700
 2415SOL    HW1 8144   2.820   5.962   0.605
 2415SOL    HW2 8145   2.894   6.059   0.714
 2416SOL     OW 8146   6.592   3.107   2.800
 2416SOL    HW1 8147   6.624   3.088   2.893
 2416SOL    HW2 8148   6.500   3.147   2.804
 2417SOL     OW 8149   3.973   3.554   1.052
 2417SOL    HW1 8150   3.978   3.587   1.146
 2417SOL    HW2 8151   3.909   3.478   1.047
 2418SOL     OW 8152   4.953   4.169   5.744
 2418SOL    HW1 8153   4.873   4.155   5.802
 2418SOL    HW2 8154   4.986   4.263   5.755
 2419SOL     OW 8155   1.942   6.264   4.131
 2419SOL    HW1 8156   1.988   6.194   4.185
 2419SOL    HW2 8157   2.009   6.315   4.078
 2420SOL     OW 8158   2.805   4.726   2.742
 2420SOL    HW1 8159   2.716   4.683   2.757
 2420SOL    HW2 8160   2.820   4.740   2.645
 2421SOL     OW 8161   3.280   6.835   4.136
 2421SOL    HW1 8162   3.321   6.906   4.079
 2421SOL    HW2 8163   3.254   6.757   4.079
 2422SOL     OW 8164   4.237   6.206   1.563
 2422SOL    HW1 8165   4.193   6.184   1.650
 2422SOL    HW2 8166   4.290   6.291   1.574
 2423SOL     OW 8167   1.962   4.972   2.307
 2423SOL    HW1 8168   1.894   4.930   2.247
 2423SOL    HW2 8169   2.022   5.030   2.253
 2424SOL     OW 8170   5.155   1.065   6.235
 2424SOL    HW1 8171   5.252   1.085   6.221
 2424SOL    HW2 8172   5.104   1.151   6.237
 2425SOL     OW 8173   4.430   5.355   5.481
 2425SOL    HW1 8174   4.461   5.269   5.440
 2425SOL    HW2 8175   4.359   5.336   5.549
 2426SOL     OW 8176   1.240   4.739   5.750
 2426SOL    HW1 8177   1.262   4.730   5.847
 2426SOL    HW2 8178   1.323   4.759   5.698
 2427SOL     OW 8179   5.029   0.837   6.356
 2427SOL    HW1 8180   5.028   0.765   6.286
 2427SOL    HW2 8181   5.077   0.917   6.321
 2428SOL     OW 8182   0.329   0.938   3.380
 2428SOL    HW1 8183   0.424   0.953   3.352
 2428SOL    HW2 8184   0.316   0.971   3.473
 2429SOL     OW 8185   5.735   5.500   2.391
 2429SOL    HW1 8186   5.638   5.486   2.413
 2429SOL    HW2 8187   5.742   5.568   2.318
 2430SOL     OW 8188   6.279   3.208   0.074
 2430SOL    HW1 8189   6.303   3.146   0.148
 2430SOL    HW2 8190   6.179   3.215   0.067
 2431SOL     OW 8191   6.904   1.833   0.809
 2431SOL    HW1 8192   6.895   1.733   0.804
 2431SOL    HW2 8193   6.958   1.857   0.889
 2432SOL     OW 8194   3.956   5.046   1.989
 2432SOL    HW1 8195   3.866   5.083   2.013
 2432SOL    HW2 8196   3.945   4.966   1.931
 2433SOL     OW 8197   6.780   4.164   0.206
 2433SOL    HW1 8198   6.686   4.184   0.177
 2433SOL    HW2 8199   6.824   4.249   0.236
 2434SOL     OW 8200   3.993   1.889   2.796
 2434SOL    HW1 8201   3.902   1.859   2.770
 2434SOL    HW2 8202   3.996   1.903   2.895
 2435SOL     OW 8203   5.330   0.326   6.790
 2435SOL    HW1 8204   5.377   0.250   6.834
 2435SOL    HW2 8205   5.327   0.404   6.853
 2436SOL     OW 8206   1.981   1.786   0.982
 2436SOL    HW1 8207   2.035   1.778   1.066
 2436SOL    HW2 8208   1.978   1.697   0.937
 2437SOL     OW 8209   6.698   5.998   1.776
 2437SOL    HW1 8210   6.719   5.905   1.809
 2437SOL    HW2 8211   6.603   6.002   1.748
 2438SOL     OW 8212   2.976   1.633   4.687
 2438SOL    HW1 8213   2.976   1.731   4.664
 2438SOL    HW2 8214   2.885   1.596   4.671
 2439SOL     OW 8215   0.339   5.695   0.189
 2439SOL    HW1 8216   0.433   5.711   0.158
 2439SOL    HW2 8217   0.339   5.673   0.287
 2440SOL     OW 8218   4.379   1.187   5.009
 2440SOL    HW1 8219   4.436   1.269   5.010
 2440SOL    HW2 8220   4.302   1.201   4.947
 2441SOL     OW 8221   6.045   0.402   6.531
 2441SOL    HW1 8222   6.065   0.313   6.490
 2441SOL    HW2 8223   6.109   0.421   6.605
 2442SOL     OW 8224   4.862   3.854   2.213
 2442SOL    HW1 8225   4.772   3.862   2.171
 2442SOL    HW2 8226   4.888   3.757   2.220
 2443SOL     OW 8227   2.221   1.650   0.535
 2443SOL    HW1 8228   2.301   1.710   0.530
 2443SOL    HW2 8229   2.195   1.637   0.631
 2444SOL     OW 8230   3.355   5.722   0.692
 2444SOL    HW1 8231   3.349   5.658   0.616
 2444SOL    HW2 8232   3.363   5.672   0.778
 2445SOL     OW 8233   0.634   2.021   0.803
 2445SOL    HW1 8234   0.602   1.970   0.883
 2445SOL    HW2 8235   0.729   1.997   0.784
 2446SOL     OW 8236   1.555   3.737   1.593
 2446SOL    HW1 8237   1.458   3.730   1.569
 2446SOL    HW2 8238   1.581   3.660   1.650
 2447SOL     OW 8239   2.404   0.573   1.138
 2447SOL    HW1 8240   2.396   0.585   1.237
 2447SOL    HW2 8241   2.462   0.494   1.118
 2448SOL     OW 8242   6.132   1.980   3.952
 2448SOL    HW1 8243   6.137   1.890   3.909
 2448SOL    HW2 8244   6.158   1.971   4.049
 2449SOL     OW 8245   1.578   4.342   1.919
 2449SOL    HW1 8246   1.641   4.365   1.844
 2449SOL    HW2 8247   1.607   4.389   2.002
 2450SOL     OW 8248   2.241   5.612   6.659
 2450SOL    HW1 8249   2.185   5.574   6.733
 2450SOL    HW2 8250   2.182   5.639   6.583
 2451SOL     OW 8251   0.926   6.982   4.574
 2451SOL    HW1 8252   1.018   6.944   4.567
 2451SOL    HW2 8253   0.860   6.919   4.533
 2452SOL     OW 8254   2.696   2.412   3.477
 2452SOL    HW1 8255   2.763   2.398   3.550
 2452SOL    HW2 8256   2.607   2.434   3.516
 2453SOL     OW 8257   0.222   1.633   0.022
 2453SOL    HW1 8258   0.152   1.679   6.986
 2453SOL    HW2 8259   0.178   1.569   0.085
 2454SOL     OW 8260   3.743   5.358   1.153
 2454SOL    HW1 8261   3.739   5.418   1.073
 2454SOL    HW2 8262   3.743   5.262   1.124
 2455SOL     OW 8263   3.855   0.962   0.467
 2455SOL    HW1 8264   3.832   0.895   0.537
 2455SOL    HW2 8265   3.788   1.035   0.466
 2456SOL     OW 8266   1.191   4.487   6.903
 2456SOL    HW1 8267   1.257   4.507   6.830
 2456SOL    HW2 8268   1.207   4.395   6.938
 2457SOL     OW 8269   5.478   1.567   5.445
 2457SOL    HW1 8270   5.380   1.582   5.456
 2457SOL    HW2 8271   5.506   1.598   5.354
 2458SOL     OW 8272   0.910   0.098   2.818
 2458SOL    HW1 8273   0.921   0.118   2.720
 2458SOL    HW2 8274   1.000   0.094   2.861
 2459SOL     OW 8275   2.570   6.121   0.484
 2459SOL    HW1 8276   2.619   6.199   0.445
 2459SOL    HW2 8277   2.555   6.137   0.581
 2460SOL     OW 8278   1.387   1.038   6.808
 2460SOL    HW1 8279   1.456   1.033   6.881
 2460SOL    HW2 8280   1.423   1.092   6.732
 2461SOL     OW 8281   4.140   0.176   4.242
 2461SOL    HW1 8282   4.186   0.221   4.165
 2461SOL    HW2 8283   4.205   0.162   4.316
 2462SOL     OW 8284   0.557   5.495   0.947
 2462SOL    HW1 8285   0.577   5.451   0.859
 2462SOL    HW2 8286   0.462   5.479   0.971
 2463SOL     OW 8287   6.832   0.972   0.019
 2463SOL    HW1 8288   6.928   0.982   0.045
 2463SOL    HW2 8289   6.795   1.061   7.008
 2464SOL     OW 8290   0.102   2.330   2.409
 2464SOL    HW1 8291   0.072   2.393   2.481
 2464SOL    HW2 8292   0.182   2.280   2.441
 2465SOL     OW 8293   0.095   5.273   5.857
 2465SOL    HW1 8294   0.099   5.218   5.940
 2465SOL    HW2 8295   0.155   5.233   5.788
 2466SOL     OW 8296   1.521   1.485   1.951
 2466SOL    HW1 8297   1.453   1.480   2.024
 2466SOL    HW2 8298   1.480   1.529   1.871
 2467SOL     OW 8299   4.733   1.717   6.213
 2467SOL    HW1 8300   4.783   1.703   6.299
 2467SOL    HW2 8301   4.686   1.633   6.188
 2468SOL     OW 8302   3.495   0.443   6.369
 2468SOL    HW1 8303   3.496   0.424   6.468
 2468SOL    HW2 8304   3.571   0.504   6.347
 2469SOL     OW 8305   4.322   2.538   5.600
 2469SOL    HW1 8306   4.392   2.469   5.616
 2469SOL    HW2 8307   4.249   2.528   5.669
 2470SOL     OW 8308   3.974   4.740   6.170
 2470SOL    HW1 8309   4.060   4.692   6.186
 2470SOL    HW2 8310   3.898   4.682   6.199
 2471SOL     OW 8311   3.662   6.579   0.947
 2471SOL    HW1 8312   3.612   6.598   0.862
 2471SOL    HW2 8313   3.607   6.609   1.025
 2472SOL     OW 8314   4.530   2.577   3.982
 2472SOL    HW1 8315   4.561   2.624   3.899
 2472SOL    HW2 8316   4.608   2.565   4.044
 2473SOL     OW 8317   1.038   4.332   5.118
 2473SOL    HW1 8318   1.024   4.286   5.205
 2473SOL    HW2 8319   1.086   4.272   5.055
 2474SOL     OW 8320   1.022   5.472   0.394
 2474SOL    HW1 8321   1.070   5.540   0.338
 2474SOL    HW2 8322   0.949   5.516   0.446
 2475SOL     OW 8323   4.965   0.548   0.736
 2475SOL    HW1 8324   5.000   0.629   0.688
 2475SOL    HW2 8325   4.893   0.505   0.681
 2476SOL     OW 8326   5.688   0.522   2.618
 2476SOL    HW1 8327   5.661   0.448   2.556
 2476SOL    HW2 8328   5.760   0.576   2.575
 2477SOL     OW 8329   3.963   0.385   3.707
 2477SOL    HW1 8330   4.019   0.442   3.648
 2477SOL    HW2 8331   3.955   0.293   3.667
 2478SOL     OW 8332   3.917   1.307   2.925
 2478SOL    HW1 8333   3.906   1.331   3.022
 2478SOL    HW2 8334   3.898   1.387   2.869
 2479SOL     OW 8335   0.474   2.625   1.568
 2479SOL    HW1 8336   0.389   2.620   1.516
 2479SOL    HW2 8337   0.502   2.533   1.594
 2480SOL     OW 8338   3.805   2.689   1.345
 2480SOL    HW1 8339   3.750   2.607   1.362
 2480SOL    HW2 8340   3.759   2.769   1.384
 2481SOL     OW 8341   3.022   0.253   1.821
 2481SOL    HW1 8342   2.939   0.296   1.787
 2481SOL    HW2 8343   3.050   0.180   1.759
 2482SOL     OW 8344   4.907   3.890   0.096
 2482SOL    HW1 8345   4.852   3.806   0.092
 2482SOL    HW2 8346   4.882   3.942   0.177
 2483SOL     OW 8347   1.246   2.317   0.158
 2483SOL    HW1 8348   1.167   2.274   0.114
 2483SOL    HW2 8349   1.260   2.275   0.248
 2484SOL     OW 8350   3.454   0.892   1.441
 2484SOL    HW1 8351   3.468   0.950   1.361
 2484SOL    HW2 8352   3.369   0.919   1.487
 2485SOL     OW 8353   5.503   2.404   6.934
 2485SOL    HW1 8354   5.433   2.369   6.998
 2485SOL    HW2 8355   5.463   2.414   6.843
 2486SOL     OW 8356   0.373   5.283   5.218
 2486SOL    HW1 8357   0.372   5.313   5.314
 2486SOL    HW2 8358   0.363   5.363   5.159
 2487SOL     OW 8359   4.103   6.169   0.703
 2487SOL    HW1 8360   4.046   6.117   0.766
 2487SOL    HW2 8361   4.047   6.205   0.628
 2488SOL     OW 8362   0.733   3.774   1.898
 2488SOL    HW1 8363   0.696   3.794   1.989
 2488SOL    HW2 8364   0.697   3.687   1.866
 2489SOL     OW 8365   0.782   6.587   3.675
 2489SOL    HW1 8366   0.877   6.620   3.681
 2489SOL    HW2 8367   0.738   6.596   3.764
 2490SOL     OW 8368   1.014   5.782   0.906
 2490SOL    HW1 8369   0.927   5.740   0.880
 2490SOL    HW2 8370   1.034   5.857   0.843
 2491SOL     OW 8371   4.125   4.049   1.442
 2491SOL    HW1 8372   4.082   4.030   1.353
 2491SOL    HW2 8373   4.059   4.031   1.515
 2492SOL     OW 8374   5.048   3.729   1.453
 2492SOL    HW1 8375   5.022   3.782   1.372
 2492SOL    HW2 8376   5.145   3.704   1.447
 2493SOL     OW 8377   6.777   0.405   0.802
 2493SOL    HW1 8378   6.697   0.347   0.786
 2493SOL    HW2 8379   6.846   0.387   0.733
 2494SOL     OW 8380   6.291   3.834   1.851
 2494SOL    HW1 8381   6.313   3.926   1.886
 2494SOL    HW2 8382   6.225   3.790   1.912
 2495SOL     OW 8383   5.002   5.962   3.551
 2495SOL    HW1 8384   5.040   5.888   3.607
 2495SOL    HW2 8385   5.034   6.050   3.585
 2496SOL     OW 8386   0.454   3.557   6.845
 2496SOL    HW1 8387   0.550   3.539   6.871
 2496SOL    HW2 8388   0.403   3.585   6.926
 2497SOL     OW 8389   0.543   0.157   0.331
 2497SOL    HW1 8390   0.533   0.116   0.421
 2497SOL    HW2 8391   0.453   0.191   0.300
 2498SOL     OW 8392   3.049   2.114   5.789
 2498SOL    HW1 8393   3.119   2.044   5.780
 2498SOL    HW2 8394   3.080   2.199   5.744
 2499SOL     OW 8395   5.926   2.611   2.165
 2499SOL    HW1 8396   5.962   2.555   2.090
 2499SOL    HW2 8397   5.989   2.606   2.243
 2500SOL     OW 8398   4.003   3.287   6.511
 2500SOL    HW1 8399   4.034   3.212   6.569
 2500SOL    HW2 8400   3.925   3.257   6.455
 2501SOL     OW 8401   5.183   5.712   0.067
 2501SOL    HW1 8402   5.270   5.672   0.037
 2501SOL    HW2 8403   5.194   5.748   0.159
 2502SOL     OW 8404   2.024   6.981   4.621
 2502SOL    HW1 8405   1.970   6.897   4.631
 2502SOL    HW2 8406   2.108   6.961   4.570
 2503SOL     OW 8407   3.418   6.702   5.233
 2503SOL    HW1 8408   3.457   6.681   5.144
 2503SOL    HW2 8409   3.381   6.619   5.275
 2504SOL     OW 8410   3.660   5.136   2.630
 2504SOL    HW1 8411   3.662   5.184   2.717
 2504SOL    HW2 8412   3.566   5.115   2.605
 2505SOL     OW 8413   0.629   5.745   2.939
 2505SOL    HW1 8414   0.609   5.731   2.842
 2505SOL    HW2 8415   0.708   5.689   2.964
 2506SOL     OW 8416   6.378   3.768   6.001
 2506SOL    HW1 8417   6.418   3.774   5.909
 2506SOL    HW2 8418   6.450   3.744   6.066
 2507SOL     OW 8419   0.280   3.572   0.322
 2507SOL    HW1 8420   0.277   3.503   0.250
 2507SOL    HW2 8421   0.337   3.540   0.397
 2508SOL     OW 8422   2.515   1.884   4.229
 2508SOL    HW1 8423   2.462   1.927   4.156
 2508SOL    HW2 8424   2.476   1.909   4.317
 2509SOL     OW 8425   6.889   4.604   0.507
 2509SOL    HW1 8426   6.925   4.541   0.575
 2509SOL    HW2 8427   6.942   4.688   0.508
 2510SOL     OW 8428   3.502   4.676   0.695
 2510SOL    HW1 8429   3.482   4.721   0.608
 2510SOL    HW2 8430   3.417   4.663   0.746
 2511SOL     OW 8431   1.883   1.228   4.713
 2511SOL    HW1 8432   1.797   1.178   4.697
 2511SOL    HW2 8433   1.960   1.168   4.693
 2512SOL     OW 8434   4.257   4.144   5.563
 2512SOL    HW1 8435   4.226   4.161   5.469
 2512SOL    HW2 8436   4.355   4.127   5.563
 2513SOL     OW 8437   2.096   5.506   4.868
 2513SOL    HW1 8438   2.165   5.491   4.798
 2513SOL    HW2 8439   2.113   5.446   4.946
 2514SOL     OW 8440   0.654   3.671   3.979
 2514SOL    HW1 8441   0.733   3.635   3.928
 2514SOL    HW2 8442   0.582   3.697   3.915
 2515SOL     OW 8443   1.910   6.590   0.978
 2515SOL    HW1 8444   1.881   6.494   0.974
 2515SOL    HW2 8445   1.998   6.596   1.026
 2516SOL     OW 8446   5.249   1.148   2.181
 2516SOL    HW1 8447   5.320   1.080   2.164
 2516SOL    HW2 8448   5.239   1.206   2.100
 2517SOL     OW 8449   1.364   0.305   5.987
 2517SOL    HW1 8450   1.447   0.268   6.029
 2517SOL    HW2 8451   1.378   0.312   5.888
 2518SOL     OW 8452   1.280   5.601   0.583
 2518SOL    HW1 8453   1.309   5.621   0.677
 2518SOL    HW2 8454   1.261   5.503   0.575
 2519SOL     OW 8455   3.541   1.185   1.882
 2519SOL    HW1 8456   3.513   1.249   1.953
 2519SOL    HW2 8457   3.471   1.114   1.872
 2520SOL     OW 8458   3.354   1.756   0.028
 2520SOL    HW1 8459   3.434   1.725   6.995
 2520SOL    HW2 8460   3.275   1.701   0.002
 2521SOL     OW 8461   3.050   1.452   5.328
 2521SOL    HW1 8462   3.011   1.374   5.376
 2521SOL    HW2 8463   3.082   1.520   5.394
 2522SOL     OW 8464   1.536   1.492   5.518
 2522SOL    HW1 8465   1.603   1.430   5.477
 2522SOL    HW2 8466   1.580   1.548   5.588
 2523SOL     OW 8467   1.308   3.400   0.965
 2523SOL    HW1 8468   1.342   3.327   1.024
 2523SOL    HW2 8469   1.223   3.371   0.921
 2524SOL     OW 8470   6.883   6.863   4.386
 2524SOL    HW1 8471   6.820   6.804   4.436
 2524SOL    HW2 8472   6.892   6.951   4.433
 2525SOL     OW 8473   1.597   2.814   4.691
 2525SOL    HW1 8474   1.603   2.867   4.606
 2525SOL    HW2 8475   1.507   2.827   4.732
 2526SOL     OW 8476   1.928   4.549   6.509
 2526SOL    HW1 8477   1.890   4.461   6.482
 2526SOL    HW2 8478   1.938   4.552   6.609
 2527SOL     OW 8479   5.908   6.307   5.560
 2527SOL    HW1 8480   5.983   6.298   5.625
 2527SOL    HW2 8481   5.894   6.404   5.537
 2528SOL     OW 8482   5.833   4.385   5.595
 2528SOL    HW1 8483   5.778   4.398   5.512
 2528SOL    HW2 8484   5.929   4.397   5.573
 2529SOL     OW 8485   7.000   6.802   0.047
 2529SOL    HW1 8486   0.023   6.774   6.980
 2529SOL    HW2 8487   0.036   6.876   0.088
 2530SOL     OW 8488   2.578   6.386   5.266
 2530SOL    HW1 8489   2.501   6.414   5.209
 2530SOL    HW2 8490   2.623   6.306   5.227
 2531SOL     OW 8491   6.181   6.190   5.298
 2531SOL    HW1 8492   6.188   6.281   5.340
 2531SOL    HW2 8493   6.180   6.199   5.198
 2532SOL     OW 8494   6.876   6.229   0.826
 2532SOL    HW1 8495   6.856   6.327   0.821
 2532SOL    HW2 8496   6.969   6.212   0.793
 2533SOL     OW 8497   4.944   0.544   3.504
 2533SOL    HW1 8498   4.903   0.552   3.595
 2533SOL    HW2 8499   4.968   0.449   3.486
 2534SOL     OW 8500   3.394   1.612   1.470
 2534SOL    HW1 8501   3.375   1.541   1.537
 2534SOL    HW2 8502   3.483   1.654   1.490
 2535SOL     OW 8503   3.899   2.913   6.466
 2535SOL    HW1 8504   3.874   2.831   6.414
 2535SOL    HW2 8505   3.848   2.991   6.431
 2536SOL     OW 8506   1.438   0.884   6.566
 2536SOL    HW1 8507   1.400   0.791   6.570
 2536SOL    HW2 8508   1.456   0.917   6.658
 2537SOL     OW 8509   3.285   6.886   6.166
 2537SOL    HW1 8510   3.316   6.972   6.125
 2537SOL    HW2 8511   3.284   6.895   6.265
 2538SOL     OW 8512   0.195   3.460   3.820
 2538SOL    HW1 8513   0.262   3.522   3.778
 2538SOL    HW2 8514   0.127   3.433   3.752
 2539SOL     OW 8515   5.138   1.191   3.960
 2539SOL    HW1 8516   5.079   1.114   3.936
 2539SOL    HW2 8517   5.193   1.216   3.881
 2540SOL     OW 8518   4.237   1.740   2.735
 2540SOL    HW1 8519   4.170   1.803   2.775
 2540SOL    HW2 8520   4.304   1.715   2.804
 2541SOL     OW 8521   3.280   0.203   5.390
 2541SOL    HW1 8522   3.261   0.277   5.326
 2541SOL    HW2 8523   3.208   0.134   5.383
 2542SOL     OW 8524   3.724   3.420   6.415
 2542SOL    HW1 8525   3.629   3.401   6.442
 2542SOL    HW2 8526   3.742   3.518   6.424
 2543SOL     OW 8527   0.342   0.579   4.221
 2543SOL    HW1 8528   0.345   0.481   4.239
 2543SOL    HW2 8529   0.247   0.609   4.214
 2544SOL     OW 8530   0.277   5.908   0.024
 2544SOL    HW1 8531   0.300   5.830   0.083
 2544SOL    HW2 8532   0.309   5.891   6.950
 2545SOL     OW 8533   1.681   6.437   1.886
 2545SOL    HW1 8534   1.670   6.452   1.788
 2545SOL    HW2 8535   1.737   6.354   1.901
 2546SOL     OW 8536   0.191   1.805   1.533
 2546SOL    HW1 8537   0.269   1.867   1.540
 2546SOL    HW2 8538   0.143   1.821   1.446
 2547SOL     OW 8539   0.554   4.213   0.024
 2547SOL    HW1 8540   0.501   4.129   0.012
 2547SOL    HW2 8541   0.649   4.189   0.044
 2548SOL     OW 8542   1.172   6.686   4.834
 2548SOL    HW1 8543   1.187   6.753   4.907
 2548SOL    HW2 8544   1.152   6.734   4.749
 2549SOL     OW 8545   0.864   0.024   1.363
 2549SOL    HW1 8546   0.804   0.104   1.354
 2549SOL    HW2 8547   0.959   0.051   1.349
 2550SOL     OW 8548   6.063   6.676   0.333
 2550SOL    HW1 8549   6.133   6.723   0.279
 2550SOL    HW2 8550   6.086   6.682   0.430
 2551SOL     OW 8551   3.408   4.526   0.245
 2551SOL    HW1 8552   3.441   4.499   0.154
 2551SOL    HW2 8553   3.369   4.446   0.291
 2552SOL     OW 8554   2.067   6.033   4.247
 2552SOL    HW1 8555   1.990   5.971   4.258
 2552SOL    HW2 8556   2.152   5.981   4.244
 2553SOL     OW 8557   3.721   3.635   6.036
 2553SOL    HW1 8558   3.787   3.664   5.966
 2553SOL    HW2 8559   3.754   3.551   6.079
 2554SOL     OW 8560   2.740   0.415   0.559
 2554SOL    HW1 8561   2.769   0.385   0.650
 2554SOL    HW2 8562   2.701   0.337   0.510
 2555SOL     OW 8563   5.773   1.613   4.400
 2555SOL    HW1 8564   5.862   1.658   4.398
 2555SOL    HW2 8565   5.732   1.616   4.308
 2556SOL     OW 8566   4.601   6.349   0.473
 2556SOL    HW1 8567   4.621   6.307   0.561
 2556SOL    HW2 8568   4.502   6.355   0.461
 2557SOL     OW 8569   1.635   3.628   0.848
 2557SOL    HW1 8570   1.723   3.666   0.821
 2557SOL    HW2 8571   1.582   3.603   0.767
 2558SOL     OW 8572   4.682   1.099   5.058
 2558SOL    HW1 8573   4.596   1.138   5.091
 2558SOL    HW2 8574   4.757   1.160   5.083
 2559SOL     OW 8575   1.234   4.080   5.436
 2559SOL    HW1 8576   1.149   4.106   5.390
 2559SOL    HW2 8577   1.308   4.078   5.369
 2560SOL     OW 8578   6.124   2.681   5.746
 2560SOL    HW1 8579   6.091   2.740   5.673
 2560SOL    HW2 8580   6.079   2.706   5.832
 2561SOL     OW 8581   2.642   4.666   4.858
 2561SOL    HW1 8582   2.607   4.751   4.899
 2561SOL    HW2 8583   2.733   4.647   4.895
 2562SOL     OW 8584   2.110   5.178   1.194
 2562SOL    HW1 8585   2.110   5.078   1.199
 2562SOL    HW2 8586   2.204   5.211   1.184
 2563SOL     OW 8587   3.779   1.139   0.958
 2563SOL    HW1 8588   3.749   1.233   0.940
 2563SOL    HW2 8589   3.711   1.075   0.921
 2564SOL     OW 8590   1.821   5.572   6.951
 2564SOL    HW1 8591   1.791   5.541   6.860
 2564SOL    HW2 8592   1.804   5.500   7.018
 2565SOL     OW 8593   1.528   0.507   0.092
 2565SOL    HW1 8594   1.438   0.476   0.060
 2565SOL    HW2 8595   1.592   0.507   0.016
 2566SOL     OW 8596   2.410   6.777   1.739
 2566SOL    HW1 8597   2.440   6.871   1.756
 2566SOL    HW2 8598   2.361   6.743   1.819
 2567SOL     OW 8599   1.117   0.498   0.683
 2567SOL    HW1 8600   1.110   0.401   0.662
 2567SOL    HW2 8601   1.098   0.551   0.601
 2568SOL     OW 8602   4.707   2.196   6.599
 2568SOL    HW1 8603   4.803   2.183   6.574
 2568SOL    HW2 8604   4.651   2.130   6.551
 2569SOL     OW 8605   3.275   0.693   2.730
 2569SOL    HW1 8606   3.250   0.596   2.728
 2569SOL    HW2 8607   3.240   0.735   2.813
 2570SOL     OW 8608   5.465   0.614   5.615
 2570SOL    HW1 8609   5.392   0.635   5.550
 2570SOL    HW2 8610   5.546   0.669   5.594
 2571SOL     OW 8611   1.944   4.764   3.987
 2571SOL    HW1 8612   1.957   4.862   4.006
 2571SOL    HW2 8613   1.945   4.713   4.073
 2572SOL     OW 8614   2.830   5.577   2.289
 2572SOL    HW1 8615   2.791   5.503   2.343
 2572SOL    HW2 8616   2.780   5.661   2.307
 2573SOL     OW 8617   0.552   1.926   1.068
 2573SOL    HW1 8618   0.629   1.878   1.110
 2573SOL    HW2 8619   0.487   1.954   1.138
 2574SOL     OW 8620   5.283   3.701   1.310
 2574SOL    HW1 8621   5.377   3.721   1.339
 2574SOL    HW2 8622   5.242   3.784   1.272
 2575SOL     OW 8623   5.795   5.783   6.490
 2575SOL    HW1 8624   5.811   5.762   6.587
 2575SOL    HW2 8625   5.777   5.881   6.480
 2576SOL     OW 8626   4.399   6.043   4.659
 2576SOL    HW1 8627   4.346   6.127   4.648
 2576SOL    HW2 8628   4.338   5.968   4.684
 2577SOL     OW 8629   3.028   5.243   1.839
 2577SOL    HW1 8630   3.048   5.339   1.820
 2577SOL    HW2 8631   3.034   5.190   1.754
 2578SOL     OW 8632   3.801   1.519   3.724
 2578SOL    HW1 8633   3.797   1.582   3.802
 2578SOL    HW2 8634   3.883   1.462   3.732
 2579SOL     OW 8635   1.406   6.441   4.102
 2579SOL    HW1 8636   1.385   6.344   4.090
 2579SOL    HW2 8637   1.505   6.454   4.100
 2580SOL     OW 8638   2.724   5.028   0.050
 2580SOL    HW1 8639   2.798   4.975   0.009
 2580SOL    HW2 8640   2.676   4.972   0.117
 2581SOL     OW 8641   2.157   5.666   1.028
 2581SOL    HW1 8642   2.064   5.682   0.997
 2581SOL    HW2 8643   2.156   5.631   1.122
 2582SOL     OW 8644   0.322   4.113   1.768
 2582SOL    HW1 8645   0.420   4.125   1.786
 2582SOL    HW2 8646   0.301   4.016   1.760
 2583SOL     OW 8647   0.719   1.128   6.541
 2583SOL    HW1 8648   0.686   1.085   6.457
 2583SOL    HW2 8649   0.676   1.085   6.620
 2584SOL     OW 8650   4.142   5.041   5.777
 2584SOL    HW1 8651   4.053   4.995   5.776
 2584SOL    HW2 8652   4.143   5.108   5.852
 2585SOL     OW 8653   2.854   4.005   0.312
 2585SOL    HW1 8654   2.929   4.057   0.353
 2585SOL    HW2 8655   2.790   4.069   0.268
 2586SOL     OW 8656   2.740   1.355   5.519
 2586SOL    HW1 8657   2.696   1.439   5.488
 2586SOL    HW2 8658   2.834   1.351   5.485
 2587SOL     OW 8659   6.498   1.349   3.317
 2587SOL    HW1 8660   6.488   1.249   3.322
 2587SOL    HW2 8661   6.542   1.375   3.231
 2588SOL     OW 8662   4.002   2.468   5.553
 2588SOL    HW1 8663   4.015   2.546   5.492
 2588SOL    HW2 8664   3.909   2.470   5.591
 2589SOL     OW 8665   1.310   6.868   6.414
 2589SOL    HW1 8666   1.249   6.793   6.390
 2589SOL    HW2 8667   1.340   6.858   6.509
 2590SOL     OW 8668   2.995   4.926   0.042
 2590SOL    HW1 8669   3.027   4.965   0.129
 2590SOL    HW2 8670   3.068   4.936   6.992
 2591SOL     OW 8671   6.891   5.496   3.221
 2591SOL    HW1 8672   6.957   5.437   3.269
 2591SOL    HW2 8673   6.837   5.441   3.157
 2592SOL     OW 8674   3.011   4.229   6.538
 2592SOL    HW1 8675   2.922   4.273   6.525
 2592SOL    HW2 8676   3.057   4.269   6.617
 2593SOL     OW 8677   3.155   5.880   0.430
 2593SOL    HW1 8678   3.104   5.801   0.395
 2593SOL    HW2 8679   3.191   5.858   0.521
 2594SOL     OW 8680   2.790   4.358   5.859
 2594SOL    HW1 8681   2.791   4.304   5.775
 2594SOL    HW2 8682   2.747   4.447   5.840
 2595SOL     OW 8683   6.821   1.698   3.890
 2595SOL    HW1 8684   6.771   1.612   3.882
 2595SOL    HW2 8685   6.864   1.721   3.802
 2596SOL     OW 8686   2.513   2.935   0.962
 2596SOL    HW1 8687   2.463   2.895   0.885
 2596SOL    HW2 8688   2.458   2.926   1.045
 2597SOL     OW 8689   0.264   5.422   6.597
 2597SOL    HW1 8690   0.349   5.421   6.649
 2597SOL    HW2 8691   0.266   5.348   6.530
 2598SOL     OW 8692   6.591   1.367   1.666
 2598SOL    HW1 8693   6.510   1.366   1.607
 2598SOL    HW2 8694   6.673   1.376   1.609
 2599SOL     OW 8695   1.527   6.032   0.723
 2599SOL    HW1 8696   1.597   6.062   0.658
 2599SOL    HW2 8697   1.451   5.990   0.673
 2600SOL     OW 8698   6.043   2.864   3.939
 2600SOL    HW1 8699   6.062   2.957   3.905
 2600SOL    HW2 8700   5.981   2.870   4.017
 2601SOL     OW 8701   1.304   1.837   1.474
 2601SOL    HW1 8702   1.294   1.920   1.420
 2601SOL    HW2 8703   1.292   1.757   1.415
 2602SOL     OW 8704   1.755   4.744   4.746
 2602SOL    HW1 8705   1.732   4.826   4.693
 2602SOL    HW2 8706   1.770   4.667   4.684
 2603SOL     OW 8707   2.186   0.688   2.518
 2603SOL    HW1 8708   2.183   0.761   2.587
 2603SOL    HW2 8709   2.277   0.684   2.478
 2604SOL     OW 8710   5.397   1.822   2.498
 2604SOL    HW1 8711   5.319   1.764   2.518
 2604SOL    HW2 8712   5.365   1.915   2.476
 2605SOL     OW 8713   1.578   3.464   2.432
 2605SOL    HW1 8714   1.603   3.528   2.505
 2605SOL    HW2 8715   1.484   3.434   2.444
 2606SOL     OW 8716   5.595   4.848   1.630
 2606SOL    HW1 8717   5.538   4.864   1.710
 2606SOL    HW2 8718   5.608   4.750   1.618
 2607SOL     OW 8719   1.388   1.610   0.951
 2607SOL    HW1 8720   1.475   1.660   0.961
 2607SOL    HW2 8721   1.352   1.626   0.860
 2608SOL     OW 8722   2.684   5.462   6.533
 2608SOL    HW1 8723   2.779   5.482   6.556
 2608SOL    HW2 8724   2.669   5.363   6.535
 2609SOL     OW 8725   6.837   1.367   1.554
 2609SOL    HW1 8726   6.840   1.269   1.533
 2609SOL    HW2 8727   6.908   1.389   1.622
 2610SOL     OW 8728   1.025   4.598   3.925
 2610SOL    HW1 8729   0.989   4.677   3.875
 2610SOL    HW2 8730   1.067   4.629   4.010
 2611SOL     OW 8731   4.340   6.159   0.014
 2611SOL    HW1 8732   4.275   6.215   0.065
 2611SOL    HW2 8733   4.416   6.132   0.074
 2612SOL     OW 8734   5.499   6.849   4.463
 2612SOL    HW1 8735   5.456   6.765   4.429
 2612SOL    HW2 8736   5.500   6.918   4.391
 2613SOL     OW 8737   1.960   4.944   6.351
 2613SOL    HW1 8738   2.017   4.873   6.392
 2613SOL    HW2 8739   2.016   4.997   6.286
 2614SOL     OW 8740   5.775   0.887   6.197
 2614SOL    HW1 8741   5.717   0.949   6.144
 2614SOL    HW2 8742   5.733   0.870   6.286
 2615SOL     OW 8743   1.019   3.027   1.662
 2615SOL    HW1 8744   0.937   3.085   1.659
 2615SOL    HW2 8745   1.100   3.081   1.641
 2616SOL     OW 8746   1.025   1.548   5.015
 2616SOL    HW1 8747   0.965   1.500   4.951
 2616SOL    HW2 8748   1.039   1.491   5.096
 2617SOL     OW 8749   4.907   0.871   0.727
 2617SOL    HW1 8750   4.987   0.838   0.677
 2617SOL    HW2 8751   4.931   0.885   0.823
 2618SOL     OW 8752   1.219   5.412   4.766
 2618SOL    HW1 8753   1.222   5.394   4.668
 2618SOL    HW2 8754   1.183   5.332   4.814
 2619SOL     OW 8755   4.345   1.832   1.985
 2619SOL    HW1 8756   4.392   1.758   1.937
 2619SOL    HW2 8757   4.248   1.810   1.992
 2620SOL     OW 8758   6.075   6.514   1.896
 2620SOL    HW1 8759   6.001   6.447   1.895
 2620SOL    HW2 8760   6.159   6.469   1.927
 2621SOL     OW 8761   0.777   5.281   2.842
 2621SOL    HW1 8762   0.831   5.242   2.767
 2621SOL    HW2 8763   0.837   5.302   2.918
 2622SOL     OW 8764   2.944   2.836   5.819
 2622SOL    HW1 8765   2.938   2.871   5.912
 2622SOL    HW2 8766   2.924   2.738   5.819
 2623SOL     OW 8767   0.383   0.221   3.717
 2623SOL    HW1 8768   0.323   0.201   3.639
 2623SOL    HW2 8769   0.334   0.201   3.802
 2624SOL     OW 8770   6.813   2.424   4.482
 2624SOL    HW1 8771   6.812   2.453   4.387
 2624SOL    HW2 8772   6.724   2.443   4.524
 2625SOL     OW 8773   2.191   5.158   5.677
 2625SOL    HW1 8774   2.153   5.123   5.592
 2625SOL    HW2 8775   2.281   5.117   5.694
 2626SOL     OW 8776   6.253   0.204   5.641
 2626SOL    HW1 8777   6.289   0.258   5.717
 2626SOL    HW2 8778   6.317   0.130   5.619
 2627SOL     OW 8779   0.723   0.516   6.491
 2627SOL    HW1 8780   0.708   0.544   6.585
 2627SOL    HW2 8781   0.818   0.533   6.465
 2628SOL     OW 8782   1.908   3.370   3.723
 2628SOL    HW1 8783   1.810   3.357   3.732
 2628SOL    HW2 8784   1.932   3.380   3.627
 2629SOL     OW 8785   3.278   3.471   3.010
 2629SOL    HW1 8786   3.314   3.378   3.000
 2629SOL    HW2 8787   3.182   3.473   2.986
 2630SOL     OW 8788   3.377   0.768   3.317
 2630SOL    HW1 8789   3.428   0.854   3.308
 2630SOL    HW2 8790   3.416   0.700   3.255
 2631SOL     OW 8791   5.408   0.492   6.416
 2631SOL    HW1 8792   5.477   0.511   6.486
 2631SOL    HW2 8793   5.322   0.534   6.443
 2632SOL     OW 8794   5.199   5.062   1.736
 2632SOL    HW1 8795   5.209   5.044   1.638
 2632SOL    HW2 8796   5.285   5.099   1.771
 2633SOL     OW 8797   6.740   2.713   5.562
 2633SOL    HW1 8798   6.698   2.659   5.488
 2633SOL    HW2 8799   6.781   2.652   5.629
 2634SOL     OW 8800   0.065   5.875   4.520
 2634SOL    HW1 8801   0.118   5.955   4.493
 2634SOL    HW2 8802   0.068   5.807   4.447
 2635SOL     OW 8803   5.380   5.528   3.902
 2635SOL    HW1 8804   5.422   5.600   3.846
 2635SOL    HW2 8805   5.284   5.551   3.918
 2636SOL     OW 8806   3.558   1.321   6.417
 2636SOL    HW1 8807   3.564   1.293   6.321
 2636SOL    HW2 8808   3.558   1.421   6.423
 2637SOL     OW 8809   6.971   1.911   3.375
 2637SOL    HW1 8810   6.871   1.916   3.376
 2637SOL    HW2 8811   7.000   1.834   3.318
 2638SOL     OW 8812   0.903   0.155   4.772
 2638SOL    HW1 8813   0.876   0.092   4.699
 2638SOL    HW2 8814   0.996   0.132   4.803
 2639SOL     OW 8815   5.165   5.104   4.914
 2639SOL    HW1 8816   5.180   5.165   4.836
 2639SOL    HW2 8817   5.083   5.049   4.899
 2640SOL     OW 8818   0.573   6.974   5.260
 2640SOL    HW1 8819   0.528   0.011   5.330
 2640SOL    HW2 8820   0.669   6.960   5.285
 2641SOL     OW 8821   5.370   2.808   0.437
 2641SOL    HW1 8822   5.282   2.765   0.416
 2641SOL    HW2 8823   5.355   2.898   0.478
 2642SOL     OW 8824   6.906   1.031   3.820
 2642SOL    HW1 8825   7.000   1.025   3.787
 2642SOL    HW2 8826   6.846   0.978   3.760
 2643SOL     OW 8827   0.789   3.304   3.828
 2643SOL    HW1 8828   0.755   3.262   3.912
 2643SOL    HW2 8829   0.865   3.251   3.792
 2644SOL     OW 8830   4.602   5.395   5.039
 2644SOL    HW1 8831   4.531   5.373   4.972
 2644SOL    HW2 8832   4.600   5.494   5.057
 2645SOL     OW 8833   5.042   5.178   3.525
 2645SOL    HW1 8834   5.082   5.163   3.434
 2645SOL    HW2 8835   4.943   5.167   3.519
 2646SOL     OW 8836   0.471   3.981   6.314
 2646SOL    HW1 8837   0.559   4.024   6.293
 2646SOL    HW2 8838   0.486   3.900   6.371
 2647SOL     OW 8839   4.962   7.003   1.804
 2647SOL    HW1 8840   5.045   0.036   1.786
 2647SOL    HW2 8841   4.986   6.910   1.833
 2648SOL     OW 8842   0.794   0.197   3.896
 2648SOL    HW1 8843   0.855   0.127   3.859
 2648SOL    HW2 8844   0.828   0.227   3.986
 2649SOL     OW 8845   5.272   2.988   1.922
 2649SOL    HW1 8846   5.175   2.977   1.947
 2649SOL    HW2 8847   5.315   2.898   1.919
 2650SOL     OW 8848   3.036   5.649   4.680
 2650SOL    HW1 8849   3.060   5.683   4.771
 2650SOL    HW2 8850   3.008   5.553   4.687
 2651SOL     OW 8851   3.556   1.864   6.385
 2651SOL    HW1 8852   3.466   1.877   6.427
 2651SOL    HW2 8853   3.559   1.912   6.297
 2652SOL     OW 8854   4.530   3.680   5.452
 2652SOL    HW1 8855   4.465   3.752   5.432
 2652SOL    HW2 8856   4.524   3.609   5.382
 2653SOL     OW 8857   3.323   5.866   5.889
 2653SOL    HW1 8858   3.320   5.924   5.808
 2653SOL    HW2 8859   3.324   5.923   5.971
 2654SOL     OW 8860   4.981   6.882   0.630
 2654SOL    HW1 8861   5.003   6.835   0.544
 2654SOL    HW2 8862   4.935   6.818   0.692
 2655SOL     OW 8863   4.565   5.987   3.687
 2655SOL    HW1 8864   4.604   5.966   3.777
 2655SOL    HW2 8865   4.629   6.045   3.636
 2656SOL     OW 8866   3.684   5.948   3.929
 2656SOL    HW1 8867   3.717   5.857   3.904
 2656SOL    HW2 8868   3.759   6.002   3.967
 2657SOL     OW 8869   1.808   3.913   0.508
 2657SOL    HW1 8870   1.846   3.986   0.451
 2657SOL    HW2 8871   1.731   3.948   0.561
 2658SOL     OW 8872   4.237   4.159   6.188
 2658SOL    HW1 8873   4.194   4.224   6.250
 2658SOL    HW2 8874   4.265   4.078   6.239
 2659SOL     OW 8875   5.431   2.484   4.950
 2659SOL    HW1 8876   5.438   2.410   5.017
 2659SOL    HW2 8877   5.335   2.508   4.937
 2660SOL     OW 8878   0.802   1.142   0.848
 2660SOL    HW1 8879   0.864   1.153   0.771
 2660SOL    HW2 8880   0.711   1.175   0.824
 2661SOL     OW 8881   1.404   0.784   1.793
 2661SOL    HW1 8882   1.457   0.843   1.732
 2661SOL    HW2 8883   1.330   0.740   1.741
 2662SOL     OW 8884   3.427   0.920   3.804
 2662SOL    HW1 8885   3.398   0.872   3.721
 2662SOL    HW2 8886   3.486   0.997   3.780
 2663SOL     OW 8887   3.169   6.670   5.789
 2663SOL    HW1 8888   3.255   6.701   5.748
 2663SOL    HW2 8889   3.099   6.740   5.776
 2664SOL     OW 8890   3.740   2.589   5.419
 2664SOL    HW1 8891   3.835   2.612   5.397
 2664SOL    HW2 8892   3.679   2.658   5.380
 2665SOL     OW 8893   2.139   3.470   5.303
 2665SOL    HW1 8894   2.182   3.381   5.285
 2665SOL    HW2 8895   2.210   3.539   5.317
 2666SOL     OW 8896   1.827   3.361   2.614
 2666SOL    HW1 8897   1.811   3.374   2.712
 2666SOL    HW2 8898   1.740   3.368   2.566
 2667SOL     OW 8899   6.410   4.317   3.768
 2667SOL    HW1 8900   6.481   4.330   3.699
 2667SOL    HW2 8901   6.441   4.251   3.836
 2668SOL     OW 8902   5.513   2.155   4.749
 2668SOL    HW1 8903   5.507   2.092   4.671
 2668SOL    HW2 8904   5.486   2.247   4.719
 2669SOL     OW 8905   2.414   6.236   0.013
 2669SOL    HW1 8906   2.411   6.143   0.048
 2669SOL    HW2 8907   2.453   6.236   6.939
 2670SOL     OW 8908   6.672   1.741   5.113
 2670SOL    HW1 8909   6.708   1.650   5.131
 2670SOL    HW2 8910   6.645   1.784   5.199
 2671SOL     OW 8911   4.100   5.612   6.496
 2671SOL    HW1 8912   4.132   5.574   6.583
 2671SOL    HW2 8913   4.138   5.560   6.420
 2672SOL     OW 8914   3.466   1.358   2.059
 2672SOL    HW1 8915   3.416   1.313   2.133
 2672SOL    HW2 8916   3.494   1.450   2.089
 2673SOL     OW 8917   4.967   6.744   2.873
 2673SOL    HW1 8918   4.982   6.842   2.862
 2673SOL    HW2 8919   4.869   6.724   2.871
 2674SOL     OW 8920   1.302   5.271   3.599
 2674SOL    HW1 8921   1.214   5.291   3.642
 2674SOL    HW2 8922   1.358   5.354   3.597
 2675SOL     OW 8923   6.892   6.283   3.935
 2675SOL    HW1 8924   6.901   6.218   3.860
 2675SOL    HW2 8925   6.954   6.360   3.920
 2676SOL     OW 8926   3.063   4.028   2.169
 2676SOL    HW1 8927   3.026   4.096   2.105
 2676SOL    HW2 8928   2.988   3.978   2.212
 2677SOL     OW 8929   2.387   4.570   0.908
 2677SOL    HW1 8930   2.449   4.624   0.851
 2677SOL    HW2 8931   2.426   4.561   1.000
 2678SOL     OW 8932   6.687   2.156   2.440
 2678SOL    HW1 8933   6.609   2.094   2.429
 2678SOL    HW2 8934   6.730   2.171   2.351
 2679SOL     OW 8935   1.584   5.608   2.463
 2679SOL    HW1 8936   1.549   5.699   2.439
 2679SOL    HW2 8937   1.565   5.544   2.390
 2680SOL     OW 8938   1.369   2.480   6.838
 2680SOL    HW1 8939   1.468   2.492   6.834
 2680SOL    HW2 8940   1.332   2.527   6.918
 2681SOL     OW 8941   1.137   2.823   5.278
 2681SOL    HW1 8942   1.084   2.835   5.362
 2681SOL    HW2 8943   1.191   2.740   5.285
 2682SOL     OW 8944   4.774   4.188   2.094
 2682SOL    HW1 8945   4.790   4.138   2.009
 2682SOL    HW2 8946   4.677   4.211   2.102
 2683SOL     OW 8947   2.517   4.463   3.065
 2683SOL    HW1 8948   2.455   4.437   3.139
 2683SOL    HW2 8949   2.468   4.466   2.979
 2684SOL     OW 8950   5.516   6.352   2.326
 2684SOL    HW1 8951   5.540   6.421   2.259
 2684SOL    HW2 8952   5.547   6.381   2.417
 2685SOL     OW 8953   0.059   5.068   4.726
 2685SOL    HW1 8954   0.113   4.985   4.743
 2685SOL    HW2 8955   6.981   5.045   4.726
 2686SOL     OW 8956   1.508   1.253   4.806
 2686SOL    HW1 8957   1.410   1.271   4.791
 2686SOL    HW2 8958   1.560   1.333   4.778
 2687SOL     OW 8959   4.118   1.159   1.754
 2687SOL    HW1 8960   4.137   1.256   1.768
 2687SOL    HW2 8961   4.043   1.148   1.688
 2688SOL     OW 8962   3.622   2.023   0.198
 2688SOL    HW1 8963   3.621   2.111   0.244
 2688SOL    HW2 8964   3.618   2.037   0.099
 2689SOL     OW 8965   0.402   3.858   2.945
 2689SOL    HW1 8966   0.349   3.797   2.886
 2689SOL    HW2 8967   0.402   3.950   2.906
 2690SOL     OW 8968   3.023   2.210   6.335
 2690SOL    HW1 8969   3.027   2.178   6.240
 2690SOL    HW2 8970   2.960   2.287   6.341
 2691SOL     OW 8971   0.434   4.209   4.491
 2691SOL    HW1 8972   0.454   4.115   4.464
 2691SOL    HW2 8973   0.517   4.263   4.488
 2692SOL     OW 8974   2.764   5.965   3.054
 2692SOL    HW1 8975   2.719   5.881   3.022
 2692SOL    HW2 8976   2.704   6.011   3.119
 2693SOL     OW 8977   1.649   5.330   3.838
 2693SOL    HW1 8978   1.650   5.328   3.738
 2693SOL    HW2 8979   1.555   5.346   3.870
 2694SOL     OW 8980   3.992   6.336   3.081
 2694SOL    HW1 8981   3.972   6.422   3.034
 2694SOL    HW2 8982   3.906   6.293   3.111
 2695SOL     OW 8983   6.588   6.789   2.497
 2695SOL    HW1 8984   6.640   6.704   2.506
 2695SOL    HW2 8985   6.578   6.812   2.401
 2696SOL     OW 8986   4.648   3.726   6.563
 2696SOL    HW1 8987   4.649   3.821   6.530
 2696SOL    HW2 8988   4.612   3.725   6.657
 2697SOL     OW 8989   4.424   1.358   1.089
 2697SOL    HW1 8990   4.476   1.299   1.151
 2697SOL    HW2 8991   4.487   1.420   1.042
 2698SOL     OW 8992   1.000   4.804   6.104
 2698SOL    HW1 8993   1.010   4.723   6.163
 2698SOL    HW2 8994   1.090   4.829   6.068
 2699SOL     OW 8995   2.775   5.897   2.185
 2699SOL    HW1 8996   2.853   5.834   2.189
 2699SOL    HW2 8997   2.809   5.991   2.178
 2700SOL     OW 8998   2.628   1.876   1.103
 2700SOL    HW1 8999   2.716   1.846   1.066
 2700SOL    HW2 9000   2.587   1.802   1.156
 2701SOL     OW 9001   5.374   2.649   4.674
 2701SOL    HW1 9002   5.447   2.714   4.696
 2701SOL    HW2 9003   5.355   2.651   4.576
 2702SOL     OW 9004   2.258   1.713   4.098
 2702SOL    HW1 9005   2.335   1.762   4.059
 2702SOL    HW2 9006   2.240   1.747   4.190
 2703SOL     OW 9007   1.599   5.786   1.318
 2703SOL    HW1 9008   1.621   5.883   1.310
 2703SOL    HW2 9009   1.509   5.776   1.361
 2704SOL     OW 9010   6.802   5.592   3.475
 2704SOL    HW1 9011   6.821   5.576   3.378
 2704SOL    HW2 9012   6.720   5.648   3.484
 2705SOL     OW 9013   0.242   1.090   5.394
 2705SOL    HW1 9014   0.273   1.135   5.477
 2705SOL    HW2 9015   0.157   1.132   5.363
 2706SOL     OW 9016   6.038   4.443   4.443
 2706SOL    HW1 9017   5.939   4.442   4.458
 2706SOL    HW2 9018   6.082   4.495   4.516
 2707SOL     OW 9019   3.897   6.870   2.619
 2707SOL    HW1 9020   3.946   6.882   2.705
 2707SOL    HW2 9021   3.896   6.957   2.569
 2708SOL     OW 9022   5.731   2.978   0.521
 2708SOL    HW1 9023   5.730   3.010   0.426
 2708SOL    HW2 9024   5.686   3.045   0.580
 2709SOL     OW 9025   4.989   0.092   6.267
 2709SOL    HW1 9026   5.069   0.075   6.210
 2709SOL    HW2 9027   4.907   0.059   6.221
 2710SOL     OW 9028   1.515   3.298   4.053
 2710SOL    HW1 9029   1.437   3.236   4.054
 2710SOL    HW2 9030   1.585   3.265   4.116
 2711SOL     OW 9031   3.837   1.906   3.593
 2711SOL    HW1 9032   3.847   2.002   3.567
 2711SOL    HW2 9033   3.926   1.860   3.589
 2712SOL     OW 9034   3.515   5.338   2.377
 2712SOL    HW1 9035   3.482   5.327   2.470
 2712SOL    HW2 9036   3.446   5.305   2.313
 2713SOL     OW 9037   4.761   4.552   6.371
 2713SOL    HW1 9038   4.773   4.626   6.438
 2713SOL    HW2 9039   4.681   4.571   6.315
 2714SOL     OW 9040   3.473   3.779   6.703
 2714SOL    HW1 9041   3.478   3.679   6.709
 2714SOL    HW2 9042   3.474   3.806   6.607
 2715SOL     OW 9043   5.539   1.560   1.154
 2715SOL    HW1 9044   5.630   1.587   1.185
 2715SOL    HW2 9045   5.483   1.641   1.139
 2716SOL     OW 9046   4.169   2.204   2.743
 2716SOL    HW1 9047   4.073   2.211   2.769
 2716SOL    HW2 9048   4.176   2.169   2.650
 2717SOL     OW 9049   0.848   0.645   1.919
 2717SOL    HW1 9050   0.936   0.692   1.917
 2717SOL    HW2 9051   0.787   0.691   1.983
 2718SOL     OW 9052   0.669   1.063   5.792
 2718SOL    HW1 9053   0.706   1.011   5.715
 2718SOL    HW2 9054   0.735   1.063   5.867
 2719SOL     OW 9055   1.598   4.528   2.504
 2719SOL    HW1 9056   1.693   4.499   2.487
 2719SOL    HW2 9057   1.537   4.449   2.495
 2720SOL     OW 9058   1.239   0.137   5.058
 2720SOL    HW1 9059   1.146   0.125   5.091
 2720SOL    HW2 9060   1.287   0.050   5.062
 2721SOL     OW 9061   2.937   6.021   1.527
 2721SOL    HW1 9062   3.025   6.063   1.549
 2721SOL    HW2 9063   2.901   5.975   1.608
 2722SOL     OW 9064   4.690   5.761   6.766
 2722SOL    HW1 9065   4.744   5.763   6.681
 2722SOL    HW2 9066   4.609   5.704   6.752
 2723SOL     OW 9067   3.319   6.674   6.887
 2723SOL    HW1 9068   3.384   6.610   6.846
 2723SOL    HW2 9069   3.363   6.724   6.962
 2724SOL     OW 9070   1.369   6.195   6.683
 2724SOL    HW1 9071   1.450   6.251   6.699
 2724SOL    HW2 9072   1.303   6.209   6.757
 2725SOL     OW 9073   5.454   3.615   4.023
 2725SOL    HW1 9074   5.483   3.701   3.980
 2725SOL    HW2 9075   5.448   3.629   4.122
 2726SOL     OW 9076   0.787   1.889   1.682
 2726SOL    HW1 9077   0.842   1.916   1.603
 2726SOL    HW2 9078   0.741   1.802   1.663
 2727SOL     OW 9079   2.087   4.065   4.037
 2727SOL    HW1 9080   2.146   4.115   4.101
 2727SOL    HW2 9081   2.034   4.130   3.983
 2728SOL     OW 9082   5.395   5.680   6.416
 2728SOL    HW1 9083   5.401   5.697   6.318
 2728SOL    HW2 9084   5.464   5.613   6.443
 2729SOL     OW 9085   5.610   6.760   6.892
 2729SOL    HW1 9086   5.614   6.855   6.861
 2729SOL    HW2 9087   5.669   6.703   6.834
 2730SOL     OW 9088   0.529   5.358   1.754
 2730SOL    HW1 9089   0.519   5.270   1.707
 2730SOL    HW2 9090   0.451   5.373   1.815
 2731SOL     OW 9091   3.057   3.323   3.789
 2731SOL    HW1 9092   3.041   3.229   3.818
 2731SOL    HW2 9093   3.147   3.330   3.746
 2732SOL     OW 9094   4.798   1.335   1.042
 2732SOL    HW1 9095   4.897   1.328   1.051
 2732SOL    HW2 9096   4.756   1.246   1.060
 2733SOL     OW 9097   6.857   1.099   5.787
 2733SOL    HW1 9098   6.877   1.196   5.772
 2733SOL    HW2 9099   6.834   1.084   5.883
 2734SOL     OW 9100   3.591   6.158   1.546
 2734SOL    HW1 9101   3.597   6.065   1.511
 2734SOL    HW2 9102   3.560   6.157   1.641
 2735SOL     OW 9103   1.137   2.255   0.674
 2735SOL    HW1 9104   1.109   2.159   0.674
 2735SOL    HW2 9105   1.066   2.310   0.629
 2736SOL     OW 9106   5.686   6.007   4.087
 2736SOL    HW1 9107   5.635   5.922   4.077
 2736SOL    HW2 9108   5.765   6.007   4.026
 2737SOL     OW 9109   2.792   1.992   6.244
 2737SOL    HW1 9110   2.870   2.047   6.213
 2737SOL    HW2 9111   2.819   1.938   6.324
 2738SOL     OW 9112   5.807   0.521   1.391
 2738SOL    HW1 9113   5.805   0.606   1.444
 2738SOL    HW2 9114   5.836   0.541   1.297
 2739SOL     OW 9115   1.236   5.519   1.351
 2739SOL    HW1 9116   1.138   5.506   1.366
 2739SOL    HW2 9117   1.262   5.479   1.263
 2740SOL     OW 9118   0.199   5.387   2.696
 2740SOL    HW1 9119   0.120   5.336   2.664
 2740SOL    HW2 9120   0.283   5.346   2.660
 2741SOL     OW 9121   1.354   2.339   4.251
 2741SOL    HW1 9122   1.274   2.307   4.303
 2741SOL    HW2 9123   1.412   2.394   4.311
 2742SOL     OW 9124   3.305   4.709   1.771
 2742SOL    HW1 9125   3.301   4.701   1.671
 2742SOL    HW2 9126   3.393   4.676   1.804
 2743SOL     OW 9127   6.880   4.680   2.130
 2743SOL    HW1 9128   6.915   4.685   2.223
 2743SOL    HW2 9129   6.944   4.630   2.073
 2744SOL     OW 9130   3.445   3.225   2.461
 2744SOL    HW1 9131   3.454   3.296   2.391
 2744SOL    HW2 9132   3.400   3.264   2.542
 2745SOL     OW 9133   6.405   1.646   5.880
 2745SOL    HW1 9134   6.337   1.696   5.826
 2745SOL    HW2 9135   6.381   1.653   5.977
 2746SOL     OW 9136   0.589   1.238   4.207
 2746SOL    HW1 9137   0.677   1.197   4.229
 2746SOL    HW2 9138   0.516   1.188   4.253
 2747SOL     OW 9139   3.763   5.638   6.908
 2747SOL    HW1 9140   3.766   5.738   6.905
 2747SOL    HW2 9141   3.716   5.608   6.991
 2748SOL     OW 9142   4.129   0.408   1.181
 2748SOL    HW1 9143   4.104   0.499   1.214
 2748SOL    HW2 9144   4.049   0.366   1.137
 2749SOL     OW 9145   1.146   3.484   0.248
 2749SOL    HW1 9146   1.214   3.413   0.260
 2749SOL    HW2 9147   1.176   3.549   0.178
 2750SOL     OW 9148   2.418   5.261   2.142
 2750SOL    HW1 9149   2.415   5.255   2.242
 2750SOL    HW2 9150   2.471   5.186   2.105
 2751SOL     OW 9151   1.965   2.073   1.276
 2751SOL    HW1 9152   1.926   2.100   1.188
 2751SOL    HW2 9153   1.928   1.984   1.303
 2752SOL     OW 9154   4.002   4.425   5.943
 2752SOL    HW1 9155   4.018   4.399   5.848
 2752SOL    HW2 9156   3.939   4.503   5.946
 2753SOL     OW 9157   6.098   6.456   4.935
 2753SOL    HW1 9158   6.063   6.450   5.029
 2753SOL    HW2 9159   6.037   6.514   4.881
 2754SOL     OW 9160   0.306   6.428   6.705
 2754SOL    HW1 9161   0.327   6.518   6.744
 2754SOL    HW2 9162   0.378   6.401   6.641
 2755SOL     OW 9163   2.829   6.742   2.681
 2755SOL    HW1 9164   2.843   6.647   2.655
 2755SOL    HW2 9165   2.912   6.795   2.662
 2756SOL     OW 9166   4.680   6.220   0.707
 2756SOL    HW1 9167   4.706   6.307   0.749
 2756SOL    HW2 9168   4.602   6.182   0.757
 2757SOL     OW 9169   1.642   5.097   0.366
 2757SOL    HW1 9170   1.673   5.018   0.419
 2757SOL    HW2 9171   1.571   5.146   0.417
 2758SOL     OW 9172   5.317   0.233   4.959
 2758SOL    HW1 9173   5.307   0.332   4.961
 2758SOL    HW2 9174   5.317   0.197   5.052
 2759SOL     OW 9175   5.056   6.338   4.563
 2759SOL    HW1 9176   5.114   6.267   4.601
 2759SOL    HW2 9177   5.040   6.409   4.632
 2760SOL     OW 9178   1.624   5.218   2.489
 2760SOL    HW1 9179   1.541   5.169   2.516
 2760SOL    HW2 9180   1.616   5.246   2.394
 2761SOL     OW 9181   1.646   4.994   3.742
 2761SOL    HW1 9182   1.653   5.019   3.839
 2761SOL    HW2 9183   1.671   4.898   3.731
 2762SOL     OW 9184   0.796   0.444   5.512
 2762SOL    HW1 9185   0.773   0.472   5.605
 2762SOL    HW2 9186   0.715   0.454   5.454
 2763SOL     OW 9187   5.653   2.230   3.892
 2763SOL    HW1 9188   5.732   2.281   3.857
 2763SOL    HW2 9189   5.665   2.132   3.873
 2764SOL     OW 9190   5.436   0.075   1.508
 2764SOL    HW1 9191   5.367   0.146   1.491
 2764SOL    HW2 9192   5.488   0.059   1.424
 2765SOL     OW 9193   5.260   0.713   1.450
 2765SOL    HW1 9194   5.264   0.793   1.509
 2765SOL    HW2 9195   5.187   0.652   1.480
 2766SOL     OW 9196   5.789   1.657   0.587
 2766SOL    HW1 9197   5.774   1.700   0.676
 2766SOL    HW2 9198   5.843   1.573   0.599
 2767SOL     OW 9199   6.542   4.892   6.890
 2767SOL    HW1 9200   6.480   4.842   6.950
 2767SOL    HW2 9201   6.559   4.983   6.927
 2768SOL     OW 9202   5.899   1.299   0.216
 2768SOL    HW1 9203   5.965   1.374   0.215
 2768SOL    HW2 9204   5.807   1.335   0.226
 2769SOL     OW 9205   6.327   4.147   3.539
 2769SOL    HW1 9206   6.247   4.170   3.593
 2769SOL    HW2 9207   6.393   4.097   3.596
 2770SOL     OW 9208   1.506   5.394   0.115
 2770SOL    HW1 9209   1.561   5.312   0.101
 2770SOL    HW2 9210   1.428   5.373   0.174
 2771SOL     OW 9211   5.056   1.314   1.139
 2771SOL    HW1 9212   5.152   1.327   1.115
 2771SOL    HW2 9213   5.049   1.240   1.207
 2772SOL     OW 9214   4.370   2.454   0.261
 2772SOL    HW1 9215   4.398   2.527   0.198
 2772SOL    HW2 9216   4.414   2.369   0.234
 2773SOL     OW 9217   4.053   3.052   5.920
 2773SOL    HW1 9218   4.038   2.976   5.856
 2773SOL    HW2 9219   3.999   3.131   5.891
 2774SOL     OW 9220   6.255   2.749   2.800
 2774SOL    HW1 9221   6.314   2.692   2.743
 2774SOL    HW2 9222   6.160   2.726   2.781
 2775SOL     OW 9223   6.634   5.864   0.699
 2775SOL    HW1 9224   6.606   5.928   0.771
 2775SOL    HW2 9225   6.558   5.853   0.634
 2776SOL     OW 9226   4.057   5.601   5.401
 2776SOL    HW1 9227   4.083   5.621   5.307
 2776SOL    HW2 9228   4.060   5.503   5.417
 2777SOL     OW 9229   3.319   1.043   2.868
 2777SOL    HW1 9230   3.373   1.079   2.944
 2777SOL    HW2 9231   3.236   1.098   2.858
 2778SOL     OW 9232   1.690   1.248   5.514
 2778SOL    HW1 9233   1.722   1.236   5.420
 2778SOL    HW2 9234   1.625   1.175   5.537
 2779SOL     OW 9235   4.470   0.077   0.468
 2779SOL    HW1 9236   4.490   0.142   0.394
 2779SOL    HW2 9237   4.550   0.020   0.484
 2780SOL     OW 9238   6.021   5.424   5.973
 2780SOL    HW1 9239   6.101   5.452   6.025
 2780SOL    HW2 9240   6.027   5.459   5.880
 2781SOL     OW 9241   6.355   5.603   1.800
 2781SOL    HW1 9242   6.413   5.655   1.863
 2781SOL    HW2 9243   6.395   5.607   1.708
 2782SOL     OW 9244   3.226   2.521   6.592
 2782SOL    HW1 9245   3.221   2.599   6.655
 2782SOL    HW2 9246   3.201   2.552   6.500
 2783SOL     OW 9247   5.851   3.218   4.705
 2783SOL    HW1 9248   5.815   3.143   4.650
 2783SOL    HW2 9249   5.949   3.227   4.689
 2784SOL     OW 9250   2.347   2.219   0.941
 2784SOL    HW1 9251   2.285   2.179   0.874
 2784SOL    HW2 9252   2.308   2.211   1.032
 2785SOL     OW 9253   6.227   1.203   0.048
 2785SOL    HW1 9254   6.145   1.146   0.056
 2785SOL    HW2 9255   6.308   1.145   0.043
 2786SOL     OW 9256   3.494   0.130   1.444
 2786SOL    HW1 9257   3.484   0.051   1.383
 2786SOL    HW2 9258   3.404   0.170   1.461
 2787SOL     OW 9259   2.593   3.603   6.556
 2787SOL    HW1 9260   2.684   3.584   6.592
 2787SOL    HW2 9261   2.530   3.530   6.582
 2788SOL     OW 9262   2.317   4.386   0.322
 2788SOL    HW1 9263   2.248   4.318   0.346
 2788SOL    HW2 9264   2.346   4.434   0.405
 2789SOL     OW 9265   1.373   1.915   4.103
 2789SOL    HW1 9266   1.448   1.910   4.170
 2789SOL    HW2 9267   1.285   1.912   4.150
 2790SOL     OW 9268   3.428   5.480   2.669
 2790SOL    HW1 9269   3.394   5.387   2.678
 2790SOL    HW2 9270   3.463   5.512   2.758
 2791SOL     OW 9271   2.021   4.398   4.897
 2791SOL    HW1 9272   2.017   4.326   4.827
 2791SOL    HW2 9273   2.104   4.386   4.952
 2792SOL     OW 9274   1.668   0.346   5.184
 2792SOL    HW1 9275   1.671   0.250   5.213
 2792SOL    HW2 9276   1.634   0.352   5.091
 2793SOL     OW 9277   5.050   1.580   2.375
 2793SOL    HW1 9278   5.067   1.659   2.433
 2793SOL    HW2 9279   5.117   1.509   2.395
 2794SOL     OW 9280   0.120   2.657   0.453
 2794SOL    HW1 9281   0.100   2.751   0.426
 2794SOL    HW2 9282   0.133   2.601   0.370
 2795SOL     OW 9283   3.143   4.095   1.415
 2795SOL    HW1 9284   3.090   4.110   1.498
 2795SOL    HW2 9285   3.097   4.138   1.337
 2796SOL     OW 9286   6.571   4.078   2.465
 2796SOL    HW1 9287   6.581   4.073   2.564
 2796SOL    HW2 9288   6.617   4.160   2.431
 2797SOL     OW 9289   5.485   5.719   4.911
 2797SOL    HW1 9290   5.424   5.663   4.853
 2797SOL    HW2 9291   5.567   5.666   4.933
 2798SOL     OW 9292   0.895   4.044   2.731
 2798SOL    HW1 9293   0.842   4.129   2.728
 2798SOL    HW2 9294   0.893   4.008   2.825
 2799SOL     OW 9295   0.359   5.803   6.803
 2799SOL    HW1 9296   0.358   5.880   6.740
 2799SOL    HW2 9297   0.274   5.750   6.793
 2800SOL     OW 9298   4.520   4.251   6.677
 2800SOL    HW1 9299   4.504   4.337   6.726
 2800SOL    HW2 9300   4.603   4.207   6.712
 2801SOL     OW 9301   4.025   6.306   3.385
 2801SOL    HW1 9302   3.942   6.253   3.368
 2801SOL    HW2 9303   4.068   6.329   3.297
 2802SOL     OW 9304   4.347   2.893   6.345
 2802SOL    HW1 9305   4.428   2.901   6.287
 2802SOL    HW2 9306   4.316   2.985   6.371
 2803SOL     OW 9307   2.148   6.030   5.792
 2803SOL    HW1 9308   2.058   6.061   5.823
 2803SOL    HW2 9309   2.218   6.097   5.818
 2804SOL     OW 9310   6.613   4.593   3.341
 2804SOL    HW1 9311   6.574   4.517   3.393
 2804SOL    HW2 9312   6.566   4.678   3.365
 2805SOL     OW 9313   4.495   3.653   1.404
 2805SOL    HW1 9314   4.432   3.618   1.473
 2805SOL    HW2 9315   4.540   3.735   1.439
 2806SOL     OW 9316   6.154   5.178   3.241
 2806SOL    HW1 9317   6.145   5.110   3.314
 2806SOL    HW2 9318   6.222   5.148   3.175
 2807SOL     OW 9319   5.891   4.823   3.832
 2807SOL    HW1 9320   5.822   4.892   3.814
 2807SOL    HW2 9321   5.897   4.760   3.755
 2808SOL     OW 9322   4.236   1.125   2.871
 2808SOL    HW1 9323   4.164   1.169   2.817
 2808SOL    HW2 9324   4.323   1.171   2.853
 2809SOL     OW 9325   7.003   2.404   1.494
 2809SOL    HW1 9326   6.960   2.353   1.420
 2809SOL    HW2 9327   6.943   2.479   1.522
 2810SOL     OW 9328   3.659   6.591   4.738
 2810SOL    HW1 9329   3.718   6.669   4.757
 2810SOL    HW2 9330   3.605   6.609   4.656
 2811SOL     OW 9331   0.825   0.699   2.605
 2811SOL    HW1 9332   0.795   0.779   2.552
 2811SOL    HW2 9333   0.889   0.728   2.676
 2812SOL     OW 9334   4.954   3.439   2.085
 2812SOL    HW1 9335   4.965   3.399   1.994
 2812SOL    HW2 9336   4.932   3.367   2.151
 2813SOL     OW 9337   5.798   0.057   5.820
 2813SOL    HW1 9338   5.856   0.058   5.738
 2813SOL    HW2 9339   5.826   0.130   5.882
 2814SOL     OW 9340   4.321   3.224   0.024
 2814SOL    HW1 9341   4.260   3.269   6.978
 2814SOL    HW2 9342   4.325   3.126   0.003
 2815SOL     OW 9343   7.012   1.239   4.470
 2815SOL    HW1 9344   7.019   1.214   4.567
 2815SOL    HW2 9345   6.971   1.330   4.462
 2816SOL     OW 9346   6.325   6.533   3.773
 2816SOL    HW1 9347   6.382   6.557   3.694
 2816SOL    HW2 9348   6.266   6.456   3.749
 2817SOL     OW 9349   1.571   0.106   1.498
 2817SOL    HW1 9350   1.631   0.169   1.449
 2817SOL    HW2 9351   1.584   0.013   1.464
 2818SOL     OW 9352   6.680   5.118   0.033
 2818SOL    HW1 9353   6.746   5.109   6.976
 2818SOL    HW2 9354   6.591   5.145   7.015
 2819SOL     OW 9355   0.343   1.806   0.746
 2819SOL    HW1 9356   0.253   1.797   0.705
 2819SOL    HW2 9357   0.393   1.880   0.702
 2820SOL     OW 9358   0.493   2.627   2.480
 2820SOL    HW1 9359   0.410   2.659   2.436
 2820SOL    HW2 9360   0.506   2.530   2.462
 2821SOL     OW 9361   2.910   4.513   6.736
 2821SOL    HW1 9362   2.974   4.443   6.766
 2821SOL    HW2 9363   2.959   4.600   6.724
 2822SOL     OW 9364   3.926   2.468   0.471
 2822SOL    HW1 9365   3.878   2.534   0.413
 2822SOL    HW2 9366   4.009   2.509   0.507
 2823SOL     OW 9367   2.034   6.566   1.676
 2823SOL    HW1 9368   2.129   6.563   1.643
 2823SOL    HW2 9369   2.033   6.571   1.775
 2824SOL     OW 9370   2.362   1.278   4.904
 2824SOL    HW1 9371   2.373   1.260   4.807
 2824SOL    HW2 9372   2.267   1.263   4.931
 2825SOL     OW 9373   6.406   6.869   0.400
 2825SOL    HW1 9374   6.491   6.819   0.384
 2825SOL    HW2 9375   6.411   6.958   0.355
 2826SOL     OW 9376   5.525   2.230   6.288
 2826SOL    HW1 9377   5.477   2.300   6.234
 2826SOL    HW2 9378   5.550   2.154   6.229
 2827SOL     OW 9379   6.990   0.918   5.282
 2827SOL    HW1 9380   6.912   0.930   5.220
 2827SOL    HW2 9381   0.014   1.007   5.300
 2828SOL     OW 9382   3.247   1.183   6.376
 2828SOL    HW1 9383   3.318   1.174   6.446
 2828SOL    HW2 9384   3.261   1.114   6.304
 2829SOL     OW 9385   4.055   4.324   6.463
 2829SOL    HW1 9386   4.022   4.402   6.516
 2829SOL    HW2 9387   4.154   4.315   6.475
 2830SOL     OW 9388   6.868   4.597   6.672
 2830SOL    HW1 9389   6.943   4.577   6.735
 2830SOL    HW2 9390   6.889   4.559   6.582
 2831SOL     OW 9391   6.806   6.404   4.623
 2831SOL    HW1 9392   6.762   6.409   4.533
 2831SOL    HW2 9393   6.809   6.309   4.653
 2832SOL     OW 9394   0.776   1.431   1.516
 2832SOL    HW1 9395   0.868   1.394   1.510
 2832SOL    HW2 9396   0.749   1.469   1.428
 2833SOL     OW 9397   5.407   1.404   2.079
 2833SOL    HW1 9398   5.327   1.458   2.105
 2833SOL    HW2 9399   5.414   1.401   1.979
 2834SOL     OW 9400   2.701   0.740   6.595
 2834SOL    HW1 9401   2.768   0.704   6.530
 2834SOL    HW2 9402   2.654   0.818   6.555
 2835SOL     OW 9403   0.268   6.596   1.797
 2835SOL    HW1 9404   0.293   6.686   1.760
 2835SOL    HW2 9405   0.170   6.583   1.788
 2836SOL     OW 9406   6.836   0.362   1.331
 2836SOL    HW1 9407   6.854   0.334   1.237
 2836SOL    HW2 9408   6.870   0.291   1.394
 2837SOL     OW 9409   5.755   3.292   3.197
 2837SOL    HW1 9410   5.826   3.307   3.265
 2837SOL    HW2 9411   5.788   3.321   3.107
 2838SOL     OW 9412   2.279   4.173   1.566
 2838SOL    HW1 9413   2.306   4.104   1.633
 2838SOL    HW2 9414   2.240   4.127   1.486
 2839SOL     OW 9415   5.860   1.374   1.876
 2839SOL    HW1 9416   5.939   1.423   1.913
 2839SOL    HW2 9417   5.788   1.368   1.945
 2840SOL     OW 9418   0.248   1.148   4.469
 2840SOL    HW1 9419   0.253   1.126   4.566
 2840SOL    HW2 9420   0.161   1.192   4.448
 2841SOL     OW 9421   0.173   0.543   6.422
 2841SOL    HW1 9422   0.208   0.563   6.331
 2841SOL    HW2 9423   0.103   0.472   6.417
 2842SOL     OW 9424   0.218   2.509   3.970
 2842SOL    HW1 9425   0.296   2.526   3.909
 2842SOL    HW2 9426   0.230   2.560   4.055
 2843SOL     OW 9427   3.269   1.818   4.014
 2843SOL    HW1 9428   3.206   1.879   4.061
 2843SOL    HW2 9429   3.277   1.732   4.065
 2844SOL     OW 9430   1.224   3.696   0.076
 2844SOL    HW1 9431   1.225   3.641   7.012
 2844SOL    HW2 9432   1.173   3.781   0.059
 2845SOL     OW 9433   0.855   3.378   0.633
 2845SOL    HW1 9434   0.881   3.444   0.703
 2845SOL    HW2 9435   0.904   3.293   0.647
 2846SOL     OW 9436   4.775   1.765   0.121
 2846SOL    HW1 9437   4.854   1.705   0.110
 2846SOL    HW2 9438   4.709   1.723   0.183
 2847SOL     OW 9439   5.256   3.529   3.420
 2847SOL    HW1 9440   5.197   3.490   3.491
 2847SOL    HW2 9441   5.242   3.480   3.334
 2848SOL     OW 9442   0.266   4.522   6.147
 2848SOL    HW1 9443   0.191   4.516   6.081
 2848SOL    HW2 9444   0.345   4.566   6.104
 2849SOL     OW 9445   3.590   0.358   1.291
 2849SOL    HW1 9446   3.537   0.342   1.374
 2849SOL    HW2 9447   3.585   0.277   1.232
 2850SOL     OW 9448   3.389   0.959   1.808
 2850SOL    HW1 9449   3.320   0.988   1.875
 2850SOL    HW2 9450   3.346   0.899   1.741
 2851SOL     OW 9451   1.003   4.255   5.381
 2851SOL    HW1 9452   0.910   4.227   5.405
 2851SOL    HW2 9453   1.015   4.352   5.402
 2852SOL     OW 9454   5.429   4.127   6.899
 2852SOL    HW1 9455   5.379   4.197   6.950
 2852SOL    HW2 9456   5.442   4.047   6.958
 2853SOL     OW 9457   2.882   2.246   6.924
 2853SOL    HW1 9458   2.923   2.169   6.875
 2853SOL    HW2 9459   2.787   2.223   6.946
 2854SOL     OW 9460   3.113   1.422   4.108
 2854SOL    HW1 9461   3.147   1.373   4.028
 2854SOL    HW2 9462   3.086   1.357   4.178
 2855SOL     OW 9463   1.767   0.744   6.006
 2855SOL    HW1 9464   1.667   0.752   6.009
 2855SOL    HW2 9465   1.796   0.731   5.912
 2856SOL     OW 9466   2.202   2.902   5.856
 2856SOL    HW1 9467   2.187   2.913   5.757
 2856SOL    HW2 9468   2.211   2.992   5.898
 2857SOL     OW 9469   2.950   1.557   1.648
 2857SOL    HW1 9470   2.906   1.583   1.562
 2857SOL    HW2 9471   2.890   1.582   1.724
 2858SOL     OW 9472   6.034   3.218   1.990
 2858SOL    HW1 9473   6.052   3.146   2.058
 2858SOL    HW2 9474   5.988   3.178   1.911
 2859SOL     OW 9475   5.270   1.758   0.210
 2859SOL    HW1 9476   5.342   1.814   0.253
 2859SOL    HW2 9477   5.188   1.814   0.196
 2860SOL     OW 9478   4.205   1.694   1.076
 2860SOL    HW1 9479   4.235   1.679   1.170
 2860SOL    HW2 9480   4.267   1.759   1.031
 2861SOL     OW 9481   4.750   5.349   5.693
 2861SOL    HW1 9482   4.671   5.290   5.711
 2861SOL    HW2 9483   4.739   5.391   5.603
 2862SOL     OW 9484   5.998   1.633   3.375
 2862SOL    HW1 9485   6.062   1.583   3.315
 2862SOL    HW2 9486   5.906   1.596   3.363
 2863SOL     OW 9487   5.907   1.323   6.963
 2863SOL    HW1 9488   5.926   1.300   0.039
 2863SOL    HW2 9489   5.839   1.396   6.959
 2864SOL     OW 9490   4.002   6.971   0.810
 2864SOL    HW1 9491   4.083   7.006   0.764
 2864SOL    HW2 9492   4.020   6.964   0.909
 2865SOL     OW 9493   5.000   4.562   5.123
 2865SOL    HW1 9494   4.997   4.655   5.087
 2865SOL    HW2 9495   5.081   4.514   5.088
 2866SOL     OW 9496   6.633   6.708   0.230
 2866SOL    HW1 9497   6.652   6.738   0.136
 2866SOL    HW2 9498   6.535   6.688   0.239
 2867SOL     OW 9499   5.585   4.323   2.186
 2867SOL    HW1 9500   5.669   4.270   2.175
 2867SOL    HW2 9501   5.567   4.376   2.103
 2868SOL     OW 9502   0.665   3.625   5.530
 2868SOL    HW1 9503   0.657   3.528   5.507
 2868SOL    HW2 9504   0.596   3.649   5.598
 2869SOL     OW 9505   6.004   1.049   2.967
 2869SOL    HW1 9506   6.013   1.084   3.060
 2869SOL    HW2 9507   5.968   1.121   2.907
 2870SOL     OW 9508   6.847   1.465   4.511
 2870SOL    HW1 9509   6.776   1.405   4.472
 2870SOL    HW2 9510   6.806   1.552   4.537
 2871SOL     OW 9511   2.004   1.825   6.482
 2871SOL    HW1 9512   2.082   1.814   6.420
 2871SOL    HW2 9513   1.919   1.823   6.430
 2872SOL     OW 9514   3.061   1.719   3.833
 2872SOL    HW1 9515   3.022   1.758   3.750
 2872SOL    HW2 9516   3.113   1.789   3.882
 2873SOL     OW 9517   0.782   5.189   3.468
 2873SOL    HW1 9518   0.821   5.271   3.425
 2873SOL    HW2 9519   0.847   5.114   3.462
 2874SOL     OW 9520   5.085   5.288   2.046
 2874SOL    HW1 9521   5.144   5.224   2.095
 2874SOL    HW2 9522   5.100   5.381   2.082
 2875SOL     OW 9523   4.284   6.390   6.436
 2875SOL    HW1 9524   4.377   6.358   6.452
 2875SOL    HW2 9525   4.224   6.311   6.421
 2876SOL     OW 9526   0.685   0.209   1.946
 2876SOL    HW1 9527   0.758   0.163   1.997
 2876SOL    HW2 9528   0.725   0.280   1.889
 2877SOL     OW 9529   3.500   2.756   5.359
 2877SOL    HW1 9530   3.424   2.779   5.297
 2877SOL    HW2 9531   3.475   2.676   5.413
 2878SOL     OW 9532   3.295   4.906   4.278
 2878SOL    HW1 9533   3.374   4.913   4.217
 2878SOL    HW2 9534   3.212   4.924   4.226
 2879SOL     OW 9535   5.091   5.329   0.036
 2879SOL    HW1 9536   5.116   5.319   0.132
 2879SOL    HW2 9537   5.151   5.272   6.998
 2880SOL     OW 9538   5.959   6.354   0.358
 2880SOL    HW1 9539   6.059   6.362   0.361
 2880SOL    HW2 9540   5.924   6.397   0.275
 2881SOL     OW 9541   5.666   6.224   0.741
 2881SOL    HW1 9542   5.613   6.173   0.809
 2881SOL    HW2 9543   5.658   6.322   0.759
 2882SOL     OW 9544   0.810   3.357   2.489
 2882SOL    HW1 9545   0.753   3.356   2.571
 2882SOL    HW2 9546   0.752   3.344   2.409
 2883SOL     OW 9547   4.205   6.698   3.613
 2883SOL    HW1 9548   4.252   6.611   3.620
 2883SOL    HW2 9549   4.255   6.768   3.664
 2884SOL     OW 9550   0.632   6.224   3.095
 2884SOL    HW1 9551   0.689   6.307   3.096
 2884SOL    HW2 9552   0.662   6.165   3.020
 2885SOL     OW 9553   0.181   2.820   3.214
 2885SOL    HW1 9554   0.167   2.753   3.142
 2885SOL    HW2 9555   0.269   2.866   3.201
 2886SOL     OW 9556   2.176   3.087   6.544
 2886SOL    HW1 9557   2.232   3.014   6.585
 2886SOL    HW2 9558   2.079   3.068   6.563
 2887SOL     OW 9559   2.470   7.012   5.178
 2887SOL    HW1 9560   2.417   7.000   5.262
 2887SOL    HW2 9561   2.409   0.002   5.100
 2888SOL     OW 9562   0.030   4.989   6.378
 2888SOL    HW1 9563   6.954   5.005   6.350
 2888SOL    HW2 9564   0.034   4.907   6.434
 2889SOL     OW 9565   1.440   0.965   2.286
 2889SOL    HW1 9566   1.383   0.912   2.349
 2889SOL    HW2 9567   1.396   0.967   2.195
 2890SOL     OW 9568   2.862   0.640   1.470
 2890SOL    HW1 9569   2.772   0.599   1.483
 2890SOL    HW2 9570   2.857   0.708   1.397
 2891SOL     OW 9571   2.655   4.690   3.403
 2891SOL    HW1 9572   2.570   4.733   3.373
 2891SOL    HW2 9573   2.634   4.614   3.464
 2892SOL     OW 9574   4.797   4.262   0.229
 2892SOL    HW1 9575   4.866   4.292   0.295
 2892SOL    HW2 9576   4.771   4.168   0.248
 2893SOL     OW 9577   1.591   6.380   5.566
 2893SOL    HW1 9578   1.686   6.353   5.549
 2893SOL    HW2 9579   1.554   6.328   5.643
 2894SOL     OW 9580   3.043   2.466   6.825
 2894SOL    HW1 9581   3.028   2.378   6.870
 2894SOL    HW2 9582   3.087   2.451   6.736
 2895SOL     OW 9583   4.139   3.113   6.713
 2895SOL    HW1 9584   4.118   3.020   6.743
 2895SOL    HW2 9585   4.113   3.178   6.784
 2896SOL     OW 9586   2.572   5.289   6.282
 2896SOL    HW1 9587   2.552   5.236   6.364
 2896SOL    HW2 9588   2.670   5.303   6.274
 2897SOL     OW 9589   2.157   6.360   3.973
 2897SOL    HW1 9590   2.198   6.292   3.911
 2897SOL    HW2 9591   2.227   6.394   4.036
 2898SOL     OW 9592   4.706   4.755   2.940
 2898SOL    HW1 9593   4.773   4.716   3.002
 2898SOL    HW2 9594   4.753   4.808   2.869
 2899SOL     OW 9595   0.182   1.039   6.427
 2899SOL    HW1 9596   0.127   1.015   6.347
 2899SOL    HW2 9597   0.123   1.048   6.507
 2900SOL     OW 9598   1.479   4.778   5.608
 2900SOL    HW1 9599   1.570   4.786   5.649
 2900SOL    HW2 9600   1.474   4.833   5.525
 2901SOL     OW 9601   1.426   0.334   2.826
 2901SOL    HW1 9602   1.340   0.385   2.834
 2901SOL    HW2 9603   1.443   0.311   2.730
 2902SOL     OW 9604   5.339   6.584   0.463
 2902SOL    HW1 9605   5.370   6.502   0.416
 2902SOL    HW2 9606   5.416   6.626   0.511
 2903SOL     OW 9607   3.141   6.866   2.125
 2903SOL    HW1 9608   3.129   6.784   2.069
 2903SOL    HW2 9609   3.235   6.900   2.114
 2904SOL     OW 9610   2.316   3.255   5.315
 2904SOL    HW1 9611   2.375   3.183   5.277
 2904SOL    HW2 9612   2.364   3.301   5.389
 2905SOL     OW 9613   1.441   1.643   2.688
 2905SOL    HW1 9614   1.365   1.662   2.626
 2905SOL    HW2 9615   1.516   1.706   2.668
 2906SOL     OW 9616   5.231   5.130   2.237
 2906SOL    HW1 9617   5.282   5.140   2.323
 2906SOL    HW2 9618   5.295   5.108   2.163
 2907SOL     OW 9619   6.246   0.858   4.901
 2907SOL    HW1 9620   6.229   0.946   4.945
 2907SOL    HW2 9621   6.202   0.785   4.952
 2908SOL     OW 9622   4.101   6.493   3.983
 2908SOL    HW1 9623   4.028   6.502   3.916
 2908SOL    HW2 9624   4.167   6.425   3.952
 2909SOL     OW 9625   0.708   4.749   4.639
 2909SOL    HW1 9626   0.741   4.659   4.666
 2909SOL    HW2 9627   0.745   4.818   4.701
 2910SOL     OW 9628   3.744   6.303   4.852
 2910SOL    HW1 9629   3.697   6.246   4.784
 2910SOL    HW2 9630   3.732   6.399   4.829
 2911SOL     OW 9631   2.378   5.592   4.040
 2911SOL    HW1 9632   2.350   5.625   4.130
 2911SOL    HW2 9633   2.391   5.670   3.979
 2912SOL     OW 9634   2.990   6.225   0.411
 2912SOL    HW1 9635   2.962   6.238   0.506
 2912SOL    HW2 9636   2.918   6.176   0.362
 2913SOL     OW 9637   1.955   4.590   2.598
 2913SOL    HW1 9638   1.942   4.592   2.697
 2913SOL    HW2 9639   2.001   4.673   2.568
 2914SOL     OW 9640   6.009   4.915   6.121
 2914SOL    HW1 9641   5.952   4.834   6.139
 2914SOL    HW2 9642   6.017   4.969   6.204
 2915SOL     OW 9643   4.584   1.749   4.185
 2915SOL    HW1 9644   4.607   1.779   4.278
 2915SOL    HW2 9645   4.599   1.824   4.121
 2916SOL     OW 9646   6.420   4.862   5.981
 2916SOL    HW1 9647   6.384   4.812   5.902
 2916SOL    HW2 9648   6.346   4.915   6.022
 2917SOL     OW 9649   3.789   0.141   1.496
 2917SOL    HW1 9650   3.830   0.208   1.558
 2917SOL    HW2 9651   3.690   0.152   1.497
 2918SOL     OW 9652   6.834   2.861   3.497
 2918SOL    HW1 9653   6.836   2.830   3.402
 2918SOL    HW2 9654   6.898   2.806   3.551
 2919SOL     OW 9655   6.137   0.304   0.255
 2919SOL    HW1 9656   6.118   0.233   0.187
 2919SOL    HW2 9657   6.172   0.386   0.209
 2920SOL     OW 9658   3.628   1.930   2.528
 2920SOL    HW1 9659   3.533   1.937   2.559
 2920SOL    HW2 9660   3.643   1.994   2.453
 2921SOL     OW 9661   0.161   1.198   2.881
 2921SOL    HW1 9662   0.141   1.106   2.845
 2921SOL    HW2 9663   0.162   1.195   2.981
 2922SOL     OW 9664   5.694   6.622   0.105
 2922SOL    HW1 9665   5.635   6.651   0.180
 2922SOL    HW2 9666   5.663   6.664   0.020
 2923SOL     OW 9667   0.075   5.429   2.362
 2923SOL    HW1 9668   0.012   5.441   2.439
 2923SOL    HW2 9669   0.055   5.343   2.316
 2924SOL     OW 9670   0.066   1.750   6.193
 2924SOL    HW1 9671   0.114   1.666   6.220
 2924SOL    HW2 9672   7.002   1.726   6.143
 2925SOL     OW 9673   5.718   1.038   3.079
 2925SOL    HW1 9674   5.703   0.956   3.134
 2925SOL    HW2 9675   5.750   1.011   2.988
 2926SOL     OW 9676   6.992   1.675   4.792
 2926SOL    HW1 9677   0.053   1.694   4.849
 2926SOL    HW2 9678   0.004   1.642   4.703
 2927SOL     OW 9679   1.650   2.150   2.239
 2927SOL    HW1 9680   1.563   2.194   2.263
 2927SOL    HW2 9681   1.706   2.213   2.186
 2928SOL     OW 9682   6.380   1.914   6.885
 2928SOL    HW1 9683   6.471   1.953   6.897
 2928SOL    HW2 9684   6.385   1.831   6.830
 2929SOL     OW 9685   1.122   0.988   5.930
 2929SOL    HW1 9686   1.182   0.944   5.863
 2929SOL    HW2 9687   1.164   1.074   5.960
 2930SOL     OW 9688   4.766   6.511   5.265
 2930SOL    HW1 9689   4.796   6.416   5.266
 2930SOL    HW2 9690   4.674   6.517   5.303
 2931SOL     OW 9691   4.952   5.729   6.552
 2931SOL    HW1 9692   4.919   5.754   6.461
 2931SOL    HW2 9693   4.998   5.807   6.593
 2932SOL     OW 9694   1.716   4.840   2.234
 2932SOL    HW1 9695   1.679   4.869   2.322
 2932SOL    HW2 9696   1.644   4.795   2.181
 2933SOL     OW 9697   5.331   2.607   3.775
 2933SOL    HW1 9698   5.331   2.630   3.872
 2933SOL    HW2 9699   5.424   2.582   3.747
 2934SOL     OW 9700   3.776   0.740   0.928
 2934SOL    HW1 9701   3.678   0.762   0.931
 2934SOL    HW2 9702   3.823   0.783   1.005
 2935SOL     OW 9703   6.554   2.828   1.637
 2935SOL    HW1 9704   6.546   2.912   1.584
 2935SOL    HW2 9705   6.591   2.849   1.727
 2936SOL     OW 9706   4.839   5.657   1.519
 2936SOL    HW1 9707   4.857   5.687   1.612
 2936SOL    HW2 9708   4.891   5.574   1.499
 2937SOL     OW 9709   3.195   5.268   0.509
 2937SOL    HW1 9710   3.123   5.248   0.443
 2937SOL    HW2 9711   3.228   5.361   0.496
 2938SOL     OW 9712   4.837   4.829   5.267
 2938SOL    HW1 9713   4.826   4.870   5.358
 2938SOL    HW2 9714   4.788   4.742   5.263
 2939SOL     OW 9715   0.271   6.330   4.607
 2939SOL    HW1 9716   0.346   6.382   4.567
 2939SOL    HW2 9717   0.187   6.385   4.605
 2940SOL     OW 9718   5.647   0.201   5.129
 2940SOL    HW1 9719   5.736   0.222   5.169
 2940SOL    HW2 9720   5.576   0.255   5.175
 2941SOL     OW 9721   1.469   2.518   5.719
 2941SOL    HW1 9722   1.511   2.565   5.642
 2941SOL    HW2 9723   1.495   2.421   5.718
 2942SOL     OW 9724   2.465   0.823   2.149
 2942SOL    HW1 9725   2.411   0.747   2.115
 2942SOL    HW2 9726   2.510   0.870   2.073
 2943SOL     OW 9727   5.187   3.542   2.948
 2943SOL    HW1 9728   5.230   3.545   2.858
 2943SOL    HW2 9729   5.198   3.450   2.987
 2944SOL     OW 9730   3.311   5.422   5.489
 2944SOL    HW1 9731   3.294   5.452   5.395
 2944SOL    HW2 9732   3.353   5.496   5.540
 2945SOL     OW 9733   3.992   3.702   2.889
 2945SOL    HW1 9734   3.994   3.797   2.858
 2945SOL    HW2 9735   3.897   3.671   2.896
 2946SOL     OW 9736   6.756   5.824   5.657
 2946SOL    HW1 9737   6.665   5.796   5.630
 2946SOL    HW2 9738   6.776   5.789   5.749
 2947SOL     OW 9739   0.909   3.969   0.254
 2947SOL    HW1 9740   0.864   3.912   0.322
 2947SOL    HW2 9741   0.996   4.002   0.291
 2948SOL     OW 9742   6.001   3.813   5.305
 2948SOL    HW1 9743   5.979   3.862   5.389
 2948SOL    HW2 9744   5.920   3.762   5.274
 2949SOL     OW 9745   1.750   6.439   1.310
 2949SOL    HW1 9746   1.833   6.419   1.362
 2949SOL    HW2 9747   1.730   6.363   1.249
 2950SOL     OW 9748   5.412   3.574   4.582
 2950SOL    HW1 9749   5.490   3.512   4.599
 2950SOL    HW2 9750   5.385   3.617   4.668
 2951SOL     OW 9751   6.935   2.524   7.010
 2951SOL    HW1 9752   6.902   2.534   0.085
 2951SOL    HW2 9753   6.863   2.485   6.953
 2952SOL     OW 9754   1.345   4.789   3.807
 2952SOL    HW1 9755   1.394   4.759   3.889
 2952SOL    HW2 9756   1.320   4.885   3.818
 2953SOL     OW 9757   5.233   2.512   2.438
 2953SOL    HW1 9758   5.134   2.518   2.428
 2953SOL    HW2 9759   5.255   2.464   2.523
 2954SOL     OW 9760   1.220   6.103   2.234
 2954SOL    HW1 9761   1.122   6.100   2.255
 2954SOL    HW2 9762   1.248   6.198   2.219
 2955SOL     OW 9763   0.387   2.891   0.305
 2955SOL    HW1 9764   0.289   2.894   0.324
 2955SOL    HW2 9765   0.432   2.967   0.351
 2956SOL     OW 9766   0.048   5.857   2.640
 2956SOL    HW1 9767   0.037   5.954   2.664
 2956SOL    HW2 9768   6.995   5.803   2.683
 2957SOL     OW 9769   6.982   3.656   1.219
 2957SOL    HW1 9770   6.930   3.630   1.300
 2957SOL    HW2 9771   7.013   3.575   1.170
 2958SOL     OW 9772   2.449   4.488   4.954
 2958SOL    HW1 9773   2.523   4.533   4.904
 2958SOL    HW2 9774   2.464   4.500   5.052
 2959SOL     OW 9775   4.914   4.637   6.681
 2959SOL    HW1 9776   4.858   4.696   6.623
 2959SOL    HW2 9777   4.980   4.588   6.624
 2960SOL     OW 9778   3.029   1.137   6.950
 2960SOL    HW1 9779   2.982   1.222   6.971
 2960SOL    HW2 9780   2.981   1.060   6.994
 2961SOL     OW 9781   5.403   2.933   4.313
 2961SOL    HW1 9782   5.318   2.927   4.260
 2961SOL    HW2 9783   5.443   2.842   4.322
 2962SOL     OW 9784   4.618   0.883   3.986
 2962SOL    HW1 9785   4.690   0.901   4.053
 2962SOL    HW2 9786   4.613   0.785   3.967
 2963SOL     OW 9787   1.963   1.646   5.949
 2963SOL    HW1 9788   2.010   1.729   5.977
 2963SOL    HW2 9789   1.953   1.645   5.850
 2964SOL     OW 9790   1.629   0.131   1.953
 2964SOL    HW1 9791   1.693   0.115   1.878
 2964SOL    HW2 9792   1.613   0.229   1.962
 2965SOL     OW 9793   0.265   1.017   5.127
 2965SOL    HW1 9794   0.261   1.054   5.220
 2965SOL    HW2 9795   0.352   1.040   5.085
 2966SOL     OW 9796   5.970   4.540   3.912
 2966SOL    HW1 9797   5.896   4.475   3.898
 2966SOL    HW2 9798   5.932   4.631   3.926
 2967SOL     OW 9799   5.940   2.805   3.549
 2967SOL    HW1 9800   6.029   2.788   3.508
 2967SOL    HW2 9801   5.868   2.783   3.482
 2968SOL     OW 9802   0.661   3.935   5.743
 2968SOL    HW1 9803   0.595   3.978   5.681
 2968SOL    HW2 9804   0.753   3.970   5.724
 2969SOL     OW 9805   5.598   1.623   5.191
 2969SOL    HW1 9806   5.545   1.634   5.107
 2969SOL    HW2 9807   5.654   1.704   5.207
 2970SOL     OW 9808   0.912   4.130   6.785
 2970SOL    HW1 9809   1.006   4.156   6.803
 2970SOL    HW2 9810   0.882   4.062   6.852
 2971SOL     OW 9811   5.721   2.722   4.367
 2971SOL    HW1 9812   5.733   2.642   4.425
 2971SOL    HW2 9813   5.643   2.708   4.306
 2972SOL     OW 9814   6.439   4.542   0.069
 2972SOL    HW1 9815   6.487   4.569   7.004
 2972SOL    HW2 9816   6.341   4.532   0.049
 2973SOL     OW 9817   5.314   0.478   4.150
 2973SOL    HW1 9818   5.363   0.560   4.180
 2973SOL    HW2 9819   5.244   0.503   4.084
 2974SOL     OW 9820   6.206   3.853   3.604
 2974SOL    HW1 9821   6.224   3.845   3.506
 2974SOL    HW2 9822   6.116   3.894   3.618
 2975SOL     OW 9823   0.221   1.718   4.963
 2975SOL    HW1 9824   0.273   1.713   4.878
 2975SOL    HW2 9825   0.186   1.811   4.976
 2976SOL     OW 9826   3.722   1.588   3.047
 2976SOL    HW1 9827   3.645   1.539   3.087
 2976SOL    HW2 9828   3.715   1.583   2.947
 2977SOL     OW 9829   2.648   0.109   4.095
 2977SOL    HW1 9830   2.718   0.179   4.077
 2977SOL    HW2 9831   2.621   0.114   4.191
 2978SOL     OW 9832   4.289   4.665   0.284
 2978SOL    HW1 9833   4.328   4.700   0.369
 2978SOL    HW2 9834   4.334   4.709   0.206
 2979SOL     OW 9835   3.982   6.912   3.951
 2979SOL    HW1 9836   4.048   6.859   4.003
 2979SOL    HW2 9837   3.889   6.883   3.973
 2980SOL     OW 9838   1.543   5.983   4.243
 2980SOL    HW1 9839   1.540   6.043   4.163
 2980SOL    HW2 9840   1.533   6.038   4.326
 2981SOL     OW 9841   0.604   0.163   5.876
 2981SOL    HW1 9842   0.640   0.256   5.886
 2981SOL    HW2 9843   0.663   0.098   5.924
 2982SOL     OW 9844   4.586   6.412   3.230
 2982SOL    HW1 9845   4.492   6.427   3.260
 2982SOL    HW2 9846   4.646   6.477   3.275
 2983SOL     OW 9847   0.723   0.556   3.792
 2983SOL    HW1 9848   0.640   0.596   3.831
 2983SOL    HW2 9849   0.701   0.469   3.749
 2984SOL     OW 9850   4.997   6.243   1.467
 2984SOL    HW1 9851   4.904   6.216   1.442
 2984SOL    HW2 9852   5.008   6.341   1.453
 2985SOL     OW 9853   0.793   1.935   4.410
 2985SOL    HW1 9854   0.693   1.927   4.404
 2985SOL    HW2 9855   0.819   2.031   4.415
 2986SOL     OW 9856   2.766   4.231   6.123
 2986SOL    HW1 9857   2.689   4.186   6.078
 2986SOL    HW2 9858   2.825   4.273   6.054
 2987SOL     OW 9859   4.870   1.327   3.999
 2987SOL    HW1 9860   4.957   1.279   4.006
 2987SOL    HW2 9861   4.884   1.424   4.018
 2988SOL     OW 9862   0.361   0.160   2.433
 2988SOL    HW1 9863   0.423   0.085   2.457
 2988SOL    HW2 9864   0.395   0.206   2.351
 2989SOL     OW 9865   5.792   5.426   1.082
 2989SOL    HW1 9866   5.702   5.393   1.054
 2989SOL    HW2 9867   5.816   5.506   1.028
 2990SOL     OW 9868   4.047   0.909   3.278
 2990SOL    HW1 9869   4.105   0.927   3.199
 2990SOL    HW2 9870   3.998   0.822   3.265
 2991SOL     OW 9871   0.143   3.814   0.861
 2991SOL    HW1 9872   0.228   3.868   0.855
 2991SOL    HW2 9873   0.142   3.746   0.788
 2992SOL     OW 9874   2.552   5.783   5.402
 2992SOL    HW1 9875   2.600   5.777   5.490
 2992SOL    HW2 9876   2.600   5.728   5.334
 2993SOL     OW 9877   1.245   4.709   1.956
 2993SOL    HW1 9878   1.158   4.754   1.974
 2993SOL    HW2 9879   1.245   4.671   1.863
 2994SOL     OW 9880   4.345   0.793   0.110
 2994SOL    HW1 9881   4.344   0.707   0.058
 2994SOL    HW2 9882   4.384   0.776   0.201
 2995SOL     OW 9883   0.838   2.756   6.577
 2995SOL    HW1 9884   0.929   2.771   6.538
 2995SOL    HW2 9885   0.842   2.770   6.675
 2996SOL     OW 9886   3.249   6.133   4.663
 2996SOL    HW1 9887   3.331   6.087   4.631
 2996SOL    HW2 9888   3.242   6.223   4.621
 2997SOL     OW 9889   4.814   6.043   1.920
 2997SOL    HW1 9890   4.845   6.134   1.894
 2997SOL    HW2 9891   4.856   6.016   2.006
 2998SOL     OW 9892   4.866   5.890   4.910
 2998SOL    HW1 9893   4.959   5.879   4.875
 2998SOL    HW2 9894   4.807   5.818   4.873
 2999SOL     OW 9895   3.857   6.026   3.677
 2999SOL    HW1 9896   3.771   5.978   3.696
 2999SOL    HW2 9897   3.883   6.010   3.581
 3000SOL     OW 9898   1.832   4.078   6.313
 3000SOL    HW1 9899   1.776   4.099   6.233
 3000SOL    HW2 9900   1.920   4.040   6.284
 3001SOL     OW 9901   4.989   7.018   6.964
 3001SOL    HW1 9902   4.981   0.088   7.008
 3001SOL    HW2 9903   5.083   7.004   6.932
 3002SOL     OW 9904   3.753   0.313   5.215
 3002SOL    HW1 9905   3.715   0.298   5.306
 3002SOL    HW2 9906   3.838   0.261   5.205
 3003SOL     OW 9907   2.844   6.329   6.133
 3003SOL    HW1 9908   2.761   6.308   6.184
 3003SOL    HW2 9909   2.920   6.341   6.197
 3004SOL     OW 9910   6.862   4.303   4.095
 3004SOL    HW1 9911   6.910   4.334   4.014
 3004SOL    HW2 9912   6.882   4.365   4.172
 3005SOL     OW 9913   3.372   3.214   1.198
 3005SOL    HW1 9914   3.316   3.278   1.251
 3005SOL    HW2 9915   3.458   3.197   1.247
 3006SOL     OW 9916   6.127   1.771   0.411
 3006SOL    HW1 9917   6.076   1.856   0.413
 3006SOL    HW2 9918   6.183   1.767   0.328
 3007SOL     OW 9919   6.262   5.481   2.420
 3007SOL    HW1 9920   6.334   5.449   2.483
 3007SOL    HW2 9921   6.180   5.424   2.432
 3008SOL     OW 9922   3.309   0.317   6.211
 3008SOL    HW1 9923   3.391   0.367   6.241
 3008SOL    HW2 9924   3.229   0.375   6.222
 3009SOL     OW 9925   0.523   6.321   2.589
 3009SOL    HW1 9926   0.472   6.240   2.560
 3009SOL    HW2 9927   0.598   6.338   2.526
 3010SOL     OW 9928   3.979   5.713   3.403
 3010SOL    HW1 9929   4.062   5.673   3.365
 3010SOL    HW2 9930   3.950   5.791   3.347
 3011SOL     OW 9931   5.304   0.912   6.534
 3011SOL    HW1 9932   5.276   1.006   6.554
 3011SOL    HW2 9933   5.326   0.904   6.437
 3012SOL     OW 9934   0.477   3.549   4.135
 3012SOL    HW1 9935   0.462   3.602   4.218
 3012SOL    HW2 9936   0.547   3.595   4.079
 3013SOL     OW 9937   5.166   6.137   3.907
 3013SOL    HW1 9938   5.167   6.084   3.823
 3013SOL    HW2 9939   5.251   6.121   3.958
 3014SOL     OW 9940   5.172   2.275   4.133
 3014SOL    HW1 9941   5.254   2.250   4.081
 3014SOL    HW2 9942   5.091   2.257   4.077
 3015SOL     OW 9943   3.425   2.406   0.216
 3015SOL    HW1 9944   3.335   2.400   0.259
 3015SOL    HW2 9945   3.430   2.342   0.139
 3016SOL     OW 9946   3.278   5.968   4.330
 3016SOL    HW1 9947   3.254   5.895   4.395
 3016SOL    HW2 9948   3.240   6.055   4.362
 3017SOL     OW 9949   1.317   5.744   0.815
 3017SOL    HW1 9950   1.375   5.779   0.888
 3017SOL    HW2 9951   1.221   5.767   0.835
 3018SOL     OW 9952   3.153   0.346   6.563
 3018SOL    HW1 9953   3.205   0.429   6.541
 3018SOL    HW2 9954   3.162   0.327   6.661
 3019SOL     OW 9955   3.382   6.316   1.048
 3019SOL    HW1 9956   3.389   6.404   1.095
 3019SOL    HW2 9957   3.448   6.313   0.973
 3020SOL     OW 9958   3.723   3.474   1.615
 3020SOL    HW1 9959   3.709   3.425   1.701
 3020SOL    HW2 9960   3.814   3.451   1.579
 3021SOL     OW 9961   2.205   1.980   0.032
 3021SOL    HW1 9962   2.137   1.965   6.979
 3021SOL    HW2 9963   2.259   1.896   0.045
 3022SOL     OW 9964   4.169   6.248   2.463
 3022SOL    HW1 9965   4.252   6.194   2.455
 3022SOL    HW2 9966   4.116   6.242   2.378
 3023SOL     OW 9967   3.639   6.067   3.050
 3023SOL    HW1 9968   3.666   6.020   2.966
 3023SOL    HW2 9969   3.556   6.120   3.033
 3024SOL     OW 9970   2.886   0.790   6.361
 3024SOL    HW1 9971   2.801   0.746   6.335
 3024SOL    HW2 9972   2.917   0.850   6.287
 3025SOL     OW 9973   3.462   2.633   0.403
 3025SOL    HW1 9974   3.463   2.560   0.336
 3025SOL    HW2 9975   3.493   2.598   0.491
 3026SOL     OW 9976   1.508   3.158   0.821
 3026SOL    HW1 9977   1.585   3.126   0.765
 3026SOL    HW2 9978   1.535   3.160   0.917
 3027SOL     OW 9979   3.958   1.370   1.968
 3027SOL    HW1 9980   4.041   1.316   1.980
 3027SOL    HW2 9981   3.898   1.357   2.047
 3028SOL     OW 9982   0.997   4.479   6.446
 3028SOL    HW1 9983   0.987   4.544   6.522
 3028SOL    HW2 9984   0.921   4.414   6.448
 3029SOL     OW 9985   6.737   5.260   4.975
 3029SOL    HW1 9986   6.765   5.176   4.927
 3029SOL    HW2 9987   6.808   5.329   4.963
 3030SOL     OW 9988   0.761   1.806   5.382
 3030SOL    HW1 9989   0.719   1.866   5.314
 3030SOL    HW2 9990   0.855   1.836   5.398
 3031SOL     OW 9991   0.709   3.393   0.389
 3031SOL    HW1 9992   0.759   3.385   0.476
 3031SOL    HW2 9993   0.617   3.428   0.407
 3032SOL     OW 9994   5.351   0.561   0.421
 3032SOL    HW1 9995   5.251   0.562   0.430
 3032SOL    HW2 9996   5.390   0.642   0.465
 3033SOL     OW 9997   0.866   2.455   6.945
 3033SOL    HW1 9998   0.853   2.407   6.858
 3033SOL    HW2 9999   0.882   2.388   7.018
 3034SOL     OW10000   1.848   6.226   3.873
 3034SOL    HW110001   1.867   6.283   3.953
 3034SOL    HW210002   1.933   6.189   3.836
 3035SOL     OW10003   6.489   2.145   0.557
 3035SOL    HW110004   6.470   2.213   0.487
 3035SOL    HW210005   6.568   2.090   0.529
 3036SOL     OW10006   1.905   3.645   0.219
 3036SOL    HW110007   1.939   3.667   0.310
 3036SOL    HW210008   1.981   3.644   0.154
 3037SOL     OW10009   6.090   5.979   4.357
 3037SOL    HW110010   6.148   5.927   4.419
 3037SOL    HW210011   6.147   6.019   4.285
 3038SOL     OW10012   5.603   6.716   6.467
 3038SOL    HW110013   5.659   6.686   6.545
 3038SOL    HW210014   5.512   6.741   6.499
 3039SOL     OW10015   7.013   4.455   2.506
 3039SOL    HW110016   0.037   4.500   2.428
 3039SOL    HW210017   6.993   4.522   2.577
 3040SOL     OW10018   4.818   3.786   6.150
 3040SOL    HW110019   4.737   3.823   6.195
 3040SOL    HW210020   4.899   3.834   6.183
 3041SOL     OW10021   1.502   2.603   5.982
 3041SOL    HW110022   1.601   2.588   5.978
 3041SOL    HW210023   1.464   2.603   5.889
 3042SOL     OW10024   5.082   6.428   1.954
 3042SOL    HW110025   5.170   6.409   1.910
 3042SOL    HW210026   5.096   6.441   2.052
 3043SOL     OW10027   6.936   5.694   0.811
 3043SOL    HW110028   6.941   5.747   0.726
 3043SOL    HW210029   6.925   5.597   0.789
 3044SOL     OW10030   3.093   4.198   5.735
 3044SOL    HW110031   3.097   4.171   5.831
 3044SOL    HW210032   3.089   4.297   5.728
 3045SOL     OW10033   4.444   0.551   2.577
 3045SOL    HW110034   4.476   0.456   2.578
 3045SOL    HW210035   4.476   0.597   2.660
 3046SOL     OW10036   1.560   3.307   5.486
 3046SOL    HW110037   1.544   3.322   5.388
 3046SOL    HW210038   1.645   3.353   5.513
 3047SOL     OW10039   5.282   5.519   2.054
 3047SOL    HW110040   5.215   5.569   1.999
 3047SOL    HW210041   5.345   5.469   1.994
 3048SOL     OW10042   3.921   3.379   1.405
 3048SOL    HW110043   3.945   3.322   1.483
 3048SOL    HW210044   3.839   3.343   1.361
 3049SOL     OW10045   0.836   6.146   1.123
 3049SOL    HW110046   0.760   6.092   1.086
 3049SOL    HW210047   0.915   6.087   1.139
 3050SOL     OW10048   3.626   0.143   3.433
 3050SOL    HW110049   3.705   0.170   3.377
 3050SOL    HW210050   3.570   0.078   3.382
 3051SOL     OW10051   2.897   3.836   0.045
 3051SOL    HW110052   2.851   3.913   0.089
 3051SOL    HW210053   2.909   3.762   0.111
 3052SOL     OW10054   4.142   0.736   2.916
 3052SOL    HW110055   4.144   0.799   2.839
 3052SOL    HW210056   4.191   0.777   2.993
 3053SOL     OW10057   6.074   0.519   6.919
 3053SOL    HW110058   6.113   0.539   7.009
 3053SOL    HW210059   6.015   0.595   6.892
 3054SOL     OW10060   0.185   2.547   6.985
 3054SOL    HW110061   0.194   2.608   6.906
 3054SOL    HW210062   0.088   2.534   7.006
 3055SOL     OW10063   5.293   0.570   3.731
 3055SOL    HW110064   5.308   0.471   3.725
 3055SOL    HW210065   5.358   0.617   3.671
 3056SOL     OW10066   6.693   0.321   6.832
 3056SOL    HW110067   6.699   0.404   6.888
 3056SOL    HW210068   6.718   0.242   6.888
 3057SOL     OW10069   4.321   5.658   2.737
 3057SOL    HW110070   4.229   5.626   2.758
 3057SOL    HW210071   4.324   5.690   2.642
 3058SOL     OW10072   6.069   5.489   1.440
 3058SOL    HW110073   5.996   5.421   1.449
 3058SOL    HW210074   6.068   5.549   1.519
 3059SOL     OW10075   1.779   3.240   4.965
 3059SOL    HW110076   1.731   3.174   4.907
 3059SOL    HW210077   1.764   3.217   5.061
 3060SOL     OW10078   0.168   6.360   0.267
 3060SOL    HW110079   0.260   6.364   0.307
 3060SOL    HW210080   0.103   6.333   0.338
 3061SOL     OW10081   6.837   0.978   4.996
 3061SOL    HW110082   6.928   0.941   4.976
 3061SOL    HW210083   6.778   0.966   4.917
 3062SOL     OW10084   1.799   6.828   1.072
 3062SOL    HW110085   1.748   6.887   1.011
 3062SOL    HW210086   1.819   6.741   1.026
 3063SOL     OW10087   2.421   5.320   2.395
 3063SOL    HW110088   2.373   5.267   2.465
 3063SOL    HW210089   2.382   5.412   2.391
 3064SOL     OW10090   5.805   3.354   3.605
 3064SOL    HW110091   5.776   3.259   3.592
 3064SOL    HW210092   5.864   3.381   3.529
 3065SOL     OW10093   2.142   0.215   6.373
 3065SOL    HW110094   2.214   0.251   6.315
 3065SOL    HW210095   2.080   0.289   6.399
 3066SOL     OW10096   5.684   4.521   0.453
 3066SOL    HW110097   5.644   4.513   0.362
 3066SOL    HW210098   5.767   4.576   0.447
 3067SOL     OW10099   3.388   1.353   4.424
 3067SOL    HW110100   3.318   1.408   4.469
 3067SOL    HW210101   3.478   1.394   4.441
 3068SOL     OW10102   5.496   6.073   0.284
 3068SOL    HW110103   5.449   6.107   0.203
 3068SOL    HW210104   5.523   5.978   0.270
 3069SOL     OW10105   6.664   5.546   1.338
 3069SOL    HW110106   6.729   5.536   1.414
 3069SOL    HW210107   6.709   5.593   1.262
 3070SOL     OW10108   2.116   0.923   2.292
 3070SOL    HW110109   2.101   0.854   2.362
 3070SOL    HW210110   2.028   0.955   2.257
 3071SOL     OW10111   6.457   6.718   3.569
 3071SOL    HW110112   6.555   6.711   3.585
 3071SOL    HW210113   6.414   6.771   3.642
 3072SOL     OW10114   0.739   6.236   0.857
 3072SOL    HW110115   0.788   6.273   0.778
 3072SOL    HW210116   0.804   6.217   0.931
 3073SOL     OW10117   0.981   3.924   4.997
 3073SOL    HW110118   0.885   3.943   4.979
 3073SOL    HW210119   0.989   3.866   5.078
 3074SOL     OW10120   5.327   2.835   0.913
 3074SOL    HW110121   5.290   2.843   1.006
 3074SOL    HW210122   5.425   2.816   0.918
 3075SOL     OW10123   1.770   6.183   1.551
 3075SOL    HW110124   1.826   6.266   1.551
 3075SOL    HW210125   1.830   6.102   1.555
 3076SOL     OW10126   6.720   0.601   4.289
 3076SOL    HW110127   6.622   0.607   4.309
 3076SOL    HW210128   6.773   0.623   4.370
 3077SOL     OW10129   5.657   4.697   2.698
 3077SOL    HW110130   5.606   4.727   2.778
 3077SOL    HW210131   5.699   4.777   2.654
 3078SOL     OW10132   2.247   3.661   1.207
 3078SOL    HW110133   2.163   3.622   1.245
 3078SOL    HW210134   2.298   3.707   1.280
 3079SOL     OW10135   1.995   2.588   4.713
 3079SOL    HW110136   1.896   2.582   4.726
 3079SOL    HW210137   2.019   2.679   4.680
 3080SOL     OW10138   5.449   5.108   2.044
 3080SOL    HW110139   5.409   5.185   1.996
 3080SOL    HW210140   5.539   5.134   2.081
 3081SOL     OW10141   0.584   4.472   6.241
 3081SOL    HW110142   0.599   4.424   6.155
 3081SOL    HW210143   0.665   4.466   6.298
 3082SOL     OW10144   3.730   6.657   3.582
 3082SOL    HW110145   3.807   6.698   3.631
 3082SOL    HW210146   3.657   6.725   3.572
 3083SOL     OW10147   4.113   6.681   2.626
 3083SOL    HW110148   4.121   6.629   2.541
 3083SOL    HW210149   4.030   6.737   2.624
 3084SOL     OW10150   5.224   4.337   4.490
 3084SOL    HW110151   5.201   4.388   4.407
 3084SOL    HW210152   5.316   4.362   4.520
 3085SOL     OW10153   6.989   4.517   3.048
 3085SOL    HW110154   6.928   4.592   3.074
 3085SOL    HW210155   0.015   4.479   3.129
 3086SOL     OW10156   4.328   1.418   1.802
 3086SOL    HW110157   4.282   1.453   1.720
 3086SOL    HW210158   4.291   1.464   1.883
 3087SOL     OW10159   0.276   4.671   4.005
 3087SOL    HW110160   0.273   4.571   4.007
 3087SOL    HW210161   0.357   4.701   3.954
 3088SOL     OW10162   2.932   5.140   5.088
 3088SOL    HW110163   2.954   5.046   5.065
 3088SOL    HW210164   3.006   5.179   5.144
 3089SOL     OW10165   1.314   3.267   6.957
 3089SOL    HW110166   1.295   3.183   7.008
 3089SOL    HW210167   1.388   3.317   7.001
 3090SOL     OW10168   1.467   1.583   1.437
 3090SOL    HW110169   1.517   1.507   1.480
 3090SOL    HW210170   1.525   1.625   1.367
 3091SOL     OW10171   2.863   6.595   0.403
 3091SOL    HW110172   2.814   6.645   0.332
 3091SOL    HW210173   2.806   6.521   0.438
 3092SOL     OW10174   5.037   0.176   0.188
 3092SOL    HW110175   5.080   0.109   0.249
 3092SOL    HW210176   4.943   0.193   0.220
 3093SOL     OW10177   5.643   5.349   5.727
 3093SOL    HW110178   5.692   5.333   5.642
 3093SOL    HW210179   5.551   5.383   5.707
 3094SOL     OW10180   3.202   0.040   4.943
 3094SOL    HW110181   3.128   0.014   4.881
 3094SOL    HW210182   3.164   0.077   5.027
 3095SOL     OW10183   2.524   4.557   4.302
 3095SOL    HW110184   2.481   4.485   4.356
 3095SOL    HW210185   2.477   4.644   4.318
 3096SOL     OW10186   0.089   0.366   4.344
 3096SOL    HW110187   0.168   0.307   4.328
 3096SOL    HW210188   0.021   0.351   4.272
 3097SOL     OW10189   0.832   2.362   0.282
 3097SOL    HW110190   0.733   2.354   0.291
 3097SOL    HW210191   0.859   2.458   0.292
 3098SOL     OW10192   2.294   3.393   1.374
 3098SOL    HW110193   2.309   3.488   1.347
 3098SOL    HW210194   2.265   3.389   1.470
 3099SOL     OW10195   0.277   5.771   4.941
 3099SOL    HW110196   0.219   5.717   4.880
 3099SOL    HW210197   0.344   5.822   4.886
 3100SOL     OW10198   6.590   0.020   4.913
 3100SOL    HW110199   6.622   0.037   5.006
 3100SOL    HW210200   6.580   6.940   4.899
 3101SOL     OW10201   4.411   6.272   5.597
 3101SOL    HW110202   4.418   6.306   5.691
 3101SOL    HW210203   4.316   6.255   5.575
 3102SOL     OW10204   1.029   5.116   1.480
 3102SOL    HW110205   1.123   5.141   1.457
 3102SOL    HW210206   1.022   5.016   1.488
 3103SOL     OW10207   3.672   1.500   0.911
 3103SOL    HW110208   3.640   1.579   0.858
 3103SOL    HW210209   3.633   1.503   1.003
 3104SOL     OW10210   5.862   6.269   4.028
 3104SOL    HW110211   5.958   6.274   4.057
 3104SOL    HW210212   5.803   6.273   4.109
 3105SOL     OW10213   6.189   5.429   3.645
 3105SOL    HW110214   6.127   5.351   3.644
 3105SOL    HW210215   6.246   5.428   3.564
 3106SOL     OW10216   6.932   1.843   2.626
 3106SOL    HW110217   6.996   1.795   2.567
 3106SOL    HW210218   6.935   1.941   2.607
 3107SOL     OW10219   3.835   0.260   4.435
 3107SOL    HW110220   3.845   0.308   4.522
 3107SOL    HW210221   3.860   0.164   4.446
 3108SOL     OW10222   1.896   0.976   4.383
 3108SOL    HW110223   1.900   1.074   4.402
 3108SOL    HW210224   1.859   0.929   4.463
 3109SOL     OW10225   6.004   6.094   2.816
 3109SOL    HW110226   6.103   6.093   2.830
 3109SOL    HW210227   5.983   6.054   2.727
 3110SOL     OW10228   0.428   1.958   3.734
 3110SOL    HW110229   0.425   2.013   3.651
 3110SOL    HW210230   0.502   1.991   3.794
 3111SOL     OW10231   6.162   5.415   3.983
 3111SOL    HW110232   6.235   5.358   4.020
 3111SOL    HW210233   6.173   5.509   4.016
 3112SOL     OW10234   5.075   2.826   5.738
 3112SOL    HW110235   5.022   2.897   5.786
 3112SOL    HW210236   5.014   2.770   5.683
 3113SOL     OW10237   2.369   0.300   4.088
 3113SOL    HW110238   2.341   0.295   4.183
 3113SOL    HW210239   2.332   0.222   4.037
 3114SOL     OW10240   5.316   3.691   0.108
 3114SOL    HW110241   5.254   3.734   0.043
 3114SOL    HW210242   5.398   3.659   0.061
 3115SOL     OW10243   4.398   3.560   0.284
 3115SOL    HW110244   4.455   3.561   0.366
 3115SOL    HW210245   4.413   3.475   0.233
 3116SOL     OW10246   6.828   3.304   6.989
 3116SOL    HW110247   6.905   3.306   6.926
 3116SOL    HW210248   6.804   3.398   7.015
 3117SOL     OW10249   4.670   3.920   5.314
 3117SOL    HW110250   4.596   3.854   5.318
 3117SOL    HW210251   4.692   3.951   5.406
 3118SOL     OW10252   6.954   4.434   6.451
 3118SOL    HW110253   6.938   4.377   6.370
 3118SOL    HW210254   7.013   4.386   6.515
 3119SOL     OW10255   1.838   4.077   5.240
 3119SOL    HW110256   1.775   4.007   5.273
 3119SOL    HW210257   1.847   4.149   5.309
 3120SOL     OW10258   2.336   6.327   4.754
 3120SOL    HW110259   2.317   6.322   4.852
 3120SOL    HW210260   2.253   6.354   4.705
 3121SOL     OW10261   0.245   1.086   2.246
 3121SOL    HW110262   0.252   1.184   2.265
 3121SOL    HW210263   0.290   1.066   2.159
 3122SOL     OW10264   3.458   5.643   5.941
 3122SOL    HW110265   3.401   5.722   5.920
 3122SOL    HW210266   3.507   5.660   6.027
 3123SOL     OW10267   3.408   6.592   3.674
 3123SOL    HW110268   3.476   6.538   3.724
 3123SOL    HW210269   3.387   6.675   3.725
 3124SOL     OW10270   3.938   0.722   5.407
 3124SOL    HW110271   3.920   0.769   5.320
 3124SOL    HW210272   4.034   0.735   5.432
 3125SOL     OW10273   6.179   2.095   6.147
 3125SOL    HW110274   6.158   2.000   6.170
 3125SOL    HW210275   6.247   2.097   6.074
 3126SOL     OW10276   4.684   4.768   6.545
 3126SOL    HW110277   4.740   4.828   6.602
 3126SOL    HW210278   4.636   4.822   6.476
 3127SOL     OW10279   0.720   2.116   3.047
 3127SOL    HW110280   0.683   2.091   2.957
 3127SOL    HW210281   0.717   2.036   3.107
 3128SOL     OW10282   1.543   0.190   0.683
 3128SOL    HW110283   1.634   0.229   0.667
 3128SOL    HW210284   1.544   0.093   0.659
 3129SOL     OW10285   0.530   4.733   6.372
 3129SOL    HW110286   0.514   4.725   6.471
 3129SOL    HW210287   0.516   4.643   6.330
 3130SOL     OW10288   2.520   4.484   2.388
 3130SOL    HW110289   2.552   4.554   2.325
 3130SOL    HW210290   2.515   4.396   2.341
 3131SOL     OW10291   1.024   2.787   2.939
 3131SOL    HW110292   0.938   2.776   2.989
 3131SOL    HW210293   1.094   2.727   2.979
 3132SOL     OW10294   5.472   6.377   5.248
 3132SOL    HW110295   5.523   6.400   5.331
 3132SOL    HW210296   5.457   6.278   5.244
 3133SOL     OW10297   2.501   2.189   4.200
 3133SOL    HW110298   2.426   2.255   4.197
 3133SOL    HW210299   2.487   2.127   4.277
 3134SOL     OW10300   5.294   3.653   2.136
 3134SOL    HW110301   5.318   3.608   2.049
 3134SOL    HW210302   5.226   3.724   2.119
 3135SOL     OW10303   3.906   1.901   4.981
 3135SOL    HW110304   4.004   1.885   4.970
 3135SOL    HW210305   3.880   1.982   4.929
 3136SOL     OW10306   6.311   6.682   5.725
 3136SOL    HW110307   6.272   6.599   5.767
 3136SOL    HW210308   6.383   6.656   5.662
 3137SOL     OW10309   5.155   1.257   3.424
 3137SOL    HW110310   5.201   1.168   3.421
 3137SOL    HW210311   5.209   1.324   3.374
 3138SOL     OW10312   6.119   2.056   4.374
 3138SOL    HW110313   6.025   2.025   4.385
 3138SOL    HW210314   6.156   2.022   4.288
 3139SOL     OW10315   5.251   6.708   6.400
 3139SOL    HW110316   5.292   6.770   6.467
 3139SOL    HW210317   5.153   6.727   6.392
 3140SOL     OW10318   6.414   6.112   6.386
 3140SOL    HW110319   6.344   6.078   6.450
 3140SOL    HW210320   6.369   6.146   6.303
 3141SOL     OW10321   0.555   6.724   6.485
 3141SOL    HW110322   0.559   6.780   6.568
 3141SOL    HW210323   0.647   6.690   6.464
 3142SOL     OW10324   4.765   6.436   0.008
 3142SOL    HW110325   4.680   6.446   6.974
 3142SOL    HW210326   4.751   6.366   0.079
 3143SOL     OW10327   6.916   2.267   6.619
 3143SOL    HW110328   6.973   2.343   6.587
 3143SOL    HW210329   6.955   2.181   6.587
 3144SOL     OW10330   2.129   3.658   0.938
 3144SOL    HW110331   2.218   3.629   0.902
 3144SOL    HW210332   2.136   3.671   1.037
 3145SOL     OW10333   2.890   5.710   2.842
 3145SOL    HW110334   2.862   5.685   2.749
 3145SOL    HW210335   2.989   5.695   2.852
 3146SOL     OW10336   1.346   6.484   2.988
 3146SOL    HW110337   1.270   6.496   3.052
 3146SOL    HW210338   1.373   6.574   2.953
 3147SOL     OW10339   3.959   5.269   0.149
 3147SOL    HW110340   4.055   5.244   0.161
 3147SOL    HW210341   3.930   5.245   0.056
 3148SOL     OW10342   4.396   5.053   4.109
 3148SOL    HW110343   4.367   5.052   4.204
 3148SOL    HW210344   4.483   5.005   4.100
 3149SOL     OW10345   3.225   0.700   5.303
 3149SOL    HW110346   3.188   0.671   5.215
 3149SOL    HW210347   3.322   0.721   5.294
 3150SOL     OW10348   5.374   5.958   4.505
 3150SOL    HW110349   5.410   5.942   4.597
 3150SOL    HW210350   5.403   6.048   4.473
 3151SOL     OW10351   4.623   1.382   6.488
 3151SOL    HW110352   4.576   1.374   6.575
 3151SOL    HW210353   4.722   1.378   6.502
 3152SOL     OW10354   0.806   5.234   1.962
 3152SOL    HW110355   0.740   5.290   1.910
 3152SOL    HW210356   0.788   5.245   2.060
 3153SOL     OW10357   6.029   4.390   1.396
 3153SOL    HW110358   6.031   4.317   1.328
 3153SOL    HW210359   6.085   4.467   1.364
 3154SOL     OW10360   6.441   2.322   0.361
 3154SOL    HW110361   6.436   2.422   0.368
 3154SOL    HW210362   6.391   2.292   0.280
 3155SOL     OW10363   0.546   4.638   1.356
 3155SOL    HW110364   0.460   4.618   1.403
 3155SOL    HW210365   0.527   4.686   1.271
 3156SOL     OW10366   3.847   3.672   3.655
 3156SOL    HW110367   3.773   3.604   3.653
 3156SOL    HW210368   3.896   3.666   3.742
 3157SOL     OW10369   1.776   3.320   4.651
 3157SOL    HW110370   1.726   3.249   4.702
 3157SOL    HW210371   1.711   3.387   4.615
 3158SOL     OW10372   4.758   6.974   1.628
 3158SOL    HW110373   4.827   6.978   1.700
 3158SOL    HW210374   4.803   6.981   1.538
 3159SOL     OW10375   4.824   6.214   6.476
 3159SOL    HW110376   4.829   6.312   6.496
 3159SOL    HW210377   4.899   6.167   6.522
 3160SOL     OW10378   6.190   4.252   6.330
 3160SOL    HW110379   6.101   4.233   6.371
 3160SOL    HW210380   6.231   4.166   6.297
 3161SOL     OW10381   1.733   1.191   3.053
 3161SOL    HW110382   1.651   1.193   3.111
 3161SOL    HW210383   1.765   1.284   3.039
 3162SOL     OW10384   0.013   5.396   0.188
 3162SOL    HW110385   0.044   5.426   0.278
 3162SOL    HW210386   6.951   5.450   0.161
 3163SOL     OW10387   4.008   2.874   6.743
 3163SOL    HW110388   4.054   2.785   6.745
 3163SOL    HW210389   3.962   2.886   6.655
 3164SOL     OW10390   5.081   4.230   1.472
 3164SOL    HW110391   5.112   4.300   1.536
 3164SOL    HW210392   5.047   4.152   1.523
 3165SOL     OW10393   0.550   6.755   2.043
 3165SOL    HW110394   0.496   6.671   2.048
 3165SOL    HW210395   0.497   6.826   1.998
 3166SOL     OW10396   5.139   3.037   6.570
 3166SOL    HW110397   5.041   3.050   6.558
 3166SOL    HW210398   5.181   3.123   6.598
 3167SOL     OW10399   6.995   4.524   1.963
 3167SOL    HW110400   0.058   4.469   1.946
 3167SOL    HW210401   6.919   4.489   1.909
 3168SOL     OW10402   5.572   3.075   1.186
 3168SOL    HW110403   5.564   2.976   1.179
 3168SOL    HW210404   5.652   3.098   1.241
 3169SOL     OW10405   0.800   3.629   5.932
 3169SOL    HW110406   0.755   3.695   5.872
 3169SOL    HW210407   0.773   3.536   5.907
 3170SOL     OW10408   4.312   0.554   6.972
 3170SOL    HW110409   4.261   0.530   0.036
 3170SOL    HW210410   4.394   0.498   6.967
 3171SOL     OW10411   6.418   0.251   1.577
 3171SOL    HW110412   6.352   0.176   1.568
 3171SOL    HW210413   6.400   0.320   1.508
 3172SOL     OW10414   6.502   6.263   5.147
 3172SOL    HW110415   6.577   6.309   5.099
 3172SOL    HW210416   6.537   6.217   5.228
 3173SOL     OW10417   2.087   0.444   2.520
 3173SOL    HW110418   2.165   0.383   2.524
 3173SOL    HW210419   2.118   0.539   2.529
 3174SOL     OW10420   2.772   2.936   6.034
 3174SOL    HW110421   2.773   2.879   6.116
 3174SOL    HW210422   2.693   2.912   5.977
 3175SOL     OW10423   0.946   6.112   6.728
 3175SOL    HW110424   0.954   6.056   6.646
 3175SOL    HW210425   0.851   6.111   6.761
 3176SOL     OW10426   1.526   4.364   6.241
 3176SOL    HW110427   1.593   4.336   6.172
 3176SOL    HW210428   1.474   4.284   6.270
 3177SOL     OW10429   5.697   4.736   5.794
 3177SOL    HW110430   5.705   4.723   5.695
 3177SOL    HW210431   5.749   4.818   5.820
 3178SOL     OW10432   0.676   4.015   1.809
 3178SOL    HW110433   0.654   4.003   1.712
 3178SOL    HW210434   0.680   3.925   1.853
 3179SOL     OW10435   1.929   2.035   1.974
 3179SOL    HW110436   1.881   2.122   1.971
 3179SOL    HW210437   2.022   2.046   1.941
 3180SOL     OW10438   4.761   1.098   5.507
 3180SOL    HW110439   4.855   1.094   5.541
 3180SOL    HW210440   4.749   1.028   5.436
 3181SOL     OW10441   0.577   0.780   3.671
 3181SOL    HW110442   0.496   0.729   3.642
 3181SOL    HW210443   0.593   0.855   3.607
 3182SOL     OW10444   0.483   0.351   5.635
 3182SOL    HW110445   0.550   0.279   5.657
 3182SOL    HW210446   0.398   0.333   5.684
 3183SOL     OW10447   4.032   4.919   1.385
 3183SOL    HW110448   4.048   4.955   1.477
 3183SOL    HW210449   3.937   4.934   1.359
 3184SOL     OW10450   2.405   1.712   2.329
 3184SOL    HW110451   2.364   1.622   2.346
 3184SOL    HW210452   2.378   1.774   2.403
 3185SOL     OW10453   0.243   6.994   5.222
 3185SOL    HW110454   0.198   6.924   5.277
 3185SOL    HW210455   0.333   7.014   5.261
 3186SOL     OW10456   3.604   1.090   2.750
 3186SOL    HW110457   3.537   1.017   2.742
 3186SOL    HW210458   3.691   1.060   2.710
 3187SOL     OW10459   3.913   3.957   6.886
 3187SOL    HW110460   3.971   3.888   6.844
 3187SOL    HW210461   3.965   4.006   6.957
 3188SOL     OW10462   3.202   5.718   2.856
 3188SOL    HW110463   3.278   5.739   2.918
 3188SOL    HW210464   3.223   5.753   2.765
 3189SOL     OW10465   1.211   0.620   3.285
 3189SOL    HW110466   1.311   0.619   3.287
 3189SOL    HW210467   1.176   0.583   3.371
 3190SOL     OW10468   1.515   6.253   1.676
 3190SOL    HW110469   1.610   6.236   1.651
 3190SOL    HW210470   1.460   6.263   1.593
 3191SOL     OW10471   3.815   0.485   1.184
 3191SOL    HW110472   3.819   0.441   1.094
 3191SOL    HW210473   3.747   0.439   1.241
 3192SOL     OW10474   0.707   2.127   1.226
 3192SOL    HW110475   0.704   2.227   1.227
 3192SOL    HW210476   0.761   2.096   1.148
 3193SOL     OW10477   4.713   2.489   6.609
 3193SOL    HW110478   4.648   2.533   6.546
 3193SOL    HW210479   4.719   2.392   6.587
 3194SOL     OW10480   1.619   3.981   6.712
 3194SOL    HW110481   1.667   3.913   6.767
 3194SOL    HW210482   1.561   3.935   6.645
 3195SOL     OW10483   1.495   2.659   3.800
 3195SOL    HW110484   1.586   2.675   3.838
 3195SOL    HW210485   1.446   2.592   3.855
 3196SOL     OW10486   0.154   0.171   4.649
 3196SOL    HW110487   0.237   0.137   4.606
 3196SOL    HW210488   0.172   0.260   4.691
 3197SOL     OW10489   1.333   5.827   3.157
 3197SOL    HW110490   1.271   5.829   3.078
 3197SOL    HW210491   1.305   5.755   3.220
 3198SOL     OW10492   6.824   1.729   6.018
 3198SOL    HW110493   6.771   1.738   6.103
 3198SOL    HW210494   6.766   1.754   5.940
 3199SOL     OW10495   4.960   1.382   1.805
 3199SOL    HW110496   4.896   1.425   1.741
 3199SOL    HW210497   5.023   1.451   1.840
 3200SOL     OW10498   0.131   2.439   0.608
 3200SOL    HW110499   0.037   2.419   0.636
 3200SOL    HW210500   0.131   2.517   0.546
 3201SOL     OW10501   5.573   3.982   3.652
 3201SOL    HW110502   5.593   3.913   3.582
 3201SOL    HW210503   5.583   3.941   3.742
 3202SOL     OW10504   1.854   4.608   1.974
 3202SOL    HW110505   1.862   4.571   2.066
 3202SOL    HW210506   1.864   4.534   1.907
 3203SOL     OW10507   6.742   1.014   1.135
 3203SOL    HW110508   6.660   0.994   1.082
 3203SOL    HW210509   6.797   1.082   1.086
 3204SOL     OW10510   6.420   5.599   1.511
 3204SOL    HW110511   6.486   5.594   1.436
 3204SOL    HW210512   6.364   5.516   1.511
 3205SOL     OW10513   6.765   3.749   5.788
 3205SOL    HW110514   6.672   3.786   5.791
 3205SOL    HW210515   6.831   3.823   5.801
 3206SOL     OW10516   0.410   6.853   5.620
 3206SOL    HW110517   0.431   6.756   5.630
 3206SOL    HW210518   0.332   6.863   5.558
 3207SOL     OW10519   0.813   1.072   5.083
 3207SOL    HW110520   0.769   1.162   5.089
 3207SOL    HW210521   0.912   1.083   5.074
 3208SOL     OW10522   4.468   5.427   4.798
 3208SOL    HW110523   4.517   5.362   4.739
 3208SOL    HW210524   4.442   5.507   4.743
 3209SOL     OW10525   3.189   6.990   3.874
 3209SOL    HW110526   3.119   0.037   3.847
 3209SOL    HW210527   3.180   6.907   3.819
 3210SOL     OW10528   6.992   3.949   2.440
 3210SOL    HW110529   0.026   4.034   2.452
 3210SOL    HW210530   0.000   3.905   2.354
 3211SOL     OW10531   2.326   4.495   1.271
 3211SOL    HW110532   2.336   4.513   1.369
 3211SOL    HW210533   2.245   4.439   1.256
 3212SOL     OW10534   4.495   2.440   6.776
 3212SOL    HW110535   4.437   2.520   6.790
 3212SOL    HW210536   4.569   2.463   6.712
 3213SOL     OW10537   5.748   5.739   3.211
 3213SOL    HW110538   5.706   5.787   3.289
 3213SOL    HW210539   5.821   5.796   3.173
 3214SOL     OW10540   4.204   6.221   6.713
 3214SOL    HW110541   4.135   6.185   6.651
 3214SOL    HW210542   4.186   6.318   6.731
 3215SOL     OW10543   6.581   2.558   0.027
 3215SOL    HW110544   6.508   2.492   0.011
 3215SOL    HW210545   6.600   2.607   6.961
 3216SOL     OW10546   5.493   6.396   3.736
 3216SOL    HW110547   5.558   6.413   3.811
 3216SOL    HW210548   5.400   6.395   3.773
 3217SOL     OW10549   0.583   4.102   2.646
 3217SOL    HW110550   0.549   4.022   2.695
 3217SOL    HW210551   0.505   4.155   2.612
 3218SOL     OW10552   3.865   0.042   2.866
 3218SOL    HW110553   3.954   0.083   2.890
 3218SOL    HW210554   3.795   0.078   2.928
 3219SOL     OW10555   0.449   0.026   2.843
 3219SOL    HW110556   0.404   0.112   2.865
 3219SOL    HW210557   0.381   6.971   2.845
 3220SOL     OW10558   7.013   4.781   4.839
 3220SOL    HW110559   6.983   4.686   4.852
 3220SOL    HW210560   0.094   4.786   4.849
 3221SOL     OW10561   2.368   6.841   3.757
 3221SOL    HW110562   2.425   6.871   3.834
 3221SOL    HW210563   2.383   6.744   3.740
 3222SOL     OW10564   4.878   1.749   2.753
 3222SOL    HW110565   4.935   1.783   2.828
 3222SOL    HW210566   4.858   1.652   2.767
 3223SOL     OW10567   2.572   5.384   5.676
 3223SOL    HW110568   2.652   5.332   5.645
 3223SOL    HW210569   2.592   5.426   5.764
 3224SOL     OW10570   4.269   5.610   0.086
 3224SOL    HW110571   4.200   5.566   0.142
 3224SOL    HW210572   4.287   5.555   0.004
 3225SOL     OW10573   3.647   3.134   0.350
 3225SOL    HW110574   3.601   3.190   0.420
 3225SOL    HW210575   3.631   3.038   0.369
 3226SOL     OW10576   2.139   0.883   4.281
 3226SOL    HW110577   2.183   0.881   4.371
 3226SOL    HW210578   2.054   0.934   4.287
 3227SOL     OW10579   3.441   1.706   5.809
 3227SOL    HW110580   3.451   1.641   5.884
 3227SOL    HW210581   3.423   1.657   5.724
 3228SOL     OW10582   5.294   3.324   4.234
 3228SOL    HW110583   5.368   3.367   4.286
 3228SOL    HW210584   5.331   3.282   4.151
 3229SOL     OW10585   3.950   1.919   5.713
 3229SOL    HW110586   3.962   1.822   5.730
 3229SOL    HW210587   3.900   1.960   5.790
 3230SOL     OW10588   0.560   0.843   3.009
 3230SOL    HW110589   0.561   0.909   2.934
 3230SOL    HW210590   0.469   0.801   3.015
 3231SOL     OW10591   5.312   5.752   1.246
 3231SOL    HW110592   5.213   5.760   1.234
 3231SOL    HW210593   5.358   5.804   1.174
 3232SOL     OW10594   2.892   5.224   4.446
 3232SOL    HW110595   2.916   5.128   4.462
 3232SOL    HW210596   2.803   5.243   4.487
 3233SOL     OW10597   0.800   3.715   1.474
 3233SOL    HW110598   0.777   3.689   1.381
 3233SOL    HW210599   0.831   3.634   1.525
 3234SOL     OW10600   0.051   2.016   6.859
 3234SOL    HW110601   0.142   1.976   6.867
 3234SOL    HW210602   0.030   2.032   6.762
 3235SOL     OW10603   5.580   6.742   2.982
 3235SOL    HW110604   5.529   6.824   2.957
 3235SOL    HW210605   5.588   6.736   3.081
 3236SOL     OW10606   0.975   2.675   2.701
 3236SOL    HW110607   0.902   2.606   2.702
 3236SOL    HW210608   0.994   2.705   2.794
 3237SOL     OW10609   4.058   6.330   4.830
 3237SOL    HW110610   4.097   6.421   4.840
 3237SOL    HW210611   3.959   6.334   4.842
 3238SOL     OW10612   0.438   5.764   6.174
 3238SOL    HW110613   0.390   5.743   6.259
 3238SOL    HW210614   0.419   5.859   6.147
 3239SOL     OW10615   6.346   0.372   5.851
 3239SOL    HW110616   6.323   0.430   5.929
 3239SOL    HW210617   6.427   0.408   5.806
 3240SOL     OW10618   1.177   0.130   4.757
 3240SOL    HW110619   1.233   0.091   4.830
 3240SOL    HW210620   1.205   0.224   4.739
 3241SOL     OW10621   5.035   0.944   3.970
 3241SOL    HW110622   4.981   0.881   4.025
 3241SOL    HW210623   4.998   0.948   3.877
 3242SOL     OW10624   3.882   6.087   6.438
 3242SOL    HW110625   3.944   6.033   6.381
 3242SOL    HW210626   3.831   6.151   6.381
 3243SOL     OW10627   4.221   5.262   0.246
 3243SOL    HW110628   4.254   5.330   0.311
 3243SOL    HW210629   4.293   5.240   0.181
 3244SOL     OW10630   3.685   5.996   5.660
 3244SOL    HW110631   3.704   6.023   5.754
 3244SOL    HW210632   3.592   6.025   5.635
 3245SOL     OW10633   4.177   3.158   6.338
 3245SOL    HW110634   4.152   3.209   6.255
 3245SOL    HW210635   4.120   3.188   6.414
 3246SOL     OW10636   5.426   6.381   3.033
 3246SOL    HW110637   5.342   6.326   3.034
 3246SOL    HW210638   5.419   6.451   2.962
 3247SOL     OW10639   6.718   3.295   3.846
 3247SOL    HW110640   6.677   3.355   3.778
 3247SOL    HW210641   6.655   3.220   3.868
 3248SOL     OW10642   6.214   3.067   2.148
 3248SOL    HW110643   6.304   3.076   2.106
 3248SOL    HW210644   6.179   2.975   2.133
 3249SOL     OW10645   3.002   4.893   4.760
 3249SOL    HW110646   2.931   4.930   4.699
 3249SOL    HW210647   2.959   4.850   4.839
 3250SOL     OW10648   4.377   6.738   2.672
 3250SOL    HW110649   4.298   6.695   2.628
 3250SOL    HW210650   4.452   6.743   2.606
 3251SOL     OW10651   3.554   2.136   2.830
 3251SOL    HW110652   3.609   2.192   2.892
 3251SOL    HW210653   3.492   2.079   2.884
 3252SOL     OW10654   2.772   1.056   2.814
 3252SOL    HW110655   2.685   1.077   2.859
 3252SOL    HW210656   2.755   0.993   2.738
 3253SOL     OW10657   5.019   2.852   1.662
 3253SOL    HW110658   5.053   2.920   1.596
 3253SOL    HW210659   5.095   2.816   1.716
 3254SOL     OW10660   4.029   4.817   3.401
 3254SOL    HW110661   4.062   4.906   3.433
 3254SOL    HW210662   4.048   4.809   3.303
 3255SOL     OW10663   4.385   5.803   0.260
 3255SOL    HW110664   4.431   5.745   0.328
 3255SOL    HW210665   4.417   5.777   0.169
 3256SOL     OW10666   4.985   6.562   6.011
 3256SOL    HW110667   4.961   6.659   6.012
 3256SOL    HW210668   5.069   6.548   5.959
 3257SOL     OW10669   1.347   2.112   0.861
 3257SOL    HW110670   1.410   2.038   0.835
 3257SOL    HW210671   1.317   2.161   0.779
 3258SOL     OW10672   5.248   6.614   1.517
 3258SOL    HW110673   5.339   6.635   1.553
 3258SOL    HW210674   5.195   6.698   1.509
 3259SOL     OW10675   4.186   5.744   4.505
 3259SOL    HW110676   4.141   5.712   4.588
 3259SOL    HW210677   4.144   5.830   4.476
 3260SOL     OW10678   1.879   1.369   6.786
 3260SOL    HW110679   1.951   1.385   6.719
 3260SOL    HW210680   1.918   1.331   6.869
 3261SOL     OW10681   4.795   6.500   0.883
 3261SOL    HW110682   4.827   6.586   0.842
 3261SOL    HW210683   4.712   6.518   0.937
 3262SOL     OW10684   3.710   1.858   2.785
 3262SOL    HW110685   3.625   1.833   2.831
 3262SOL    HW210686   3.689   1.886   2.691
 3263SOL     OW10687   4.429   6.818   1.716
 3263SOL    HW110688   4.508   6.762   1.692
 3263SOL    HW210689   4.354   6.801   1.651
 3264SOL     OW10690   0.067   5.116   0.252
 3264SOL    HW110691   6.986   5.107   0.246
 3264SOL    HW210692   0.094   5.205   0.214
 3265SOL     OW10693   4.876   1.378   6.592
 3265SOL    HW110694   4.834   1.458   6.635
 3265SOL    HW210695   4.925   1.408   6.509
 3266SOL     OW10696   0.592   2.216   6.535
 3266SOL    HW110697   0.621   2.312   6.544
 3266SOL    HW210698   0.492   2.212   6.531
 3267SOL     OW10699   3.269   1.878   0.717
 3267SOL    HW110700   3.197   1.945   0.736
 3267SOL    HW210701   3.357   1.924   0.712
 3268SOL     OW10702   0.849   3.979   6.984
 3268SOL    HW110703   0.848   3.881   6.965
 3268SOL    HW210704   0.881   3.995   0.059
 3269SOL     OW10705   4.375   4.551   0.928
 3269SOL    HW110706   4.397   4.603   1.010
 3269SOL    HW210707   4.340   4.461   0.954
 3270SOL     OW10708   0.649   5.487   4.071
 3270SOL    HW110709   0.687   5.514   3.982
 3270SOL    HW210710   0.649   5.566   4.132
 3271SOL     OW10711   6.361   2.791   1.180
 3271SOL    HW110712   6.455   2.818   1.200
 3271SOL    HW210713   6.349   2.785   1.081
 3272SOL     OW10714   3.760   0.815   0.669
 3272SOL    HW110715   3.684   0.756   0.643
 3272SOL    HW210716   3.787   0.796   0.763
 3273SOL     OW10717   0.595   6.501   2.348
 3273SOL    HW110718   0.539   6.481   2.267
 3273SOL    HW210719   0.691   6.483   2.327
 3274SOL     OW10720   2.329   2.073   5.757
 3274SOL    HW110721   2.368   2.069   5.849
 3274SOL    HW210722   2.402   2.087   5.691
 3275SOL     OW10723   2.099   0.450   6.947
 3275SOL    HW110724   2.158   0.526   6.975
 3275SOL    HW210725   2.129   0.366   6.993
 3276SOL     OW10726   3.322   5.828   6.244
 3276SOL    HW110727   3.371   5.910   6.273
 3276SOL    HW210728   3.249   5.808   6.309
 3277SOL     OW10729   0.169   6.091   5.409
 3277SOL    HW110730   0.261   6.071   5.374
 3277SOL    HW210731   0.102   6.035   5.360
 3278SOL     OW10732   1.298   0.577   5.993
 3278SOL    HW110733   1.209   0.589   6.037
 3278SOL    HW210734   1.340   0.492   6.024
 3279SOL     OW10735   0.295   6.807   1.001
 3279SOL    HW110736   0.222   6.806   0.932
 3279SOL    HW210737   0.377   6.765   0.962
 3280SOL     OW10738   2.111   5.057   6.131
 3280SOL    HW110739   2.070   5.133   6.079
 3280SOL    HW210740   2.200   5.086   6.167
 3281SOL     OW10741   2.428   5.619   7.010
 3281SOL    HW110742   2.464   5.582   6.925
 3281SOL    HW210743   2.430   5.548   0.062
 3282SOL     OW10744   2.612   5.386   3.842
 3282SOL    HW110745   2.622   5.429   3.931
 3282SOL    HW210746   2.651   5.294   3.843
 3283SOL     OW10747   2.474   0.878   3.259
 3283SOL    HW110748   2.375   0.874   3.246
 3283SOL    HW210749   2.519   0.876   3.169
 3284SOL     OW10750   6.794   5.631   0.085
 3284SOL    HW110751   6.732   5.580   0.026
 3284SOL    HW210752   6.785   5.729   0.066
 3285SOL     OW10753   0.421   2.107   3.012
 3285SOL    HW110754   0.445   2.098   3.109
 3285SOL    HW210755   0.388   2.019   2.978
 3286SOL     OW10756   3.236   3.749   4.754
 3286SOL    HW110757   3.329   3.777   4.776
 3286SOL    HW210758   3.185   3.828   4.719
 3287SOL     OW10759   1.988   5.511   0.297
 3287SOL    HW110760   2.006   5.602   0.260
 3287SOL    HW210761   1.975   5.447   0.222
 3288SOL     OW10762   0.716   5.786   6.222
 3288SOL    HW110763   0.715   5.795   6.321
 3288SOL    HW210764   0.624   5.771   6.188
 3289SOL     OW10765   0.645   6.223   5.546
 3289SOL    HW110766   0.577   6.281   5.591
 3289SOL    HW210767   0.729   6.223   5.601
 3290SOL     OW10768   6.828   5.506   1.542
 3290SOL    HW110769   6.896   5.501   1.616
 3290SOL    HW210770   6.751   5.446   1.564
 3291SOL     OW10771   1.602   6.084   6.993
 3291SOL    HW110772   1.637   5.999   0.014
 3291SOL    HW210773   1.663   6.159   7.016
 3292SOL     OW10774   6.980   6.979   6.079
 3292SOL    HW110775   6.962   6.911   6.008
 3292SOL    HW210776   6.974   6.935   6.169
 3293SOL     OW10777   6.613   1.076   2.874
 3293SOL    HW110778   6.547   1.060   2.947
 3293SOL    HW210779   6.580   1.035   2.789
 3294SOL     OW10780   6.826   0.670   6.320
 3294SOL    HW110781   6.841   0.636   6.227
 3294SOL    HW210782   6.728   0.669   6.340
 3295SOL     OW10783   1.900   3.081   1.079
 3295SOL    HW110784   1.902   3.172   1.038
 3295SOL    HW210785   1.805   3.052   1.092
 3296SOL     OW10786   2.086   6.587   2.417
 3296SOL    HW110787   2.182   6.564   2.403
 3296SOL    HW210788   2.050   6.532   2.493
 3297SOL     OW10789   3.003   2.557   5.992
 3297SOL    HW110790   3.032   2.461   5.997
 3297SOL    HW210791   2.949   2.571   5.909
 3298SOL     OW10792   6.836   3.196   2.655
 3298SOL    HW110793   6.877   3.104   2.662
 3298SOL    HW210794   6.747   3.196   2.700
 3299SOL     OW10795   1.957   0.031   5.176
 3299SOL    HW110796   1.900   6.984   5.225
 3299SOL    HW210797   1.943   0.123   5.214
 3300SOL     OW10798   6.317   6.574   4.789
 3300SOL    HW110799   6.267   6.532   4.865
 3300SOL    HW210800   6.266   6.560   4.704
 3301SOL     OW10801   0.140   3.461   3.289
 3301SOL    HW110802   0.182   3.523   3.356
 3301SOL    HW210803   0.205   3.442   3.216
 3302SOL     OW10804   1.502   4.670   3.609
 3302SOL    HW110805   1.439   4.712   3.674
 3302SOL    HW210806   1.596   4.695   3.631
 3303SOL     OW10807   4.034   3.788   3.827
 3303SOL    HW110808   4.097   3.799   3.749
 3303SOL    HW210809   4.077   3.732   3.897
 3304SOL     OW10810   0.569   6.393   4.252
 3304SOL    HW110811   0.529   6.483   4.237
 3304SOL    HW210812   0.525   6.350   4.332
 3305SOL     OW10813   1.894   1.019   2.170
 3305SOL    HW110814   1.881   0.968   2.085
 3305SOL    HW210815   1.811   1.010   2.227
 3306SOL     OW10816   2.253   3.988   3.121
 3306SOL    HW110817   2.346   3.963   3.094
 3306SOL    HW210818   2.255   4.029   3.213
 3307SOL     OW10819   6.396   6.101   0.686
 3307SOL    HW110820   6.441   6.172   0.631
 3307SOL    HW210821   6.324   6.057   0.631
 3308SOL     OW10822   5.141   6.001   1.026
 3308SOL    HW110823   5.194   6.051   0.958
 3308SOL    HW210824   5.045   5.996   0.998
 3309SOL     OW10825   0.597   5.029   3.348
 3309SOL    HW110826   0.673   5.082   3.385
 3309SOL    HW210827   0.617   5.001   3.254
 3310SOL     OW10828   0.579   5.115   2.874
 3310SOL    HW110829   0.593   5.044   2.805
 3310SOL    HW210830   0.642   5.191   2.858
 3311SOL     OW10831   4.274   6.839   1.073
 3311SOL    HW110832   4.303   6.819   1.167
 3311SOL    HW210833   4.284   6.756   1.017
 3312SOL     OW10834   3.485   3.407   6.045
 3312SOL    HW110835   3.562   3.347   6.063
 3312SOL    HW210836   3.499   3.495   6.091
 3313SOL     OW10837   0.473   5.132   3.730
 3313SOL    HW110838   0.377   5.132   3.703
 3313SOL    HW210839   0.489   5.204   3.796
 3314SOL     OW10840   1.781   3.673   5.652
 3314SOL    HW110841   1.778   3.657   5.554
 3314SOL    HW210842   1.698   3.720   5.681
 3315SOL     OW10843   6.994   2.288   3.694
 3315SOL    HW110844   6.973   2.198   3.732
 3315SOL    HW210845   6.927   2.312   3.624
 3316SOL     OW10846   4.899   2.178   6.190
 3316SOL    HW110847   4.873   2.267   6.151
 3316SOL    HW210848   4.843   2.106   6.150
 3317SOL     OW10849   4.379   2.751   1.187
 3317SOL    HW110850   4.283   2.778   1.178
 3317SOL    HW210851   4.436   2.832   1.195
 3318SOL     OW10852   2.661   6.101   5.250
 3318SOL    HW110853   2.728   6.033   5.218
 3318SOL    HW210854   2.596   6.056   5.312
 3319SOL     OW10855   1.001   6.026   4.458
 3319SOL    HW110856   0.979   5.990   4.367
 3319SOL    HW210857   1.100   6.033   4.468
 3320SOL     OW10858   5.872   1.006   5.450
 3320SOL    HW110859   5.871   0.914   5.412
 3320SOL    HW210860   5.966   1.035   5.464
 3321SOL     OW10861   3.045   3.098   3.285
 3321SOL    HW110862   3.028   3.002   3.306
 3321SOL    HW210863   3.003   3.156   3.355
 3322SOL     OW10864   4.190   1.842   0.777
 3322SOL    HW110865   4.193   1.919   0.713
 3322SOL    HW210866   4.263   1.853   0.845
 3323SOL     OW10867   2.143   4.874   6.850
 3323SOL    HW110868   2.133   4.973   6.857
 3323SOL    HW210869   2.170   4.837   6.939
 3324SOL     OW10870   0.853   3.443   0.159
 3324SOL    HW110871   0.943   3.447   0.202
 3324SOL    HW210872   0.787   3.403   0.223
 3325SOL     OW10873   1.506   2.569   0.888
 3325SOL    HW110874   1.512   2.472   0.911
 3325SOL    HW210875   1.596   2.611   0.891
 3326SOL     OW10876   6.347   1.833   0.687
 3326SOL    HW110877   6.280   1.759   0.695
 3326SOL    HW210878   6.299   1.919   0.671
 3327SOL     OW10879   3.195   6.449   2.186
 3327SOL    HW110880   3.237   6.361   2.205
 3327SOL    HW210881   3.260   6.522   2.208
 3328SOL     OW10882   4.980   0.904   2.088
 3328SOL    HW110883   4.898   0.850   2.105
 3328SOL    HW210884   5.009   0.949   2.173
 3329SOL     OW10885   4.708   0.880   5.366
 3329SOL    HW110886   4.670   0.870   5.274
 3329SOL    HW210887   4.790   0.824   5.375
 3330SOL     OW10888   5.906   6.437   2.290
 3330SOL    HW110889   5.931   6.525   2.249
 3330SOL    HW210890   5.904   6.446   2.390
 3331SOL     OW10891   2.125   3.457   2.997
 3331SOL    HW110892   2.070   3.376   3.018
 3331SOL    HW210893   2.214   3.428   2.961
 3332SOL     OW10894   4.153   5.494   0.538
 3332SOL    HW110895   4.077   5.432   0.558
 3332SOL    HW210896   4.218   5.492   0.613
 3333SOL     OW10897   3.977   3.693   1.635
 3333SOL    HW110898   4.012   3.784   1.657
 3333SOL    HW210899   3.939   3.694   1.542
 3334SOL     OW10900   1.774   2.128   2.736
 3334SOL    HW110901   1.708   2.060   2.766
 3334SOL    HW210902   1.840   2.146   2.809
 3335SOL     OW10903   3.842   4.333   5.227
 3335SOL    HW110904   3.757   4.292   5.259
 3335SOL    HW210905   3.863   4.299   5.135
 3336SOL     OW10906   3.957   6.753   3.695
 3336SOL    HW110907   4.056   6.741   3.698
 3336SOL    HW210908   3.936   6.851   3.688
 3337SOL     OW10909   3.204   4.040   3.140
 3337SOL    HW110910   3.121   4.073   3.185
 3337SOL    HW210911   3.181   3.965   3.078
 3338SOL     OW10912   2.095   1.170   1.820
 3338SOL    HW110913   2.007   1.204   1.853
 3338SOL    HW210914   2.138   1.240   1.762
 3339SOL     OW10915   2.329   0.662   6.004
 3339SOL    HW110916   2.396   0.620   6.065
 3339SOL    HW210917   2.261   0.711   6.058
 3340SOL     OW10918   4.192   1.178   4.332
 3340SOL    HW110919   4.114   1.179   4.395
 3340SOL    HW210920   4.161   1.146   4.242
 3341SOL     OW10921   2.495   4.613   2.615
 3341SOL    HW110922   2.507   4.545   2.543
 3341SOL    HW210923   2.533   4.700   2.585
 3342SOL     OW10924   6.433   0.148   3.118
 3342SOL    HW110925   6.373   0.081   3.163
 3342SOL    HW210926   6.438   0.128   3.021
 3343SOL     OW10927   4.932   5.436   6.435
 3343SOL    HW110928   5.013   5.487   6.405
 3343SOL    HW210929   4.908   5.464   6.528
 3344SOL     OW10930   6.913   3.015   1.500
 3344SOL    HW110931   6.986   3.053   1.557
 3344SOL    HW210932   6.874   3.087   1.443
 3345SOL     OW10933   0.332   4.855   0.757
 3345SOL    HW110934   0.339   4.858   0.657
 3345SOL    HW210935   0.363   4.765   0.789
 3346SOL     OW10936   1.882   0.977   6.955
 3346SOL    HW110937   1.894   0.904   6.888
 3346SOL    HW210938   1.964   0.984   7.012
 3347SOL     OW10939   0.824   3.124   6.047
 3347SOL    HW110940   0.858   3.122   6.141
 3347SOL    HW210941   0.742   3.067   6.040
 3348SOL     OW10942   3.965   3.898   6.088
 3348SOL    HW110943   3.966   3.989   6.130
 3348SOL    HW210944   4.008   3.903   5.998
 3349SOL     OW10945   2.865   4.768   3.569
 3349SOL    HW110946   2.958   4.806   3.563
 3349SOL    HW210947   2.827   4.761   3.477
 3350SOL     OW10948   0.158   4.122   5.353
 3350SOL    HW110949   0.211   4.042   5.383
 3350SOL    HW210950   0.197   4.205   5.392
 3351SOL     OW10951   5.428   1.102   0.787
 3351SOL    HW110952   5.526   1.123   0.792
 3351SOL    HW210953   5.377   1.173   0.837
 3352SOL     OW10954   5.544   2.970   6.251
 3352SOL    HW110955   5.522   3.031   6.175
 3352SOL    HW210956   5.543   3.021   6.337
 3353SOL     OW10957   2.727   1.378   1.972
 3353SOL    HW110958   2.736   1.478   1.967
 3353SOL    HW210959   2.688   1.344   1.886
 3354SOL     OW10960   3.750   3.092   6.067
 3354SOL    HW110961   3.734   3.105   5.969
 3354SOL    HW210962   3.681   3.031   6.105
 3355SOL     OW10963   2.215   0.574   4.902
 3355SOL    HW110964   2.300   0.626   4.908
 3355SOL    HW210965   2.213   0.522   4.817
 3356SOL     OW10966   1.750   6.997   5.558
 3356SOL    HW110967   1.730   6.921   5.497
 3356SOL    HW210968   1.669   0.001   5.612
 3357SOL     OW10969   3.523   3.203   1.575
 3357SOL    HW110970   3.577   3.228   1.655
 3357SOL    HW210971   3.523   3.279   1.509
 3358SOL     OW10972   6.476   0.588   2.746
 3358SOL    HW110973   6.384   0.550   2.756
 3358SOL    HW210974   6.474   0.686   2.761
 3359SOL     OW10975   6.418   5.363   4.022
 3359SOL    HW110976   6.475   5.407   3.952
 3359SOL    HW210977   6.467   5.286   4.062
 3360SOL     OW10978   0.084   3.033   5.452
 3360SOL    HW110979   0.084   2.958   5.386
 3360SOL    HW210980   0.142   3.107   5.418
 3361SOL     OW10981   0.342   0.820   4.726
 3361SOL    HW110982   0.351   0.919   4.713
 3361SOL    HW210983   0.421   0.786   4.777
 3362SOL     OW10984   3.762   1.663   3.965
 3362SOL    HW110985   3.687   1.627   4.020
 3362SOL    HW210986   3.844   1.671   4.021
 3363SOL     OW10987   5.814   3.389   1.586
 3363SOL    HW110988   5.777   3.317   1.644
 3363SOL    HW210989   5.910   3.368   1.564
 3364SOL     OW10990   2.195   4.251   3.038
 3364SOL    HW110991   2.185   4.167   3.091
 3364SOL    HW210992   2.223   4.326   3.098
 3365SOL     OW10993   2.075   3.383   4.588
 3365SOL    HW110994   2.120   3.438   4.658
 3365SOL    HW210995   1.976   3.386   4.603
 3366SOL     OW10996   6.017   3.806   4.223
 3366SOL    HW110997   6.103   3.766   4.255
 3366SOL    HW210998   5.943   3.741   4.239
 3367SOL     OW10999   3.934   3.201   4.331
 3367SOL    HW111000   3.874   3.279   4.312
 3367SOL    HW211001   3.994   3.223   4.408
 3368SOL     OW11002   1.841   5.840   0.245
 3368SOL    HW111003   1.930   5.808   0.215
 3368SOL    HW211004   1.772   5.819   0.175
 3369SOL     OW11005   3.958   2.408   0.957
 3369SOL    HW111006   3.998   2.477   1.017
 3369SOL    HW211007   4.026   2.378   0.890
 3370SOL     OW11008   0.561   5.606   2.146
 3370SOL    HW111009   0.581   5.660   2.227
 3370SOL    HW211010   0.489   5.539   2.167
 3371SOL     OW11011   2.573   2.506   3.184
 3371SOL    HW111012   2.523   2.588   3.158
 3371SOL    HW211013   2.610   2.518   3.277
 3372SOL     OW11014   6.532   3.310   1.285
 3372SOL    HW111015   6.451   3.335   1.338
 3372SOL    HW211016   6.509   3.307   1.188
 3373SOL     OW11017   0.174   2.100   1.323
 3373SOL    HW111018   0.267   2.063   1.317
 3373SOL    HW211019   0.158   2.135   1.415
 3374SOL     OW11020   0.289   0.619   3.718
 3374SOL    HW111021   0.239   0.661   3.795
 3374SOL    HW211022   0.226   0.603   3.643
 3375SOL     OW11023   6.739   4.822   6.688
 3375SOL    HW111024   6.791   4.737   6.696
 3375SOL    HW211025   6.677   4.831   6.765
 3376SOL     OW11026   2.536   3.608   5.674
 3376SOL    HW111027   2.579   3.683   5.624
 3376SOL    HW211028   2.459   3.642   5.726
 3377SOL     OW11029   5.812   4.387   3.011
 3377SOL    HW111030   5.736   4.332   3.044
 3377SOL    HW211031   5.895   4.365   3.063
 3378SOL     OW11032   1.238   6.523   6.791
 3378SOL    HW111033   1.228   6.622   6.788
 3378SOL    HW211034   1.268   6.495   6.882
 3379SOL     OW11035   0.473   3.935   3.780
 3379SOL    HW111036   0.503   3.978   3.865
 3379SOL    HW211037   0.548   3.883   3.740
 3380SOL     OW11038   3.809   4.240   6.047
 3380SOL    HW111039   3.863   4.305   5.993
 3380SOL    HW211040   3.745   4.192   5.988
 3381SOL     OW11041   1.684   3.350   1.292
 3381SOL    HW111042   1.695   3.385   1.199
 3381SOL    HW211043   1.703   3.422   1.358
 3382SOL     OW11044   6.861   2.377   0.943
 3382SOL    HW111045   6.956   2.348   0.949
 3382SOL    HW211046   6.806   2.301   0.907
 3383SOL     OW11047   5.320   4.991   0.065
 3383SOL    HW111048   5.412   5.030   0.076
 3383SOL    HW211049   5.264   5.016   0.144
 3384SOL     OW11050   2.557   4.282   0.586
 3384SOL    HW111051   2.603   4.236   0.662
 3384SOL    HW211052   2.503   4.215   0.535
 3385SOL     OW11053   0.448   2.107   3.286
 3385SOL    HW111054   0.350   2.099   3.303
 3385SOL    HW211055   0.497   2.038   3.338
 3386SOL     OW11056   6.436   4.896   6.650
 3386SOL    HW111057   6.448   4.885   6.749
 3386SOL    HW211058   6.425   4.806   6.608
 3387SOL     OW11059   6.320   0.146   3.464
 3387SOL    HW111060   6.350   0.183   3.552
 3387SOL    HW211061   6.400   0.127   3.408
 3388SOL     OW11062   6.229   2.901   1.777
 3388SOL    HW111063   6.264   2.907   1.871
 3388SOL    HW211064   6.142   2.950   1.771
 3389SOL     OW11065   6.091   5.893   0.887
 3389SOL    HW111066   6.146   5.952   0.946
 3389SOL    HW211067   6.138   5.805   0.876
 3390SOL     OW11068   4.054   6.422   6.082
 3390SOL    HW111069   4.018   6.475   6.159
 3390SOL    HW211070   4.021   6.462   5.996
 3391SOL     OW11071   5.406   2.932   3.271
 3391SOL    HW111072   5.390   2.835   3.289
 3391SOL    HW211073   5.426   2.946   3.174
 3392SOL     OW11074   4.252   0.027   6.001
 3392SOL    HW111075   4.193   6.972   6.034
 3392SOL    HW211076   4.251   0.028   5.901
 3393SOL     OW11077   5.372   6.541   1.284
 3393SOL    HW111078   5.442   6.612   1.294
 3393SOL    HW211079   5.316   6.538   1.367
 3394SOL     OW11080   2.835   5.620   1.617
 3394SOL    HW111081   2.802   5.614   1.711
 3394SOL    HW211082   2.760   5.605   1.554
 3395SOL     OW11083   4.295   0.476   2.899
 3395SOL    HW111084   4.229   0.477   2.824
 3395SOL    HW211085   4.257   0.525   2.977
 3396SOL     OW11086   4.261   1.741   3.952
 3396SOL    HW111087   4.278   1.808   4.024
 3396SOL    HW211088   4.239   1.653   3.993
 3397SOL     OW11089   2.458   5.770   6.642
 3397SOL    HW111090   2.452   5.779   6.543
 3397SOL    HW211091   2.413   5.685   6.671
 3398SOL     OW11092   6.937   2.034   4.794
 3398SOL    HW111093   6.951   2.051   4.891
 3398SOL    HW211094   6.870   1.960   4.782
 3399SOL     OW11095   7.001   4.906   2.606
 3399SOL    HW111096   6.955   4.880   2.691
 3399SOL    HW211097   0.067   4.855   2.597
 3400SOL     OW11098   5.744   2.307   5.609
 3400SOL    HW111099   5.800   2.321   5.691
 3400SOL    HW211100   5.748   2.211   5.582
 3401SOL     OW11101   6.899   3.460   5.309
 3401SOL    HW111102   6.822   3.523   5.327
 3401SOL    HW211103   6.984   3.504   5.337
 3402SOL     OW11104   0.112   4.392   1.574
 3402SOL    HW111105   0.101   4.299   1.609
 3402SOL    HW211106   0.024   4.438   1.572
 3403SOL     OW11107   3.925   6.654   6.741
 3403SOL    HW111108   3.840   6.666   6.793
 3403SOL    HW211109   3.914   6.579   6.676
 3404SOL     OW11110   5.381   3.413   5.366
 3404SOL    HW111111   5.322   3.475   5.419
 3404SOL    HW211112   5.351   3.412   5.271
 3405SOL     OW11113   5.704   6.090   5.767
 3405SOL    HW111114   5.720   6.055   5.859
 3405SOL    HW211115   5.787   6.081   5.713
 3406SOL     OW11116   2.119   3.794   1.755
 3406SOL    HW111117   2.211   3.817   1.786
 3406SOL    HW211118   2.081   3.721   1.812
 3407SOL     OW11119   1.695   3.903   0.147
 3407SOL    HW111120   1.784   3.949   0.157
 3407SOL    HW211121   1.702   3.833   0.076
 3408SOL     OW11122   4.998   2.214   3.937
 3408SOL    HW111123   5.054   2.281   3.888
 3408SOL    HW211124   5.004   2.125   3.892
 3409SOL     OW11125   4.660   0.883   0.596
 3409SOL    HW111126   4.597   0.959   0.610
 3409SOL    HW211127   4.738   0.892   0.658
 3410SOL     OW11128   5.178   0.292   2.249
 3410SOL    HW111129   5.178   0.202   2.291
 3410SOL    HW211130   5.084   0.325   2.238
 3411SOL     OW11131   6.909   2.211   0.547
 3411SOL    HW111132   6.824   2.263   0.555
 3411SOL    HW211133   6.946   2.222   0.455
 3412SOL     OW11134   5.715   3.219   1.771
 3412SOL    HW111135   5.705   3.274   1.854
 3412SOL    HW211136   5.627   3.178   1.747
 3413SOL     OW11137   0.193   1.833   5.950
 3413SOL    HW111138   0.108   1.882   5.932
 3413SOL    HW211139   0.182   1.777   6.032
 3414SOL     OW11140   3.824   3.122   1.013
 3414SOL    HW111141   3.899   3.188   1.016
 3414SOL    HW211142   3.752   3.156   0.953
 3415SOL     OW11143   2.131   2.685   5.067
 3415SOL    HW111144   2.071   2.756   5.028
 3415SOL    HW211145   2.210   2.728   5.111
 3416SOL     OW11146   6.442   0.112   6.354
 3416SOL    HW111147   6.491   0.086   6.438
 3416SOL    HW211148   6.430   0.211   6.351
 3417SOL     OW11149   6.814   6.626   2.853
 3417SOL    HW111150   6.796   6.688   2.930
 3417SOL    HW211151   6.900   6.577   2.869
 3418SOL     OW11152   4.613   5.041   1.510
 3418SOL    HW111153   4.613   5.081   1.602
 3418SOL    HW211154   4.691   4.979   1.500
 3419SOL     OW11155   3.154   6.105   5.890
 3419SOL    HW111156   3.083   6.172   5.913
 3419SOL    HW211157   3.127   6.055   5.808
 3420SOL     OW11158   4.208   2.293   3.924
 3420SOL    HW111159   4.125   2.281   3.979
 3420SOL    HW211160   4.193   2.255   3.833
 3421SOL     OW11161   5.403   2.359   3.361
 3421SOL    HW111162   5.482   2.300   3.376
 3421SOL    HW211163   5.427   2.430   3.295
 3422SOL     OW11164   2.059   6.978   1.120
 3422SOL    HW111165   2.110   6.970   1.206
 3422SOL    HW211166   2.006   6.894   1.105
 3423SOL     OW11167   1.031   4.534   5.359
 3423SOL    HW111168   0.972   4.558   5.282
 3423SOL    HW211169   1.003   4.586   5.440
 3424SOL     OW11170   4.633   0.244   1.488
 3424SOL    HW111171   4.727   0.248   1.522
 3424SOL    HW211172   4.576   0.194   1.554
 3425SOL     OW11173   5.792   4.215   1.528
 3425SOL    HW111174   5.705   4.221   1.478
 3425SOL    HW211175   5.853   4.289   1.498
 3426SOL     OW11176   5.534   3.595   6.984
 3426SOL    HW111177   5.578   3.627   6.900
 3426SOL    HW211178   5.596   3.610   0.043
 3427SOL     OW11179   1.108   2.708   0.441
 3427SOL    HW111180   1.105   2.677   0.536
 3427SOL    HW211181   1.157   2.795   0.436
 3428SOL     OW11182   5.437   6.100   5.281
 3428SOL    HW111183   5.507   6.052   5.227
 3428SOL    HW211184   5.415   6.046   5.362
 3429SOL     OW11185   6.961   0.595   1.583
 3429SOL    HW111186   6.971   0.564   1.488
 3429SOL    HW211187   6.872   0.567   1.619
 3430SOL     OW11188   2.231   4.624   5.573
 3430SOL    HW111189   2.158   4.684   5.540
 3430SOL    HW211190   2.319   4.668   5.559
 3431SOL     OW11191   2.538   5.939   2.739
 3431SOL    HW111192   2.552   6.036   2.715
 3431SOL    HW211193   2.544   5.883   2.656
 3432SOL     OW11194   2.229   4.349   0.942
 3432SOL    HW111195   2.276   4.434   0.918
 3432SOL    HW211196   2.181   4.360   1.029
 3433SOL     OW11197   2.542   0.878   6.399
 3433SOL    HW111198   2.520   0.969   6.433
 3433SOL    HW211199   2.557   0.881   6.300
 3434SOL     OW11200   2.821   1.997   1.469
 3434SOL    HW111201   2.907   2.041   1.493
 3434SOL    HW211202   2.818   1.980   1.371
 3435SOL     OW11203   2.141   0.702   0.259
 3435SOL    HW111204   2.048   0.676   0.235
 3435SOL    HW211205   2.204   0.674   0.186
 3436SOL     OW11206   3.166   6.169   0.110
 3436SOL    HW111207   3.148   6.079   0.150
 3436SOL    HW211208   3.255   6.202   0.141
 3437SOL     OW11209   1.201   6.388   6.532
 3437SOL    HW111210   1.266   6.315   6.551
 3437SOL    HW211211   1.185   6.442   6.615
 3438SOL     OW11212   1.087   4.099   1.198
 3438SOL    HW111213   1.039   4.039   1.134
 3438SOL    HW211214   1.041   4.096   1.287
 3439SOL     OW11215   2.036   5.647   2.070
 3439SOL    HW111216   2.122   5.597   2.079
 3439SOL    HW211217   1.962   5.582   2.051
 3440SOL     OW11218   4.043   3.840   4.506
 3440SOL    HW111219   4.072   3.755   4.549
 3440SOL    HW211220   4.056   3.835   4.407
 3441SOL     OW11221   5.854   5.600   5.546
 3441SOL    HW111222   5.849   5.634   5.452
 3441SOL    HW211223   5.764   5.611   5.590
 3442SOL     OW11224   3.946   3.014   1.326
 3442SOL    HW111225   4.031   3.057   1.295
 3442SOL    HW211226   3.876   3.024   1.256
 3443SOL     OW11227   2.114   6.077   2.114
 3443SOL    HW111228   2.058   6.018   2.173
 3443SOL    HW211229   2.124   6.167   2.156
 3444SOL     OW11230   5.886   3.662   1.428
 3444SOL    HW111231   5.984   3.672   1.412
 3444SOL    HW211232   5.837   3.679   1.343
 3445SOL     OW11233   6.451   4.147   3.297
 3445SOL    HW111234   6.386   4.142   3.373
 3445SOL    HW211235   6.442   4.065   3.240
 3446SOL     OW11236   5.069   1.075   1.290
 3446SOL    HW111237   5.140   1.013   1.255
 3446SOL    HW211238   4.997   1.021   1.333
 3447SOL     OW11239   4.958   0.842   0.329
 3447SOL    HW111240   4.909   0.912   0.381
 3447SOL    HW211241   4.892   0.783   0.282
 3448SOL     OW11242   1.560   5.958   4.742
 3448SOL    HW111243   1.471   5.924   4.773
 3448SOL    HW211244   1.633   5.901   4.781
 3449SOL     OW11245   6.415   4.133   5.309
 3449SOL    HW111246   6.362   4.060   5.267
 3449SOL    HW211247   6.512   4.110   5.307
 3450SOL     OW11248   1.184   6.077   0.417
 3450SOL    HW111249   1.221   6.012   0.483
 3450SOL    HW211250   1.258   6.134   0.380
 3451SOL     OW11251   2.154   6.604   1.114
 3451SOL    HW111252   2.224   6.596   1.043
 3451SOL    HW211253   2.195   6.640   1.198
 3452SOL     OW11254   4.851   0.605   5.673
 3452SOL    HW111255   4.914   0.539   5.631
 3452SOL    HW211256   4.764   0.604   5.623
 3453SOL     OW11257   5.264   6.325   5.659
 3453SOL    HW111258   5.205   6.343   5.738
 3453SOL    HW211259   5.359   6.323   5.688
 3454SOL     OW11260   1.210   2.935   2.067
 3454SOL    HW111261   1.219   3.030   2.099
 3454SOL    HW211262   1.117   2.919   2.034
 3455SOL     OW11263   1.273   3.564   5.900
 3455SOL    HW111264   1.199   3.628   5.919
 3455SOL    HW211265   1.351   3.586   5.960
 3456SOL     OW11266   5.077   4.029   2.444
 3456SOL    HW111267   5.011   3.982   2.385
 3456SOL    HW211268   5.101   3.970   2.521
 3457SOL     OW11269   3.800   5.712   5.334
 3457SOL    HW111270   3.889   5.683   5.300
 3457SOL    HW211271   3.733   5.708   5.260
 3458SOL     OW11272   4.470   1.659   2.905
 3458SOL    HW111273   4.530   1.583   2.879
 3458SOL    HW211274   4.462   1.662   3.005
 3459SOL     OW11275   4.154   0.211   3.264
 3459SOL    HW111276   4.192   0.192   3.355
 3459SOL    HW211277   4.228   0.241   3.204
 3460SOL     OW11278   4.096   1.987   5.476
 3460SOL    HW111279   4.047   1.994   5.563
 3460SOL    HW211280   4.103   2.077   5.435
 3461SOL     OW11281   5.699   4.890   6.286
 3461SOL    HW111282   5.681   4.876   6.383
 3461SOL    HW211283   5.641   4.829   6.232
 3462SOL     OW11284   2.335   3.936   6.728
 3462SOL    HW111285   2.369   3.938   6.634
 3462SOL    HW211286   2.361   3.850   6.772
 3463SOL     OW11287   6.057   4.229   1.171
 3463SOL    HW111288   6.024   4.135   1.180
 3463SOL    HW211289   6.139   4.230   1.114
 3464SOL     OW11290   0.018   4.533   6.012
 3464SOL    HW111291   7.009   4.625   5.984
 3464SOL    HW211292   6.964   4.491   6.065
 3465SOL     OW11293   1.934   0.555   1.907
 3465SOL    HW111294   2.018   0.516   1.945
 3465SOL    HW211295   1.917   0.514   1.818
 3466SOL     OW11296   6.279   3.927   5.211
 3466SOL    HW111297   6.307   3.916   5.116
 3466SOL    HW211298   6.188   3.887   5.224
 3467SOL     OW11299   1.594   2.127   6.445
 3467SOL    HW111300   1.641   2.057   6.499
 3467SOL    HW211301   1.606   2.216   6.489
 3468SOL     OW11302   3.412   0.453   3.857
 3468SOL    HW111303   3.315   0.430   3.850
 3468SOL    HW211304   3.443   0.495   3.772
 3469SOL     OW11305   5.625   2.535   3.224
 3469SOL    HW111306   5.606   2.554   3.321
 3469SOL    HW211307   5.680   2.610   3.186
 3470SOL     OW11308   0.140   5.724   1.006
 3470SOL    HW111309   0.156   5.809   1.055
 3470SOL    HW211310   0.089   5.743   0.921
 3471SOL     OW11311   4.148   6.002   5.283
 3471SOL    HW111312   4.051   6.008   5.306
 3471SOL    HW211313   4.168   5.911   5.245
 3472SOL     OW11314   3.026   1.214   5.449
 3472SOL    HW111315   3.044   1.162   5.532
 3472SOL    HW211316   3.035   1.155   5.370
 3473SOL     OW11317   5.432   0.885   6.266
 3473SOL    HW111318   5.400   0.798   6.227
 3473SOL    HW211319   5.431   0.956   6.195
 3474SOL     OW11320   4.036   5.233   1.350
 3474SOL    HW111321   3.985   5.163   1.399
 3474SOL    HW211322   3.993   5.322   1.366
 3475SOL     OW11323   1.540   6.089   4.477
 3475SOL    HW111324   1.554   6.026   4.553
 3475SOL    HW211325   1.566   6.181   4.504
 3476SOL     OW11326   4.698   1.056   4.455
 3476SOL    HW111327   4.657   1.043   4.545
 3476SOL    HW211328   4.791   1.019   4.454
 3477SOL     OW11329   3.546   6.031   0.971
 3477SOL    HW111330   3.599   6.019   1.055
 3477SOL    HW211331   3.573   6.117   0.927
 3478SOL     OW11332   3.525   5.408   6.903
 3478SOL    HW111333   3.508   5.345   6.980
 3478SOL    HW211334   3.544   5.499   6.939
 3479SOL     OW11335   1.037   0.440   1.615
 3479SOL    HW111336   0.997   0.453   1.525
 3479SOL    HW211337   0.965   0.436   1.684
 3480SOL     OW11338   0.426   1.231   3.356
 3480SOL    HW111339   0.445   1.325   3.382
 3480SOL    HW211340   0.440   1.170   3.434
 3481SOL     OW11341   2.514   6.293   6.765
 3481SOL    HW111342   2.613   6.289   6.750
 3481SOL    HW211343   2.467   6.264   6.682
 3482SOL     OW11344   0.419   2.446   0.259
 3482SOL    HW111345   0.472   2.376   0.308
 3482SOL    HW211346   0.434   2.436   0.161
 3483SOL     OW11347   2.564   0.340   1.406
 3483SOL    HW111348   2.630   0.333   1.331
 3483SOL    HW211349   2.557   0.436   1.434
 3484SOL     OW11350   4.093   3.711   3.544
 3484SOL    HW111351   4.001   3.697   3.581
 3484SOL    HW211352   4.089   3.716   3.444
 3485SOL     OW11353   0.973   2.939   4.895
 3485SOL    HW111354   0.910   3.016   4.908
 3485SOL    HW211355   1.066   2.968   4.915
 3486SOL     OW11356   4.606   1.971   1.643
 3486SOL    HW111357   4.558   1.980   1.730
 3486SOL    HW211358   4.611   2.060   1.598
 3487SOL     OW11359   6.212   1.529   6.545
 3487SOL    HW111360   6.113   1.512   6.552
 3487SOL    HW211361   6.250   1.476   6.470
 3488SOL     OW11362   5.533   3.036   3.632
 3488SOL    HW111363   5.562   2.941   3.635
 3488SOL    HW211364   5.521   3.065   3.537
 3489SOL     OW11365   3.436   0.601   1.440
 3489SOL    HW111366   3.509   0.601   1.371
 3489SOL    HW211367   3.423   0.694   1.475
 3490SOL     OW11368   4.465   3.955   0.315
 3490SOL    HW111369   4.447   3.889   0.241
 3490SOL    HW211370   4.383   3.962   0.373
 3491SOL     OW11371   0.260   3.093   5.044
 3491SOL    HW111372   0.332   3.134   5.100
 3491SOL    HW211373   0.187   3.160   5.029
 3492SOL     OW11374   6.609   4.548   6.805
 3492SOL    HW111375   6.707   4.563   6.822
 3492SOL    HW211376   6.591   4.449   6.802
 3493SOL     OW11377   6.213   4.491   0.745
 3493SOL    HW111378   6.306   4.521   0.723
 3493SOL    HW211379   6.150   4.527   0.676
 3494SOL     OW11380   3.162   0.305   1.286
 3494SOL    HW111381   3.105   0.387   1.291
 3494SOL    HW211382   3.208   0.291   1.374
 3495SOL     OW11383   4.504   4.986   1.193
 3495SOL    HW111384   4.445   5.032   1.126
 3495SOL    HW211385   4.597   5.024   1.186
 3496SOL     OW11386   2.051   2.670   0.891
 3496SOL    HW111387   2.008   2.593   0.846
 3496SOL    HW211388   2.148   2.672   0.868
 3497SOL     OW11389   4.561   0.608   3.949
 3497SOL    HW111390   4.478   0.603   3.893
 3497SOL    HW211391   4.564   0.529   4.011
 3498SOL     OW11392   2.482   1.793   1.746
 3498SOL    HW111393   2.536   1.731   1.689
 3498SOL    HW211394   2.543   1.848   1.803
 3499SOL     OW11395   6.601   3.107   4.364
 3499SOL    HW111396   6.652   3.071   4.286
 3499SOL    HW211397   6.632   3.061   4.448
 3500SOL     OW11398   5.895   4.045   6.703
 3500SOL    HW111399   5.942   4.111   6.762
 3500SOL    HW211400   5.942   3.957   6.709
 3501SOL     OW11401   1.924   4.569   4.627
 3501SOL    HW111402   1.869   4.485   4.624
 3501SOL    HW211403   1.988   4.564   4.704
 3502SOL     OW11404   1.048   2.417   1.028
 3502SOL    HW111405   1.106   2.351   1.075
 3502SOL    HW211406   1.101   2.500   1.008
 3503SOL     OW11407   5.102   6.188   5.267
 3503SOL    HW111408   5.181   6.199   5.206
 3503SOL    HW211409   5.036   6.125   5.226
 3504SOL     OW11410   2.273   3.206   1.743
 3504SOL    HW111411   2.322   3.284   1.780
 3504SOL    HW211412   2.277   3.130   1.808
 3505SOL     OW11413   5.422   5.644   5.861
 3505SOL    HW111414   5.417   5.597   5.949
 3505SOL    HW211415   5.391   5.583   5.788
 3506SOL     OW11416   4.645   5.561   3.197
 3506SOL    HW111417   4.672   5.470   3.229
 3506SOL    HW211418   4.634   5.622   3.276
 3507SOL     OW11419   0.716   6.993   6.363
 3507SOL    HW111420   0.710   0.071   6.388
 3507SOL    HW211421   0.630   6.963   6.322
 3508SOL     OW11422   5.535   3.924   0.045
 3508SOL    HW111423   5.463   3.858   0.066
 3508SOL    HW211424   5.548   3.984   0.124
 3509SOL     OW11425   6.514   6.474   7.007
 3509SOL    HW111426   6.487   6.467   0.085
 3509SOL    HW211427   6.606   6.437   6.996
 3510SOL     OW11428   2.303   2.264   2.004
 3510SOL    HW111429   2.254   2.351   2.013
 3510SOL    HW211430   2.258   2.195   2.061
 3511SOL     OW11431   0.520   1.952   6.796
 3511SOL    HW111432   0.576   2.015   6.742
 3511SOL    HW211433   0.577   1.875   6.826
 3512SOL     OW11434   2.717   2.719   0.957
 3512SOL    HW111435   2.678   2.810   0.948
 3512SOL    HW211436   2.794   2.709   0.895
 3513SOL     OW11437   6.576   4.267   1.193
 3513SOL    HW111438   6.578   4.176   1.235
 3513SOL    HW211439   6.558   4.336   1.262
 3514SOL     OW11440   0.558   6.037   1.172
 3514SOL    HW111441   0.505   5.964   1.130
 3514SOL    HW211442   0.599   6.004   1.257
 3515SOL     OW11443   3.392   6.490   3.152
 3515SOL    HW111444   3.351   6.520   3.238
 3515SOL    HW211445   3.361   6.550   3.078
 3516SOL     OW11446   3.114   1.176   0.802
 3516SOL    HW111447   3.017   1.178   0.826
 3516SOL    HW211448   3.159   1.258   0.838
 3517SOL     OW11449   1.320   1.478   6.689
 3517SOL    HW111450   1.328   1.481   6.589
 3517SOL    HW211451   1.285   1.565   6.722
 3518SOL     OW11452   4.405   3.012   6.023
 3518SOL    HW111453   4.353   3.090   5.989
 3518SOL    HW211454   4.362   2.927   5.993
 3519SOL     OW11455   2.264   6.582   6.445
 3519SOL    HW111456   2.212   6.545   6.522
 3519SOL    HW211457   2.295   6.675   6.467
 3520SOL     OW11458   3.603   5.711   1.126
 3520SOL    HW111459   3.641   5.732   1.036
 3520SOL    HW211460   3.504   5.724   1.125
 3521SOL     OW11461   6.177   2.624   1.556
 3521SOL    HW111462   6.198   2.557   1.485
 3521SOL    HW211463   6.223   2.710   1.535
 3522SOL     OW11464   3.509   4.906   2.364
 3522SOL    HW111465   3.500   4.931   2.267
 3522SOL    HW211466   3.606   4.904   2.388
 3523SOL     OW11467   2.201   4.676   4.691
 3523SOL    HW111468   2.226   4.731   4.771
 3523SOL    HW211469   2.232   4.582   4.703
 3524SOL     OW11470   2.601   0.397   1.038
 3524SOL    HW111471   2.671   0.400   1.109
 3524SOL    HW211472   2.584   0.301   1.012
 3525SOL     OW11473   0.593   2.981   2.331
 3525SOL    HW111474   0.677   2.990   2.384
 3525SOL    HW211475   0.526   3.049   2.363
 3526SOL     OW11476   1.272   0.787   2.437
 3526SOL    HW111477   1.235   0.788   2.344
 3526SOL    HW211478   1.200   0.763   2.501
 3527SOL     OW11479   5.473   3.164   6.074
 3527SOL    HW111480   5.388   3.138   6.030
 3527SOL    HW211481   5.453   3.212   6.160
 3528SOL     OW11482   0.465   6.640   4.189
 3528SOL    HW111483   0.487   6.735   4.206
 3528SOL    HW211484   0.377   6.634   4.142
 3529SOL     OW11485   4.242   5.902   5.832
 3529SOL    HW111486   4.208   5.901   5.926
 3529SOL    HW211487   4.172   5.940   5.771
 3530SOL     OW11488   2.455   5.338   2.962
 3530SOL    HW111489   2.468   5.346   2.863
 3530SOL    HW211490   2.482   5.423   3.007
 3531SOL     OW11491   5.695   4.202   0.184
 3531SOL    HW111492   5.707   4.106   0.210
 3531SOL    HW211493   5.599   4.228   0.196
 3532SOL     OW11494   2.005   0.045   6.950
 3532SOL    HW111495   2.086   0.102   6.938
 3532SOL    HW211496   1.923   0.103   6.954
 3533SOL     OW11497   0.748   1.426   3.565
 3533SOL    HW111498   0.794   1.348   3.524
 3533SOL    HW211499   0.812   1.503   3.572
 3534SOL     OW11500   4.910   1.062   4.720
 3534SOL    HW111501   4.820   1.028   4.749
 3534SOL    HW211502   4.967   0.985   4.691
 3535SOL     OW11503   5.219   5.114   6.218
 3535SOL    HW111504   5.308   5.155   6.233
 3535SOL    HW211505   5.148   5.184   6.225
 3536SOL     OW11506   1.562   3.660   2.649
 3536SOL    HW111507   1.598   3.636   2.739
 3536SOL    HW211508   1.484   3.722   2.660
 3537SOL     OW11509   1.873   5.220   1.013
 3537SOL    HW111510   1.826   5.144   1.057
 3537SOL    HW211511   1.971   5.215   1.034
 3538SOL     OW11512   2.846   0.483   3.507
 3538SOL    HW111513   2.926   0.541   3.522
 3538SOL    HW211514   2.821   0.485   3.411
 3539SOL     OW11515   4.839   5.104   5.804
 3539SOL    HW111516   4.926   5.107   5.854
 3539SOL    HW211517   4.819   5.195   5.767
 3540SOL     OW11518   3.388   3.503   0.049
 3540SOL    HW111519   3.435   3.424   0.090
 3540SOL    HW211520   3.323   3.541   0.115
 3541SOL     OW11521   3.221   2.223   0.804
 3541SOL    HW111522   3.283   2.225   0.882
 3541SOL    HW211523   3.240   2.300   0.743
 3542SOL     OW11524   5.709   2.210   5.937
 3542SOL    HW111525   5.671   2.143   6.001
 3542SOL    HW211526   5.799   2.239   5.969
 3543SOL     OW11527   1.414   2.846   3.616
 3543SOL    HW111528   1.481   2.896   3.560
 3543SOL    HW211529   1.460   2.774   3.667
 3544SOL     OW11530   2.580   4.568   5.891
 3544SOL    HW111531   2.487   4.544   5.863
 3544SOL    HW211532   2.585   4.568   5.991
 3545SOL     OW11533   3.658   0.142   0.948
 3545SOL    HW111534   3.613   0.057   0.977
 3545SOL    HW211535   3.744   0.152   0.998
 3546SOL     OW11536   6.928   3.271   3.231
 3546SOL    HW111537   6.868   3.281   3.311
 3546SOL    HW211538   7.015   3.317   3.249
 3547SOL     OW11539   0.290   3.540   5.958
 3547SOL    HW111540   0.331   3.451   5.941
 3547SOL    HW211541   0.330   3.580   6.040
 3548SOL     OW11542   5.860   0.690   5.554
 3548SOL    HW111543   5.812   0.747   5.621
 3548SOL    HW211544   5.829   0.595   5.562
 3549SOL     OW11545   2.870   5.963   6.224
 3549SOL    HW111546   2.794   5.911   6.264
 3549SOL    HW211547   2.935   5.987   6.296
 3550SOL     OW11548   5.230   1.114   5.032
 3550SOL    HW111549   5.231   1.210   5.007
 3550SOL    HW211550   5.321   1.087   5.063
 3551SOL     OW11551   4.198   1.996   4.724
 3551SOL    HW111552   4.197   2.096   4.722
 3551SOL    HW211553   4.192   1.965   4.818
 3552SOL     OW11554   0.295   6.059   2.959
 3552SOL    HW111555   0.321   6.137   3.016
 3552SOL    HW211556   0.234   5.999   3.010
 3553SOL     OW11557   4.213   5.569   6.763
 3553SOL    HW111558   4.305   5.596   6.732
 3553SOL    HW211559   4.221   5.491   6.824
 3554SOL     OW11560   4.953   3.286   1.528
 3554SOL    HW111561   4.932   3.252   1.620
 3554SOL    HW211562   4.923   3.381   1.520
 3555SOL     OW11563   2.520   2.143   4.768
 3555SOL    HW111564   2.548   2.196   4.847
 3555SOL    HW211565   2.601   2.106   4.721
 3556SOL     OW11566   4.642   0.859   5.725
 3556SOL    HW111567   4.644   0.945   5.675
 3556SOL    HW211568   4.726   0.849   5.779
 3557SOL     OW11569   6.561   1.447   1.230
 3557SOL    HW111570   6.538   1.368   1.287
 3557SOL    HW211571   6.497   1.522   1.248
 3558SOL     OW11572   3.322   6.757   1.453
 3558SOL    HW111573   3.240   6.701   1.435
 3558SOL    HW211574   3.313   6.845   1.407
 3559SOL     OW11575   3.830   6.105   4.575
 3559SOL    HW111576   3.810   6.073   4.483
 3559SOL    HW211577   3.857   6.202   4.572
 3560SOL     OW11578   2.144   6.109   4.531
 3560SOL    HW111579   2.171   6.203   4.553
 3560SOL    HW211580   2.130   6.100   4.432
 3561SOL     OW11581   4.766   4.211   5.282
 3561SOL    HW111582   4.716   4.126   5.296
 3561SOL    HW211583   4.739   4.277   5.352
 3562SOL     OW11584   2.122   1.316   5.460
 3562SOL    HW111585   2.142   1.303   5.557
 3562SOL    HW211586   2.061   1.393   5.448
 3563SOL     OW11587   5.795   2.543   5.213
 3563SOL    HW111588   5.802   2.512   5.118
 3563SOL    HW211589   5.841   2.478   5.273
 3564SOL     OW11590   6.625   4.308   2.103
 3564SOL    HW111591   6.712   4.317   2.150
 3564SOL    HW211592   6.550   4.328   2.166
 3565SOL     OW11593   3.997   5.591   3.657
 3565SOL    HW111594   4.001   5.647   3.574
 3565SOL    HW211595   3.919   5.528   3.652
 3566SOL     OW11596   0.580   1.539   5.723
 3566SOL    HW111597   0.602   1.564   5.629
 3566SOL    HW211598   0.494   1.582   5.750
 3567SOL     OW11599   0.397   4.725   6.633
 3567SOL    HW111600   0.351   4.811   6.651
 3567SOL    HW211601   0.339   4.666   6.578
 3568SOL     OW11602   6.438   3.727   5.716
 3568SOL    HW111603   6.456   3.629   5.709
 3568SOL    HW211604   6.374   3.754   5.644
 3569SOL     OW11605   1.811   2.127   5.346
 3569SOL    HW111606   1.879   2.132   5.273
 3569SOL    HW211607   1.735   2.188   5.325
 3570SOL     OW11608   6.364   1.349   4.085
 3570SOL    HW111609   6.451   1.301   4.098
 3570SOL    HW211610   6.316   1.355   4.172
 3571SOL     OW11611   6.316   5.586   6.522
 3571SOL    HW111612   6.381   5.522   6.563
 3571SOL    HW211613   6.344   5.680   6.544
 3572SOL     OW11614   5.576   3.825   4.716
 3572SOL    HW111615   5.509   3.781   4.776
 3572SOL    HW211616   5.631   3.890   4.768
 3573SOL     OW11617   1.399   3.135   3.496
 3573SOL    HW111618   1.434   3.212   3.443
 3573SOL    HW211619   1.303   3.150   3.519
 3574SOL     OW11620   0.292   4.226   0.629
 3574SOL    HW111621   0.263   4.271   0.545
 3574SOL    HW211622   0.301   4.127   0.614
 3575SOL     OW11623   6.373   5.382   2.683
 3575SOL    HW111624   6.441   5.449   2.712
 3575SOL    HW211625   6.281   5.415   2.706
 3576SOL     OW11626   0.722   1.267   6.118
 3576SOL    HW111627   0.786   1.202   6.076
 3576SOL    HW211628   0.666   1.310   6.047
 3577SOL     OW11629   0.634   2.710   6.387
 3577SOL    HW111630   0.697   2.733   6.461
 3577SOL    HW211631   0.563   2.781   6.380
 3578SOL     OW11632   3.115   4.681   0.439
 3578SOL    HW111633   3.215   4.674   0.434
 3578SOL    HW211634   3.088   4.777   0.445
 3579SOL     OW11635   6.524   3.674   4.794
 3579SOL    HW111636   6.521   3.704   4.698
 3579SOL    HW211637   6.496   3.579   4.800
 3580SOL     OW11638   6.372   1.564   2.075
 3580SOL    HW111639   6.400   1.636   2.139
 3580SOL    HW211640   6.454   1.517   2.041
 3581SOL     OW11641   0.084   0.195   2.445
 3581SOL    HW111642   0.181   0.181   2.425
 3581SOL    HW211643   0.071   0.200   2.544
 3582SOL     OW11644   1.077   0.350   5.681
 3582SOL    HW111645   1.170   0.364   5.715
 3582SOL    HW211646   1.059   0.252   5.671
 3583SOL     OW11647   0.737   4.809   6.779
 3583SOL    HW111648   0.699   4.721   6.807
 3583SOL    HW211649   0.668   4.881   6.795
 3584SOL     OW11650   5.171   6.293   6.771
 3584SOL    HW111651   5.112   6.370   6.796
 3584SOL    HW211652   5.266   6.319   6.786
 3585SOL     OW11653   3.742   5.004   4.178
 3585SOL    HW111654   3.819   4.943   4.160
 3585SOL    HW211655   3.656   4.953   4.174
 3586SOL     OW11656   6.414   3.451   5.685
 3586SOL    HW111657   6.499   3.415   5.648
 3586SOL    HW211658   6.372   3.383   5.745
 3587SOL     OW11659   3.567   6.650   0.438
 3587SOL    HW111660   3.609   6.733   0.475
 3587SOL    HW211661   3.505   6.611   0.506
 3588SOL     OW11662   1.253   2.623   6.052
 3588SOL    HW111663   1.215   2.541   6.008
 3588SOL    HW211664   1.352   2.624   6.039
 3589SOL     OW11665   2.957   0.786   5.461
 3589SOL    HW111666   3.000   0.775   5.551
 3589SOL    HW211667   3.027   0.783   5.390
 3590SOL     OW11668   1.443   5.323   6.064
 3590SOL    HW111669   1.530   5.275   6.062
 3590SOL    HW211670   1.369   5.260   6.040
 3591SOL     OW11671   5.264   2.667   5.842
 3591SOL    HW111672   5.186   2.716   5.804
 3591SOL    HW211673   5.306   2.721   5.915
 3592SOL     OW11674   5.125   2.891   2.936
 3592SOL    HW111675   5.040   2.862   2.980
 3592SOL    HW211676   5.194   2.911   3.006
 3593SOL     OW11677   1.689   6.517   3.785
 3593SOL    HW111678   1.665   6.561   3.871
 3593SOL    HW211679   1.608   6.471   3.747
 3594SOL     OW11680   2.508   1.163   3.493
 3594SOL    HW111681   2.582   1.183   3.429
 3594SOL    HW211682   2.501   1.064   3.507
 3595SOL     OW11683   2.668   6.595   6.280
 3595SOL    HW111684   2.608   6.643   6.215
 3595SOL    HW211685   2.614   6.533   6.336
 3596SOL     OW11686   6.316   0.869   2.218
 3596SOL    HW111687   6.305   0.967   2.201
 3596SOL    HW211688   6.313   0.819   2.132
 3597SOL     OW11689   4.076   6.007   4.462
 3597SOL    HW111690   3.993   6.041   4.507
 3597SOL    HW211691   4.153   6.064   4.490
 3598SOL     OW11692   0.672   6.679   6.091
 3598SOL    HW111693   0.596   6.707   6.149
 3598SOL    HW211694   0.644   6.600   6.036
 3599SOL     OW11695   6.758   2.283   4.838
 3599SOL    HW111696   6.855   2.261   4.828
 3599SOL    HW211697   6.749   2.373   4.882
 3600SOL     OW11698   6.195   3.088   1.063
 3600SOL    HW111699   6.137   3.026   1.011
 3600SOL    HW211700   6.200   3.058   1.158
 3601SOL     OW11701   0.134   3.669   0.632
 3601SOL    HW111702   0.038   3.670   0.606
 3601SOL    HW211703   0.188   3.625   0.559
 3602SOL     OW11704   2.121   0.946   0.102
 3602SOL    HW111705   2.113   0.937   0.201
 3602SOL    HW211706   2.174   1.028   0.079
 3603SOL     OW11707   4.361   4.927   3.789
 3603SOL    HW111708   4.346   5.015   3.834
 3603SOL    HW211709   4.378   4.942   3.691
 3604SOL     OW11710   0.012   2.503   2.591
 3604SOL    HW111711   6.931   2.497   2.596
 3604SOL    HW211712   0.040   2.599   2.583
 3605SOL     OW11713   5.938   4.189   6.501
 3605SOL    HW111714   5.904   4.130   6.574
 3605SOL    HW211715   5.861   4.221   6.445
 3606SOL     OW11716   6.518   4.527   5.603
 3606SOL    HW111717   6.545   4.582   5.524
 3606SOL    HW211718   6.486   4.587   5.677
 3607SOL     OW11719   5.239   0.439   0.703
 3607SOL    HW111720   5.149   0.474   0.732
 3607SOL    HW211721   5.307   0.512   0.710
 3608SOL     OW11722   0.679   2.115   1.522
 3608SOL    HW111723   0.730   2.070   1.449
 3608SOL    HW211724   0.675   2.055   1.602
 3609SOL     OW11725   6.698   0.775   4.705
 3609SOL    HW111726   6.787   0.820   4.690
 3609SOL    HW211727   6.646   0.828   4.773
 3610SOL     OW11728   0.750   6.535   5.667
 3610SOL    HW111729   0.742   6.629   5.701
 3610SOL    HW211730   0.824   6.489   5.716
 3611SOL     OW11731   3.465   5.363   5.123
 3611SOL    HW111732   3.394   5.427   5.151
 3611SOL    HW211733   3.550   5.384   5.172
 3612SOL     OW11734   0.985   6.395   6.971
 3612SOL    HW111735   1.047   6.319   6.955
 3612SOL    HW211736   0.919   6.369   0.024
 3613SOL     OW11737   5.271   5.019   0.579
 3613SOL    HW111738   5.344   4.996   0.643
 3613SOL    HW211739   5.195   4.954   0.589
 3614SOL     OW11740   3.845   3.838   3.220
 3614SOL    HW111741   3.930   3.794   3.247
 3614SOL    HW211742   3.769   3.773   3.229
 3615SOL     OW11743   6.148   5.415   5.419
 3615SOL    HW111744   6.134   5.360   5.337
 3615SOL    HW211745   6.118   5.509   5.401
 3616SOL     OW11746   6.767   2.185   5.796
 3616SOL    HW111747   6.725   2.173   5.886
 3616SOL    HW211748   6.857   2.228   5.806
 3617SOL     OW11749   6.270   2.279   6.399
 3617SOL    HW111750   6.309   2.216   6.466
 3617SOL    HW211751   6.249   2.230   6.314
 3618SOL     OW11752   1.719   2.028   5.898
 3618SOL    HW111753   1.728   2.127   5.890
 3618SOL    HW211754   1.756   1.997   5.985
 3619SOL     OW11755   6.017   2.324   3.907
 3619SOL    HW111756   6.115   2.315   3.889
 3619SOL    HW211757   6.003   2.376   3.991
 3620SOL     OW11758   5.850   0.408   5.798
 3620SOL    HW111759   5.811   0.408   5.706
 3620SOL    HW211760   5.949   0.404   5.792
 3621SOL     OW11761   2.727   2.661   5.601
 3621SOL    HW111762   2.670   2.579   5.603
 3621SOL    HW211763   2.680   2.736   5.647
 3622SOL     OW11764   0.566   1.302   2.993
 3622SOL    HW111765   0.518   1.332   2.910
 3622SOL    HW211766   0.508   1.320   3.072
 3623SOL     OW11767   5.733   5.080   3.756
 3623SOL    HW111768   5.645   5.080   3.804
 3623SOL    HW211769   5.797   5.139   3.805
 3624SOL     OW11770   2.414   6.561   3.423
 3624SOL    HW111771   2.318   6.573   3.446
 3624SOL    HW211772   2.422   6.502   3.343
 3625SOL     OW11773   6.227   3.279   5.832
 3625SOL    HW111774   6.189   3.371   5.821
 3625SOL    HW211775   6.168   3.225   5.892
 3626SOL     OW11776   2.090   3.544   5.024
 3626SOL    HW111777   2.098   3.511   5.118
 3626SOL    HW211778   2.111   3.641   5.021
 3627SOL     OW11779   3.708   4.073   3.263
 3627SOL    HW111780   3.637   4.086   3.194
 3627SOL    HW211781   3.782   4.018   3.225
 3628SOL     OW11782   2.367   5.733   1.679
 3628SOL    HW111783   2.338   5.699   1.769
 3628SOL    HW211784   2.413   5.821   1.690
 3629SOL     OW11785   6.026   1.920   5.517
 3629SOL    HW111786   6.087   1.921   5.437
 3629SOL    HW211787   6.072   1.964   5.594
 3630SOL     OW11788   5.674   2.186   4.982
 3630SOL    HW111789   5.628   2.209   4.896
 3630SOL    HW211790   5.619   2.120   5.033
 3631SOL     OW11791   2.685   0.121   4.403
 3631SOL    HW111792   2.720   0.029   4.418
 3631SOL    HW211793   2.761   0.186   4.402
 3632SOL     OW11794   5.331   0.569   1.116
 3632SOL    HW111795   5.345   0.666   1.094
 3632SOL    HW211796   5.409   0.536   1.170
 3633SOL     OW11797   2.551   2.449   5.610
 3633SOL    HW111798   2.468   2.392   5.601
 3633SOL    HW211799   2.632   2.390   5.606
 3634SOL     OW11800   1.513   6.542   4.733
 3634SOL    HW111801   1.448   6.488   4.788
 3634SOL    HW211802   1.565   6.603   4.793
 3635SOL     OW11803   2.683   1.803   5.031
 3635SOL    HW111804   2.736   1.722   5.055
 3635SOL    HW211805   2.594   1.776   4.994
 3636SOL     OW11806   0.312   5.550   6.022
 3636SOL    HW111807   0.380   5.483   6.054
 3636SOL    HW211808   0.347   5.642   6.035
 3637SOL     OW11809   5.710   2.233   1.331
 3637SOL    HW111810   5.696   2.240   1.430
 3637SOL    HW211811   5.673   2.146   1.298
 3638SOL     OW11812   6.702   4.360   4.525
 3638SOL    HW111813   6.779   4.320   4.474
 3638SOL    HW211814   6.634   4.395   4.461
 3639SOL     OW11815   3.631   4.231   1.218
 3639SOL    HW111816   3.715   4.277   1.189
 3639SOL    HW211817   3.630   4.223   1.318
 3640SOL     OW11818   3.519   6.149   0.199
 3640SOL    HW111819   3.597   6.181   0.145
 3640SOL    HW211820   3.493   6.057   0.169
 3641SOL     OW11821   3.489   1.448   4.724
 3641SOL    HW111822   3.535   1.439   4.635
 3641SOL    HW211823   3.391   1.463   4.709
 3642SOL     OW11824   4.593   1.194   5.741
 3642SOL    HW111825   4.618   1.174   5.646
 3642SOL    HW211826   4.584   1.293   5.753
 3643SOL     OW11827   2.970   5.725   4.367
 3643SOL    HW111828   2.905   5.753   4.438
 3643SOL    HW211829   3.004   5.633   4.386
 3644SOL     OW11830   6.913   2.485   1.179
 3644SOL    HW111831   6.876   2.424   1.248
 3644SOL    HW211832   6.889   2.450   1.088
 3645SOL     OW11833   5.519   1.757   3.783
 3645SOL    HW111834   5.575   1.676   3.763
 3645SOL    HW211835   5.446   1.732   3.846
 3646SOL     OW11836   6.894   4.863   5.068
 3646SOL    HW111837   6.843   4.778   5.078
 3646SOL    HW211838   6.951   4.858   4.986
 3647SOL     OW11839   1.037   3.248   0.034
 3647SOL    HW111840   0.955   3.304   0.026
 3647SOL    HW211841   1.092   3.279   0.111
 3648SOL     OW11842   4.084   5.607   2.826
 3648SOL    HW111843   4.096   5.606   2.926
 3648SOL    HW211844   4.037   5.524   2.797
 3649SOL     OW11845   4.341   3.785   0.715
 3649SOL    HW111846   4.354   3.686   0.726
 3649SOL    HW211847   4.329   3.827   0.805
 3650SOL     OW11848   6.262   6.358   0.942
 3650SOL    HW111849   6.176   6.400   0.971
 3650SOL    HW211850   6.339   6.419   0.965
 3651SOL     OW11851   0.567   5.877   2.238
 3651SOL    HW111852   0.600   5.969   2.258
 3651SOL    HW211853   0.518   5.879   2.150
 3652SOL     OW11854   4.812   6.441   3.522
 3652SOL    HW111855   4.801   6.527   3.472
 3652SOL    HW211856   4.816   6.460   3.620
 3653SOL     OW11857   6.044   1.123   3.215
 3653SOL    HW111858   5.959   1.164   3.247
 3653SOL    HW211859   6.119   1.189   3.226
 3654SOL     OW11860   2.163   6.636   0.597
 3654SOL    HW111861   2.137   6.666   0.689
 3654SOL    HW211862   2.140   6.707   0.531
 3655SOL     OW11863   1.265   7.005   4.242
 3655SOL    HW111864   1.297   0.001   4.335
 3655SOL    HW211865   1.254   0.074   4.196
 3656SOL     OW11866   1.760   2.289   1.977
 3656SOL    HW111867   1.796   2.330   1.894
 3656SOL    HW211868   1.661   2.275   1.968
 3657SOL     OW11869   3.996   5.733   6.795
 3657SOL    HW111870   3.929   5.671   6.836
 3657SOL    HW211871   4.074   5.680   6.760
 3658SOL     OW11872   1.169   5.443   5.110
 3658SOL    HW111873   1.093   5.492   5.066
 3658SOL    HW211874   1.141   5.415   5.202
 3659SOL     OW11875   3.069   4.561   0.032
 3659SOL    HW111876   3.069   4.501   6.970
 3659SOL    HW211877   3.161   4.563   0.071
 3660SOL     OW11878   4.813   6.247   2.551
 3660SOL    HW111879   4.765   6.335   2.548
 3660SOL    HW211880   4.798   6.204   2.640
 3661SOL     OW11881   5.295   2.628   6.759
 3661SOL    HW111882   5.222   2.593   6.818
 3661SOL    HW211883   5.347   2.552   6.721
 3662SOL     OW11884   3.589   0.008   5.086
 3662SOL    HW111885   3.535   6.984   5.013
 3662SOL    HW211886   3.686   0.004   5.062
 3663SOL     OW11887   1.450   1.243   0.490
 3663SOL    HW111888   1.477   1.227   0.395
 3663SOL    HW211889   1.514   1.195   0.551
 3664SOL     OW11890   4.817   1.528   0.344
 3664SOL    HW111891   4.910   1.561   0.331
 3664SOL    HW211892   4.805   1.442   0.293
 3665SOL     OW11893   0.687   5.992   5.269
 3665SOL    HW111894   0.643   6.020   5.354
 3665SOL    HW211895   0.620   5.999   5.194
 3666SOL     OW11896   1.579   4.378   3.539
 3666SOL    HW111897   1.519   4.304   3.573
 3666SOL    HW211898   1.535   4.466   3.557
 3667SOL     OW11899   5.873   0.671   6.863
 3667SOL    HW111900   5.860   0.620   6.778
 3667SOL    HW211901   5.790   0.723   6.884
 3668SOL     OW11902   1.179   6.810   2.636
 3668SOL    HW111903   1.278   6.814   2.631
 3668SOL    HW211904   1.149   6.715   2.640
 3669SOL     OW11905   6.078   1.729   4.536
 3669SOL    HW111906   6.153   1.708   4.474
 3669SOL    HW211907   6.018   1.798   4.494
 3670SOL     OW11908   2.252   5.249   0.300
 3670SOL    HW111909   2.305   5.265   0.383
 3670SOL    HW211910   2.187   5.174   0.316
 3671SOL     OW11911   6.582   0.389   3.095
 3671SOL    HW111912   6.533   0.303   3.103
 3671SOL    HW211913   6.655   0.393   3.163
 3672SOL     OW11914   5.995   1.986   0.425
 3672SOL    HW111915   5.988   2.085   0.414
 3672SOL    HW211916   5.905   1.948   0.444
 3673SOL     OW11917   3.638   1.160   6.186
 3673SOL    HW111918   3.562   1.104   6.152
 3673SOL    HW211919   3.713   1.101   6.215
 3674SOL     OW11920   0.398   6.686   6.741
 3674SOL    HW111921   0.369   6.711   6.648
 3674SOL    HW211922   0.435   6.766   6.787
 3675SOL     OW11923   1.598   2.609   5.478
 3675SOL    HW111924   1.553   2.698   5.480
 3675SOL    HW211925   1.645   2.597   5.390
 3676SOL     OW11926   4.059   5.345   3.979
 3676SOL    HW111927   4.063   5.308   4.072
 3676SOL    HW211928   3.990   5.417   3.975
 3677SOL     OW11929   0.953   6.421   3.269
 3677SOL    HW111930   0.936   6.381   3.179
 3677SOL    HW211931   1.051   6.431   3.282
 3678SOL     OW11932   1.034   2.234   3.636
 3678SOL    HW111933   1.110   2.169   3.635
 3678SOL    HW211934   1.065   2.321   3.674
 3679SOL     OW11935   0.343   0.816   2.618
 3679SOL    HW111936   0.288   0.756   2.674
 3679SOL    HW211937   0.390   0.763   2.547
 3680SOL     OW11938   6.198   2.629   3.880
 3680SOL    HW111939   6.143   2.712   3.887
 3680SOL    HW211940   6.201   2.583   3.969
 3681SOL     OW11941   1.086   0.893   5.596
 3681SOL    HW111942   1.015   0.962   5.585
 3681SOL    HW211943   1.066   0.814   5.538
 3682SOL     OW11944   6.096   2.078   5.724
 3682SOL    HW111945   6.101   2.177   5.737
 3682SOL    HW211946   6.015   2.042   5.771
 3683SOL     OW11947   6.251   6.936   4.777
 3683SOL    HW111948   6.318   6.873   4.814
 3683SOL    HW211949   6.256   6.936   4.677
 3684SOL     OW11950   1.838   2.926   1.616
 3684SOL    HW111951   1.904   2.912   1.543
 3684SOL    HW211952   1.819   2.839   1.661
 3685SOL     OW11953   6.145   5.889   6.316
 3685SOL    HW111954   6.090   5.972   6.317
 3685SOL    HW211955   6.090   5.813   6.282
 3686SOL     OW11956   6.593   5.009   2.799
 3686SOL    HW111957   6.621   4.914   2.788
 3686SOL    HW211958   6.673   5.066   2.816
 3687SOL     OW11959   3.199   6.446   6.078
 3687SOL    HW111960   3.185   6.358   6.125
 3687SOL    HW211961   3.110   6.490   6.064
 3688SOL     OW11962   0.776   3.748   6.832
 3688SOL    HW111963   0.780   3.655   6.869
 3688SOL    HW211964   0.684   3.784   6.841
 3689SOL     OW11965   0.813   0.354   5.118
 3689SOL    HW111966   0.821   0.385   5.023
 3689SOL    HW211967   0.794   0.433   5.177
 3690SOL     OW11968   4.332   0.754   6.359
 3690SOL    HW111969   4.385   0.815   6.301
 3690SOL    HW211970   4.234   0.775   6.350
 3691SOL     OW11971   2.397   2.951   6.677
 3691SOL    HW111972   2.414   2.873   6.736
 3691SOL    HW211973   2.460   3.025   6.701
 3692SOL     OW11974   0.797   5.674   4.487
 3692SOL    HW111975   0.848   5.727   4.555
 3692SOL    HW211976   0.853   5.596   4.457
 3693SOL     OW11977   1.715   2.406   3.276
 3693SOL    HW111978   1.616   2.420   3.270
 3693SOL    HW211979   1.735   2.308   3.273
 3694SOL     OW11980   0.940   5.596   3.456
 3694SOL    HW111981   0.954   5.684   3.410
 3694SOL    HW211982   1.017   5.578   3.516
 3695SOL     OW11983   0.510   2.348   2.884
 3695SOL    HW111984   0.417   2.367   2.853
 3695SOL    HW211985   0.509   2.267   2.942
 3696SOL     OW11986   4.780   5.949   6.131
 3696SOL    HW111987   4.810   5.932   6.037
 3696SOL    HW211988   4.752   6.045   6.140
 3697SOL     OW11989   6.854   6.655   3.517
 3697SOL    HW111990   6.934   6.595   3.520
 3697SOL    HW211991   6.816   6.665   3.609
 3698SOL     OW11992   3.896   0.424   5.603
 3698SOL    HW111993   3.832   0.366   5.553
 3698SOL    HW211994   3.948   0.479   5.539
 3699SOL     OW11995   6.984   3.808   2.650
 3699SOL    HW111996   7.005   3.874   2.578
 3699SOL    HW211997   6.951   3.723   2.610
 3700SOL     OW11998   6.052   0.606   4.091
 3700SOL    HW111999   6.027   0.638   4.182
 3700SOL    HW212000   6.066   0.507   4.094
 3701SOL     OW12001   0.519   0.820   4.215
 3701SOL    HW112002   0.616   0.804   4.199
 3701SOL    HW212003   0.478   0.738   4.254
 3702SOL     OW12004   4.261   6.998   1.865
 3702SOL    HW112005   4.279   0.045   1.938
 3702SOL    HW212006   4.340   6.937   1.855
 3703SOL     OW12007   4.125   3.856   5.877
 3703SOL    HW112008   4.207   3.805   5.902
 3703SOL    HW212009   4.148   3.953   5.865
 3704SOL     OW12010   3.074   1.019   2.413
 3704SOL    HW112011   3.147   0.976   2.359
 3704SOL    HW212012   3.045   0.957   2.485
 3705SOL     OW12013   4.774   7.010   3.864
 3705SOL    HW112014   4.761   6.915   3.837
 3705SOL    HW212015   4.803   0.045   3.785
 3706SOL     OW12016   2.100   2.842   4.660
 3706SOL    HW112017   2.171   2.827   4.729
 3706SOL    HW212018   2.044   2.920   4.685
 3707SOL     OW12019   5.491   3.009   5.484
 3707SOL    HW112020   5.426   2.932   5.482
 3707SOL    HW212021   5.453   3.083   5.539
 3708SOL     OW12022   5.724   0.391   6.379
 3708SOL    HW112023   5.754   0.449   6.454
 3708SOL    HW212024   5.652   0.330   6.411
 3709SOL     OW12025   3.346   1.049   6.150
 3709SOL    HW112026   3.326   1.118   6.080
 3709SOL    HW212027   3.355   0.959   6.107
 3710SOL     OW12028   6.602   6.068   0.081
 3710SOL    HW112029   6.579   6.122   0.000
 3710SOL    HW212030   6.530   6.001   0.098
 3711SOL     OW12031   0.591   5.704   2.686
 3711SOL    HW112032   0.495   5.687   2.666
 3711SOL    HW212033   0.641   5.719   2.601
 3712SOL     OW12034   6.756   6.469   6.776
 3712SOL    HW112035   6.802   6.433   6.857
 3712SOL    HW212036   6.757   6.400   6.704
 3713SOL     OW12037   2.221   5.977   4.844
 3713SOL    HW112038   2.309   6.023   4.856
 3713SOL    HW212039   2.155   6.041   4.806
 3714SOL     OW12040   4.955   6.454   4.963
 3714SOL    HW112041   4.948   6.545   5.003
 3714SOL    HW212042   4.870   6.404   4.978
 3715SOL     OW12043   5.830   4.384   4.726
 3715SOL    HW112044   5.852   4.288   4.710
 3715SOL    HW212045   5.803   4.427   4.640
 3716SOL     OW12046   6.824   0.283   4.285
 3716SOL    HW112047   6.766   0.206   4.259
 3716SOL    HW212048   6.766   0.359   4.314
 3717SOL     OW12049   5.862   5.760   0.450
 3717SOL    HW112050   5.959   5.747   0.469
 3717SOL    HW212051   5.851   5.826   0.375
 3718SOL     OW12052   1.403   6.808   6.697
 3718SOL    HW112053   1.466   6.822   6.774
 3718SOL    HW212054   1.360   6.896   6.673
 3719SOL     OW12055   4.841   4.634   0.668
 3719SOL    HW112056   4.881   4.542   0.673
 3719SOL    HW212057   4.767   4.642   0.735
 3720SOL     OW12058   6.419   2.096   6.584
 3720SOL    HW112059   6.404   2.134   6.675
 3720SOL    HW212060   6.517   2.082   6.569
 3721SOL     OW12061   5.502   4.814   6.893
 3721SOL    HW112062   5.544   4.874   6.825
 3721SOL    HW212063   5.458   4.870   6.964
 3722SOL     OW12064   6.716   6.043   2.398
 3722SOL    HW112065   6.683   5.973   2.461
 3722SOL    HW212066   6.774   6.000   2.329
 3723SOL     OW12067   5.533   6.803   2.053
 3723SOL    HW112068   5.612   6.809   1.992
 3723SOL    HW212069   5.564   6.795   2.148
 3724SOL     OW12070   1.704   4.876   6.765
 3724SOL    HW112071   1.684   4.862   6.669
 3724SOL    HW212072   1.682   4.793   6.817
 3725SOL     OW12073   6.244   6.399   6.912
 3725SOL    HW112074   6.332   6.412   6.956
 3725SOL    HW212075   6.184   6.346   6.972
 3726SOL     OW12076   6.893   4.122   1.319
 3726SOL    HW112077   6.945   4.045   1.282
 3726SOL    HW212078   6.810   4.088   1.363
 3727SOL     OW12079   0.355   3.415   5.631
 3727SOL    HW112080   0.359   3.339   5.696
 3727SOL    HW212081   0.407   3.493   5.667
 3728SOL     OW12082   2.136   3.560   0.598
 3728SOL    HW112083   2.221   3.584   0.646
 3728SOL    HW212084   2.112   3.633   0.534
 3729SOL     OW12085   0.722   2.266   2.686
 3729SOL    HW112086   0.752   2.313   2.603
 3729SOL    HW212087   0.649   2.318   2.729
 3730SOL     OW12088   2.688   0.212   0.372
 3730SOL    HW112089   2.709   0.129   0.424
 3730SOL    HW212090   2.762   0.231   0.308
 3731SOL     OW12091   5.423   2.022   0.255
 3731SOL    HW112092   5.342   2.043   0.310
 3731SOL    HW212093   5.493   2.092   0.272
 3732SOL     OW12094   2.146   3.181   5.977
 3732SOL    HW112095   2.221   3.193   6.042
 3732SOL    HW212096   2.061   3.164   6.027
 3733SOL     OW12097   2.333   3.972   1.767
 3733SOL    HW112098   2.326   3.997   1.863
 3733SOL    HW212099   2.425   3.935   1.749
 3734SOL     OW12100   4.704   1.427   2.064
 3734SOL    HW112101   4.728   1.437   2.160
 3734SOL    HW212102   4.669   1.334   2.048
 3735SOL     OW12103   1.406   2.241   2.360
 3735SOL    HW112104   1.429   2.306   2.433
 3735SOL    HW212105   1.309   2.218   2.366
 3736SOL     OW12106   0.328   2.887   0.657
 3736SOL    HW112107   0.371   2.803   0.624
 3736SOL    HW212108   0.356   2.964   0.600
 3737SOL     OW12109   5.025   0.283   3.389
 3737SOL    HW112110   4.977   0.240   3.312
 3737SOL    HW212111   5.118   0.306   3.361
 3738SOL     OW12112   6.104   5.831   3.149
 3738SOL    HW112113   6.042   5.897   3.108
 3738SOL    HW212114   6.099   5.837   3.249
 3739SOL     OW12115   1.690   3.955   2.656
 3739SOL    HW112116   1.649   3.954   2.565
 3739SOL    HW212117   1.678   4.045   2.697
 3740SOL     OW12118   4.340   0.987   6.791
 3740SOL    HW112119   4.417   0.927   6.807
 3740SOL    HW212120   4.327   1.000   6.693
 3741SOL     OW12121   4.313   3.806   0.986
 3741SOL    HW112122   4.292   3.709   0.972
 3741SOL    HW212123   4.260   3.841   1.063
 3742SOL     OW12124   2.921   2.568   5.741
 3742SOL    HW112125   2.995   2.524   5.690
 3742SOL    HW212126   2.849   2.596   5.678
 3743SOL     OW12127   6.041   5.032   0.541
 3743SOL    HW112128   5.952   5.047   0.497
 3743SOL    HW212129   6.099   4.978   0.480
 3744SOL     OW12130   0.676   5.302   4.477
 3744SOL    HW112131   0.635   5.248   4.403
 3744SOL    HW212132   0.683   5.245   4.559
 3745SOL     OW12133   3.376   5.270   2.880
 3745SOL    HW112134   3.451   5.210   2.854
 3745SOL    HW212135   3.413   5.352   2.925
 3746SOL     OW12136   4.525   1.227   1.481
 3746SOL    HW112137   4.464   1.286   1.427
 3746SOL    HW212138   4.533   1.263   1.574
 3747SOL     OW12139   3.412   6.611   6.163
 3747SOL    HW112140   3.391   6.708   6.151
 3747SOL    HW212141   3.329   6.557   6.147
 3748SOL     OW12142   5.630   1.130   1.564
 3748SOL    HW112143   5.630   1.229   1.583
 3748SOL    HW212144   5.591   1.082   1.642
 3749SOL     OW12145   1.872   0.117   4.433
 3749SOL    HW112146   1.878   0.072   4.344
 3749SOL    HW212147   1.910   0.058   4.504
 3750SOL     OW12148   1.494   3.686   0.100
 3750SOL    HW112149   1.395   3.675   0.107
 3750SOL    HW212150   1.528   3.734   0.181
 3751SOL     OW12151   0.195   3.720   2.791
 3751SOL    HW112152   0.117   3.755   2.739
 3751SOL    HW212153   0.176   3.627   2.821
 3752SOL     OW12154   5.108   0.924   5.987
 3752SOL    HW112155   5.111   0.960   6.080
 3752SOL    HW212156   5.144   0.831   5.986
 3753SOL     OW12157   6.402   1.043   4.461
 3753SOL    HW112158   6.450   1.026   4.375
 3753SOL    HW212159   6.410   1.140   4.485
 3754SOL     OW12160   2.233   1.019   2.023
 3754SOL    HW112161   2.162   0.999   2.090
 3754SOL    HW212162   2.193   1.067   1.945
 3755SOL     OW12163   3.067   4.946   4.458
 3755SOL    HW112164   3.159   4.916   4.434
 3755SOL    HW212165   3.041   4.909   4.547
 3756SOL     OW12166   2.476   5.902   0.322
 3756SOL    HW112167   2.509   5.968   0.390
 3756SOL    HW212168   2.377   5.906   0.316
 3757SOL     OW12169   6.270   4.987   1.813
 3757SOL    HW112170   6.285   4.892   1.839
 3757SOL    HW212171   6.357   5.028   1.785
 3758SOL     OW12172   1.706   0.350   3.872
 3758SOL    HW112173   1.669   0.353   3.779
 3758SOL    HW212174   1.804   0.332   3.868
 3759SOL     OW12175   5.586   1.154   3.895
 3759SOL    HW112176   5.567   1.237   3.947
 3759SOL    HW212177   5.505   1.128   3.843
 3760SOL     OW12178   0.177   0.423   3.873
 3760SOL    HW112179   0.246   0.474   3.822
 3760SOL    HW212180   0.121   0.486   3.926
 3761SOL     OW12181   5.403   1.529   4.537
 3761SOL    HW112182   5.451   1.612   4.511
 3761SOL    HW212183   5.345   1.547   4.617
 3762SOL     OW12184   1.406   4.124   2.165
 3762SOL    HW112185   1.392   4.198   2.099
 3762SOL    HW212186   1.465   4.054   2.125
 3763SOL     OW12187   0.103   4.288   0.446
 3763SOL    HW112188   0.074   4.220   0.512
 3763SOL    HW212189   0.022   4.336   0.409
 3764SOL     OW12190   2.069   0.120   3.535
 3764SOL    HW112191   2.139   0.049   3.533
 3764SOL    HW212192   2.101   0.197   3.591
 3765SOL     OW12193   6.464   1.729   1.206
 3765SOL    HW112194   6.462   1.815   1.257
 3765SOL    HW212195   6.556   1.717   1.167
 3766SOL     OW12196   1.916   2.839   3.441
 3766SOL    HW112197   1.892   2.742   3.441
 3766SOL    HW212198   1.833   2.894   3.437
 3767SOL     OW12199   3.111   4.389   6.132
 3767SOL    HW112200   3.166   4.434   6.062
 3767SOL    HW212201   3.022   4.433   6.139
 3768SOL     OW12202   1.247   0.897   4.667
 3768SOL    HW112203   1.156   0.911   4.705
 3768SOL    HW212204   1.279   0.982   4.624
 3769SOL     OW12205   5.715   5.559   4.621
 3769SOL    HW112206   5.633   5.570   4.565
 3769SOL    HW212207   5.690   5.566   4.718
 3770SOL     OW12208   0.965   1.236   0.634
 3770SOL    HW112209   1.051   1.202   0.595
 3770SOL    HW212210   0.909   1.276   0.561
 3771SOL     OW12211   6.814   5.454   0.763
 3771SOL    HW112212   6.826   5.374   0.822
 3771SOL    HW212213   6.724   5.495   0.779
 3772SOL     OW12214   1.069   6.130   0.821
 3772SOL    HW112215   1.042   6.219   0.784
 3772SOL    HW212216   1.041   6.058   0.757
 3773SOL     OW12217   5.685   3.497   5.944
 3773SOL    HW112218   5.610   3.531   5.887
 3773SOL    HW212219   5.747   3.573   5.966
 3774SOL     OW12220   5.422   5.566   1.634
 3774SOL    HW112221   5.422   5.466   1.629
 3774SOL    HW212222   5.343   5.603   1.586
 3775SOL     OW12223   4.111   4.866   3.131
 3775SOL    HW112224   4.023   4.867   3.083
 3775SOL    HW212225   4.178   4.816   3.076
 3776SOL     OW12226   3.985   2.916   6.172
 3776SOL    HW112227   4.024   2.963   6.252
 3776SOL    HW212228   4.023   2.955   6.088
 3777SOL     OW12229   2.650   6.710   4.284
 3777SOL    HW112230   2.573   6.736   4.226
 3777SOL    HW212231   2.715   6.655   4.231
 3778SOL     OW12232   3.047   6.185   4.380
 3778SOL    HW112233   3.077   6.167   4.474
 3778SOL    HW212234   2.977   6.118   4.355
 3779SOL     OW12235   6.969   5.357   0.568
 3779SOL    HW112236   6.906   5.384   0.641
 3779SOL    HW212237   7.003   5.439   0.521
 3780SOL     OW12238   0.014   2.612   1.997
 3780SOL    HW112239   0.067   2.547   2.052
 3780SOL    HW212240   7.017   2.696   2.051
 3781SOL     OW12241   1.551   6.720   5.328
 3781SOL    HW112242   1.552   6.621   5.335
 3781SOL    HW212243   1.634   6.758   5.369
 3782SOL     OW12244   4.090   6.433   1.868
 3782SOL    HW112245   4.165   6.367   1.870
 3782SOL    HW212246   4.017   6.399   1.809
 3783SOL     OW12247   5.518   4.933   5.512
 3783SOL    HW112248   5.449   4.861   5.504
 3783SOL    HW212249   5.607   4.896   5.486
 3784SOL     OW12250   5.326   2.438   2.674
 3784SOL    HW112251   5.414   2.449   2.628
 3784SOL    HW212252   5.293   2.526   2.707
 3785SOL     OW12253   0.792   2.865   4.660
 3785SOL    HW112254   0.812   2.947   4.607
 3785SOL    HW212255   0.764   2.892   4.752
 3786SOL     OW12256   2.771   2.128   4.109
 3786SOL    HW112257   2.765   2.030   4.130
 3786SOL    HW212258   2.681   2.170   4.120
 3787SOL     OW12259   4.136   0.636   2.524
 3787SOL    HW112260   4.236   0.643   2.526
 3787SOL    HW212261   4.104   0.652   2.431
 3788SOL     OW12262   0.547   3.636   5.170
 3788SOL    HW112263   0.646   3.636   5.181
 3788SOL    HW212264   0.522   3.579   5.092
 3789SOL     OW12265   1.075   2.211   2.748
 3789SOL    HW112266   1.003   2.214   2.817
 3789SOL    HW212267   1.061   2.133   2.688
 3790SOL     OW12268   0.661   5.897   0.503
 3790SOL    HW112269   0.564   5.886   0.526
 3790SOL    HW212270   0.679   5.992   0.479
 3791SOL     OW12271   5.488   1.156   5.604
 3791SOL    HW112272   5.541   1.181   5.523
 3791SOL    HW212273   5.414   1.222   5.617
 3792SOL     OW12274   0.772   0.603   4.171
 3792SOL    HW112275   0.846   0.669   4.159
 3792SOL    HW212276   0.772   0.571   4.266
 3793SOL     OW12277   6.173   6.457   0.648
 3793SOL    HW112278   6.176   6.393   0.571
 3793SOL    HW212279   6.192   6.407   0.733
 3794SOL     OW12280   1.818   3.887   1.073
 3794SOL    HW112281   1.887   3.892   1.145
 3794SOL    HW212282   1.850   3.826   1.001
 3795SOL     OW12283   2.803   5.775   0.860
 3795SOL    HW112284   2.807   5.862   0.812
 3795SOL    HW212285   2.854   5.782   0.946
 3796SOL     OW12286   3.988   1.830   1.074
 3796SOL    HW112287   3.938   1.812   0.990
 3796SOL    HW212288   4.075   1.781   1.073
 3797SOL     OW12289   1.143   4.107   2.595
 3797SOL    HW112290   1.201   4.081   2.672
 3797SOL    HW212291   1.047   4.098   2.621
 3798SOL     OW12292   2.929   6.710   3.159
 3798SOL    HW112293   2.888   6.668   3.241
 3798SOL    HW212294   2.872   6.690   3.080
 3799SOL     OW12295   6.814   2.332   2.794
 3799SOL    HW112296   6.892   2.377   2.837
 3799SOL    HW212297   6.772   2.393   2.727
 3800SOL     OW12298   5.834   1.728   3.139
 3800SOL    HW112299   5.883   1.690   3.216
 3800SOL    HW212300   5.863   1.823   3.124
 3801SOL     OW12301   5.359   6.579   2.522
 3801SOL    HW112302   5.268   6.619   2.518
 3801SOL    HW212303   5.418   6.622   2.454
 3802SOL     OW12304   0.135   1.844   2.213
 3802SOL    HW112305   0.067   1.917   2.205
 3802SOL    HW212306   0.109   1.768   2.154
 3803SOL     OW12307   3.184   4.015   4.051
 3803SOL    HW112308   3.111   4.008   4.120
 3803SOL    HW212309   3.271   3.990   4.093
 3804SOL     OW12310   3.808   0.380   4.685
 3804SOL    HW112311   3.896   0.406   4.724
 3804SOL    HW212312   3.753   0.333   4.754
 3805SOL     OW12313   2.286   3.086   0.787
 3805SOL    HW112314   2.325   3.022   0.721
 3805SOL    HW212315   2.194   3.056   0.813
 3806SOL     OW12316   4.157   4.511   6.195
 3806SOL    HW112317   4.198   4.452   6.264
 3806SOL    HW212318   4.145   4.460   6.110
 3807SOL     OW12319   1.550   5.182   4.099
 3807SOL    HW112320   1.561   5.224   4.189
 3807SOL    HW212321   1.498   5.243   4.039
 3808SOL     OW12322   4.854   0.312   6.053
 3808SOL    HW112323   4.953   0.309   6.063
 3808SOL    HW212324   4.827   0.395   6.004
 3809SOL     OW12325   5.578   1.993   1.255
 3809SOL    HW112326   5.538   1.906   1.226
 3809SOL    HW212327   5.507   2.048   1.299
 3810SOL     OW12328   6.459   2.302   2.846
 3810SOL    HW112329   6.473   2.331   2.941
 3810SOL    HW212330   6.546   2.271   2.808
 3811SOL     OW12331   0.147   5.346   4.823
 3811SOL    HW112332   0.107   5.266   4.776
 3811SOL    HW212333   0.246   5.343   4.815
 3812SOL     OW12334   3.558   6.097   6.819
 3812SOL    HW112335   3.464   6.119   6.797
 3812SOL    HW212336   3.560   6.038   6.900
 3813SOL     OW12337   6.337   3.730   0.819
 3813SOL    HW112338   6.377   3.807   0.769
 3813SOL    HW212339   6.325   3.755   0.915
 3814SOL     OW12340   6.929   6.938   3.954
 3814SOL    HW112341   6.859   6.987   3.903
 3814SOL    HW212342   7.001   6.908   3.891
 3815SOL     OW12343   5.416   3.088   0.481
 3815SOL    HW112344   5.513   3.101   0.463
 3815SOL    HW212345   5.401   3.072   0.579
 3816SOL     OW12346   0.864   6.561   5.405
 3816SOL    HW112347   0.831   6.533   5.495
 3816SOL    HW212348   0.845   6.658   5.391
 3817SOL     OW12349   4.924   3.729   2.668
 3817SOL    HW112350   4.880   3.802   2.616
 3817SOL    HW212351   4.993   3.769   2.729
 3818SOL     OW12352   0.432   0.383   1.110
 3818SOL    HW112353   0.368   0.447   1.154
 3818SOL    HW212354   0.520   0.428   1.095
 3819SOL     OW12355   6.648   4.532   2.927
 3819SOL    HW112356   6.669   4.434   2.935
 3819SOL    HW212357   6.549   4.544   2.922
 3820SOL     OW12358   5.269   6.702   3.926
 3820SOL    HW112359   5.280   6.741   4.018
 3820SOL    HW212360   5.175   6.716   3.895
 3821SOL     OW12361   0.457   6.977   6.648
 3821SOL    HW112362   0.535   0.020   6.658
 3821SOL    HW212363   0.397   6.986   6.727
 3822SOL     OW12364   3.534   0.795   0.233
 3822SOL    HW112365   3.619   0.743   0.239
 3822SOL    HW212366   3.459   0.741   0.269
 3823SOL     OW12367   5.038   4.641   6.077
 3823SOL    HW112368   4.973   4.678   6.011
 3823SOL    HW212369   5.062   4.712   6.144
 3824SOL     OW12370   1.092   2.973   0.283
 3824SOL    HW112371   1.016   3.030   0.315
 3824SOL    HW212372   1.055   2.894   0.234
 3825SOL     OW12373   0.961   4.437   1.010
 3825SOL    HW112374   0.880   4.494   0.996
 3825SOL    HW212375   0.942   4.369   1.082
 3826SOL     OW12376   6.741   4.282   2.689
 3826SOL    HW112377   6.770   4.191   2.720
 3826SOL    HW212378   6.731   4.281   2.589
 3827SOL     OW12379   0.817   0.691   1.098
 3827SOL    HW112380   0.849   0.754   1.028
 3827SOL    HW212381   0.804   0.740   1.184
 3828SOL     OW12382   3.780   4.131   4.743
 3828SOL    HW112383   3.845   4.057   4.763
 3828SOL    HW212384   3.764   4.185   4.826
 3829SOL     OW12385   0.651   5.285   2.386
 3829SOL    HW112386   0.636   5.301   2.484
 3829SOL    HW212387   0.633   5.369   2.335
 3830SOL     OW12388   0.220   0.637   4.977
 3830SOL    HW112389   0.217   0.576   4.898
 3830SOL    HW212390   0.310   0.630   5.020
 3831SOL     OW12391   4.381   1.847   3.150
 3831SOL    HW112392   4.358   1.944   3.156
 3831SOL    HW212393   4.297   1.794   3.138
 3832SOL     OW12394   0.392   0.081   1.707
 3832SOL    HW112395   0.404   0.065   1.609
 3832SOL    HW212396   0.424   0.173   1.729
 3833SOL     OW12397   1.566   6.481   6.705
 3833SOL    HW112398   1.562   6.577   6.679
 3833SOL    HW212399   1.606   6.473   6.796
 3834SOL     OW12400   4.410   4.482   1.419
 3834SOL    HW112401   4.384   4.423   1.495
 3834SOL    HW212402   4.484   4.543   1.448
 3835SOL     OW12403   3.875   5.970   5.450
 3835SOL    HW112404   3.810   6.001   5.519
 3835SOL    HW212405   3.848   5.880   5.416
 3836SOL     OW12406   0.537   4.855   6.037
 3836SOL    HW112407   0.595   4.798   5.978
 3836SOL    HW212408   0.514   4.940   5.989
 3837SOL     OW12409   3.726   5.221   5.195
 3837SOL    HW112410   3.786   5.146   5.165
 3837SOL    HW212411   3.643   5.183   5.236
 3838SOL     OW12412   1.726   1.081   3.664
 3838SOL    HW112413   1.769   1.020   3.730
 3838SOL    HW212414   1.707   1.031   3.579
 3839SOL     OW12415   4.480   0.491   3.214
 3839SOL    HW112416   4.513   0.490   3.120
 3839SOL    HW212417   4.552   0.523   3.275
 3840SOL     OW12418   2.496   1.138   6.118
 3840SOL    HW112419   2.530   1.044   6.108
 3840SOL    HW212420   2.568   1.194   6.160
 3841SOL     OW12421   0.660   4.512   4.058
 3841SOL    HW112422   0.602   4.498   4.138
 3841SOL    HW212423   0.723   4.435   4.049
 3842SOL     OW12424   2.522   2.599   4.186
 3842SOL    HW112425   2.459   2.521   4.196
 3842SOL    HW212426   2.564   2.619   4.275
 3843SOL     OW12427   5.427   3.348   1.571
 3843SOL    HW112428   5.499   3.416   1.559
 3843SOL    HW212429   5.418   3.294   1.487
 3844SOL     OW12430   1.340   4.739   0.184
 3844SOL    HW112431   1.296   4.651   0.199
 3844SOL    HW212432   1.363   4.749   0.087
 3845SOL     OW12433   2.183   6.392   0.037
 3845SOL    HW112434   2.199   6.488   0.061
 3845SOL    HW212435   2.269   6.351   0.007
 3846SOL     OW12436   0.823   3.087   4.508
 3846SOL    HW112437   0.725   3.098   4.492
 3846SOL    HW212438   0.868   3.176   4.498
 3847SOL     OW12439   5.519   2.063   4.494
 3847SOL    HW112440   5.424   2.064   4.462
 3847SOL    HW212441   5.559   1.973   4.476
 3848SOL     OW12442   4.643   2.752   3.164
 3848SOL    HW112443   4.680   2.785   3.251
 3848SOL    HW212444   4.584   2.673   3.181
 3849SOL     OW12445   0.336   6.962   6.372
 3849SOL    HW112446   0.385   6.972   6.459
 3849SOL    HW212447   0.261   0.009   6.369
 3850SOL     OW12448   3.097   3.085   1.341
 3850SOL    HW112449   3.089   3.184   1.337
 3850SOL    HW212450   3.157   3.059   1.417
 3851SOL     OW12451   0.003   4.541   3.635
 3851SOL    HW112452   0.090   4.591   3.635
 3851SOL    HW212453   6.968   4.570   3.556
 3852SOL     OW12454   3.753   6.931   4.222
 3852SOL    HW112455   3.805   7.014   4.200
 3852SOL    HW212456   3.736   6.879   4.138
 3853SOL     OW12457   2.255   1.687   3.449
 3853SOL    HW112458   2.200   1.770   3.435
 3853SOL    HW212459   2.194   1.610   3.466
 3854SOL     OW12460   1.369   3.255   3.071
 3854SOL    HW112461   1.359   3.161   3.038
 3854SOL    HW212462   1.466   3.276   3.081
 3855SOL     OW12463   3.927   6.273   0.532
 3855SOL    HW112464   3.927   6.264   0.433
 3855SOL    HW212465   3.885   6.360   0.558
 3856SOL     OW12466   0.918   1.850   6.091
 3856SOL    HW112467   0.897   1.763   6.135
 3856SOL    HW212468   0.910   1.839   5.992
 3857SOL     OW12469   1.762   6.279   5.201
 3857SOL    HW112470   1.849   6.301   5.245
 3857SOL    HW212471   1.734   6.186   5.224
 3858SOL     OW12472   3.144   1.448   5.911
 3858SOL    HW112473   3.070   1.416   5.970
 3858SOL    HW212474   3.124   1.540   5.878
 3859SOL     OW12475   5.918   1.293   0.912
 3859SOL    HW112476   6.012   1.275   0.943
 3859SOL    HW212477   5.854   1.236   0.964
 3860SOL     OW12478   1.787   0.905   4.640
 3860SOL    HW112479   1.849   0.836   4.679
 3860SOL    HW212480   1.757   0.967   4.712
 3861SOL     OW12481   4.537   6.042   2.682
 3861SOL    HW112482   4.491   6.029   2.594
 3861SOL    HW212483   4.588   5.960   2.706
 3862SOL     OW12484   0.769   0.473   4.450
 3862SOL    HW112485   0.670   0.475   4.439
 3862SOL    HW212486   0.803   0.380   4.435
 3863SOL     OW12487   5.894   1.648   0.102
 3863SOL    HW112488   5.795   1.640   0.116
 3863SOL    HW212489   5.917   1.741   0.075
 3864SOL     OW12490   2.616   0.561   4.728
 3864SOL    HW112491   2.574   0.622   4.796
 3864SOL    HW212492   2.596   0.595   4.636
 3865SOL     OW12493   4.526   1.081   0.703
 3865SOL    HW112494   4.602   1.115   0.758
 3865SOL    HW212495   4.441   1.093   0.753
 3866SOL     OW12496   3.734   1.029   0.016
 3866SOL    HW112497   3.802   1.068   0.079
 3866SOL    HW212498   3.759   1.050   6.940
 3867SOL     OW12499   1.538   4.160   3.225
 3867SOL    HW112500   1.611   4.097   3.249
 3867SOL    HW212501   1.454   4.110   3.207
 3868SOL     OW12502   4.239   0.452   6.700
 3868SOL    HW112503   4.329   0.411   6.683
 3868SOL    HW212504   4.242   0.550   6.682
 3869SOL     OW12505   6.440   3.252   4.041
 3869SOL    HW112506   6.483   3.192   3.974
 3869SOL    HW212507   6.467   3.346   4.023
 3870SOL     OW12508   6.872   6.674   2.030
 3870SOL    HW112509   6.778   6.644   2.013
 3870SOL    HW212510   6.895   6.662   2.127
 3871SOL     OW12511   3.150   6.801   3.324
 3871SOL    HW112512   3.160   6.899   3.342
 3871SOL    HW212513   3.059   6.783   3.286
 3872SOL     OW12514   3.058   3.133   4.378
 3872SOL    HW112515   3.028   3.151   4.285
 3872SOL    HW212516   3.072   3.220   4.426
 3873SOL     OW12517   5.184   3.967   1.274
 3873SOL    HW112518   5.133   3.955   1.188
 3873SOL    HW212519   5.244   4.047   1.265
 3874SOL     OW12520   4.247   0.534   0.481
 3874SOL    HW112521   4.233   0.610   0.545
 3874SOL    HW212522   4.322   0.477   0.513
 3875SOL     OW12523   1.784   3.056   3.814
 3875SOL    HW112524   1.719   3.114   3.862
 3875SOL    HW212525   1.874   3.063   3.857
 3876SOL     OW12526   3.302   5.271   1.134
 3876SOL    HW112527   3.237   5.345   1.153
 3876SOL    HW212528   3.287   5.238   1.041
 3877SOL     OW12529   6.672   2.650   1.057
 3877SOL    HW112530   6.771   2.652   1.072
 3877SOL    HW212531   6.625   2.642   1.145
 3878SOL     OW12532   4.647   5.920   4.618
 3878SOL    HW112533   4.647   5.856   4.695
 3878SOL    HW212534   4.563   5.974   4.619
 3879SOL     OW12535   5.550   5.545   0.415
 3879SOL    HW112536   5.542   5.468   0.478
 3879SOL    HW212537   5.570   5.628   0.467
 3880SOL     OW12538   4.829   4.065   4.484
 3880SOL    HW112539   4.831   4.000   4.559
 3880SOL    HW212540   4.923   4.089   4.458
 3881SOL     OW12541   2.021   3.587   1.323
 3881SOL    HW112542   2.066   3.604   1.411
 3881SOL    HW212543   1.922   3.586   1.336
 3882SOL     OW12544   0.693   1.333   6.955
 3882SOL    HW112545   0.726   1.258   6.898
 3882SOL    HW212546   0.753   1.412   6.944
 3883SOL     OW12547   3.961   1.016   2.385
 3883SOL    HW112548   4.058   1.022   2.360
 3883SOL    HW212549   3.905   1.046   2.309
 3884SOL     OW12550   0.408   5.419   2.328
 3884SOL    HW112551   0.331   5.483   2.320
 3884SOL    HW212552   0.411   5.384   2.422
 3885SOL     OW12553   6.215   6.042   3.681
 3885SOL    HW112554   6.281   6.008   3.748
 3885SOL    HW212555   6.212   5.981   3.603
 3886SOL     OW12556   4.234   5.343   5.173
 3886SOL    HW112557   4.293   5.404   5.226
 3886SOL    HW212558   4.181   5.285   5.236
 3887SOL     OW12559   0.714   6.892   7.017
 3887SOL    HW112560   0.724   6.800   6.982
 3887SOL    HW212561   0.629   6.932   6.984
 3888SOL     OW12562   6.485   6.984   5.229
 3888SOL    HW112563   6.559   6.949   5.171
 3888SOL    HW212564   6.519   0.042   5.283
 3889SOL     OW12565   6.850   2.802   0.479
 3889SOL    HW112566   6.935   2.800   0.427
 3889SOL    HW212567   6.865   2.848   0.566
 3890SOL     OW12568   6.048   5.218   3.561
 3890SOL    HW112569   6.102   5.135   3.573
 3890SOL    HW212570   5.964   5.197   3.512
 3891SOL     OW12571   5.140   4.003   4.046
 3891SOL    HW112572   5.051   4.029   4.083
 3891SOL    HW212573   5.142   4.018   3.947
 3892SOL     OW12574   0.829   2.606   0.966
 3892SOL    HW112575   0.893   2.534   0.996
 3892SOL    HW212576   0.736   2.579   0.989
 3893SOL     OW12577   4.012   4.112   0.625
 3893SOL    HW112578   4.081   4.171   0.583
 3893SOL    HW212579   3.964   4.060   0.554
 3894SOL     OW12580   4.777   0.974   6.908
 3894SOL    HW112581   4.693   1.000   6.956
 3894SOL    HW212582   4.763   0.886   6.862
 3895SOL     OW12583   0.852   0.164   5.566
 3895SOL    HW112584   0.769   0.116   5.593
 3895SOL    HW212585   0.832   0.260   5.550
 3896SOL     OW12586   0.865   1.059   6.041
 3896SOL    HW112587   0.960   1.044   6.011
 3896SOL    HW212588   0.842   0.993   6.112
 3897SOL     OW12589   4.055   5.712   2.504
 3897SOL    HW112590   3.972   5.729   2.450
 3897SOL    HW212591   4.045   5.753   2.594
 3898SOL     OW12592   2.558   2.308   6.251
 3898SOL    HW112593   2.596   2.283   6.162
 3898SOL    HW212594   2.518   2.226   6.294
 3899SOL     OW12595   4.332   6.680   5.851
 3899SOL    HW112596   4.369   6.717   5.936
 3899SOL    HW212597   4.258   6.739   5.819
 3900SOL     OW12598   4.420   2.411   3.798
 3900SOL    HW112599   4.359   2.360   3.859
 3900SOL    HW212600   4.454   2.493   3.846
 3901SOL     OW12601   3.213   0.607   6.501
 3901SOL    HW112602   3.154   0.687   6.492
 3901SOL    HW212603   3.289   0.628   6.562
 3902SOL     OW12604   6.720   2.940   1.860
 3902SOL    HW112605   6.665   2.910   1.938
 3902SOL    HW212606   6.746   3.036   1.872
 3903SOL     OW12607   3.609   6.696   0.183
 3903SOL    HW112608   3.585   6.671   0.276
 3903SOL    HW212609   3.686   6.760   0.184
 3904SOL     OW12610   1.960   1.038   6.136
 3904SOL    HW112611   2.008   0.958   6.099
 3904SOL    HW212612   1.979   1.045   6.234
 3905SOL     OW12613   6.674   6.897   6.087
 3905SOL    HW112614   6.582   6.890   6.049
 3905SOL    HW212615   6.741   6.869   6.018
 3906SOL     OW12616   5.992   6.464   5.175
 3906SOL    HW112617   5.896   6.493   5.175
 3906SOL    HW212618   6.029   6.473   5.267
 3907SOL     OW12619   6.226   0.914   4.050
 3907SOL    HW112620   6.217   0.962   3.963
 3907SOL    HW212621   6.192   0.821   4.041
 3908SOL     OW12622   0.799   2.268   6.719
 3908SOL    HW112623   0.851   2.204   6.775
 3908SOL    HW212624   0.716   2.224   6.685
 3909SOL     OW12625   6.231   6.254   5.039
 3909SOL    HW112626   6.186   6.325   4.985
 3909SOL    HW212627   6.328   6.277   5.049
 3910SOL     OW12628   3.230   3.662   2.747
 3910SOL    HW112629   3.170   3.656   2.668
 3910SOL    HW212630   3.193   3.609   2.822
 3911SOL     OW12631   5.603   1.730   5.635
 3911SOL    HW112632   5.570   1.649   5.586
 3911SOL    HW212633   5.545   1.809   5.612
 3912SOL     OW12634   5.248   0.990   5.521
 3912SOL    HW112635   5.240   0.893   5.499
 3912SOL    HW212636   5.344   1.017   5.517
 3913SOL     OW12637   2.838   6.491   5.741
 3913SOL    HW112638   2.789   6.569   5.778
 3913SOL    HW212639   2.780   6.445   5.673
 3914SOL     OW12640   2.997   1.067   1.739
 3914SOL    HW112641   3.088   1.026   1.732
 3914SOL    HW212642   2.933   1.016   1.682
 3915SOL     OW12643   4.949   5.632   1.068
 3915SOL    HW112644   4.924   5.694   1.142
 3915SOL    HW212645   4.986   5.684   0.991
 3916SOL     OW12646   0.915   6.856   4.082
 3916SOL    HW112647   0.897   6.951   4.104
 3916SOL    HW212648   0.958   6.811   4.161
 3917SOL     OW12649   6.387   5.886   0.046
 3917SOL    HW112650   6.418   5.822   0.116
 3917SOL    HW212651   6.305   5.933   0.077
 3918SOL     OW12652   5.728   5.471   1.611
 3918SOL    HW112653   5.662   5.509   1.547
 3918SOL    HW212654   5.779   5.546   1.655
 3919SOL     OW12655   4.095   6.509   0.269
 3919SOL    HW112656   4.100   6.579   0.197
 3919SOL    HW212657   4.040   6.543   0.345
 3920SOL     OW12658   3.573   3.440   0.684
 3920SOL    HW112659   3.573   3.471   0.779
 3920SOL    HW212660   3.485   3.461   0.642
 3921SOL     OW12661   0.092   3.571   1.718
 3921SOL    HW112662   0.116   3.491   1.662
 3921SOL    HW212663   0.080   3.650   1.658
 3922SOL     OW12664   6.601   3.647   2.181
 3922SOL    HW112665   6.661   3.669   2.258
 3922SOL    HW212666   6.511   3.688   2.197
 3923SOL     OW12667   6.891   1.220   0.239
 3923SOL    HW112668   6.912   1.225   0.336
 3923SOL    HW212669   6.921   1.305   0.194
 3924SOL     OW12670   6.127   4.982   3.698
 3924SOL    HW112671   6.103   4.996   3.794
 3924SOL    HW212672   6.137   4.884   3.680
 3925SOL     OW12673   2.168   5.110   1.498
 3925SOL    HW112674   2.210   5.164   1.425
 3925SOL    HW212675   2.212   5.021   1.504
 3926SOL     OW12676   6.355   4.900   2.778
 3926SOL    HW112677   6.414   4.834   2.732
 3926SOL    HW212678   6.406   4.985   2.793
 3927SOL     OW12679   6.473   2.555   4.451
 3927SOL    HW112680   6.492   2.592   4.360
 3927SOL    HW212681   6.426   2.467   4.443
 3928SOL     OW12682   4.082   5.967   6.289
 3928SOL    HW112683   4.148   5.937   6.359
 3928SOL    HW212684   4.114   6.053   6.248
 3929SOL     OW12685   0.077   0.874   4.965
 3929SOL    HW112686   0.129   0.927   5.033
 3929SOL    HW212687   0.111   0.780   4.965
 3930SOL     OW12688   2.840   1.962   3.794
 3930SOL    HW112689   2.906   1.933   3.725
 3930SOL    HW212690   2.811   1.884   3.848
 3931SOL     OW12691   1.607   0.983   1.362
 3931SOL    HW112692   1.707   0.988   1.356
 3931SOL    HW212693   1.567   1.006   1.273
 3932SOL     OW12694   1.962   4.257   3.364
 3932SOL    HW112695   1.885   4.298   3.314
 3932SOL    HW212696   1.939   4.252   3.461
 3933SOL     OW12697   2.037   6.261   6.694
 3933SOL    HW112698   1.967   6.213   6.641
 3933SOL    HW212699   2.069   6.202   6.768
 3934SOL     OW12700   6.956   1.068   6.615
 3934SOL    HW112701   6.902   1.121   6.550
 3934SOL    HW212702   6.946   0.971   6.596
 3935SOL     OW12703   2.614   6.733   6.971
 3935SOL    HW112704   2.666   6.755   6.888
 3935SOL    HW212705   2.535   6.676   6.947
 3936SOL     OW12706   0.024   5.222   5.535
 3936SOL    HW112707   0.013   5.308   5.486
 3936SOL    HW212708   0.117   5.189   5.524
 3937SOL     OW12709   6.698   1.953   3.369
 3937SOL    HW112710   6.708   2.029   3.305
 3937SOL    HW212711   6.617   1.969   3.426
 3938SOL     OW12712   0.439   2.575   4.193
 3938SOL    HW112713   0.509   2.573   4.122
 3938SOL    HW212714   0.473   2.528   4.274
 3939SOL     OW12715   2.277   2.719   2.648
 3939SOL    HW112716   2.293   2.760   2.738
 3939SOL    HW212717   2.365   2.693   2.607
 3940SOL     OW12718   5.103   4.716   1.033
 3940SOL    HW112719   5.037   4.641   1.027
 3940SOL    HW212720   5.076   4.789   0.970
 3941SOL     OW12721   5.138   3.538   5.728
 3941SOL    HW112722   5.184   3.523   5.815
 3941SOL    HW212723   5.045   3.500   5.733
 3942SOL     OW12724   0.459   6.730   6.241
 3942SOL    HW112725   0.484   6.654   6.300
 3942SOL    HW212726   0.433   6.809   6.297
 3943SOL     OW12727   0.004   2.890   2.940
 3943SOL    HW112728   0.055   2.851   3.017
 3943SOL    HW212729   6.927   2.900   2.966
 3944SOL     OW12730   4.476   2.528   4.901
 3944SOL    HW112731   4.470   2.450   4.839
 3944SOL    HW212732   4.385   2.554   4.933
 3945SOL     OW12733   0.827   1.540   0.264
 3945SOL    HW112734   0.907   1.591   0.294
 3945SOL    HW212735   0.796   1.577   0.176
 3946SOL     OW12736   5.975   5.047   4.968
 3946SOL    HW112737   6.021   5.134   4.989
 3946SOL    HW212738   5.947   5.003   5.053
 3947SOL     OW12739   5.101   6.512   0.609
 3947SOL    HW112740   5.132   6.465   0.692
 3947SOL    HW212741   5.180   6.537   0.553
 3948SOL     OW12742   0.542   5.045   2.612
 3948SOL    HW112743   0.483   4.996   2.549
 3948SOL    HW212744   0.637   5.041   2.580
 3949SOL     OW12745   4.857   0.285   3.165
 3949SOL    HW112746   4.873   0.383   3.177
 3949SOL    HW212747   4.774   0.259   3.216
 3950SOL     OW12748   1.259   4.085   0.774
 3950SOL    HW112749   1.328   4.018   0.750
 3950SOL    HW212750   1.286   4.132   0.858
 3951SOL     OW12751   5.140   6.866   1.472
 3951SOL    HW112752   5.060   6.881   1.414
 3951SOL    HW212753   5.165   6.952   1.516
 3952SOL     OW12754   6.892   2.285   2.239
 3952SOL    HW112755   6.970   2.301   2.299
 3952SOL    HW212756   6.857   2.372   2.205
 3953SOL     OW12757   3.504   4.948   1.445
 3953SOL    HW112758   3.504   4.848   1.442
 3953SOL    HW212759   3.412   4.982   1.427
 3954SOL     OW12760   4.052   5.059   4.859
 3954SOL    HW112761   4.071   4.976   4.806
 3954SOL    HW212762   4.138   5.107   4.878
 3955SOL     OW12763   3.031   6.759   6.149
 3955SOL    HW112764   3.023   6.667   6.111
 3955SOL    HW212765   3.124   6.794   6.134
 3956SOL     OW12766   0.814   0.690   2.962
 3956SOL    HW112767   0.867   0.667   3.043
 3956SOL    HW212768   0.725   0.725   2.988
 3957SOL     OW12769   4.857   6.585   3.988
 3957SOL    HW112770   4.948   6.566   4.024
 3957SOL    HW212771   4.811   6.500   3.964
 3958SOL     OW12772   5.426   1.407   4.827
 3958SOL    HW112773   5.382   1.483   4.778
 3958SOL    HW212774   5.521   1.432   4.847
 3959SOL     OW12775   3.871   6.541   0.499
 3959SOL    HW112776   3.881   6.621   0.558
 3959SOL    HW212777   3.782   6.543   0.455
 3960SOL     OW12778   4.869   1.716   6.457
 3960SOL    HW112779   4.805   1.715   6.534
 3960SOL    HW212780   4.932   1.793   6.467
 3961SOL     OW12781   5.539   1.280   2.637
 3961SOL    HW112782   5.479   1.308   2.712
 3961SOL    HW212783   5.483   1.248   2.560
 3962SOL     OW12784   2.424   4.248   6.804
 3962SOL    HW112785   2.328   4.220   6.797
 3962SOL    HW212786   2.468   4.195   6.877
 3963SOL     OW12787   5.221   5.449   2.920
 3963SOL    HW112788   5.136   5.501   2.925
 3963SOL    HW212789   5.206   5.356   2.955
 3964SOL     OW12790   4.796   5.363   3.851
 3964SOL    HW112791   4.718   5.421   3.874
 3964SOL    HW212792   4.796   5.283   3.910
 3965SOL     OW12793   5.143   2.897   4.502
 3965SOL    HW112794   5.076   2.827   4.480
 3965SOL    HW212795   5.204   2.911   4.424
 3966SOL     OW12796   4.719   6.225   6.206
 3966SOL    HW112797   4.773   6.297   6.161
 3966SOL    HW212798   4.761   6.203   6.294
 3967SOL     OW12799   2.122   3.700   2.385
 3967SOL    HW112800   2.116   3.650   2.471
 3967SOL    HW212801   2.160   3.791   2.402
 3968SOL     OW12802   4.340   0.221   1.209
 3968SOL    HW112803   4.363   0.232   1.113
 3968SOL    HW212804   4.263   0.280   1.232
 3969SOL     OW12805   1.203   4.189   2.323
 3969SOL    HW112806   1.282   4.170   2.265
 3969SOL    HW212807   1.204   4.128   2.403
 3970SOL     OW12808   5.788   6.229   3.259
 3970SOL    HW112809   5.829   6.304   3.208
 3970SOL    HW212810   5.853   6.195   3.327
 3971SOL     OW12811   3.409   5.544   3.555
 3971SOL    HW112812   3.433   5.476   3.486
 3971SOL    HW212813   3.461   5.628   3.539
 3972SOL     OW12814   1.262   3.676   0.598
 3972SOL    HW112815   1.315   3.605   0.644
 3972SOL    HW212816   1.171   3.641   0.575
 3973SOL     OW12817   1.472   5.967   6.273
 3973SOL    HW112818   1.383   5.939   6.238
 3973SOL    HW212819   1.485   6.064   6.257
 3974SOL     OW12820   2.324   0.415   5.580
 3974SOL    HW112821   2.346   0.412   5.482
 3974SOL    HW212822   2.250   0.481   5.595
 3975SOL     OW12823   5.175   1.651   5.537
 3975SOL    HW112824   5.111   1.594   5.487
 3975SOL    HW212825   5.147   1.656   5.633
 3976SOL     OW12826   1.344   6.438   1.854
 3976SOL    HW112827   1.262   6.383   1.869
 3976SOL    HW212828   1.409   6.385   1.800
 3977SOL     OW12829   1.956   3.550   6.209
 3977SOL    HW112830   1.943   3.466   6.262
 3977SOL    HW212831   1.991   3.527   6.118
 3978SOL     OW12832   6.031   5.247   4.318
 3978SOL    HW112833   6.071   5.328   4.277
 3978SOL    HW212834   5.965   5.274   4.388
 3979SOL     OW12835   3.371   0.500   0.292
 3979SOL    HW112836   3.357   0.429   0.360
 3979SOL    HW212837   3.458   0.486   0.245
 3980SOL     OW12838   5.678   6.336   0.076
 3980SOL    HW112839   5.580   6.325   0.095
 3980SOL    HW212840   5.696   6.433   0.056
 3981SOL     OW12841   3.389   0.185   0.841
 3981SOL    HW112842   3.333   0.243   0.900
 3981SOL    HW212843   3.485   0.194   0.868
 3982SOL     OW12844   2.766   6.821   3.487
 3982SOL    HW112845   2.670   6.823   3.459
 3982SOL    HW212846   2.802   6.728   3.473
 3983SOL     OW12847   5.084   5.047   4.007
 3983SOL    HW112848   5.042   4.980   4.067
 3983SOL    HW212849   5.098   5.133   4.057
 3984SOL     OW12850   6.442   0.837   2.452
 3984SOL    HW112851   6.400   0.865   2.366
 3984SOL    HW212852   6.497   0.755   2.437
 3985SOL     OW12853   2.574   4.940   6.600
 3985SOL    HW112854   2.587   4.871   6.529
 3985SOL    HW212855   2.592   4.900   6.690
 3986SOL     OW12856   5.361   1.576   2.691
 3986SOL    HW112857   5.352   1.656   2.750
 3986SOL    HW212858   5.317   1.497   2.734
 3987SOL     OW12859   3.833   4.896   3.031
 3987SOL    HW112860   3.826   4.848   2.944
 3987SOL    HW212861   3.743   4.906   3.072
 3988SOL     OW12862   3.028   5.227   6.921
 3988SOL    HW112863   2.998   5.181   7.005
 3988SOL    HW212864   3.079   5.162   6.865
 3989SOL     OW12865   6.927   2.793   6.956
 3989SOL    HW112866   6.865   2.801   6.877
 3989SOL    HW212867   6.943   2.697   6.977
 3990SOL     OW12868   4.483   1.936   2.846
 3990SOL    HW112869   4.396   1.983   2.859
 3990SOL    HW212870   4.469   1.837   2.852
 3991SOL     OW12871   6.569   0.997   2.617
 3991SOL    HW112872   6.625   1.067   2.572
 3991SOL    HW212873   6.526   0.939   2.549
 3992SOL     OW12874   3.146   1.536   0.178
 3992SOL    HW112875   3.079   1.579   0.238
 3992SOL    HW212876   3.224   1.506   0.232
 3993SOL     OW12877   1.422   2.611   2.318
 3993SOL    HW112878   1.370   2.691   2.350
 3993SOL    HW212879   1.361   2.550   2.269
 3994SOL     OW12880   1.484   0.148   6.323
 3994SOL    HW112881   1.576   0.109   6.325
 3994SOL    HW212882   1.427   0.094   6.261
 3995SOL     OW12883   2.446   3.527   6.233
 3995SOL    HW112884   2.358   3.571   6.252
 3995SOL    HW212885   2.496   3.579   6.165
 3996SOL     OW12886   0.638   6.692   4.681
 3996SOL    HW112887   0.662   6.739   4.766
 3996SOL    HW212888   0.649   6.593   4.694
 3997SOL     OW12889   5.526   1.442   2.923
 3997SOL    HW112890   5.619   1.477   2.934
 3997SOL    HW212891   5.523   1.345   2.945
 3998SOL     OW12892   4.006   1.129   3.611
 3998SOL    HW112893   3.978   1.071   3.687
 3998SOL    HW212894   4.067   1.077   3.550
 3999SOL     OW12895   5.379   2.905   4.003
 3999SOL    HW112896   5.381   2.985   3.943
 3999SOL    HW212897   5.293   2.903   4.055
 4000SOL     OW12898   3.611   0.175   3.786
 4000SOL    HW112899   3.552   0.196   3.708
 4000SOL    HW212900   3.641   0.260   3.830
 4001SOL     OW12901   2.661   1.592   3.711
 4001SOL    HW112902   2.632   1.645   3.631
 4001SOL    HW212903   2.688   1.655   3.784
 4002SOL     OW12904   2.916   4.484   0.603
 4002SOL    HW112905   2.998   4.526   0.563
 4002SOL    HW212906   2.938   4.392   0.635
 4003SOL     OW12907   3.778   6.957   3.740
 4003SOL    HW112908   3.683   6.984   3.753
 4003SOL    HW212909   3.825   6.954   3.829
 4004SOL     OW12910   5.676   1.944   3.941
 4004SOL    HW112911   5.663   1.861   3.886
 4004SOL    HW212912   5.609   1.945   4.016
 4005SOL     OW12913   4.992   5.566   6.955
 4005SOL    HW112914   5.024   5.473   6.972
 4005SOL    HW212915   5.055   5.632   6.996
 4006SOL     OW12916   4.531   5.178   2.455
 4006SOL    HW112917   4.540   5.142   2.548
 4006SOL    HW212918   4.614   5.229   2.431
 4007SOL     OW12919   0.032   2.481   6.459
 4007SOL    HW112920   0.126   2.446   6.464
 4007SOL    HW212921   0.012   2.507   6.365
 4008SOL     OW12922   2.752   1.944   4.790
 4008SOL    HW112923   2.777   1.884   4.714
 4008SOL    HW212924   2.758   1.894   4.876
 4009SOL     OW12925   4.530   3.266   1.292
 4009SOL    HW112926   4.465   3.293   1.362
 4009SOL    HW212927   4.619   3.308   1.310
 4010SOL     OW12928   2.530   2.775   1.374
 4010SOL    HW112929   2.460   2.811   1.313
 4010SOL    HW212930   2.518   2.814   1.466
 4011SOL     OW12931   0.454   1.082   2.058
 4011SOL    HW112932   0.465   1.048   1.965
 4011SOL    HW212933   0.439   1.181   2.055
 4012SOL     OW12934   6.670   4.409   1.598
 4012SOL    HW112935   6.592   4.389   1.657
 4012SOL    HW212936   6.646   4.389   1.503
 4013SOL     OW12937   3.295   1.105   4.973
 4013SOL    HW112938   3.238   1.176   5.015
 4013SOL    HW212939   3.245   1.061   4.899
 4014SOL     OW12940   5.333   6.093   2.419
 4014SOL    HW112941   5.429   6.097   2.392
 4014SOL    HW212942   5.314   6.167   2.484
 4015SOL     OW12943   4.545   4.880   6.346
 4015SOL    HW112944   4.612   4.931   6.291
 4015SOL    HW212945   4.459   4.872   6.295
 4016SOL     OW12946   2.240   6.372   6.036
 4016SOL    HW112947   2.257   6.312   6.114
 4016SOL    HW212948   2.213   6.463   6.068
 4017SOL     OW12949   6.741   6.120   0.622
 4017SOL    HW112950   6.804   6.048   0.593
 4017SOL    HW212951   6.770   6.156   0.711
 4018SOL     OW12952   3.780   5.736   2.403
 4018SOL    HW112953   3.778   5.642   2.370
 4018SOL    HW212954   3.700   5.753   2.460
 4019SOL     OW12955   5.174   4.462   3.599
 4019SOL    HW112956   5.108   4.420   3.537
 4019SOL    HW212957   5.266   4.431   3.577
 4020SOL     OW12958   4.662   1.918   5.032
 4020SOL    HW112959   4.639   1.905   4.935
 4020SOL    HW212960   4.760   1.936   5.041
 4021SOL     OW12961   3.810   5.142   5.986
 4021SOL    HW112962   3.775   5.052   6.013
 4021SOL    HW212963   3.769   5.213   6.044
 4022SOL     OW12964   4.989   1.594   6.978
 4022SOL    HW112965   4.996   1.692   6.960
 4022SOL    HW212966   5.079   1.552   6.974
 4023SOL     OW12967   6.235   2.071   4.641
 4023SOL    HW112968   6.190   2.039   4.558
 4023SOL    HW212969   6.330   2.040   4.643
 4024SOL     OW12970   3.440   6.673   4.265
 4024SOL    HW112971   3.375   6.738   4.225
 4024SOL    HW212972   3.421   6.581   4.230
 4025SOL     OW12973   0.575   3.643   3.052
 4025SOL    HW112974   0.520   3.726   3.048
 4025SOL    HW212975   0.641   3.643   2.978
 4026SOL     OW12976   5.940   5.822   4.197
 4026SOL    HW112977   5.875   5.752   4.228
 4026SOL    HW212978   5.963   5.881   4.274
 4027SOL     OW12979   3.772   4.063   2.398
 4027SOL    HW112980   3.711   4.028   2.469
 4027SOL    HW212981   3.739   4.151   2.366
 4028SOL     OW12982   1.841   1.957   4.543
 4028SOL    HW112983   1.827   1.892   4.468
 4028SOL    HW212984   1.939   1.966   4.561
 4029SOL     OW12985   2.487   4.052   5.590
 4029SOL    HW112986   2.502   4.068   5.493
 4029SOL    HW212987   2.427   4.123   5.627
 4030SOL     OW12988   0.587   2.131   5.750
 4030SOL    HW112989   0.645   2.148   5.829
 4030SOL    HW212990   0.498   2.097   5.781
 4031SOL     OW12991   4.621   5.751   3.420
 4031SOL    HW112992   4.532   5.761   3.465
 4031SOL    HW212993   4.650   5.840   3.384
 4032SOL     OW12994   6.162   6.686   3.983
 4032SOL    HW112995   6.191   6.762   4.041
 4032SOL    HW212996   6.232   6.666   3.915
 4033SOL     OW12997   3.200   4.031   4.381
 4033SOL    HW112998   3.270   3.966   4.352
 4033SOL    HW212999   3.118   4.019   4.324
 4034SOL     OW13000   6.444   1.315   4.495
 4034SOL    HW113001   6.439   1.355   4.586
 4034SOL    HW213002   6.519   1.358   4.444
 4035SOL     OW13003   0.248   4.555   6.473
 4035SOL    HW113004   0.213   4.476   6.524
 4035SOL    HW213005   0.251   4.532   6.376
 4036SOL     OW13006   6.327   6.099   2.840
 4036SOL    HW113007   6.366   6.190   2.855
 4036SOL    HW213008   6.323   6.080   2.742
 4037SOL     OW13009   1.445   3.889   6.510
 4037SOL    HW113010   1.471   3.867   6.416
 4037SOL    HW213011   1.368   3.831   6.538
 4038SOL     OW13012   5.308   4.357   3.246
 4038SOL    HW113013   5.385   4.401   3.200
 4038SOL    HW213014   5.320   4.365   3.345
 4039SOL     OW13015   5.469   6.142   0.543
 4039SOL    HW113016   5.507   6.106   0.458
 4039SOL    HW213017   5.543   6.162   0.607
 4040SOL     OW13018   2.943   6.918   1.374
 4040SOL    HW113019   2.952   7.000   1.317
 4040SOL    HW213020   2.858   6.924   1.427
 4041SOL     OW13021   1.350   6.587   3.277
 4041SOL    HW113022   1.336   6.673   3.228
 4041SOL    HW213023   1.448   6.570   3.287
 4042SOL     OW13024   5.983   5.279   2.212
 4042SOL    HW113025   6.042   5.322   2.280
 4042SOL    HW213026   5.897   5.329   2.206
 4043SOL     OW13027   5.171   2.045   2.572
 4043SOL    HW113028   5.100   2.093   2.625
 4043SOL    HW213029   5.198   2.103   2.495
 4044SOL     OW13030   5.824   0.143   3.252
 4044SOL    HW113031   5.822   0.046   3.276
 4044SOL    HW213032   5.800   0.154   3.156
 4045SOL     OW13033   2.136   5.105   6.536
 4045SOL    HW113034   2.042   5.109   6.570
 4045SOL    HW213035   2.167   5.010   6.535
 4046SOL     OW13036   0.836   2.517   1.589
 4046SOL    HW113037   0.737   2.504   1.590
 4046SOL    HW213038   0.878   2.453   1.525
 4047SOL     OW13039   3.277   3.436   1.854
 4047SOL    HW113040   3.253   3.424   1.758
 4047SOL    HW213041   3.213   3.386   1.912
 4048SOL     OW13042   5.342   0.682   0.749
 4048SOL    HW113043   5.430   0.709   0.709
 4048SOL    HW213044   5.337   0.715   0.843
 4049SOL     OW13045   5.640   6.828   5.777
 4049SOL    HW113046   5.666   6.925   5.787
 4049SOL    HW213047   5.700   6.771   5.832
 4050SOL     OW13048   1.688   6.155   0.531
 4050SOL    HW113049   1.621   6.203   0.475
 4050SOL    HW213050   1.754   6.109   0.472
 4051SOL     OW13051   3.047   4.954   0.430
 4051SOL    HW113052   3.047   4.984   0.525
 4051SOL    HW213053   2.953   4.935   0.401
 4052SOL     OW13054   0.378   0.592   6.966
 4052SOL    HW113055   0.467   0.547   6.971
 4052SOL    HW213056   0.389   0.690   6.983
 4053SOL     OW13057   3.097   4.878   3.844
 4053SOL    HW113058   3.110   4.880   3.745
 4053SOL    HW213059   3.016   4.825   3.867
 4054SOL     OW13060   3.515   1.939   1.050
 4054SOL    HW113061   3.472   1.944   1.141
 4054SOL    HW213062   3.610   1.912   1.060
 4055SOL     OW13063   3.367   2.270   6.592
 4055SOL    HW113064   3.451   2.284   6.539
 4055SOL    HW213065   3.325   2.359   6.611
 4056SOL     OW13066   3.578   2.758   6.758
 4056SOL    HW113067   3.501   2.749   6.822
 4056SOL    HW213068   3.600   2.854   6.745
 4057SOL     OW13069   4.556   3.168   6.239
 4057SOL    HW113070   4.481   3.135   6.181
 4057SOL    HW213071   4.520   3.226   6.311
 4058SOL     OW13072   2.369   1.141   5.354
 4058SOL    HW113073   2.275   1.174   5.346
 4058SOL    HW213074   2.416   1.193   5.426
 4059SOL     OW13075   1.591   1.910   5.019
 4059SOL    HW113076   1.513   1.907   4.957
 4059SOL    HW213077   1.650   1.987   4.995
 4060SOL     OW13078   3.941   4.866   4.053
 4060SOL    HW113079   4.025   4.812   4.055
 4060SOL    HW213080   3.926   4.901   3.961
 4061SOL     OW13081   3.526   4.220   1.818
 4061SOL    HW113082   3.483   4.143   1.771
 4061SOL    HW213083   3.545   4.293   1.752
 4062SOL     OW13084   3.397   0.920   2.613
 4062SOL    HW113085   3.368   0.832   2.649
 4062SOL    HW213086   3.357   0.994   2.667
 4063SOL     OW13087   3.233   5.469   5.927
 4063SOL    HW113088   3.321   5.489   5.885
 4063SOL    HW213089   3.203   5.548   5.981
 4064SOL     OW13090   0.275   0.285   3.360
 4064SOL    HW113091   0.181   0.317   3.350
 4064SOL    HW213092   0.335   0.364   3.377
 4065SOL     OW13093   6.747   0.086   0.617
 4065SOL    HW113094   6.686   0.142   0.673
 4065SOL    HW213095   6.708   7.013   0.606
 4066SOL     OW13096   5.600   4.313   1.744
 4066SOL    HW113097   5.685   4.292   1.696
 4066SOL    HW213098   5.525   4.319   1.677
 4067SOL     OW13099   6.216   0.974   2.563
 4067SOL    HW113100   6.299   0.941   2.519
 4067SOL    HW213101   6.173   0.899   2.613
 4068SOL     OW13102   5.788   0.653   3.975
 4068SOL    HW113103   5.749   0.733   4.021
 4068SOL    HW213104   5.881   0.638   4.007
 4069SOL     OW13105   5.440   5.344   0.610
 4069SOL    HW113106   5.385   5.298   0.679
 4069SOL    HW213107   5.391   5.425   0.577
 4070SOL     OW13108   1.685   3.866   2.987
 4070SOL    HW113109   1.771   3.893   3.029
 4070SOL    HW213110   1.670   3.921   2.905
 4071SOL     OW13111   1.853   0.483   4.223
 4071SOL    HW113112   1.833   0.393   4.262
 4071SOL    HW213113   1.883   0.545   4.295
 4072SOL     OW13114   1.606   0.211   4.430
 4072SOL    HW113115   1.702   0.188   4.447
 4072SOL    HW213116   1.562   0.237   4.516
 4073SOL     OW13117   2.712   5.922   6.673
 4073SOL    HW113118   2.642   5.859   6.638
 4073SOL    HW213119   2.678   5.969   6.754
 4074SOL     OW13120   1.239   2.228   1.102
 4074SOL    HW113121   1.248   2.164   1.179
 4074SOL    HW213122   1.289   2.193   1.023
 4075SOL     OW13123   5.214   1.175   3.136
 4075SOL    HW113124   5.185   1.261   3.095
 4075SOL    HW213125   5.187   1.173   3.232
 4076SOL     OW13126   1.548   3.632   4.382
 4076SOL    HW113127   1.492   3.676   4.453
 4076SOL    HW213128   1.645   3.642   4.405
 4077SOL     OW13129   3.367   1.114   0.591
 4077SOL    HW113130   3.268   1.129   0.601
 4077SOL    HW213131   3.415   1.168   0.661
 4078SOL     OW13132   6.414   3.988   1.373
 4078SOL    HW113133   6.359   4.020   1.450
 4078SOL    HW213134   6.414   3.888   1.371
 4079SOL     OW13135   0.759   0.930   3.844
 4079SOL    HW113136   0.712   0.863   3.787
 4079SOL    HW213137   0.729   1.022   3.819
 4080SOL     OW13138   3.629   3.757   1.627
 4080SOL    HW113139   3.624   3.729   1.531
 4080SOL    HW213140   3.709   3.715   1.670
 4081SOL     OW13141   1.446   2.150   5.793
 4081SOL    HW113142   1.439   2.209   5.874
 4081SOL    HW213143   1.532   2.169   5.746
 4082SOL     OW13144   0.924   2.765   5.096
 4082SOL    HW113145   1.004   2.770   5.155
 4082SOL    HW213146   0.937   2.826   5.017
 4083SOL     OW13147   5.870   4.807   3.532
 4083SOL    HW113148   5.933   4.865   3.480
 4083SOL    HW213149   5.779   4.848   3.533
 4084SOL     OW13150   4.214   0.987   3.488
 4084SOL    HW113151   4.268   1.069   3.466
 4084SOL    HW213152   4.152   0.968   3.412
 4085SOL     OW13153   2.817   5.298   2.436
 4085SOL    HW113154   2.722   5.268   2.447
 4085SOL    HW213155   2.879   5.222   2.452
 4086SOL     OW13156   6.601   5.704   6.392
 4086SOL    HW113157   6.545   5.626   6.363
 4086SOL    HW213158   6.563   5.744   6.475
 4087SOL     OW13159   2.270   0.228   2.546
 4087SOL    HW113160   2.355   0.211   2.496
 4087SOL    HW213161   2.269   0.172   2.629
 4088SOL     OW13162   0.184   1.233   5.617
 4088SOL    HW113163   0.096   1.256   5.577
 4088SOL    HW213164   0.201   1.291   5.697
 4089SOL     OW13165   0.131   0.042   3.610
 4089SOL    HW113166   0.104   0.055   3.514
 4089SOL    HW213167   0.201   6.989   3.615
 4090SOL     OW13168   2.683   0.272   5.596
 4090SOL    HW113169   2.644   0.181   5.583
 4090SOL    HW213170   2.741   0.295   5.518
 4091SOL     OW13171   2.124   5.509   1.252
 4091SOL    HW113172   2.199   5.482   1.312
 4091SOL    HW213173   2.044   5.452   1.272
 4092SOL     OW13174   4.923   3.412   4.317
 4092SOL    HW113175   5.014   3.431   4.281
 4092SOL    HW213176   4.924   3.323   4.365
 4093SOL     OW13177   5.177   5.868   3.111
 4093SOL    HW113178   5.226   5.828   3.034
 4093SOL    HW213179   5.086   5.827   3.119
 4094SOL     OW13180   0.004   5.917   6.756
 4094SOL    HW113181   0.030   5.952   6.666
 4094SOL    HW213182   0.042   5.825   6.769
 4095SOL     OW13183   0.187   4.913   0.113
 4095SOL    HW113184   0.137   4.966   0.181
 4095SOL    HW213185   0.285   4.930   0.123
 4096SOL     OW13186   2.044   2.131   6.792
 4096SOL    HW113187   2.014   2.053   6.736
 4096SOL    HW213188   1.967   2.192   6.809
 4097SOL     OW13189   6.996   4.587   5.064
 4097SOL    HW113190   6.946   4.538   5.136
 4097SOL    HW213191   0.071   4.605   5.094
 4098SOL     OW13192   2.121   4.984   3.097
 4098SOL    HW113193   2.137   4.907   3.035
 4098SOL    HW213194   2.203   5.001   3.151
 4099SOL     OW13195   4.543   4.711   5.988
 4099SOL    HW113196   4.505   4.652   5.917
 4099SOL    HW213197   4.512   4.679   6.078
 4100SOL     OW13198   1.606   0.653   3.705
 4100SOL    HW113199   1.520   0.653   3.756
 4100SOL    HW213200   1.682   0.635   3.767
 4101SOL     OW13201   6.316   0.705   6.687
 4101SOL    HW113202   6.289   0.756   6.769
 4101SOL    HW213203   6.279   0.612   6.692
 4102SOL     OW13204   1.814   0.504   6.940
 4102SOL    HW113205   1.913   0.496   6.927
 4102SOL    HW213206   1.774   0.557   6.864
 4103SOL     OW13207   1.589   6.836   2.090
 4103SOL    HW113208   1.554   6.756   2.041
 4103SOL    HW213209   1.514   6.897   2.112
 4104SOL     OW13210   0.679   5.704   3.572
 4104SOL    HW113211   0.671   5.803   3.570
 4104SOL    HW213212   0.765   5.676   3.530
 4105SOL     OW13213   4.750   0.959   1.060
 4105SOL    HW113214   4.678   0.907   1.015
 4105SOL    HW213215   4.833   0.955   1.004
 4106SOL     OW13216   0.243   2.340   3.635
 4106SOL    HW113217   0.153   2.330   3.675
 4106SOL    HW213218   0.241   2.411   3.565
 4107SOL     OW13219   0.008   6.344   6.235
 4107SOL    HW113220   0.014   6.353   6.334
 4107SOL    HW213221   6.976   6.261   6.211
 4108SOL     OW13222   6.730   5.164   3.894
 4108SOL    HW113223   6.795   5.106   3.845
 4108SOL    HW213224   6.719   5.250   3.845
 4109SOL     OW13225   6.306   6.401   3.075
 4109SOL    HW113226   6.405   6.409   3.063
 4109SOL    HW213227   6.284   6.415   3.172
 4110SOL     OW13228   4.720   4.027   0.324
 4110SOL    HW113229   4.767   3.987   0.402
 4110SOL    HW213230   4.624   3.997   0.323
 4111SOL     OW13231   6.912   4.036   4.535
 4111SOL    HW113232   6.971   4.012   4.612
 4111SOL    HW213233   6.932   4.130   4.506
 4112SOL     OW13234   4.668   0.336   5.177
 4112SOL    HW113235   4.682   0.237   5.171
 4112SOL    HW213236   4.754   0.383   5.156
 4113SOL     OW13237   4.725   4.536   4.709
 4113SOL    HW113238   4.764   4.450   4.741
 4113SOL    HW213239   4.750   4.550   4.613
 4114SOL     OW13240   6.780   1.254   2.754
 4114SOL    HW113241   6.735   1.178   2.800
 4114SOL    HW213242   6.801   1.227   2.660
 4115SOL     OW13243   3.254   5.112   3.715
 4115SOL    HW113244   3.156   5.094   3.714
 4115SOL    HW213245   3.280   5.149   3.804
 4116SOL     OW13246   5.160   2.538   3.226
 4116SOL    HW113247   5.074   2.494   3.252
 4116SOL    HW213248   5.215   2.476   3.170
 4117SOL     OW13249   1.294   2.666   2.665
 4117SOL    HW113250   1.352   2.587   2.683
 4117SOL    HW213251   1.300   2.730   2.742
 4118SOL     OW13252   6.670   0.141   6.154
 4118SOL    HW113253   6.698   0.049   6.129
 4118SOL    HW213254   6.590   0.136   6.214
 4119SOL     OW13255   1.963   1.061   3.877
 4119SOL    HW113256   1.933   1.070   3.972
 4119SOL    HW213257   1.943   1.146   3.828
 4120SOL     OW13258   2.184   1.266   6.345
 4120SOL    HW113259   2.266   1.313   6.310
 4120SOL    HW213260   2.149   1.315   6.425
 4121SOL     OW13261   6.754   0.064   1.865
 4121SOL    HW113262   6.821   0.130   1.896
 4121SOL    HW213263   6.732   0.000   1.939
 4122SOL     OW13264   7.000   4.471   4.246
 4122SOL    HW113265   0.014   4.557   4.285
 4122SOL    HW213266   0.059   4.407   4.237
 4123SOL     OW13267   3.776   4.932   2.466
 4123SOL    HW113268   3.773   4.884   2.554
 4123SOL    HW213269   3.750   5.027   2.479
 4124SOL     OW13270   6.589   5.951   0.431
 4124SOL    HW113271   6.688   5.951   0.443
 4124SOL    HW213272   6.559   6.041   0.399
 4125SOL     OW13273   5.694   2.085   2.054
 4125SOL    HW113274   5.782   2.100   2.009
 4125SOL    HW213275   5.709   2.061   2.150
 4126SOL     OW13276   0.866   2.921   2.291
 4126SOL    HW113277   0.911   2.861   2.357
 4126SOL    HW213278   0.928   2.937   2.214
 4127SOL     OW13279   3.964   1.722   4.133
 4127SOL    HW113280   4.008   1.660   4.198
 4127SOL    HW213281   4.033   1.771   4.080
 4128SOL     OW13282   0.420   3.483   1.179
 4128SOL    HW113283   0.397   3.462   1.274
 4128SOL    HW213284   0.406   3.580   1.162
 4129SOL     OW13285   2.664   2.872   0.691
 4129SOL    HW113286   2.684   2.776   0.710
 4129SOL    HW213287   2.667   2.888   0.592
 4130SOL     OW13288   6.110   3.322   1.535
 4130SOL    HW113289   6.168   3.254   1.579
 4130SOL    HW213290   6.153   3.351   1.449
 4131SOL     OW13291   4.467   0.878   2.348
 4131SOL    HW113292   4.480   0.947   2.277
 4131SOL    HW213293   4.441   0.791   2.306
 4132SOL     OW13294   0.156   4.110   4.277
 4132SOL    HW113295   0.097   4.137   4.353
 4132SOL    HW213296   0.131   4.018   4.247
 4133SOL     OW13297   5.984   0.052   1.908
 4133SOL    HW113298   6.047   0.121   1.943
 4133SOL    HW213299   6.029   6.981   1.908
 4134SOL     OW13300   2.448   3.157   1.335
 4134SOL    HW113301   2.383   3.227   1.364
 4134SOL    HW213302   2.513   3.139   1.409
 4135SOL     OW13303   6.798   0.924   2.441
 4135SOL    HW113304   6.865   0.988   2.479
 4135SOL    HW213305   6.837   0.880   2.360
 4136SOL     OW13306   1.547   4.502   2.125
 4136SOL    HW113307   1.512   4.594   2.144
 4136SOL    HW213308   1.533   4.445   2.205
 4137SOL     OW13309   1.773   2.990   0.245
 4137SOL    HW113310   1.700   3.014   0.180
 4137SOL    HW213311   1.732   2.951   0.327
 4138SOL     OW13312   4.408   6.083   0.773
 4138SOL    HW113313   4.318   6.111   0.739
 4138SOL    HW213314   4.402   6.062   0.871
 4139SOL     OW13315   2.238   2.426   3.177
 4139SOL    HW113316   2.271   2.422   3.083
 4139SOL    HW213317   2.281   2.352   3.230
 4140SOL     OW13318   2.625   2.257   5.041
 4140SOL    HW113319   2.601   2.353   5.053
 4140SOL    HW213320   2.707   2.250   4.984
 4141SOL     OW13321   4.320   0.168   0.020
 4141SOL    HW113322   4.254   0.212   6.978
 4141SOL    HW213323   4.274   0.142   0.105
 4142SOL     OW13324   0.357   4.406   3.058
 4142SOL    HW113325   0.300   4.476   3.015
 4142SOL    HW213326   0.314   4.374   3.141
 4143SOL     OW13327   5.963   2.942   1.005
 4143SOL    HW113328   5.964   2.929   0.906
 4143SOL    HW213329   5.917   2.865   1.049
 4144SOL     OW13330   5.526   2.087   0.564
 4144SOL    HW113331   5.453   2.101   0.630
 4144SOL    HW213332   5.525   2.161   0.497
 4145SOL     OW13333   6.938   6.930   1.283
 4145SOL    HW113334   6.920   6.947   1.186
 4145SOL    HW213335   7.004   6.855   1.292
 4146SOL     OW13336   5.468   6.677   3.702
 4146SOL    HW113337   5.498   6.581   3.704
 4146SOL    HW213338   5.403   6.693   3.776
 4147SOL     OW13339   5.010   4.148   5.194
 4147SOL    HW113340   4.915   4.156   5.224
 4147SOL    HW213341   5.020   4.184   5.102
 4148SOL     OW13342   3.233   1.280   5.714
 4148SOL    HW113343   3.165   1.215   5.681
 4148SOL    HW213344   3.200   1.324   5.798
 4149SOL     OW13345   1.700   3.059   0.528
 4149SOL    HW113346   1.752   3.144   0.533
 4149SOL    HW213347   1.752   2.985   0.572
 4150SOL     OW13348   5.832   2.521   6.356
 4150SOL    HW113349   5.796   2.542   6.265
 4150SOL    HW213350   5.828   2.602   6.413
 4151SOL     OW13351   2.523   6.589   4.855
 4151SOL    HW113352   2.502   6.685   4.837
 4151SOL    HW213353   2.445   6.533   4.829
 4152SOL     OW13354   3.061   5.545   1.485
 4152SOL    HW113355   3.059   5.449   1.457
 4152SOL    HW213356   2.978   5.566   1.537
 4153SOL     OW13357   7.000   4.713   1.766
 4153SOL    HW113358   7.007   4.805   1.728
 4153SOL    HW213359   7.006   4.718   1.865
 4154SOL     OW13360   1.093   5.645   4.600
 4154SOL    HW113361   1.060   5.719   4.659
 4154SOL    HW213362   1.145   5.579   4.655
 4155SOL     OW13363   0.947   2.329   1.794
 4155SOL    HW113364   0.951   2.382   1.709
 4155SOL    HW213365   0.876   2.367   1.853
 4156SOL     OW13366   6.764   5.081   5.184
 4156SOL    HW113367   6.849   5.032   5.161
 4156SOL    HW213368   6.740   5.141   5.108
 4157SOL     OW13369   6.730   6.251   1.956
 4157SOL    HW113370   6.730   6.176   1.890
 4157SOL    HW213371   6.637   6.282   1.972
 4158SOL     OW13372   1.811   2.544   2.107
 4158SOL    HW113373   1.897   2.546   2.157
 4158SOL    HW213374   1.794   2.451   2.075
 4159SOL     OW13375   2.670   1.459   3.025
 4159SOL    HW113376   2.591   1.484   2.969
 4159SOL    HW213377   2.654   1.370   3.068
 4160SOL     OW13378   6.608   0.057   6.575
 4160SOL    HW113379   6.689   0.112   6.557
 4160SOL    HW213380   6.609   0.026   6.670
 4161SOL     OW13381   2.379   2.223   1.320
 4161SOL    HW113382   2.464   2.186   1.283
 4161SOL    HW213383   2.377   2.322   1.305
 4162SOL     OW13384   6.466   6.181   1.149
 4162SOL    HW113385   6.435   6.121   1.075
 4162SOL    HW213386   6.389   6.205   1.208
 4163SOL     OW13387   4.052   6.194   1.026
 4163SOL    HW113388   3.995   6.138   0.966
 4163SOL    HW213389   4.146   6.160   1.025
 4164SOL     OW13390   0.226   6.586   4.795
 4164SOL    HW113391   0.241   6.545   4.885
 4164SOL    HW213392   0.296   6.655   4.777
 4165SOL     OW13393   4.166   1.195   5.457
 4165SOL    HW113394   4.192   1.271   5.516
 4165SOL    HW213395   4.174   1.109   5.507
 4166SOL     OW13396   6.052   0.709   2.565
 4166SOL    HW113397   6.023   0.622   2.526
 4166SOL    HW213398   5.977   0.748   2.618
 4167SOL     OW13399   3.747   5.026   5.541
 4167SOL    HW113400   3.828   5.026   5.483
 4167SOL    HW213401   3.751   5.103   5.605
 4168SOL     OW13402   6.216   4.389   0.370
 4168SOL    HW113403   6.214   4.487   0.389
 4168SOL    HW213404   6.163   4.341   0.440
 4169SOL     OW13405   4.887   4.087   4.962
 4169SOL    HW113406   4.907   4.034   5.045
 4169SOL    HW213407   4.934   4.046   4.884
 4170SOL     OW13408   5.312   3.105   4.610
 4170SOL    HW113409   5.249   3.161   4.556
 4170SOL    HW213410   5.295   3.008   4.591
 4171SOL     OW13411   1.357   3.808   1.005
 4171SOL    HW113412   1.413   3.873   1.056
 4171SOL    HW213413   1.391   3.715   1.021
 4172SOL     OW13414   3.310   3.790   0.870
 4172SOL    HW113415   3.319   3.711   0.931
 4172SOL    HW213416   3.363   3.773   0.787
 4173SOL     OW13417   4.532   2.778   5.246
 4173SOL    HW113418   4.573   2.779   5.155
 4173SOL    HW213419   4.477   2.695   5.257
 4174SOL     OW13420   4.612   0.358   4.421
 4174SOL    HW113421   4.549   0.375   4.496
 4174SOL    HW213422   4.625   0.260   4.409
 4175SOL     OW13423   1.572   4.397   6.563
 4175SOL    HW113424   1.634   4.371   6.489
 4175SOL    HW213425   1.534   4.314   6.604
 4176SOL     OW13426   4.635   6.761   0.001
 4176SOL    HW113427   4.717   6.784   0.053
 4176SOL    HW213428   4.570   6.838   0.006
 4177SOL     OW13429   4.713   4.897   4.496
 4177SOL    HW113430   4.639   4.861   4.553
 4177SOL    HW213431   4.774   4.822   4.469
 4178SOL     OW13432   3.030   5.744   2.201
 4178SOL    HW113433   3.117   5.723   2.245
 4178SOL    HW213434   2.971   5.663   2.202
 4179SOL     OW13435   5.071   3.183   4.156
 4179SOL    HW113436   4.999   3.232   4.107
 4179SOL    HW213437   5.155   3.236   4.155
 4180SOL     OW13438   5.605   3.032   0.801
 4180SOL    HW113439   5.599   2.977   0.885
 4180SOL    HW213440   5.513   3.045   0.764
 4181SOL     OW13441   5.088   0.497   5.397
 4181SOL    HW113442   5.062   0.457   5.485
 4181SOL    HW213443   5.127   0.425   5.339
 4182SOL     OW13444   0.161   6.194   3.967
 4182SOL    HW113445   0.260   6.202   3.982
 4182SOL    HW213446   0.118   6.159   4.050
 4183SOL     OW13447   2.472   1.150   1.988
 4183SOL    HW113448   2.384   1.110   2.016
 4183SOL    HW213449   2.546   1.111   2.043
 4184SOL     OW13450   3.165   6.695   2.736
 4184SOL    HW113451   3.173   6.685   2.835
 4184SOL    HW213452   3.172   6.605   2.692
 4185SOL     OW13453   6.886   3.667   3.283
 4185SOL    HW113454   6.919   3.589   3.335
 4185SOL    HW213455   6.830   3.725   3.342
 4186SOL     OW13456   1.532   5.811   6.511
 4186SOL    HW113457   1.500   5.843   6.422
 4186SOL    HW213458   1.584   5.884   6.555
 4187SOL     OW13459   2.163   3.564   6.757
 4187SOL    HW113460   2.191   3.469   6.747
 4187SOL    HW213461   2.200   3.619   6.682
 4188SOL     OW13462   4.933   0.380   6.413
 4188SOL    HW113463   4.936   0.289   6.455
 4188SOL    HW213464   5.015   0.431   6.439
 4189SOL     OW13465   4.986   5.572   2.940
 4189SOL    HW113466   4.944   5.622   3.016
 4189SOL    HW213467   4.966   5.619   2.854
 4190SOL     OW13468   0.071   6.964   0.729
 4190SOL    HW113469   0.098   6.873   0.761
 4190SOL    HW213470   0.058   6.962   0.630
 4191SOL     OW13471   5.056   3.774   5.702
 4191SOL    HW113472   4.967   3.789   5.744
 4191SOL    HW213473   5.083   3.678   5.713
 4192SOL     OW13474   1.213   1.624   2.541
 4192SOL    HW113475   1.135   1.562   2.529
 4192SOL    HW213476   1.249   1.649   2.451
 4193SOL     OW13477   5.818   0.515   0.583
 4193SOL    HW113478   5.803   0.471   0.671
 4193SOL    HW213479   5.859   0.450   0.519
 4194SOL     OW13480   4.182   1.003   5.652
 4194SOL    HW113481   4.276   0.972   5.637
 4194SOL    HW213482   4.121   0.923   5.656
 4195SOL     OW13483   4.522   6.265   2.105
 4195SOL    HW113484   4.519   6.176   2.061
 4195SOL    HW213485   4.601   6.317   2.072
 4196SOL     OW13486   6.719   2.456   3.825
 4196SOL    HW113487   6.704   2.357   3.835
 4196SOL    HW213488   6.815   2.477   3.842
 4197SOL     OW13489   3.807   6.044   5.899
 4197SOL    HW113490   3.883   5.992   5.939
 4197SOL    HW213491   3.730   6.046   5.963
 4198SOL     OW13492   6.496   0.528   2.070
 4198SOL    HW113493   6.519   0.442   2.116
 4198SOL    HW213494   6.409   0.562   2.105
 4199SOL     OW13495   1.768   4.355   6.379
 4199SOL    HW113496   1.807   4.266   6.357
 4199SOL    HW213497   1.711   4.386   6.303
 4200SOL     OW13498   4.088   0.963   4.956
 4200SOL    HW113499   4.065   0.906   5.035
 4200SOL    HW213500   4.106   0.905   4.877
 4201SOL     OW13501   6.299   6.926   3.709
 4201SOL    HW113502   6.364   6.960   3.777
 4201SOL    HW213503   6.216   6.982   3.712
 4202SOL     OW13504   3.556   5.590   0.101
 4202SOL    HW113505   3.549   5.670   0.160
 4202SOL    HW213506   3.623   5.526   0.140
 4203SOL     OW13507   5.501   5.153   0.438
 4203SOL    HW113508   5.454   5.077   0.484
 4203SOL    HW213509   5.490   5.236   0.493
 4204SOL     OW13510   3.320   3.182   5.956
 4204SOL    HW113511   3.223   3.204   5.958
 4204SOL    HW213512   3.373   3.264   5.978
 4205SOL     OW13513   3.629   5.743   4.835
 4205SOL    HW113514   3.676   5.812   4.780
 4205SOL    HW213515   3.608   5.664   4.778
 4206SOL     OW13516   1.549   1.599   4.887
 4206SOL    HW113517   1.464   1.615   4.837
 4206SOL    HW213518   1.530   1.594   4.985
 4207SOL     OW13519   2.117   2.291   1.180
 4207SOL    HW113520   2.086   2.204   1.218
 4207SOL    HW213521   2.103   2.364   1.247
 4208SOL     OW13522   1.688   4.344   5.404
 4208SOL    HW113523   1.636   4.331   5.320
 4208SOL    HW213524   1.660   4.429   5.448
 4209SOL     OW13525   0.303   5.681   2.657
 4209SOL    HW113526   0.226   5.746   2.655
 4209SOL    HW213527   0.269   5.590   2.681
 4210SOL     OW13528   4.023   3.251   4.972
 4210SOL    HW113529   3.972   3.223   4.890
 4210SOL    HW213530   4.066   3.171   5.013
 4211SOL     OW13531   3.821   1.993   5.246
 4211SOL    HW113532   3.828   1.951   5.156
 4211SOL    HW213533   3.757   1.941   5.302
 4212SOL     OW13534   0.107   1.194   3.547
 4212SOL    HW113535   0.093   1.100   3.577
 4212SOL    HW213536   0.128   1.195   3.449
 4213SOL     OW13537   3.044   1.127   2.852
 4213SOL    HW113538   3.047   1.185   2.934
 4213SOL    HW213539   2.950   1.119   2.821
 4214SOL     OW13540   0.659   5.219   4.211
 4214SOL    HW113541   0.578   5.168   4.182
 4214SOL    HW213542   0.650   5.314   4.184
 4215SOL     OW13543   4.900   6.272   5.451
 4215SOL    HW113544   4.869   6.180   5.474
 4215SOL    HW213545   4.981   6.267   5.394
 4216SOL     OW13546   1.668   0.849   3.101
 4216SOL    HW113547   1.655   0.914   3.026
 4216SOL    HW213548   1.763   0.819   3.103
 4217SOL     OW13549   0.995   0.228   1.979
 4217SOL    HW113550   1.016   0.211   1.883
 4217SOL    HW213551   1.052   0.169   2.037
 4218SOL     OW13552   3.659   1.302   1.242
 4218SOL    HW113553   3.735   1.309   1.307
 4218SOL    HW213554   3.604   1.386   1.246
 4219SOL     OW13555   4.178   6.222   4.603
 4219SOL    HW113556   4.142   6.233   4.696
 4219SOL    HW213557   4.155   6.303   4.549
 4220SOL     OW13558   5.229   2.006   1.850
 4220SOL    HW113559   5.231   1.941   1.773
 4220SOL    HW213560   5.252   1.958   1.935
 4221SOL     OW13561   6.467   5.224   6.934
 4221SOL    HW113562   6.431   5.215   6.841
 4221SOL    HW213563   6.392   5.229   6.999
 4222SOL     OW13564   5.669   2.202   3.565
 4222SOL    HW113565   5.575   2.188   3.597
 4222SOL    HW213566   5.719   2.115   3.570
 4223SOL     OW13567   4.133   4.100   1.048
 4223SOL    HW113568   4.121   4.052   0.961
 4223SOL    HW213569   4.084   4.051   1.120
 4224SOL     OW13570   5.152   4.323   4.993
 4224SOL    HW113571   5.224   4.260   5.022
 4224SOL    HW213572   5.160   4.340   4.895
 4225SOL     OW13573   1.465   2.080   5.177
 4225SOL    HW113574   1.456   2.068   5.276
 4225SOL    HW213575   1.480   1.992   5.133
 4226SOL     OW13576   0.517   6.038   4.475
 4226SOL    HW113577   0.600   6.059   4.527
 4226SOL    HW213578   0.440   6.027   4.537
 4227SOL     OW13579   4.915   5.792   1.773
 4227SOL    HW113580   4.900   5.874   1.829
 4227SOL    HW213581   5.004   5.751   1.797
 4228SOL     OW13582   1.195   5.657   4.890
 4228SOL    HW113583   1.102   5.642   4.923
 4228SOL    HW213584   1.228   5.574   4.846
 4229SOL     OW13585   5.671   5.672   5.758
 4229SOL    HW113586   5.717   5.614   5.826
 4229SOL    HW213587   5.572   5.669   5.773
 4230SOL     OW13588   1.204   0.006   2.787
 4230SOL    HW113589   1.295   0.034   2.757
 4230SOL    HW213590   1.163   6.964   2.718
 4231SOL     OW13591   5.014   1.070   5.630
 4231SOL    HW113592   5.104   1.052   5.591
 4231SOL    HW213593   4.985   0.991   5.685
 4232SOL     OW13594   2.349   5.402   3.770
 4232SOL    HW113595   2.448   5.391   3.768
 4232SOL    HW213596   2.317   5.403   3.865
 4233SOL     OW13597   0.186   6.879   4.273
 4233SOL    HW113598   0.199   6.833   4.361
 4233SOL    HW213599   0.089   6.902   4.261
 4234SOL     OW13600   1.850   5.454   5.492
 4234SOL    HW113601   1.828   5.404   5.409
 4234SOL    HW213602   1.948   5.475   5.494
 4235SOL     OW13603   6.652   5.038   5.767
 4235SOL    HW113604   6.745   5.016   5.736
 4235SOL    HW213605   6.586   5.006   5.699
 4236SOL     OW13606   0.431   5.292   2.602
 4236SOL    HW113607   0.465   5.336   2.686
 4236SOL    HW213608   0.491   5.216   2.578
 4237SOL     OW13609   6.613   4.150   4.088
 4237SOL    HW113610   6.695   4.206   4.080
 4237SOL    HW213611   6.538   4.205   4.127
 4238SOL     OW13612   1.675   0.886   3.382
 4238SOL    HW113613   1.579   0.906   3.401
 4238SOL    HW213614   1.691   0.887   3.284
 4239SOL     OW13615   4.258   0.927   3.093
 4239SOL    HW113616   4.274   0.970   3.004
 4239SOL    HW213617   4.346   0.908   3.138
 4240SOL     OW13618   1.819   5.325   0.076
 4240SOL    HW113619   1.903   5.296   0.029
 4240SOL    HW213620   1.768   5.245   0.105
 4241SOL     OW13621   6.617   1.823   0.605
 4241SOL    HW113622   6.522   1.840   0.631
 4241SOL    HW213623   6.651   1.899   0.550
 4242SOL     OW13624   2.361   2.324   3.849
 4242SOL    HW113625   2.293   2.396   3.858
 4242SOL    HW213626   2.318   2.242   3.810
 4243SOL     OW13627   5.084   1.365   2.689
 4243SOL    HW113628   5.142   1.301   2.740
 4243SOL    HW213629   5.081   1.337   2.593
 4244SOL     OW13630   3.960   3.562   1.876
 4244SOL    HW113631   3.917   3.616   1.948
 4244SOL    HW213632   3.950   3.610   1.788
 4245SOL     OW13633   6.592   1.932   6.224
 4245SOL    HW113634   6.630   1.841   6.240
 4245SOL    HW213635   6.667   1.999   6.216
 4246SOL     OW13636   6.921   4.288   3.428
 4246SOL    HW113637   6.883   4.379   3.410
 4246SOL    HW213638   6.969   4.290   3.516
 4247SOL     OW13639   0.135   6.135   4.479
 4247SOL    HW113640   0.201   6.187   4.533
 4247SOL    HW213641   0.054   6.191   4.462
 4248SOL     OW13642   1.738   2.136   4.953
 4248SOL    HW113643   1.731   2.117   4.855
 4248SOL    HW213644   1.833   2.121   4.983
 4249SOL     OW13645   6.580   2.939   5.640
 4249SOL    HW113646   6.509   2.905   5.701
 4249SOL    HW213647   6.634   2.863   5.606
 4250SOL     OW13648   0.248   4.661   3.644
 4250SOL    HW113649   0.308   4.713   3.706
 4250SOL    HW213650   0.305   4.607   3.582
 4251SOL     OW13651   6.102   4.249   0.565
 4251SOL    HW113652   6.030   4.299   0.613
 4251SOL    HW213653   6.142   4.181   0.627
 4252SOL     OW13654   6.628   6.079   4.841
 4252SOL    HW113655   6.723   6.104   4.826
 4252SOL    HW213656   6.569   6.157   4.820
 4253SOL     OW13657   3.611   0.487   2.120
 4253SOL    HW113658   3.577   0.439   2.039
 4253SOL    HW213659   3.648   0.576   2.093
 4254SOL     OW13660   1.401   2.982   1.448
 4254SOL    HW113661   1.365   2.929   1.525
 4254SOL    HW213662   1.331   2.990   1.378
 4255SOL     OW13663   6.419   2.292   3.716
 4255SOL    HW113664   6.373   2.306   3.804
 4255SOL    HW213665   6.368   2.227   3.661
 4256SOL     OW13666   1.533   6.499   0.857
 4256SOL    HW113667   1.559   6.546   0.941
 4256SOL    HW213668   1.436   6.473   0.862
 4257SOL     OW13669   3.302   0.954   5.637
 4257SOL    HW113670   3.321   0.995   5.548
 4257SOL    HW213671   3.344   0.863   5.642
 4258SOL     OW13672   5.966   6.680   2.152
 4258SOL    HW113673   6.020   6.750   2.199
 4258SOL    HW213674   6.008   6.657   2.065
 4259SOL     OW13675   2.359   1.022   6.687
 4259SOL    HW113676   2.268   1.064   6.690
 4259SOL    HW213677   2.411   1.061   6.611
 4260SOL     OW13678   4.415   5.972   3.946
 4260SOL    HW113679   4.415   5.944   3.850
 4260SOL    HW213680   4.464   5.905   4.001
 4261SOL     OW13681   2.660   0.305   2.083
 4261SOL    HW113682   2.693   0.395   2.056
 4261SOL    HW213683   2.694   0.236   2.019
 4262SOL     OW13684   1.524   5.022   5.871
 4262SOL    HW113685   1.500   4.937   5.917
 4262SOL    HW213686   1.624   5.035   5.874
 4263SOL     OW13687   2.530   6.654   4.522
 4263SOL    HW113688   2.559   6.664   4.427
 4263SOL    HW213689   2.506   6.744   4.560
 4264SOL     OW13690   0.124   1.849   1.259
 4264SOL    HW113691   0.126   1.946   1.284
 4264SOL    HW213692   0.029   1.817   1.255
 4265SOL     OW13693   6.178   2.055   6.987
 4265SOL    HW113694   6.240   1.990   6.943
 4265SOL    HW213695   6.105   2.006   0.016
 4266SOL     OW13696   2.588   5.384   0.298
 4266SOL    HW113697   2.511   5.416   0.242
 4266SOL    HW213698   2.668   5.370   0.240
 4267SOL     OW13699   2.142   3.829   4.946
 4267SOL    HW113700   2.219   3.892   4.960
 4267SOL    HW213701   2.109   3.838   4.852
 4268SOL     OW13702   1.342   6.510   0.080
 4268SOL    HW113703   1.440   6.505   0.058
 4268SOL    HW213704   1.331   6.554   0.169
 4269SOL     OW13705   2.055   1.800   0.388
 4269SOL    HW113706   2.061   1.741   0.308
 4269SOL    HW213707   2.099   1.755   0.466
 4270SOL     OW13708   3.934   3.176   4.638
 4270SOL    HW113709   3.940   3.082   4.672
 4270SOL    HW213710   3.845   3.215   4.664
 4271SOL     OW13711   0.192   0.241   5.094
 4271SOL    HW113712   0.150   0.291   5.170
 4271SOL    HW213713   0.204   0.145   5.120
 4272SOL     OW13714   0.078   5.060   4.444
 4272SOL    HW113715   0.100   4.970   4.406
 4272SOL    HW213716   0.069   5.052   4.544
 4273SOL     OW13717   4.408   6.406   4.323
 4273SOL    HW113718   4.494   6.357   4.339
 4273SOL    HW213719   4.335   6.340   4.304
 4274SOL     OW13720   0.545   6.930   3.433
 4274SOL    HW113721   0.456   6.970   3.414
 4274SOL    HW213722   0.581   6.887   3.350
 4275SOL     OW13723   6.804   1.083   6.065
 4275SOL    HW113724   6.752   0.997   6.066
 4275SOL    HW213725   6.742   1.160   6.081
 4276SOL     OW13726   1.380   5.204   2.931
 4276SOL    HW113727   1.457   5.262   2.958
 4276SOL    HW213728   1.300   5.261   2.916
 4277SOL     OW13729   0.258   4.418   3.956
 4277SOL    HW113730   0.168   4.408   3.915
 4277SOL    HW213731   0.321   4.351   3.916
 4278SOL     OW13732   6.768   0.411   5.130
 4278SOL    HW113733   6.669   0.409   5.126
 4278SOL    HW213734   6.802   0.491   5.078
 4279SOL     OW13735   3.693   6.452   5.345
 4279SOL    HW113736   3.782   6.455   5.299
 4279SOL    HW213737   3.669   6.545   5.376
 4280SOL     OW13738   5.807   1.458   5.276
 4280SOL    HW113739   5.724   1.512   5.259
 4280SOL    HW213740   5.885   1.520   5.288
 4281SOL     OW13741   1.575   4.587   4.556
 4281SOL    HW113742   1.556   4.658   4.624
 4281SOL    HW213743   1.570   4.497   4.600
 4282SOL     OW13744   2.630   2.191   0.024
 4282SOL    HW113745   2.599   2.113   0.078
 4282SOL    HW213746   2.582   2.193   6.955
 4283SOL     OW13747   1.513   0.366   4.050
 4283SOL    HW113748   1.542   0.401   4.139
 4283SOL    HW213749   1.588   0.375   3.985
 4284SOL     OW13750   5.546   6.808   2.631
 4284SOL    HW113751   5.512   6.864   2.555
 4284SOL    HW213752   5.635   6.771   2.607
 4285SOL     OW13753   0.238   0.093   6.050
 4285SOL    HW113754   0.237   0.034   5.969
 4285SOL    HW213755   0.164   0.067   6.111
 4286SOL     OW13756   5.189   5.587   6.601
 4286SOL    HW113757   5.100   5.622   6.571
 4286SOL    HW213758   5.258   5.609   6.532
 4287SOL     OW13759   5.891   0.657   5.282
 4287SOL    HW113760   5.866   0.679   5.376
 4287SOL    HW213761   5.991   0.654   5.275
 4288SOL     OW13762   0.872   6.816   3.319
 4288SOL    HW113763   0.932   6.738   3.298
 4288SOL    HW213764   0.778   6.784   3.328
 4289SOL     OW13765   5.457   2.419   2.126
 4289SOL    HW113766   5.427   2.506   2.164
 4289SOL    HW213767   5.517   2.436   2.047
 4290SOL     OW13768   2.480   6.716   1.125
 4290SOL    HW113769   2.390   6.701   1.166
 4290SOL    HW213770   2.506   6.636   1.072
 4291SOL     OW13771   4.909   3.186   1.250
 4291SOL    HW113772   4.926   3.225   1.340
 4291SOL    HW213773   4.851   3.248   1.197
 4292SOL     OW13774   6.254   4.553   5.370
 4292SOL    HW113775   6.223   4.549   5.465
 4292SOL    HW213776   6.181   4.590   5.313
 4293SOL     OW13777   6.385   4.033   6.449
 4293SOL    HW113778   6.336   4.019   6.535
 4293SOL    HW213779   6.472   4.078   6.466
 4294SOL     OW13780   4.860   3.077   6.554
 4294SOL    HW113781   4.841   3.118   6.465
 4294SOL    HW213782   4.830   3.139   6.626
 4295SOL     OW13783   3.878   0.042   5.119
 4295SOL    HW113784   3.895   0.072   5.026
 4295SOL    HW213785   3.938   0.091   5.182
 4296SOL     OW13786   2.578   1.981   0.198
 4296SOL    HW113787   2.538   1.896   0.234
 4296SOL    HW213788   2.621   2.031   0.273
 4297SOL     OW13789   5.260   7.008   5.440
 4297SOL    HW113790   5.318   6.979   5.364
 4297SOL    HW213791   5.213   6.929   5.479
 4298SOL     OW13792   1.615   5.125   6.840
 4298SOL    HW113793   1.653   5.039   6.805
 4298SOL    HW213794   1.613   5.123   6.940
 4299SOL     OW13795   1.616   3.329   6.421
 4299SOL    HW113796   1.644   3.413   6.467
 4299SOL    HW213797   1.696   3.274   6.401
 4300SOL     OW13798   2.932   1.570   6.142
 4300SOL    HW113799   2.925   1.490   6.083
 4300SOL    HW213800   2.902   1.546   6.235
 4301SOL     OW13801   2.773   1.411   0.366
 4301SOL    HW113802   2.807   1.394   0.273
 4301SOL    HW213803   2.822   1.354   0.431
 4302SOL     OW13804   1.272   6.704   6.063
 4302SOL    HW113805   1.258   6.611   6.029
 4302SOL    HW213806   1.214   6.720   6.143
 4303SOL     OW13807   6.341   4.448   3.162
 4303SOL    HW113808   6.414   4.391   3.198
 4303SOL    HW213809   6.352   4.459   3.063
 4304SOL     OW13810   3.275   3.414   4.381
 4304SOL    HW113811   3.284   3.507   4.345
 4304SOL    HW213812   3.185   3.404   4.423
 4305SOL     OW13813   6.175   1.733   3.859
 4305SOL    HW113814   6.267   1.750   3.824
 4305SOL    HW213815   6.171   1.641   3.898
 4306SOL     OW13816   0.133   3.696   6.773
 4306SOL    HW113817   0.165   3.785   6.804
 4306SOL    HW213818   0.205   3.651   6.719
 4307SOL     OW13819   4.906   4.599   5.523
 4307SOL    HW113820   4.872   4.578   5.431
 4307SOL    HW213821   4.837   4.572   5.591
 4308SOL     OW13822   5.127   5.777   6.044
 4308SOL    HW113823   5.038   5.735   6.024
 4308SOL    HW213824   5.146   5.847   5.975
 4309SOL     OW13825   0.686   6.915   0.285
 4309SOL    HW113826   0.639   7.003   0.283
 4309SOL    HW213827   0.715   6.890   0.193
 4310SOL     OW13828   1.919   2.599   3.821
 4310SOL    HW113829   1.888   2.543   3.744
 4310SOL    HW213830   1.928   2.541   3.902
 4311SOL     OW13831   1.420   6.092   3.207
 4311SOL    HW113832   1.385   6.006   3.170
 4311SOL    HW213833   1.368   6.168   3.169
 4312SOL     OW13834   0.888   5.932   1.665
 4312SOL    HW113835   0.827   5.855   1.647
 4312SOL    HW213836   0.848   5.991   1.736
 4313SOL     OW13837   5.688   1.387   1.662
 4313SOL    HW113838   5.752   1.365   1.736
 4313SOL    HW213839   5.660   1.483   1.670
 4314SOL     OW13840   4.920   3.021   3.321
 4314SOL    HW113841   4.896   3.039   3.417
 4314SOL    HW213842   4.905   2.924   3.301
 4315SOL     OW13843   1.939   0.545   2.731
 4315SOL    HW113844   1.994   0.501   2.660
 4315SOL    HW213845   1.903   0.474   2.793
 4316SOL     OW13846   4.793   0.097   1.137
 4316SOL    HW113847   4.706   0.088   1.185
 4316SOL    HW213848   4.792   0.179   1.079
 4317SOL     OW13849   3.187   0.990   4.755
 4317SOL    HW113850   3.243   0.930   4.698
 4317SOL    HW213851   3.135   0.935   4.820
 4318SOL     OW13852   0.597   3.674   3.322
 4318SOL    HW113853   0.574   3.669   3.225
 4318SOL    HW213854   0.533   3.735   3.368
 4319SOL     OW13855   2.706   3.162   0.181
 4319SOL    HW113856   2.793   3.210   0.196
 4319SOL    HW213857   2.633   3.209   0.231
 4320SOL     OW13858   1.556   6.440   2.249
 4320SOL    HW113859   1.561   6.484   2.160
 4320SOL    HW213860   1.548   6.510   2.320
 4321SOL     OW13861   6.443   0.677   4.360
 4321SOL    HW113862   6.495   0.667   4.445
 4321SOL    HW213863   6.365   0.737   4.376
 4322SOL     OW13864   6.382   1.260   6.675
 4322SOL    HW113865   6.468   1.311   6.672
 4322SOL    HW213866   6.314   1.314   6.725
 4323SOL     OW13867   5.634   3.255   2.238
 4323SOL    HW113868   5.644   3.333   2.300
 4323SOL    HW213869   5.543   3.214   2.250
 4324SOL     OW13870   5.874   4.372   0.043
 4324SOL    HW113871   5.844   4.467   0.051
 4324SOL    HW213872   5.805   4.311   0.082
 4325SOL     OW13873   1.090   0.846   0.255
 4325SOL    HW113874   1.144   0.928   0.273
 4325SOL    HW213875   1.099   0.822   0.158
 4326SOL     OW13876   6.778   2.877   5.004
 4326SOL    HW113877   6.855   2.941   5.010
 4326SOL    HW213878   6.789   2.806   5.073
 4327SOL     OW13879   5.951   5.702   2.089
 4327SOL    HW113880   5.860   5.685   2.127
 4327SOL    HW213881   5.945   5.774   2.020
 4328SOL     OW13882   4.697   4.751   5.681
 4328SOL    HW113883   4.742   4.799   5.606
 4328SOL    HW213884   4.757   4.751   5.761
 4329SOL     OW13885   3.073   1.798   6.243
 4329SOL    HW113886   3.084   1.882   6.191
 4329SOL    HW213887   3.015   1.734   6.192
 4330SOL     OW13888   2.710   0.587   5.806
 4330SOL    HW113889   2.655   0.505   5.793
 4330SOL    HW213890   2.687   0.655   5.737
 4331SOL     OW13891   5.194   3.483   1.566
 4331SOL    HW113892   5.286   3.442   1.566
 4331SOL    HW213893   5.126   3.411   1.554
 4332SOL     OW13894   5.342   3.822   2.525
 4332SOL    HW113895   5.326   3.903   2.468
 4332SOL    HW213896   5.297   3.743   2.484
 4333SOL     OW13897   4.807   1.674   5.124
 4333SOL    HW113898   4.749   1.732   5.067
 4333SOL    HW213899   4.845   1.727   5.200
 4334SOL     OW13900   2.761   1.890   2.180
 4334SOL    HW113901   2.856   1.907   2.205
 4334SOL    HW213902   2.707   1.872   2.262
 4335SOL     OW13903   2.933   3.643   3.569
 4335SOL    HW113904   2.989   3.725   3.573
 4335SOL    HW213905   2.913   3.611   3.662
 4336SOL     OW13906   1.110   6.908   5.470
 4336SOL    HW113907   1.188   6.878   5.524
 4336SOL    HW213908   1.096   6.844   5.394
 4337SOL     OW13909   1.024   4.631   0.372
 4337SOL    HW113910   0.945   4.687   0.343
 4337SOL    HW213911   1.096   4.691   0.405
 4338SOL     OW13912   4.889   5.294   4.885
 4338SOL    HW113913   4.789   5.295   4.889
 4338SOL    HW213914   4.925   5.270   4.975
 4339SOL     OW13915   5.713   2.670   5.425
 4339SOL    HW113916   5.735   2.635   5.333
 4339SOL    HW213917   5.764   2.617   5.493
 4340SOL     OW13918   6.074   3.621   2.527
 4340SOL    HW113919   6.091   3.720   2.529
 4340SOL    HW213920   5.978   3.604   2.547
 4341SOL     OW13921   1.184   3.831   1.798
 4341SOL    HW113922   1.260   3.860   1.740
 4341SOL    HW213923   1.152   3.909   1.851
 4342SOL     OW13924   6.543   3.093   3.839
 4342SOL    HW113925   6.487   3.012   3.856
 4342SOL    HW213926   6.571   3.096   3.744
 4343SOL     OW13927   2.836   0.139   6.767
 4343SOL    HW113928   2.840   0.103   6.674
 4343SOL    HW213929   2.915   0.198   6.784
 4344SOL     OW13930   1.655   5.290   3.563
 4344SOL    HW113931   1.714   5.325   3.489
 4344SOL    HW213932   1.631   5.195   3.544
 4345SOL     OW13933   1.773   3.407   5.626
 4345SOL    HW113934   1.724   3.384   5.710
 4345SOL    HW213935   1.796   3.504   5.628
 4346SOL     OW13936   2.267   2.946   1.890
 4346SOL    HW113937   2.219   2.912   1.809
 4346SOL    HW213938   2.347   2.889   1.908
 4347SOL     OW13939   6.818   1.109   1.517
 4347SOL    HW113940   6.870   1.086   1.600
 4347SOL    HW213941   6.829   1.035   1.450
 4348SOL     OW13942   0.160   3.200   2.607
 4348SOL    HW113943   0.171   3.193   2.706
 4348SOL    HW213944   0.120   3.288   2.584
 4349SOL     OW13945   0.117   1.654   2.970
 4349SOL    HW113946   0.159   1.581   2.916
 4349SOL    HW213947   0.023   1.668   2.939
 4350SOL     OW13948   4.587   2.246   4.142
 4350SOL    HW113949   4.506   2.302   4.156
 4350SOL    HW213950   4.666   2.291   4.183
 4351SOL     OW13951   2.278   6.555   1.614
 4351SOL    HW113952   2.349   6.484   1.620
 4351SOL    HW213953   2.314   6.641   1.652
 4352SOL     OW13954   0.445   2.031   1.300
 4352SOL    HW113955   0.534   2.068   1.275
 4352SOL    HW213956   0.448   1.994   1.392
 4353SOL     OW13957   2.753   5.199   1.038
 4353SOL    HW113958   2.720   5.266   0.972
 4353SOL    HW213959   2.753   5.108   0.996
 4354SOL     OW13960   2.019   6.227   5.969
 4354SOL    HW113961   1.943   6.280   5.931
 4354SOL    HW213962   2.087   6.290   6.008
 4355SOL     OW13963   3.773   0.209   2.000
 4355SOL    HW113964   3.833   0.135   1.970
 4355SOL    HW213965   3.806   0.296   1.963
 4356SOL     OW13966   4.664   4.416   1.779
 4356SOL    HW113967   4.670   4.503   1.828
 4356SOL    HW213968   4.595   4.358   1.823
 4357SOL     OW13969   5.992   0.155   6.742
 4357SOL    HW113970   5.979   0.111   6.653
 4357SOL    HW213971   5.907   0.198   6.771
 4358SOL     OW13972   6.570   6.331   0.582
 4358SOL    HW113973   6.636   6.262   0.611
 4358SOL    HW213974   6.552   6.322   0.484
 4359SOL     OW13975   1.584   2.393   4.474
 4359SOL    HW113976   1.609   2.489   4.463
 4359SOL    HW213977   1.561   2.375   4.569
 4360SOL     OW13978   1.535   3.948   2.422
 4360SOL    HW113979   1.455   3.922   2.368
 4360SOL    HW213980   1.618   3.938   2.368
 4361SOL     OW13981   3.024   2.698   1.738
 4361SOL    HW113982   2.998   2.615   1.787
 4361SOL    HW213983   3.057   2.674   1.647
 4362SOL     OW13984   6.093   4.122   5.555
 4362SOL    HW113985   6.002   4.118   5.596
 4362SOL    HW213986   6.159   4.155   5.623
 4363SOL     OW13987   4.937   1.984   5.931
 4363SOL    HW113988   5.004   2.059   5.930
 4363SOL    HW213989   4.904   1.971   6.025
 4364SOL     OW13990   2.909   3.783   5.470
 4364SOL    HW113991   2.951   3.715   5.409
 4364SOL    HW213992   2.975   3.856   5.487
 4365SOL     OW13993   3.195   1.532   2.171
 4365SOL    HW113994   3.134   1.590   2.224
 4365SOL    HW213995   3.142   1.459   2.127
 4366SOL     OW13996   5.760   6.463   1.050
 4366SOL    HW113997   5.683   6.467   0.986
 4366SOL    HW213998   5.726   6.470   1.144
 4367SOL     OW13999   1.097   4.987   5.791
 4367SOL    HW114000   1.131   5.023   5.704
 4367SOL    HW214001   1.116   4.889   5.797
 4368SOL     OW14002   4.084   5.112   1.110
 4368SOL    HW114003   4.008   5.048   1.100
 4368SOL    HW214004   4.088   5.144   1.205
 4369SOL     OW14005   5.095   5.605   2.412
 4369SOL    HW114006   5.003   5.632   2.383
 4369SOL    HW214007   5.162   5.667   2.370
 4370SOL     OW14008   5.473   4.491   3.092
 4370SOL    HW114009   5.477   4.589   3.114
 4370SOL    HW214010   5.477   4.480   2.993
 4371SOL     OW14011   6.206   0.629   1.252
 4371SOL    HW114012   6.278   0.663   1.312
 4371SOL    HW214013   6.145   0.704   1.226
 4372SOL     OW14014   4.447   1.276   2.702
 4372SOL    HW114015   4.373   1.333   2.665
 4372SOL    HW214016   4.505   1.331   2.762
 4373SOL     OW14017   0.157   3.071   6.646
 4373SOL    HW114018   0.112   3.042   6.561
 4373SOL    HW214019   0.212   2.995   6.682
 4374SOL     OW14020   1.322   2.092   1.740
 4374SOL    HW114021   1.263   2.136   1.808
 4374SOL    HW214022   1.385   2.030   1.786
 4375SOL     OW14023   2.519   6.908   3.987
 4375SOL    HW114024   2.559   6.985   4.037
 4375SOL    HW214025   2.493   6.836   4.051
 4376SOL     OW14026   6.852   0.287   2.212
 4376SOL    HW114027   6.943   0.328   2.224
 4376SOL    HW214028   6.857   0.189   2.234
 4377SOL     OW14029   5.391   3.801   0.770
 4377SOL    HW114030   5.296   3.780   0.793
 4377SOL    HW214031   5.426   3.731   0.709
 4378SOL     OW14032   2.087   0.663   3.031
 4378SOL    HW114033   2.167   0.717   3.056
 4378SOL    HW214034   2.073   0.667   2.933
 4379SOL     OW14035   2.683   1.205   4.267
 4379SOL    HW114036   2.593   1.163   4.280
 4379SOL    HW214037   2.712   1.248   4.352
 4380SOL     OW14038   1.569   0.937   1.636
 4380SOL    HW114039   1.589   1.025   1.680
 4380SOL    HW214040   1.569   0.949   1.537
 4381SOL     OW14041   1.701   5.624   5.047
 4381SOL    HW114042   1.666   5.536   5.014
 4381SOL    HW214043   1.784   5.608   5.101
 4382SOL     OW14044   6.708   2.989   6.140
 4382SOL    HW114045   6.717   2.979   6.041
 4382SOL    HW214046   6.780   3.049   6.174
 4383SOL     OW14047   5.923   3.641   6.276
 4383SOL    HW114048   5.951   3.716   6.335
 4383SOL    HW214049   5.996   3.621   6.211
 4384SOL     OW14050   6.450   0.781   3.359
 4384SOL    HW114051   6.458   0.731   3.273
 4384SOL    HW214052   6.357   0.816   3.368
 4385SOL     OW14053   4.467   2.290   4.756
 4385SOL    HW114054   4.374   2.310   4.725
 4385SOL    HW214055   4.465   2.219   4.826
 4386SOL     OW14056   1.289   3.827   5.553
 4386SOL    HW114057   1.279   3.916   5.507
 4386SOL    HW214058   1.280   3.839   5.651
 4387SOL     OW14059   6.830   2.587   1.589
 4387SOL    HW114060   6.851   2.659   1.655
 4387SOL    HW214061   6.733   2.592   1.564
 4388SOL     OW14062   5.270   2.314   6.108
 4388SOL    HW114063   5.361   2.347   6.085
 4388SOL    HW214064   5.246   2.239   6.048
 4389SOL     OW14065   6.851   3.750   1.621
 4389SOL    HW114066   6.825   3.833   1.670
 4389SOL    HW214067   6.947   3.758   1.592
 4390SOL     OW14068   5.563   6.691   0.570
 4390SOL    HW114069   5.512   6.772   0.602
 4390SOL    HW214070   5.660   6.712   0.567
 4391SOL     OW14071   1.871   5.078   6.634
 4391SOL    HW114072   1.791   5.127   6.599
 4391SOL    HW214073   1.844   4.985   6.662
 4392SOL     OW14074   0.716   1.943   4.037
 4392SOL    HW114075   0.683   1.966   3.945
 4392SOL    HW214076   0.679   1.854   4.064
 4393SOL     OW14077   6.161   0.563   1.534
 4393SOL    HW114078   6.138   0.520   1.447
 4393SOL    HW214079   6.254   0.537   1.560
 4394SOL     OW14080   1.033   6.948   1.695
 4394SOL    HW114081   1.041   6.926   1.598
 4394SOL    HW214082   1.086   0.012   1.715
 4395SOL     OW14083   1.864   0.362   1.694
 4395SOL    HW114084   1.857   0.265   1.716
 4395SOL    HW214085   1.878   0.373   1.595
 4396SOL     OW14086   1.660   1.713   3.965
 4396SOL    HW114087   1.703   1.672   3.884
 4396SOL    HW214088   1.584   1.655   3.995
 4397SOL     OW14089   2.165   3.133   3.996
 4397SOL    HW114090   2.180   3.216   3.942
 4397SOL    HW214091   2.185   3.053   3.940
 4398SOL     OW14092   2.170   3.711   6.300
 4398SOL    HW114093   2.153   3.800   6.258
 4398SOL    HW214094   2.098   3.647   6.272
 4399SOL     OW14095   1.770   5.865   1.743
 4399SOL    HW114096   1.777   5.880   1.645
 4399SOL    HW214097   1.861   5.843   1.780
 4400SOL     OW14098   1.937   6.680   3.666
 4400SOL    HW114099   1.898   6.766   3.632
 4400SOL    HW214100   1.864   6.612   3.676
 4401SOL     OW14101   3.953   6.320   5.188
 4401SOL    HW114102   3.954   6.403   5.133
 4401SOL    HW214103   3.907   6.247   5.138
 4402SOL     OW14104   1.105   0.471   2.030
 4402SOL    HW114105   1.045   0.540   2.069
 4402SOL    HW214106   1.050   0.395   1.994
 4403SOL     OW14107   0.761   5.738   0.802
 4403SOL    HW114108   0.704   5.670   0.848
 4403SOL    HW214109   0.716   5.827   0.804
 4404SOL     OW14110   1.269   5.597   5.556
 4404SOL    HW114111   1.359   5.612   5.515
 4404SOL    HW214112   1.273   5.516   5.615
 4405SOL     OW14113   2.572   5.311   3.497
 4405SOL    HW114114   2.587   5.336   3.401
 4405SOL    HW214115   2.556   5.213   3.504
 4406SOL     OW14116   6.688   3.283   1.568
 4406SOL    HW114117   6.703   3.199   1.516
 4406SOL    HW214118   6.705   3.362   1.509
 4407SOL     OW14119   0.311   5.543   1.453
 4407SOL    HW114120   0.232   5.582   1.405
 4407SOL    HW214121   0.282   5.463   1.504
 4408SOL     OW14122   3.269   6.121   6.851
 4408SOL    HW114123   3.211   6.061   6.795
 4408SOL    HW214124   3.222   6.142   6.937
 4409SOL     OW14125   3.988   0.909   1.849
 4409SOL    HW114126   4.026   1.002   1.846
 4409SOL    HW214127   4.005   0.864   1.761
 4410SOL     OW14128   0.086   6.501   0.637
 4410SOL    HW114129   0.028   6.454   0.571
 4410SOL    HW214130   0.103   6.441   0.715
 4411SOL     OW14131   3.523   4.979   5.378
 4411SOL    HW114132   3.601   4.972   5.441
 4411SOL    HW214133   3.547   4.938   5.290
 4412SOL     OW14134   4.936   6.869   4.473
 4412SOL    HW114135   4.970   6.845   4.563
 4412SOL    HW214136   4.847   6.827   4.458
 4413SOL     OW14137   3.982   6.353   4.200
 4413SOL    HW114138   4.029   6.377   4.285
 4413SOL    HW214139   4.023   6.402   4.124
 4414SOL     OW14140   4.448   5.437   1.626
 4414SOL    HW114141   4.398   5.444   1.712
 4414SOL    HW214142   4.402   5.372   1.566
 4415SOL     OW14143   3.554   3.842   1.162
 4415SOL    HW114144   3.506   3.918   1.120
 4415SOL    HW214145   3.492   3.764   1.171
 4416SOL     OW14146   3.912   1.552   4.585
 4416SOL    HW114147   3.950   1.640   4.612
 4416SOL    HW214148   3.948   1.480   4.644
 4417SOL     OW14149   6.225   2.731   4.225
 4417SOL    HW114150   6.150   2.774   4.277
 4417SOL    HW214151   6.310   2.779   4.245
 4418SOL     OW14152   6.437   1.956   1.759
 4418SOL    HW114153   6.493   1.873   1.758
 4418SOL    HW214154   6.347   1.936   1.721
 4419SOL     OW14155   5.976   6.037   6.043
 4419SOL    HW114156   5.886   6.008   6.075
 4419SOL    HW214157   5.991   6.004   5.950
 4420SOL     OW14158   3.760   2.176   1.455
 4420SOL    HW114159   3.752   2.123   1.539
 4420SOL    HW214160   3.678   2.163   1.399
 4421SOL     OW14161   1.142   3.231   5.250
 4421SOL    HW114162   1.154   3.150   5.193
 4421SOL    HW214163   1.211   3.300   5.226
 4422SOL     OW14164   0.835   4.805   0.212
 4422SOL    HW114165   0.757   4.763   0.167
 4422SOL    HW214166   0.846   4.899   0.180
 4423SOL     OW14167   6.348   4.611   5.799
 4423SOL    HW114168   6.383   4.561   5.878
 4423SOL    HW214169   6.290   4.550   5.744
 4424SOL     OW14170   5.279   5.842   4.112
 4424SOL    HW114171   5.271   5.819   4.209
 4424SOL    HW214172   5.198   5.813   4.063
 4425SOL     OW14173   1.894   5.266   0.695
 4425SOL    HW114174   1.961   5.256   0.768
 4425SOL    HW214175   1.808   5.223   0.723
 4426SOL     OW14176   0.971   0.519   3.945
 4426SOL    HW114177   0.897   0.545   3.883
 4426SOL    HW214178   0.987   0.421   3.939
 4427SOL     OW14179   3.848   6.498   2.653
 4427SOL    HW114180   3.776   6.566   2.666
 4427SOL    HW214181   3.815   6.409   2.684
 4428SOL     OW14182   5.430   1.106   4.702
 4428SOL    HW114183   5.484   1.096   4.618
 4428SOL    HW214184   5.434   1.201   4.733
 4429SOL     OW14185   3.173   6.672   3.009
 4429SOL    HW114186   3.098   6.665   3.075
 4429SOL    HW214187   3.241   6.737   3.043
 4430SOL     OW14188   5.920   4.812   4.197
 4430SOL    HW114189   5.950   4.894   4.148
 4430SOL    HW214190   5.924   4.829   4.296
 4431SOL     OW14191   3.373   0.770   3.600
 4431SOL    HW114192   3.399   0.674   3.610
 4431SOL    HW214193   3.384   0.798   3.505
 4432SOL     OW14194   2.528   3.860   6.533
 4432SOL    HW114195   2.499   3.875   6.439
 4432SOL    HW214196   2.540   3.762   6.550
 4433SOL     OW14197   0.957   1.968   4.841
 4433SOL    HW114198   0.931   1.911   4.763
 4433SOL    HW214199   0.877   1.986   4.898
 4434SOL     OW14200   6.775   1.311   1.884
 4434SOL    HW114201   6.756   1.247   1.958
 4434SOL    HW214202   6.701   1.307   1.816
 4435SOL     OW14203   3.441   4.009   0.999
 4435SOL    HW114204   3.378   4.085   1.018
 4435SOL    HW214205   3.396   3.943   0.938
 4436SOL     OW14206   4.362   1.926   1.286
 4436SOL    HW114207   4.322   1.963   1.202
 4436SOL    HW214208   4.433   1.988   1.319
 4437SOL     OW14209   0.340   3.411   2.331
 4437SOL    HW114210   0.282   3.413   2.250
 4437SOL    HW214211   0.306   3.476   2.399
 4438SOL     OW14212   4.433   6.956   5.480
 4438SOL    HW114213   4.524   6.967   5.441
 4438SOL    HW214214   4.419   6.860   5.506
 4439SOL     OW14215   0.891   6.313   3.018
 4439SOL    HW114216   0.985   6.278   3.014
 4439SOL    HW214217   0.849   6.306   2.928
 4440SOL     OW14218   2.642   4.797   1.111
 4440SOL    HW114219   2.705   4.812   1.035
 4440SOL    HW214220   2.621   4.700   1.119
 4441SOL     OW14221   1.038   1.682   0.703
 4441SOL    HW114222   1.085   1.626   0.771
 4441SOL    HW214223   0.941   1.660   0.703
 4442SOL     OW14224   0.858   5.025   5.982
 4442SOL    HW114225   0.900   5.023   5.892
 4442SOL    HW214226   0.891   4.948   6.036
 4443SOL     OW14227   0.561   4.470   6.645
 4443SOL    HW114228   0.600   4.510   6.728
 4443SOL    HW214229   0.480   4.523   6.617
 4444SOL     OW14230   4.311   4.147   0.749
 4444SOL    HW114231   4.332   4.183   0.840
 4444SOL    HW214232   4.266   4.218   0.695
 4445SOL     OW14233   0.577   5.513   6.557
 4445SOL    HW114234   0.496   5.541   6.505
 4445SOL    HW214235   0.651   5.492   6.494
 4446SOL     OW14236   5.265   1.494   0.143
 4446SOL    HW114237   5.339   1.472   0.080
 4446SOL    HW214238   5.279   1.586   0.181
 4447SOL     OW14239   5.392   4.500   5.302
 4447SOL    HW114240   5.354   4.410   5.325
 4447SOL    HW214241   5.361   4.527   5.211
 4448SOL     OW14242   2.957   6.347   1.389
 4448SOL    HW114243   2.999   6.380   1.474
 4448SOL    HW214244   2.866   6.311   1.409
 4449SOL     OW14245   4.450   1.198   6.378
 4449SOL    HW114246   4.529   1.254   6.404
 4449SOL    HW214247   4.427   1.216   6.282
 4450SOL     OW14248   3.481   1.053   0.139
 4450SOL    HW114249   3.500   0.963   0.177
 4450SOL    HW214250   3.539   1.068   0.059
 4451SOL     OW14251   4.743   4.824   3.578
 4451SOL    HW114252   4.690   4.893   3.529
 4451SOL    HW214253   4.788   4.866   3.657
 4452SOL     OW14254   5.698   6.068   4.644
 4452SOL    HW114255   5.719   6.045   4.549
 4452SOL    HW214256   5.610   6.028   4.669
 4453SOL     OW14257   0.590   3.086   1.800
 4453SOL    HW114258   0.564   2.990   1.800
 4453SOL    HW214259   0.634   3.109   1.886
 4454SOL     OW14260   0.529   1.384   6.687
 4454SOL    HW114261   0.605   1.398   6.623
 4454SOL    HW214262   0.565   1.363   6.777
 4455SOL     OW14263   5.733   5.716   5.072
 4455SOL    HW114264   5.830   5.703   5.050
 4455SOL    HW214265   5.721   5.803   5.121
 4456SOL     OW14266   2.164   6.223   3.291
 4456SOL    HW114267   2.118   6.293   3.345
 4456SOL    HW214268   2.096   6.163   3.249
 4457SOL     OW14269   1.658   2.073   4.704
 4457SOL    HW114270   1.723   2.052   4.632
 4457SOL    HW214271   1.581   2.009   4.700
 4458SOL     OW14272   1.997   3.553   1.928
 4458SOL    HW114273   1.918   3.491   1.920
 4458SOL    HW214274   2.072   3.504   1.972
 4459SOL     OW14275   1.877   1.871   4.820
 4459SOL    HW114276   1.831   1.916   4.744
 4459SOL    HW214277   1.961   1.921   4.843
 4460SOL     OW14278   0.120   3.048   4.163
 4460SOL    HW114279   0.134   2.995   4.080
 4460SOL    HW214280   0.045   3.113   4.148
 4461SOL     OW14281   2.257   0.584   1.371
 4461SOL    HW114282   2.199   0.573   1.290
 4461SOL    HW214283   2.238   0.510   1.435
 4462SOL     OW14284   6.100   3.806   2.106
 4462SOL    HW114285   6.043   3.776   2.030
 4462SOL    HW214286   6.047   3.869   2.163
 4463SOL     OW14287   5.353   0.841   0.965
 4463SOL    HW114288   5.394   0.925   0.929
 4463SOL    HW214289   5.302   0.863   1.048
 4464SOL     OW14290   0.506   5.458   0.515
 4464SOL    HW114291   0.495   5.371   0.467
 4464SOL    HW214292   0.528   5.441   0.611
 4465SOL     OW14293   2.618   5.794   0.090
 4465SOL    HW114294   2.539   5.743   0.057
 4465SOL    HW214295   2.611   5.804   0.190
 4466SOL     OW14296   2.417   1.874   3.798
 4466SOL    HW114297   2.454   1.957   3.755
 4466SOL    HW214298   2.462   1.794   3.760
 4467SOL     OW14299   2.429   6.117   4.054
 4467SOL    HW114300   2.480   6.201   4.070
 4467SOL    HW214301   2.484   6.054   4.000
 4468SOL     OW14302   0.859   3.116   0.349
 4468SOL    HW114303   0.830   3.057   0.273
 4468SOL    HW214304   0.837   3.211   0.327
 4469SOL     OW14305   2.765   0.078   1.689
 4469SOL    HW114306   2.693   0.113   1.628
 4469SOL    HW214307   2.748   7.000   1.708
 4470SOL     OW14308   0.793   0.906   2.059
 4470SOL    HW114309   0.827   0.968   2.130
 4470SOL    HW214310   0.700   0.879   2.081
 4471SOL     OW14311   2.343   2.915   6.240
 4471SOL    HW114312   2.275   2.965   6.293
 4471SOL    HW214313   2.402   2.863   6.302
 4472SOL     OW14314   1.667   2.851   1.205
 4472SOL    HW114315   1.729   2.892   1.272
 4472SOL    HW214316   1.608   2.921   1.166
 4473SOL     OW14317   6.773   2.976   4.202
 4473SOL    HW114318   6.829   3.020   4.131
 4473SOL    HW214319   6.831   2.914   4.256
 4474SOL     OW14320   3.212   1.048   2.003
 4474SOL    HW114321   3.144   1.114   2.034
 4474SOL    HW214322   3.230   0.982   2.076
 4475SOL     OW14323   1.001   3.517   2.464
 4475SOL    HW114324   0.938   3.441   2.478
 4475SOL    HW214325   0.989   3.555   2.373
 4476SOL     OW14326   5.770   1.355   4.093
 4476SOL    HW114327   5.847   1.390   4.146
 4476SOL    HW214328   5.796   1.270   4.048
 4477SOL     OW14329   2.208   0.258   5.258
 4477SOL    HW114330   2.117   0.297   5.247
 4477SOL    HW214331   2.275   0.332   5.267
 4478SOL     OW14332   1.088   0.180   1.301
 4478SOL    HW114333   1.067   0.278   1.307
 4478SOL    HW214334   1.182   0.169   1.270
 4479SOL     OW14335   1.228   1.846   0.215
 4479SOL    HW114336   1.303   1.819   0.155
 4479SOL    HW214337   1.264   1.866   0.306
 4480SOL     OW14338   0.225   4.652   4.596
 4480SOL    HW114339   0.214   4.685   4.690
 4480SOL    HW214340   0.135   4.646   4.552
 4481SOL     OW14341   2.462   5.114   5.105
 4481SOL    HW114342   2.432   5.209   5.099
 4481SOL    HW214343   2.467   5.088   5.202
 4482SOL     OW14344   2.885   4.521   6.066
 4482SOL    HW114345   2.879   4.453   5.993
 4482SOL    HW214346   2.839   4.605   6.038
 4483SOL     OW14347   0.611   2.829   2.114
 4483SOL    HW114348   0.528   2.827   2.057
 4483SOL    HW214349   0.594   2.884   2.196
 4484SOL     OW14350   2.445   3.310   0.674
 4484SOL    HW114351   2.508   3.295   0.750
 4484SOL    HW214352   2.366   3.249   0.684
 4485SOL     OW14353   4.877   2.748   4.822
 4485SOL    HW114354   4.815   2.802   4.765
 4485SOL    HW214355   4.971   2.768   4.797
 4486SOL     OW14356   5.720   4.718   5.525
 4486SOL    HW114357   5.818   4.731   5.508
 4486SOL    HW214358   5.687   4.639   5.473
 4487SOL     OW14359   1.899   2.988   6.951
 4487SOL    HW114360   1.990   3.009   6.987
 4487SOL    HW214361   1.859   2.913   7.003
 4488SOL     OW14362   0.861   3.635   3.564
 4488SOL    HW114363   0.879   3.549   3.517
 4488SOL    HW214364   0.875   3.622   3.663
 4489SOL     OW14365   5.064   5.343   5.103
 4489SOL    HW114366   5.075   5.407   5.179
 4489SOL    HW214367   5.062   5.249   5.139
 4490SOL     OW14368   5.291   1.875   0.956
 4490SOL    HW114369   5.291   1.974   0.972
 4490SOL    HW214370   5.324   1.857   0.863
 4491SOL     OW14371   0.755   3.031   2.981
 4491SOL    HW114372   0.825   3.055   2.913
 4491SOL    HW214373   0.796   3.024   3.071
 4492SOL     OW14374   6.057   0.870   1.264
 4492SOL    HW114375   6.143   0.913   1.291
 4492SOL    HW214376   5.992   0.941   1.236
 4493SOL     OW14377   5.296   6.794   4.891
 4493SOL    HW114378   5.305   6.893   4.883
 4493SOL    HW214379   5.362   6.748   4.832
 4494SOL     OW14380   0.926   0.525   5.851
 4494SOL    HW114381   0.963   0.467   5.778
 4494SOL    HW214382   0.839   0.487   5.883
 4495SOL     OW14383   3.470   5.868   2.312
 4495SOL    HW114384   3.385   5.823   2.285
 4495SOL    HW214385   3.537   5.799   2.341
 4496SOL     OW14386   4.541   6.314   6.458
 4496SOL    HW114387   4.555   6.400   6.506
 4496SOL    HW214388   4.612   6.303   6.387
 4497SOL     OW14389   3.867   2.142   6.895
 4497SOL    HW114390   3.890   2.175   6.986
 4497SOL    HW214391   3.925   2.064   6.872
 4498SOL     OW14392   6.876   5.292   6.208
 4498SOL    HW114393   6.856   5.246   6.122
 4498SOL    HW214394   6.968   5.333   6.204
 4499SOL     OW14395   6.902   1.498   2.754
 4499SOL    HW114396   6.853   1.561   2.694
 4499SOL    HW214397   6.864   1.406   2.745
 4500SOL     OW14398   3.909   5.244   6.906
 4500SOL    HW114399   3.841   5.294   6.852
 4500SOL    HW214400   4.000   5.261   6.869
 4501SOL     OW14401   5.897   1.965   1.895
 4501SOL    HW114402   5.927   1.938   1.803
 4501SOL    HW214403   5.925   1.895   1.961
 4502SOL     OW14404   1.006   3.566   6.705
 4502SOL    HW114405   0.941   3.520   6.644
 4502SOL    HW214406   0.970   3.655   6.731
 4503SOL     OW14407   2.747   0.051   2.321
 4503SOL    HW114408   2.777   0.074   2.413
 4503SOL    HW214409   2.809   0.090   2.254
 4504SOL     OW14410   6.788   2.206   3.522
 4504SOL    HW114411   6.738   2.127   3.485
 4504SOL    HW214412   6.758   2.222   3.616
 4505SOL     OW14413   6.616   4.721   2.425
 4505SOL    HW114414   6.630   4.819   2.406
 4505SOL    HW214415   6.564   4.680   2.350
 4506SOL     OW14416   4.764   2.921   4.323
 4506SOL    HW114417   4.847   2.926   4.378
 4506SOL    HW214418   4.788   2.922   4.225
 4507SOL     OW14419   6.842   3.272   2.973
 4507SOL    HW114420   6.917   3.292   2.910
 4507SOL    HW214421   6.867   3.299   3.066
 4508SOL     OW14422   0.533   4.291   0.766
 4508SOL    HW114423   0.455   4.271   0.708
 4508SOL    HW214424   0.617   4.263   0.721
 4509SOL     OW14425   4.719   2.284   2.639
 4509SOL    HW114426   4.741   2.201   2.691
 4509SOL    HW214427   4.621   2.303   2.647
 4510SOL     OW14428   4.442   1.561   3.798
 4510SOL    HW114429   4.396   1.633   3.849
 4510SOL    HW214430   4.472   1.490   3.862
 4511SOL     OW14431   6.820   4.080   0.962
 4511SOL    HW114432   6.845   3.983   0.955
 4511SOL    HW214433   6.800   4.115   0.870
 4512SOL     OW14434   3.502   2.144   5.595
 4512SOL    HW114435   3.558   2.061   5.606
 4512SOL    HW214436   3.416   2.120   5.550
 4513SOL     OW14437   0.791   5.808   6.470
 4513SOL    HW114438   0.880   5.854   6.465
 4513SOL    HW214439   0.751   5.823   6.560
 4514SOL     OW14440   3.427   3.487   6.786
 4514SOL    HW114441   3.426   3.503   6.885
 4514SOL    HW214442   3.359   3.418   6.762
 4515SOL     OW14443   5.663   0.450   4.534
 4515SOL    HW114444   5.642   0.423   4.440
 4515SOL    HW214445   5.604   0.399   4.597
 4516SOL     OW14446   2.791   1.719   5.673
 4516SOL    HW114447   2.849   1.764   5.605
 4516SOL    HW214448   2.712   1.678   5.627
 4517SOL     OW14449   4.230   0.300   6.459
 4517SOL    HW114450   4.180   0.341   6.535
 4517SOL    HW214451   4.328   0.308   6.475
 4518SOL     OW14452   1.761   6.642   0.729
 4518SOL    HW114453   1.699   6.566   0.750
 4518SOL    HW214454   1.837   6.642   0.793
 4519SOL     OW14455   5.232   0.012   0.387
 4519SOL    HW114456   5.332   0.016   0.381
 4519SOL    HW214457   5.200   6.943   0.351
 4520SOL     OW14458   4.110   5.753   5.155
 4520SOL    HW114459   4.202   5.718   5.141
 4520SOL    HW214460   4.044   5.691   5.111
 4521SOL     OW14461   4.943   1.959   5.112
 4521SOL    HW114462   4.958   2.042   5.165
 4521SOL    HW214463   5.031   1.923   5.080
 4522SOL     OW14464   5.558   3.819   3.893
 4522SOL    HW114465   5.629   3.876   3.934
 4522SOL    HW214466   5.600   3.745   3.841
 4523SOL     OW14467   0.580   3.763   6.451
 4523SOL    HW114468   0.559   3.816   6.533
 4523SOL    HW214469   0.522   3.682   6.448
 4524SOL     OW14470   0.539   3.230   2.891
 4524SOL    HW114471   0.607   3.159   2.911
 4524SOL    HW214472   0.551   3.306   2.954
 4525SOL     OW14473   1.935   2.972   5.930
 4525SOL    HW114474   1.926   3.001   6.026
 4525SOL    HW214475   1.996   2.894   5.925
 4526SOL     OW14476   0.530   0.617   6.308
 4526SOL    HW114477   0.604   0.599   6.373
 4526SOL    HW214478   0.530   0.714   6.284
 4527SOL     OW14479   6.719   6.907   2.706
 4527SOL    HW114480   6.704   7.005   2.692
 4527SOL    HW214481   6.676   6.856   2.632
 4528SOL     OW14482   4.064   0.730   5.722
 4528SOL    HW114483   4.100   0.652   5.772
 4528SOL    HW214484   3.964   0.731   5.729
 4529SOL     OW14485   2.651   1.001   5.822
 4529SOL    HW114486   2.701   0.947   5.754
 4529SOL    HW214487   2.687   1.094   5.825
 4530SOL     OW14488   2.173   6.551   4.979
 4530SOL    HW114489   2.086   6.539   4.932
 4530SOL    HW214490   2.207   6.644   4.961
 4531SOL     OW14491   1.019   4.591   6.696
 4531SOL    HW114492   0.952   4.665   6.705
 4531SOL    HW214493   1.068   4.579   6.782
 4532SOL     OW14494   4.845   0.784   2.857
 4532SOL    HW114495   4.815   0.873   2.894
 4532SOL    HW214496   4.895   0.799   2.772
 4533SOL     OW14497   1.898   1.015   2.936
 4533SOL    HW114498   1.827   1.070   2.981
 4533SOL    HW214499   1.855   0.943   2.882
 4534SOL     OW14500   4.381   1.741   4.446
 4534SOL    HW114501   4.478   1.718   4.438
 4534SOL    HW214502   4.371   1.840   4.455
 4535SOL     OW14503   3.586   2.001   0.702
 4535SOL    HW114504   3.629   2.064   0.767
 4535SOL    HW214505   3.600   1.907   0.732
 4536SOL     OW14506   2.038   2.063   5.765
 4536SOL    HW114507   2.135   2.076   5.747
 4536SOL    HW214508   1.994   2.021   5.686
 4537SOL     OW14509   3.352   3.624   3.495
 4537SOL    HW114510   3.320   3.668   3.579
 4537SOL    HW214511   3.437   3.666   3.465
 4538SOL     OW14512   0.777   2.420   1.995
 4538SOL    HW114513   0.689   2.394   1.955
 4538SOL    HW214514   0.761   2.478   2.075
 4539SOL     OW14515   2.081   5.012   4.798
 4539SOL    HW114516   2.141   4.964   4.862
 4539SOL    HW214517   2.070   4.957   4.715
 4540SOL     OW14518   0.563   0.912   0.444
 4540SOL    HW114519   0.507   0.991   0.469
 4540SOL    HW214520   0.656   0.943   0.420
 4541SOL     OW14521   4.004   1.578   6.746
 4541SOL    HW114522   4.029   1.503   6.685
 4541SOL    HW214523   3.907   1.599   6.736
 4542SOL     OW14524   0.158   2.434   0.901
 4542SOL    HW114525   0.151   2.427   0.801
 4542SOL    HW214526   0.224   2.368   0.935
 4543SOL     OW14527   4.445   2.511   0.540
 4543SOL    HW114528   4.437   2.492   0.442
 4543SOL    HW214529   4.367   2.567   0.570
 4544SOL     OW14530   4.790   4.821   0.498
 4544SOL    HW114531   4.765   4.880   0.575
 4544SOL    HW214532   4.837   4.739   0.533
 4545SOL     OW14533   0.886   4.252   4.736
 4545SOL    HW114534   0.937   4.175   4.775
 4545SOL    HW214535   0.904   4.258   4.638
 4546SOL     OW14536   2.736   1.238   5.805
 4546SOL    HW114537   2.685   1.313   5.848
 4546SOL    HW214538   2.773   1.268   5.718
 4547SOL     OW14539   6.431   0.721   0.023
 4547SOL    HW114540   6.482   0.807   0.025
 4547SOL    HW214541   6.479   0.655   6.983
 4548SOL     OW14542   2.408   2.396   2.959
 4548SOL    HW114543   2.451   2.438   3.039
 4548SOL    HW214544   2.470   2.402   2.881
 4549SOL     OW14545   5.516   4.438   2.651
 4549SOL    HW114546   5.493   4.487   2.566
 4549SOL    HW214547   5.589   4.487   2.698
 4550SOL     OW14548   0.910   4.587   3.283
 4550SOL    HW114549   1.007   4.611   3.291
 4550SOL    HW214550   0.869   4.639   3.209
 4551SOL     OW14551   1.626   3.636   5.164
 4551SOL    HW114552   1.645   3.590   5.077
 4551SOL    HW214553   1.675   3.589   5.238
 4552SOL     OW14554   6.129   1.640   1.343
 4552SOL    HW114555   6.163   1.675   1.430
 4552SOL    HW214556   6.111   1.542   1.352
 4553SOL     OW14557   5.289   4.671   6.275
 4553SOL    HW114558   5.381   4.667   6.312
 4553SOL    HW214559   5.289   4.728   6.192
 4554SOL     OW14560   0.191   6.449   1.201
 4554SOL    HW114561   0.237   6.372   1.245
 4554SOL    HW214562   0.190   6.527   1.263
 4555SOL     OW14563   1.457   1.376   6.897
 4555SOL    HW114564   1.417   1.398   6.808
 4555SOL    HW214565   1.394   1.403   6.970
 4556SOL     OW14566   6.445   3.122   5.929
 4556SOL    HW114567   6.358   3.169   5.915
 4556SOL    HW214568   6.520   3.181   5.899
 4557SOL     OW14569   6.167   5.024   4.390
 4557SOL    HW114570   6.085   4.979   4.425
 4557SOL    HW214571   6.141   5.108   4.342
 4558SOL     OW14572   6.229   2.941   5.353
 4558SOL    HW114573   6.246   2.995   5.270
 4558SOL    HW214574   6.247   2.844   5.333
 4559SOL     OW14575   0.607   2.789   3.020
 4559SOL    HW114576   0.663   2.869   2.999
 4559SOL    HW214577   0.579   2.743   2.936
 4560SOL     OW14578   6.823   4.336   1.803
 4560SOL    HW114579   6.756   4.378   1.742
 4560SOL    HW214580   6.855   4.250   1.762
 4561SOL     OW14581   3.250   2.160   4.417
 4561SOL    HW114582   3.291   2.155   4.508
 4561SOL    HW214583   3.314   2.123   4.350
 4562SOL     OW14584   2.009   6.687   0.327
 4562SOL    HW114585   1.989   6.772   0.375
 4562SOL    HW214586   1.939   6.619   0.349
 4563SOL     OW14587   0.246   3.059   1.560
 4563SOL    HW114588   0.315   3.032   1.628
 4563SOL    HW214589   0.181   3.121   1.603
 4564SOL     OW14590   0.337   4.311   2.094
 4564SOL    HW114591   0.312   4.354   2.007
 4564SOL    HW214592   0.417   4.252   2.080
 4565SOL     OW14593   1.898   0.148   4.771
 4565SOL    HW114594   1.962   0.105   4.706
 4565SOL    HW214595   1.950   0.197   4.841
 4566SOL     OW14596   0.208   4.013   1.148
 4566SOL    HW114597   0.228   4.103   1.187
 4566SOL    HW214598   0.187   4.023   1.050
 4567SOL     OW14599   6.879   0.211   6.304
 4567SOL    HW114600   6.852   0.169   6.390
 4567SOL    HW214601   6.807   0.198   6.235
 4568SOL     OW14602   0.944   4.418   3.748
 4568SOL    HW114603   0.971   4.325   3.774
 4568SOL    HW214604   0.988   4.484   3.809
 4569SOL     OW14605   3.096   0.828   3.234
 4569SOL    HW114606   3.162   0.765   3.274
 4569SOL    HW214607   3.116   0.921   3.264
 4570SOL     OW14608   6.312   5.349   1.522
 4570SOL    HW114609   6.334   5.325   1.617
 4570SOL    HW214610   6.227   5.304   1.495
 4571SOL     OW14611   4.581   2.876   6.749
 4571SOL    HW114612   4.536   2.963   6.731
 4571SOL    HW214613   4.681   2.888   6.748
 4572SOL     OW14614   2.623   2.424   6.658
 4572SOL    HW114615   2.702   2.482   6.638
 4572SOL    HW214616   2.553   2.438   6.588
 4573SOL     OW14617   0.920   6.351   0.677
 4573SOL    HW114618   0.935   6.309   0.587
 4573SOL    HW214619   0.971   6.437   0.682
 4574SOL     OW14620   6.040   3.631   0.060
 4574SOL    HW114621   6.135   3.602   0.055
 4574SOL    HW214622   6.001   3.634   6.986
 4575SOL     OW14623   6.107   1.113   4.256
 4575SOL    HW114624   6.160   1.037   4.220
 4575SOL    HW214625   6.016   1.081   4.282
 4576SOL     OW14626   2.992   4.878   5.063
 4576SOL    HW114627   2.947   4.790   5.051
 4576SOL    HW214628   3.080   4.864   5.110
 4577SOL     OW14629   1.477   2.173   2.918
 4577SOL    HW114630   1.542   2.115   2.967
 4577SOL    HW214631   1.394   2.120   2.898
 4578SOL     OW14632   0.975   0.826   2.801
 4578SOL    HW114633   1.066   0.804   2.836
 4578SOL    HW214634   0.906   0.799   2.868
 4579SOL     OW14635   4.732   0.194   1.862
 4579SOL    HW114636   4.831   0.178   1.864
 4579SOL    HW214637   4.693   0.151   1.780
 4580SOL     OW14638   5.739   3.615   0.132
 4580SOL    HW114639   5.743   3.647   0.227
 4580SOL    HW214640   5.832   3.602   0.097
 4581SOL     OW14641   3.000   6.498   2.038
 4581SOL    HW114642   3.069   6.474   2.106
 4581SOL    HW214643   3.037   6.567   1.976
 4582SOL     OW14644   5.086   0.822   2.716
 4582SOL    HW114645   5.159   0.865   2.663
 4582SOL    HW214646   5.062   0.734   2.675
 4583SOL     OW14647   1.762   0.667   6.421
 4583SOL    HW114648   1.795   0.620   6.339
 4583SOL    HW214649   1.702   0.743   6.394
 4584SOL     OW14650   1.709   7.009   6.080
 4584SOL    HW114651   1.740   0.026   6.168
 4584SOL    HW214652   1.635   6.943   6.095
 4585SOL     OW14653   1.839   3.446   3.129
 4585SOL    HW114654   1.802   3.471   3.219
 4585SOL    HW214655   1.926   3.494   3.115
 4586SOL     OW14656   4.952   4.399   0.421
 4586SOL    HW114657   4.948   4.401   0.521
 4586SOL    HW214658   4.887   4.465   0.384
 4587SOL     OW14659   3.113   3.661   5.125
 4587SOL    HW114660   3.065   3.581   5.163
 4587SOL    HW214661   3.090   3.742   5.178
 4588SOL     OW14662   3.101   3.399   6.226
 4588SOL    HW114663   3.050   3.470   6.273
 4588SOL    HW214664   3.067   3.389   6.132
 4589SOL     OW14665   5.612   5.654   2.172
 4589SOL    HW114666   5.538   5.632   2.235
 4589SOL    HW214667   5.581   5.640   2.078
 4590SOL     OW14668   3.525   5.676   1.548
 4590SOL    HW114669   3.527   5.586   1.592
 4590SOL    HW214670   3.497   5.666   1.453
 4591SOL     OW14671   2.408   0.189   5.948
 4591SOL    HW114672   2.469   0.253   5.901
 4591SOL    HW214673   2.366   0.128   5.881
 4592SOL     OW14674   2.680   1.651   4.360
 4592SOL    HW114675   2.616   1.673   4.287
 4592SOL    HW214676   2.736   1.572   4.333
 4593SOL     OW14677   6.905   5.711   3.071
 4593SOL    HW114678   6.900   5.615   3.099
 4593SOL    HW214679   6.850   5.766   3.134
 4594SOL     OW14680   2.809   0.061   3.048
 4594SOL    HW114681   2.884   0.092   2.989
 4594SOL    HW214682   2.755   0.140   3.077
 4595SOL     OW14683   4.726   1.988   6.131
 4595SOL    HW114684   4.635   2.022   6.111
 4595SOL    HW214685   4.724   1.888   6.138
 4596SOL     OW14686   0.801   0.411   1.770
 4596SOL    HW114687   0.817   0.493   1.825
 4596SOL    HW214688   0.705   0.409   1.741
 4597SOL     OW14689   2.563   5.228   6.943
 4597SOL    HW114690   2.512   5.271   7.018
 4597SOL    HW214691   2.594   5.138   6.971
 4598SOL     OW14692   2.403   5.385   0.114
 4598SOL    HW114693   2.325   5.429   0.071
 4598SOL    HW214694   2.373   5.305   0.165
 4599SOL     OW14695   2.119   3.327   2.706
 4599SOL    HW114696   2.035   3.318   2.653
 4599SOL    HW214697   2.158   3.237   2.724
 4600SOL     OW14698   0.125   6.689   5.879
 4600SOL    HW114699   0.174   6.609   5.845
 4600SOL    HW214700   0.149   6.705   5.975
 4601SOL     OW14701   0.490   1.057   4.374
 4601SOL    HW114702   0.484   0.962   4.344
 4601SOL    HW214703   0.400   1.088   4.404
 4602SOL     OW14704   2.544   0.524   6.633
 4602SOL    HW114705   2.622   0.587   6.628
 4602SOL    HW214706   2.514   0.515   6.728
 4603SOL     OW14707   4.173   5.899   1.250
 4603SOL    HW114708   4.241   5.861   1.313
 4603SOL    HW214709   4.122   5.972   1.295
 4604SOL     OW14710   4.771   0.057   6.108
 4604SOL    HW114711   4.672   0.051   6.114
 4604SOL    HW214712   4.798   0.152   6.091
 4605SOL     OW14713   2.295   6.697   1.986
 4605SOL    HW114714   2.239   6.744   2.054
 4605SOL    HW214715   2.253   6.609   1.963
 4606SOL     OW14716   0.435   6.567   2.652
 4606SOL    HW114717   0.483   6.650   2.624
 4606SOL    HW214718   0.486   6.487   2.621
 4607SOL     OW14719   1.837   3.738   2.607
 4607SOL    HW114720   1.804   3.826   2.641
 4607SOL    HW214721   1.762   3.671   2.610
 4608SOL     OW14722   0.248   3.411   4.930
 4608SOL    HW114723   0.326   3.470   4.913
 4608SOL    HW214724   0.265   3.321   4.890
 4609SOL     OW14725   4.199   6.193   6.165
 4609SOL    HW114726   4.295   6.186   6.137
 4609SOL    HW214727   4.162   6.280   6.134
 4610SOL     OW14728   5.419   2.411   6.678
 4610SOL    HW114729   5.496   2.394   6.616
 4610SOL    HW214730   5.350   2.340   6.665
 4611SOL     OW14731   0.446   0.900   5.907
 4611SOL    HW114732   0.523   0.957   5.879
 4611SOL    HW214733   0.361   0.939   5.873
 4612SOL     OW14734   2.147   6.291   2.330
 4612SOL    HW114735   2.051   6.270   2.347
 4612SOL    HW214736   2.204   6.221   2.374
 4613SOL     OW14737   2.198   4.496   2.203
 4613SOL    HW114738   2.117   4.475   2.257
 4613SOL    HW214739   2.173   4.559   2.129
 4614SOL     OW14740   6.046   3.183   3.866
 4614SOL    HW114741   6.116   3.169   3.796
 4614SOL    HW214742   5.956   3.164   3.828
 4615SOL     OW14743   0.591   1.048   1.097
 4615SOL    HW114744   0.597   1.147   1.081
 4615SOL    HW214745   0.626   0.999   1.017
 4616SOL     OW14746   6.269   2.664   5.297
 4616SOL    HW114747   6.352   2.628   5.255
 4616SOL    HW214748   6.242   2.605   5.373
 4617SOL     OW14749   0.421   2.610   2.150
 4617SOL    HW114750   0.513   2.614   2.189
 4617SOL    HW214751   0.428   2.609   2.050
 4618SOL     OW14752   2.621   3.792   5.497
 4618SOL    HW114753   2.616   3.889   5.521
 4618SOL    HW214754   2.714   3.769   5.468
 4619SOL     OW14755   3.290   6.203   4.083
 4619SOL    HW114756   3.357   6.153   4.027
 4619SOL    HW214757   3.222   6.139   4.118
 4620SOL     OW14758   0.688   5.485   1.192
 4620SOL    HW114759   0.783   5.501   1.167
 4620SOL    HW214760   0.630   5.492   1.111
 4621SOL     OW14761   4.905   0.382   2.246
 4621SOL    HW114762   4.887   0.441   2.324
 4621SOL    HW214763   4.843   0.303   2.248
 4622SOL     OW14764   4.359   5.428   0.704
 4622SOL    HW114765   4.334   5.331   0.705
 4622SOL    HW214766   4.456   5.438   0.684
 4623SOL     OW14767   3.430   5.109   0.885
 4623SOL    HW114768   3.493   5.168   0.936
 4623SOL    HW214769   3.480   5.063   0.812
 4624SOL     OW14770   3.605   1.442   3.439
 4624SOL    HW114771   3.594   1.501   3.519
 4624SOL    HW214772   3.697   1.453   3.402
 4625SOL     OW14773   1.782   5.562   1.980
 4625SOL    HW114774   1.721   5.488   2.007
 4625SOL    HW214775   1.731   5.648   1.977
 4626SOL     OW14776   4.131   3.897   1.806
 4626SOL    HW114777   4.208   3.946   1.766
 4626SOL    HW214778   4.065   3.963   1.843
 4627SOL     OW14779   0.390   5.967   4.770
 4627SOL    HW114780   0.429   6.039   4.828
 4627SOL    HW214781   0.295   5.991   4.747
 4628SOL     OW14782   4.550   5.024   3.488
 4628SOL    HW114783   4.467   4.968   3.495
 4628SOL    HW214784   4.551   5.068   3.398
 4629SOL     OW14785   2.113   5.687   6.457
 4629SOL    HW114786   2.177   5.622   6.419
 4629SOL    HW214787   2.114   5.771   6.403
 4630SOL     OW14788   1.218   5.443   2.348
 4630SOL    HW114789   1.143   5.398   2.396
 4630SOL    HW214790   1.234   5.533   2.388
 4631SOL     OW14791   0.519   0.593   4.019
 4631SOL    HW114792   0.609   0.617   4.055
 4631SOL    HW214793   0.450   0.600   4.091
 4632SOL     OW14794   3.112   5.293   2.815
 4632SOL    HW114795   3.089   5.310   2.719
 4632SOL    HW214796   3.209   5.269   2.822
 4633SOL     OW14797   5.305   1.728   3.977
 4633SOL    HW114798   5.244   1.679   3.915
 4633SOL    HW214799   5.350   1.662   4.037
 4634SOL     OW14800   2.993   3.960   4.881
 4634SOL    HW114801   3.072   3.986   4.936
 4634SOL    HW214802   2.921   4.029   4.891
 4635SOL     OW14803   4.649   5.270   0.934
 4635SOL    HW114804   4.646   5.364   0.968
 4635SOL    HW214805   4.584   5.214   0.986
 4636SOL     OW14806   1.557   5.553   0.934
 4636SOL    HW114807   1.607   5.546   0.848
 4636SOL    HW214808   1.595   5.488   1.000
 4637SOL     OW14809   1.473   6.851   1.478
 4637SOL    HW114810   1.507   6.864   1.571
 4637SOL    HW214811   1.548   6.860   1.413
 4638SOL     OW14812   3.877   5.184   0.388
 4638SOL    HW114813   3.923   5.248   0.326
 4638SOL    HW214814   3.927   5.098   0.388
 4639SOL     OW14815   2.465   2.501   0.290
 4639SOL    HW114816   2.535   2.435   0.262
 4639SOL    HW214817   2.411   2.528   0.211
 4640SOL     OW14818   6.118   3.168   5.438
 4640SOL    HW114819   6.092   3.150   5.533
 4640SOL    HW214820   6.170   3.091   5.403
 4641SOL     OW14821   1.250   6.549   3.867
 4641SOL    HW114822   1.162   6.588   3.894
 4641SOL    HW214823   1.300   6.518   3.948
 4642SOL     OW14824   1.741   1.968   4.004
 4642SOL    HW114825   1.683   2.037   3.961
 4642SOL    HW214826   1.714   1.877   3.972
 4643SOL     OW14827   6.729   2.307   0.264
 4643SOL    HW114828   6.653   2.315   0.328
 4643SOL    HW214829   6.806   2.362   0.296
 4644SOL     OW14830   0.955   1.232   6.473
 4644SOL    HW114831   0.870   1.200   6.515
 4644SOL    HW214832   1.031   1.176   6.505
 4645SOL     OW14833   1.544   0.800   4.025
 4645SOL    HW114834   1.633   0.795   3.981
 4645SOL    HW214835   1.479   0.743   3.976
 4646SOL     OW14836   2.470   5.057   4.464
 4646SOL    HW114837   2.492   4.968   4.504
 4646SOL    HW214838   2.487   5.129   4.531
 4647SOL     OW14839   1.899   6.443   2.879
 4647SOL    HW114840   1.916   6.521   2.939
 4647SOL    HW214841   1.842   6.376   2.928
 4648SOL     OW14842   3.192   1.078   3.744
 4648SOL    HW114843   3.194   1.176   3.764
 4648SOL    HW214844   3.258   1.031   3.802
 4649SOL     OW14845   6.062   1.008   0.436
 4649SOL    HW114846   6.137   1.066   0.405
 4649SOL    HW214847   6.094   0.947   0.508
 4650SOL     OW14848   5.087   5.903   1.564
 4650SOL    HW114849   5.069   5.939   1.472
 4650SOL    HW214850   5.171   5.849   1.563
 4651SOL     OW14851   6.632   3.933   6.016
 4651SOL    HW114852   6.644   3.839   6.048
 4651SOL    HW214853   6.705   3.957   5.953
 4652SOL     OW14854   0.162   5.479   4.316
 4652SOL    HW114855   0.116   5.391   4.304
 4652SOL    HW214856   0.179   5.495   4.413
 4653SOL     OW14857   4.862   5.987   0.273
 4653SOL    HW114858   4.774   5.974   0.318
 4653SOL    HW214859   4.935   5.985   0.341
 4654SOL     OW14860   6.741   6.685   4.952
 4654SOL    HW114861   6.795   6.693   4.868
 4654SOL    HW214862   6.776   6.749   5.021
 4655SOL     OW14863   5.507   3.046   1.746
 4655SOL    HW114864   5.433   3.043   1.812
 4655SOL    HW214865   5.503   2.964   1.687
 4656SOL     OW14866   0.680   0.252   1.380
 4656SOL    HW114867   0.667   0.321   1.309
 4656SOL    HW214868   0.660   0.291   1.469
 4657SOL     OW14869   5.103   6.782   1.875
 4657SOL    HW114870   5.186   6.810   1.923
 4657SOL    HW214871   5.092   6.683   1.882
 4658SOL     OW14872   2.305   2.633   5.559
 4658SOL    HW114873   2.358   2.551   5.541
 4658SOL    HW214874   2.357   2.694   5.619
 4659SOL     OW14875   3.377   4.430   1.237
 4659SOL    HW114876   3.328   4.403   1.320
 4659SOL    HW214877   3.454   4.369   1.221
 4660SOL     OW14878   1.289   6.962   3.645
 4660SOL    HW114879   1.282   6.902   3.725
 4660SOL    HW214880   1.325   0.032   3.672
 4661SOL     OW14881   2.437   3.915   5.816
 4661SOL    HW114882   2.462   3.929   5.720
 4661SOL    HW214883   2.356   3.857   5.820
 4662SOL     OW14884   3.061   0.036   5.307
 4662SOL    HW114885   3.054   0.092   5.225
 4662SOL    HW214886   2.969   0.012   5.340
 4663SOL     OW14887   0.979   0.013   0.291
 4663SOL    HW114888   1.036   0.013   0.373
 4663SOL    HW214889   0.886   7.003   0.315
 4664SOL     OW14890   6.450   0.006   0.729
 4664SOL    HW114891   6.508   0.085   0.748
 4664SOL    HW214892   6.370   0.036   0.677
 4665SOL     OW14893   2.105   0.890   5.421
 4665SOL    HW114894   2.147   0.922   5.506
 4665SOL    HW214895   2.056   0.965   5.377
 4666SOL     OW14896   2.036   2.469   6.878
 4666SOL    HW114897   1.963   2.446   6.942
 4666SOL    HW214898   2.118   2.416   6.901
 4667SOL     OW14899   6.542   3.829   1.617
 4667SOL    HW114900   6.641   3.815   1.618
 4667SOL    HW214901   6.514   3.876   1.701
 4668SOL     OW14902   4.101   2.191   4.973
 4668SOL    HW114903   4.038   2.165   4.900
 4668SOL    HW214904   4.181   2.238   4.934
 4669SOL     OW14905   5.191   0.287   0.467
 4669SOL    HW114906   5.240   0.252   0.547
 4669SOL    HW214907   5.245   0.271   0.385
 4670SOL     OW14908   1.827   3.402   0.334
 4670SOL    HW114909   1.894   3.328   0.324
 4670SOL    HW214910   1.869   3.489   0.306
 4671SOL     OW14911   0.513   3.136   6.907
 4671SOL    HW114912   0.602   3.179   6.891
 4671SOL    HW214913   0.525   3.060   6.971
 4672SOL     OW14914   3.723   4.596   5.477
 4672SOL    HW114915   3.794   4.541   5.522
 4672SOL    HW214916   3.650   4.614   5.542
 4673SOL     OW14917   4.938   0.583   7.011
 4673SOL    HW114918   4.896   0.606   6.924
 4673SOL    HW214919   5.019   0.526   6.995
 4674SOL     OW14920   6.907   1.552   0.540
 4674SOL    HW114921   6.918   1.612   0.461
 4674SOL    HW214922   6.934   1.459   0.516
 4675SOL     OW14923   3.285   6.442   6.417
 4675SOL    HW114924   3.378   6.442   6.381
 4675SOL    HW214925   3.288   6.432   6.517
 4676SOL     OW14926   0.933   6.546   4.864
 4676SOL    HW114927   0.870   6.556   4.941
 4676SOL    HW214928   1.019   6.592   4.885
 4677SOL     OW14929   3.063   0.250   6.847
 4677SOL    HW114930   3.054   0.303   6.931
 4677SOL    HW214931   3.131   0.177   6.860
 4678SOL     OW14932   1.938   5.362   1.603
 4678SOL    HW114933   1.968   5.337   1.511
 4678SOL    HW214934   1.868   5.433   1.597
 4679SOL     OW14935   2.703   1.255   6.270
 4679SOL    HW114936   2.784   1.212   6.230
 4679SOL    HW214937   2.724   1.351   6.291
 4680SOL     OW14938   1.949   5.318   1.346
 4680SOL    HW114939   1.996   5.249   1.291
 4680SOL    HW214940   1.861   5.282   1.375
 4681SOL     OW14941   0.365   5.533   5.109
 4681SOL    HW114942   0.310   5.589   5.047
 4681SOL    HW214943   0.417   5.593   5.170
 4682SOL     OW14944   3.812   6.139   0.287
 4682SOL    HW114945   3.785   6.046   0.264
 4682SOL    HW214946   3.794   6.200   0.210
 4683SOL     OW14947   6.368   3.756   2.222
 4683SOL    HW114948   6.337   3.841   2.265
 4683SOL    HW214949   6.299   3.726   2.156
 4684SOL     OW14950   1.828   2.562   4.443
 4684SOL    HW114951   1.921   2.598   4.446
 4684SOL    HW214952   1.792   2.555   4.536
 4685SOL     OW14953   6.283   5.344   4.468
 4685SOL    HW114954   6.244   5.313   4.555
 4685SOL    HW214955   6.321   5.265   4.419
 4686SOL     OW14956   5.107   6.195   0.065
 4686SOL    HW114957   5.080   6.105   0.031
 4686SOL    HW214958   5.109   6.260   7.008
 4687SOL     OW14959   6.641   3.970   4.483
 4687SOL    HW114960   6.575   4.027   4.532
 4687SOL    HW214961   6.733   3.996   4.508
 4688SOL     OW14962   0.436   3.460   6.378
 4688SOL    HW114963   0.373   3.407   6.322
 4688SOL    HW214964   0.516   3.404   6.400
 4689SOL     OW14965   6.947   0.482   5.641
 4689SOL    HW114966   0.001   0.442   5.697
 4689SOL    HW214967   6.869   0.507   5.699
 4690SOL     OW14968   1.457   1.219   0.216
 4690SOL    HW114969   1.475   1.316   0.200
 4690SOL    HW214970   1.504   1.165   0.147
 4691SOL     OW14971   2.600   4.090   1.043
 4691SOL    HW114972   2.629   4.146   1.121
 4691SOL    HW214973   2.609   3.993   1.066
 4692SOL     OW14974   0.104   5.217   3.017
 4692SOL    HW114975   0.046   5.150   3.063
 4692SOL    HW214976   0.180   5.170   2.973
 4693SOL     OW14977   0.372   1.459   4.438
 4693SOL    HW114978   0.435   1.537   4.447
 4693SOL    HW214979   0.357   1.418   4.528
 4694SOL     OW14980   2.740   0.978   0.249
 4694SOL    HW114981   2.807   0.995   0.321
 4694SOL    HW214982   2.711   1.066   0.208
 4695SOL     OW14983   4.138   2.965   1.678
 4695SOL    HW114984   4.127   2.891   1.612
 4695SOL    HW214985   4.235   2.991   1.683
 4696SOL     OW14986   0.729   3.782   6.223
 4696SOL    HW114987   0.753   3.690   6.193
 4696SOL    HW214988   0.667   3.777   6.301
 4697SOL     OW14989   1.611   3.763   0.382
 4697SOL    HW114990   1.614   3.674   0.426
 4697SOL    HW214991   1.700   3.809   0.392
 4698SOL     OW14992   5.298   4.982   1.433
 4698SOL    HW114993   5.390   5.019   1.449
 4698SOL    HW214994   5.287   4.962   1.335
 4699SOL     OW14995   0.043   6.978   2.043
 4699SOL    HW114996   0.047   0.000   2.134
 4699SOL    HW214997   7.010   6.892   2.047
 4700SOL     OW14998   5.368   1.771   1.192
 4700SOL    HW114999   5.307   1.812   1.259
 4700SOL    HW215000   5.340   1.798   1.100
 4701SOL     OW15001   0.968   1.097   0.151
 4701SOL    HW115002   0.931   1.022   0.097
 4701SOL    HW215003   1.024   1.155   0.093
 4702SOL     OW15004   4.515   3.663   6.814
 4702SOL    HW115005   4.543   3.688   6.907
 4702SOL    HW215006   4.429   3.613   6.817
 4703SOL     OW15007   1.509   1.378   3.464
 4703SOL    HW115008   1.606   1.365   3.487
 4703SOL    HW215009   1.498   1.467   3.420
 4704SOL     OW15010   6.885   6.512   0.829
 4704SOL    HW115011   6.867   6.552   0.739
 4704SOL    HW215012   6.812   6.538   0.892
 4705SOL     OW15013   3.769   3.001   4.426
 4705SOL    HW115014   3.849   3.052   4.393
 4705SOL    HW215015   3.776   2.990   4.525
 4706SOL     OW15016   3.491   6.049   6.316
 4706SOL    HW115017   3.496   6.126   6.253
 4706SOL    HW215018   3.525   6.076   6.406
 4707SOL     OW15019   1.907   5.737   0.957
 4707SOL    HW115020   1.850   5.655   0.966
 4707SOL    HW215021   1.901   5.792   1.040
 4708SOL     OW15022   3.228   2.238   0.523
 4708SOL    HW115023   3.327   2.239   0.511
 4708SOL    HW215024   3.204   2.176   0.598
 4709SOL     OW15025   3.880   4.979   5.185
 4709SOL    HW115026   3.848   4.970   5.091
 4709SOL    HW215027   3.853   4.899   5.238
 4710SOL     OW15028   4.532   1.824   6.881
 4710SOL    HW115029   4.590   1.827   6.799
 4710SOL    HW215030   4.575   1.876   6.954
 4711SOL     OW15031   3.159   7.013   2.419
 4711SOL    HW115032   3.206   0.079   2.395
 4711SOL    HW215033   3.108   6.979   2.340
 4712SOL     OW15034   1.948   4.689   1.132
 4712SOL    HW115035   1.945   4.678   1.033
 4712SOL    HW215036   1.927   4.601   1.175
 4713SOL     OW15037   2.647   5.243   1.488
 4713SOL    HW115038   2.594   5.177   1.435
 4713SOL    HW215039   2.594   5.273   1.567
 4714SOL     OW15040   2.365   1.432   1.587
 4714SOL    HW115041   2.274   1.435   1.546
 4714SOL    HW215042   2.385   1.338   1.616
 4715SOL     OW15043   6.931   2.955   2.703
 4715SOL    HW115044   6.982   2.914   2.627
 4715SOL    HW215045   6.979   2.936   2.789
 4716SOL     OW15046   3.696   5.031   6.269
 4716SOL    HW115047   3.651   5.113   6.307
 4716SOL    HW215048   3.636   4.989   6.201
 4717SOL     OW15049   0.925   6.070   2.298
 4717SOL    HW115050   0.933   6.019   2.213
 4717SOL    HW215051   0.830   6.097   2.313
 4718SOL     OW15052   5.061   1.905   6.518
 4718SOL    HW115053   5.063   1.961   6.601
 4718SOL    HW215054   5.080   1.963   6.438
 4719SOL     OW15055   5.637   3.591   2.917
 4719SOL    HW115056   5.565   3.619   2.854
 4719SOL    HW215057   5.600   3.529   2.986
 4720SOL     OW15058   2.494   6.630   5.681
 4720SOL    HW115059   2.537   6.664   5.765
 4720SOL    HW215060   2.426   6.697   5.650
 4721SOL     OW15061   0.921   1.980   0.951
 4721SOL    HW115062   0.874   2.065   0.975
 4721SOL    HW215063   0.854   1.907   0.939
 4722SOL     OW15064   1.781   6.508   0.362
 4722SOL    HW115065   1.722   6.580   0.327
 4722SOL    HW215066   1.726   6.431   0.393
 4723SOL     OW15067   2.516   6.445   6.469
 4723SOL    HW115068   2.424   6.480   6.451
 4723SOL    HW215069   2.537   6.456   6.566
 4724SOL     OW15070   3.851   6.616   2.397
 4724SOL    HW115071   3.946   6.604   2.370
 4724SOL    HW215072   3.838   6.586   2.491
 4725SOL     OW15073   5.041   6.324   3.110
 4725SOL    HW115074   5.116   6.258   3.111
 4725SOL    HW215075   5.077   6.416   3.099
 4726SOL     OW15076   1.178   4.172   6.684
 4726SOL    HW115077   1.178   4.229   6.602
 4726SOL    HW215078   1.261   4.188   6.736
 4727SOL     OW15079   6.830   5.703   0.363
 4727SOL    HW115080   6.765   5.644   0.411
 4727SOL    HW215081   6.810   5.702   0.265
 4728SOL     OW15082   6.331   1.439   0.180
 4728SOL    HW115083   6.311   1.350   0.139
 4728SOL    HW215084   6.246   1.480   0.214
 4729SOL     OW15085   2.149   0.353   2.214
 4729SOL    HW115086   2.088   0.348   2.293
 4729SOL    HW215087   2.163   0.449   2.188
 4730SOL     OW15088   2.458   6.023   5.436
 4730SOL    HW115089   2.486   5.928   5.428
 4730SOL    HW215090   2.472   6.054   5.530
 4731SOL     OW15091   5.512   0.971   5.224
 4731SOL    HW115092   5.594   0.985   5.169
 4731SOL    HW215093   5.470   0.883   5.200
 4732SOL     OW15094   0.013   3.578   6.528
 4732SOL    HW115095   0.073   3.602   6.452
 4732SOL    HW215096   0.033   3.637   6.607
 4733SOL     OW15097   0.256   3.451   2.817
 4733SOL    HW115098   0.206   3.390   2.755
 4733SOL    HW215099   0.351   3.420   2.824
 4734SOL     OW15100   5.029   3.306   0.170
 4734SOL    HW115101   5.011   3.218   0.126
 4734SOL    HW215102   5.126   3.313   0.193
 4735SOL     OW15103   0.813   4.086   4.270
 4735SOL    HW115104   0.816   4.151   4.194
 4735SOL    HW215105   0.823   3.993   4.234
 4736SOL     OW15106   0.359   1.157   6.655
 4736SOL    HW115107   0.307   1.160   6.569
 4736SOL    HW215108   0.404   1.245   6.669
 4737SOL     OW15109   2.734   4.862   1.881
 4737SOL    HW115110   2.759   4.782   1.936
 4737SOL    HW215111   2.634   4.866   1.874
 4738SOL     OW15112   6.468   6.277   1.597
 4738SOL    HW115113   6.552   6.288   1.543
 4738SOL    HW215114   6.422   6.365   1.605
 4739SOL     OW15115   4.078   0.661   1.934
 4739SOL    HW115116   4.018   0.733   1.969
 4739SOL    HW215117   4.155   0.648   1.997
 4740SOL     OW15118   1.083   1.930   2.320
 4740SOL    HW115119   1.103   2.012   2.374
 4740SOL    HW215120   0.986   1.908   2.326
 4741SOL     OW15121   4.337   2.389   1.850
 4741SOL    HW115122   4.367   2.318   1.786
 4741SOL    HW215123   4.398   2.391   1.929
 4742SOL     OW15124   2.691   6.755   0.216
 4742SOL    HW115125   2.756   6.825   0.247
 4742SOL    HW215126   2.673   6.768   0.118
 4743SOL     OW15127   1.954   4.145   1.855
 4743SOL    HW115128   1.994   4.111   1.941
 4743SOL    HW215129   1.869   4.097   1.836
 4744SOL     OW15130   1.932   6.305   0.876
 4744SOL    HW115131   2.002   6.331   0.810
 4744SOL    HW215132   1.843   6.302   0.831
 4745SOL     OW15133   2.357   4.079   0.461
 4745SOL    HW115134   2.291   4.020   0.414
 4745SOL    HW215135   2.318   4.110   0.548
 4746SOL     OW15136   4.368   4.965   4.360
 4746SOL    HW115137   4.319   4.878   4.370
 4746SOL    HW215138   4.310   5.040   4.392
 4747SOL     OW15139   2.044   2.965   0.842
 4747SOL    HW115140   1.971   3.023   0.878
 4747SOL    HW215141   2.006   2.901   0.775
 4748SOL     OW15142   1.674   6.289   2.579
 4748SOL    HW115143   1.627   6.366   2.622
 4748SOL    HW215144   1.771   6.309   2.569
 4749SOL     OW15145   2.111   7.001   0.205
 4749SOL    HW115146   2.065   0.022   0.126
 4749SOL    HW215147   2.194   6.954   0.175
 4750SOL     OW15148   5.906   3.262   5.034
 4750SOL    HW115149   5.927   3.241   4.939
 4750SOL    HW215150   5.848   3.190   5.072
 4751SOL     OW15151   4.718   1.185   2.399
 4751SOL    HW115152   4.740   1.164   2.494
 4751SOL    HW215153   4.753   1.276   2.376
 4752SOL     OW15154   4.561   2.247   0.301
 4752SOL    HW115155   4.550   2.223   0.397
 4752SOL    HW215156   4.629   2.187   0.259
 4753SOL     OW15157   1.907   6.661   5.122
 4753SOL    HW115158   1.969   6.584   5.137
 4753SOL    HW215159   1.943   6.719   5.049
 4754SOL     OW15160   4.147   4.063   6.582
 4754SOL    HW115161   4.091   3.997   6.631
 4754SOL    HW215162   4.089   4.135   6.544
 4755SOL     OW15163   1.381   0.312   1.894
 4755SOL    HW115164   1.390   0.230   1.839
 4755SOL    HW215165   1.287   0.318   1.930
 4756SOL     OW15166   6.045   4.377   6.649
 4756SOL    HW115167   6.097   4.322   6.715
 4756SOL    HW215168   6.020   4.320   6.571
 4757SOL     OW15169   1.753   3.072   1.349
 4757SOL    HW115170   1.722   3.164   1.325
 4757SOL    HW215171   1.850   3.075   1.373
 4758SOL     OW15172   1.952   6.972   3.203
 4758SOL    HW115173   1.864   6.938   3.238
 4758SOL    HW215174   1.935   0.025   3.136
 4759SOL     OW15175   0.878   5.423   0.801
 4759SOL    HW115176   0.864   5.484   0.723
 4759SOL    HW215177   0.967   5.380   0.794
 4760SOL     OW15178   1.361   6.674   0.620
 4760SOL    HW115179   1.431   6.729   0.666
 4760SOL    HW215180   1.284   6.660   0.682
 4761SOL     OW15181   0.424   6.775   0.490
 4761SOL    HW115182   0.428   6.722   0.574
 4761SOL    HW215183   0.336   6.761   0.445
 4762SOL     OW15184   1.748   5.373   2.693
 4762SOL    HW115185   1.692   5.305   2.645
 4762SOL    HW215186   1.688   5.435   2.744
 4763SOL     OW15187   4.692   5.707   1.937
 4763SOL    HW115188   4.776   5.659   1.913
 4763SOL    HW215189   4.673   5.777   1.869
 4764SOL     OW15190   4.838   3.826   5.839
 4764SOL    HW115191   4.841   3.779   5.927
 4764SOL    HW215192   4.829   3.925   5.855
 4765SOL     OW15193   3.851   1.474   5.318
 4765SOL    HW115194   3.891   1.561   5.345
 4765SOL    HW215195   3.793   1.487   5.238
 4766SOL     OW15196   6.504   6.719   4.230
 4766SOL    HW115197   6.490   6.784   4.305
 4766SOL    HW215198   6.575   6.753   4.169
 4767SOL     OW15199   2.159   5.039   4.475
 4767SOL    HW115200   2.115   4.957   4.512
 4767SOL    HW215201   2.258   5.027   4.478
 4768SOL     OW15202   4.858   2.849   6.729
 4768SOL    HW115203   4.826   2.907   6.654
 4768SOL    HW215204   4.943   2.803   6.702
 4769SOL     OW15205   3.331   5.748   1.154
 4769SOL    HW115206   3.312   5.697   1.238
 4769SOL    HW215207   3.310   5.845   1.169
 4770SOL     OW15208   6.973   1.726   5.188
 4770SOL    HW115209   0.013   1.802   5.160
 4770SOL    HW215210   6.886   1.731   5.141
 4771SOL     OW15211   2.812   0.260   5.367
 4771SOL    HW115212   2.794   0.288   5.273
 4771SOL    HW215213   2.808   0.160   5.373
 4772SOL     OW15214   2.651   5.397   0.847
 4772SOL    HW115215   2.635   5.496   0.855
 4772SOL    HW215216   2.707   5.379   0.767
 4773SOL     OW15217   2.586   5.893   4.901
 4773SOL    HW115218   2.544   5.970   4.949
 4773SOL    HW215219   2.636   5.927   4.821
 4774SOL     OW15220   1.448   4.045   0.236
 4774SOL    HW115221   1.541   4.013   0.220
 4774SOL    HW215222   1.408   3.992   0.311
 4775SOL     OW15223   5.652   6.500   4.839
 4775SOL    HW115224   5.662   6.448   4.754
 4775SOL    HW215225   5.742   6.514   4.880
 4776SOL     OW15226   1.473   0.803   5.933
 4776SOL    HW115227   1.415   0.728   5.964
 4776SOL    HW215228   1.480   0.801   5.833
 4777SOL     OW15229   1.031   5.918   0.648
 4777SOL    HW115230   1.112   5.892   0.595
 4777SOL    HW215231   0.951   5.921   0.588
 4778SOL     OW15232   0.544   2.295   4.907
 4778SOL    HW115233   0.591   2.341   4.983
 4778SOL    HW215234   0.591   2.209   4.887
 4779SOL     OW15235   6.249   1.376   3.593
 4779SOL    HW115236   6.277   1.281   3.581
 4779SOL    HW215237   6.279   1.430   3.514
 4780SOL     OW15238   5.477   2.340   5.590
 4780SOL    HW115239   5.451   2.436   5.601
 4780SOL    HW215240   5.574   2.330   5.612
 4781SOL     OW15241   1.429   5.838   2.419
 4781SOL    HW115242   1.474   5.917   2.377
 4781SOL    HW215243   1.376   5.868   2.498
 4782SOL     OW15244   5.649   5.298   5.227
 4782SOL    HW115245   5.557   5.332   5.246
 4782SOL    HW215246   5.666   5.299   5.128
 4783SOL     OW15247   5.953   3.503   1.017
 4783SOL    HW115248   5.915   3.479   1.106
 4783SOL    HW215249   5.892   3.568   0.971
 4784SOL     OW15250   5.786   2.762   6.487
 4784SOL    HW115251   5.854   2.744   6.558
 4784SOL    HW215252   5.697   2.780   6.530
 4785SOL     OW15253   0.828   6.022   3.517
 4785SOL    HW115254   0.835   5.997   3.614
 4785SOL    HW215255   0.913   6.066   3.487
 4786SOL     OW15256   2.739   6.770   0.764
 4786SOL    HW115257   2.834   6.747   0.743
 4786SOL    HW215258   2.708   6.842   0.702
 4787SOL     OW15259   4.027   1.818   4.569
 4787SOL    HW115260   4.086   1.893   4.599
 4787SOL    HW215261   3.958   1.853   4.505
 4788SOL     OW15262   6.252   6.133   0.186
 4788SOL    HW115263   6.228   6.041   0.219
 4788SOL    HW215264   6.173   6.172   0.139
 4789SOL     OW15265   4.799   0.740   2.186
 4789SOL    HW115266   4.852   0.657   2.204
 4789SOL    HW215267   4.762   0.775   2.273
 4790SOL     OW15268   5.790   1.877   5.176
 4790SOL    HW115269   5.785   1.944   5.250
 4790SOL    HW215270   5.862   1.903   5.112
 4791SOL     OW15271   0.339   2.934   0.925
 4791SOL    HW115272   0.337   2.902   0.831
 4791SOL    HW215273   0.361   2.857   0.985
 4792SOL     OW15274   2.058   3.823   4.138
 4792SOL    HW115275   2.054   3.761   4.059
 4792SOL    HW215276   2.066   3.917   4.107
 4793SOL     OW15277   1.417   4.159   6.367
 4793SOL    HW115278   1.464   4.091   6.422
 4793SOL    HW215279   1.369   4.223   6.427
 4794SOL     OW15280   5.074   0.963   4.394
 4794SOL    HW115281   5.043   0.911   4.474
 4794SOL    HW215282   5.083   1.059   4.419
 4795SOL     OW15283   0.449   0.531   4.624
 4795SOL    HW115284   0.463   0.607   4.687
 4795SOL    HW215285   0.365   0.547   4.571
 4796SOL     OW15286   3.504   1.352   5.814
 4796SOL    HW115287   3.590   1.324   5.771
 4796SOL    HW215288   3.443   1.390   5.744
 4797SOL     OW15289   0.830   5.373   4.751
 4797SOL    HW115290   0.849   5.411   4.661
 4797SOL    HW215291   0.767   5.295   4.742
 4798SOL     OW15292   4.799   4.926   6.206
 4798SOL    HW115293   4.795   5.023   6.183
 4798SOL    HW215294   4.845   4.915   6.294
 4799SOL     OW15295   3.603   2.593   6.476
 4799SOL    HW115296   3.662   2.648   6.417
 4799SOL    HW215297   3.587   2.642   6.562
 4800SOL     OW15298   1.379   4.871   6.913
 4800SOL    HW115299   1.437   4.921   6.849
 4800SOL    HW215300   1.291   4.851   6.869
 4801SOL     OW15301   5.134   2.441   1.868
 4801SOL    HW115302   5.152   2.375   1.795
 4801SOL    HW215303   5.035   2.451   1.880
 4802SOL     OW15304   6.998   6.193   2.338
 4802SOL    HW115305   6.984   6.104   2.380
 4802SOL    HW215306   0.077   6.205   2.316
 4803SOL     OW15307   5.090   4.224   6.898
 4803SOL    HW115308   5.127   4.136   6.867
 4803SOL    HW215309   5.158   4.272   6.952
 4804SOL     OW15310   5.017   2.154   0.148
 4804SOL    HW115311   5.072   2.126   0.227
 4804SOL    HW215312   4.941   2.211   0.180
 4805SOL     OW15313   6.349   2.200   1.067
 4805SOL    HW115314   6.350   2.222   0.970
 4805SOL    HW215315   6.297   2.116   1.082
 4806SOL     OW15316   1.367   2.974   3.029
 4806SOL    HW115317   1.418   2.962   3.114
 4806SOL    HW215318   1.424   2.948   2.951
 4807SOL     OW15319   1.078   3.014   6.681
 4807SOL    HW115320   1.095   2.952   6.603
 4807SOL    HW215321   1.139   3.092   6.675
 4808SOL     OW15322   3.687   5.772   0.866
 4808SOL    HW115323   3.740   5.747   0.785
 4808SOL    HW215324   3.647   5.862   0.853
 4809SOL     OW15325   3.447   4.960   1.736
 4809SOL    HW115326   3.365   4.935   1.787
 4809SOL    HW215327   3.424   4.970   1.639
 4810SOL     OW15328   1.303   3.960   3.593
 4810SOL    HW115329   1.367   3.909   3.535
 4810SOL    HW215330   1.220   3.906   3.606
 4811SOL     OW15331   3.273   4.043   4.677
 4811SOL    HW115332   3.370   4.020   4.678
 4811SOL    HW215333   3.242   4.053   4.582
 4812SOL     OW15334   0.436   6.513   2.087
 4812SOL    HW115335   0.371   6.467   2.026
 4812SOL    HW215336   0.529   6.493   2.057
 4813SOL     OW15337   6.109   1.578   6.953
 4813SOL    HW115338   6.182   1.598   7.017
 4813SOL    HW215339   6.021   1.583   7.001
 4814SOL     OW15340   0.055   4.164   1.709
 4814SOL    HW115341   0.074   4.105   1.631
 4814SOL    HW215342   0.137   4.170   1.767
 4815SOL     OW15343   5.811   5.024   2.534
 4815SOL    HW115344   5.857   5.024   2.445
 4815SOL    HW215345   5.712   5.030   2.521
 4816SOL     OW15346   1.217   6.670   2.152
 4816SOL    HW115347   1.215   6.701   2.247
 4816SOL    HW215348   1.194   6.746   2.091
 4817SOL     OW15349   3.888   1.395   1.587
 4817SOL    HW115350   3.798   1.376   1.626
 4817SOL    HW215351   3.921   1.314   1.538
 4818SOL     OW15352   2.961   0.543   4.502
 4818SOL    HW115353   2.949   0.612   4.573
 4818SOL    HW215354   3.031   0.575   4.437
 4819SOL     OW15355   2.796   1.524   1.381
 4819SOL    HW115356   2.814   1.429   1.404
 4819SOL    HW215357   2.835   1.545   1.291
 4820SOL     OW15358   0.077   4.199   2.586
 4820SOL    HW115359   0.141   4.232   2.656
 4820SOL    HW215360   0.023   4.276   2.552
 4821SOL     OW15361   6.658   5.290   1.543
 4821SOL    HW115362   6.586   5.258   1.480
 4821SOL    HW215363   6.631   5.269   1.637
 4822SOL     OW15364   2.157   4.190   3.642
 4822SOL    HW115365   2.188   4.162   3.551
 4822SOL    HW215366   2.191   4.281   3.663
 4823SOL     OW15367   0.857   0.223   4.470
 4823SOL    HW115368   0.825   0.187   4.382
 4823SOL    HW215369   0.899   0.149   4.523
 4824SOL     OW15370   5.431   2.179   2.645
 4824SOL    HW115371   5.379   2.256   2.681
 4824SOL    HW215372   5.424   2.177   2.545
 4825SOL     OW15373   1.842   3.543   4.082
 4825SOL    HW115374   1.860   3.626   4.135
 4825SOL    HW215375   1.920   3.522   4.024
 4826SOL     OW15376   0.344   6.611   0.682
 4826SOL    HW115377   0.355   6.553   0.763
 4826SOL    HW215378   0.263   6.583   0.631
 4827SOL     OW15379   4.586   1.121   1.175
 4827SOL    HW115380   4.498   1.081   1.199
 4827SOL    HW215381   4.645   1.050   1.134
 4828SOL     OW15382   5.641   3.355   2.001
 4828SOL    HW115383   5.572   3.427   2.002
 4828SOL    HW215384   5.649   3.315   2.092
 4829SOL     OW15385   2.772   0.679   6.047
 4829SOL    HW115386   2.732   0.643   5.962
 4829SOL    HW215387   2.729   0.635   6.126
 4830SOL     OW15388   4.771   6.187   3.643
 4830SOL    HW115389   4.842   6.154   3.580
 4830SOL    HW215390   4.746   6.281   3.618
 4831SOL     OW15391   6.619   4.655   5.183
 4831SOL    HW115392   6.522   4.631   5.187
 4831SOL    HW215393   6.635   4.738   5.236
 4832SOL     OW15394   3.377   2.943   5.839
 4832SOL    HW115395   3.385   3.040   5.865
 4832SOL    HW215396   3.300   2.902   5.886
 4833SOL     OW15397   4.219   1.232   3.137
 4833SOL    HW115398   4.134   1.229   3.188
 4833SOL    HW215399   4.214   1.169   3.059
 4834SOL     OW15400   4.338   0.846   0.890
 4834SOL    HW115401   4.264   0.798   0.843
 4834SOL    HW215402   4.300   0.919   0.946
 4835SOL     OW15403   1.756   0.086   6.349
 4835SOL    HW115404   1.799   0.174   6.369
 4835SOL    HW215405   1.826   0.014   6.345
 4836SOL     OW15406   5.180   1.872   4.230
 4836SOL    HW115407   5.154   1.805   4.300
 4836SOL    HW215408   5.248   1.832   4.169
 4837SOL     OW15409   3.041   2.609   1.447
 4837SOL    HW115410   2.965   2.545   1.449
 4837SOL    HW215411   3.014   2.693   1.400
 4838SOL     OW15412   3.883   4.816   1.866
 4838SOL    HW115413   3.851   4.768   1.948
 4838SOL    HW215414   3.932   4.752   1.807
 4839SOL     OW15415   0.326   5.283   5.605
 4839SOL    HW115416   0.396   5.320   5.667
 4839SOL    HW215417   0.257   5.353   5.588
 4840SOL     OW15418   6.084   6.704   0.607
 4840SOL    HW115419   6.090   6.615   0.652
 4840SOL    HW215420   5.992   6.741   0.618
 4841SOL     OW15421   3.273   5.713   1.421
 4841SOL    HW115422   3.203   5.652   1.458
 4841SOL    HW215423   3.300   5.779   1.492
 4842SOL     OW15424   3.844   5.623   1.843
 4842SOL    HW115425   3.879   5.643   1.751
 4842SOL    HW215426   3.836   5.524   1.854
 4843SOL     OW15427   0.185   4.087   0.271
 4843SOL    HW115428   0.148   4.164   0.323
 4843SOL    HW215429   0.163   4.099   0.174
 4844SOL     OW15430   6.410   3.614   0.317
 4844SOL    HW115431   6.454   3.704   0.312
 4844SOL    HW215432   6.431   3.571   0.404
 4845SOL     OW15433   6.173   5.678   4.111
 4845SOL    HW115434   6.089   5.721   4.145
 4845SOL    HW215435   6.210   5.617   4.182
 4846SOL     OW15436   1.106   2.835   0.710
 4846SOL    HW115437   1.027   2.848   0.650
 4846SOL    HW215438   1.143   2.743   0.699
 4847SOL     OW15439   3.882   2.089   4.790
 4847SOL    HW115440   3.922   2.101   4.699
 4847SOL    HW215441   3.782   2.085   4.783
 4848SOL     OW15442   1.891   1.658   3.698
 4848SOL    HW115443   1.977   1.623   3.737
 4848SOL    HW215444   1.827   1.582   3.685
 4849SOL     OW15445   1.293   6.953   0.260
 4849SOL    HW115446   1.288   0.034   0.246
 4849SOL    HW215447   1.325   6.910   0.175
 4850SOL     OW15448   3.932   0.422   1.922
 4850SOL    HW115449   3.986   0.366   1.985
 4850SOL    HW215450   3.960   0.518   1.931
 4851SOL     OW15451   4.498   5.711   5.609
 4851SOL    HW115452   4.560   5.737   5.683
 4851SOL    HW215453   4.413   5.676   5.648
 4852SOL     OW15454   1.604   1.020   0.007
 4852SOL    HW115455   1.687   1.028   6.971
 4852SOL    HW215456   1.595   0.926   0.040
 4853SOL     OW15457   3.350   1.525   2.920
 4853SOL    HW115458   3.414   1.474   2.978
 4853SOL    HW215459   3.348   1.484   2.829
 4854SOL     OW15460   4.753   5.321   2.399
 4854SOL    HW115461   4.837   5.318   2.454
 4854SOL    HW215462   4.777   5.314   2.302
 4855SOL     OW15463   5.904   1.761   2.065
 4855SOL    HW115464   5.811   1.727   2.051
 4855SOL    HW215465   5.907   1.816   2.148
 4856SOL     OW15466   2.841   4.763   3.827
 4856SOL    HW115467   2.832   4.761   3.728
 4856SOL    HW215468   2.750   4.753   3.869
 4857SOL     OW15469   0.842   2.132   5.892
 4857SOL    HW115470   0.922   2.178   5.931
 4857SOL    HW215471   0.869   2.043   5.857
 4858SOL     OW15472   2.100   1.970   4.599
 4858SOL    HW115473   2.170   2.038   4.578
 4858SOL    HW215474   2.101   1.950   4.697
 4859SOL     OW15475   1.780   5.778   4.743
 4859SOL    HW115476   1.879   5.770   4.742
 4859SOL    HW215477   1.738   5.688   4.749
 4860SOL     OW15478   4.266   5.252   1.543
 4860SOL    HW115479   4.194   5.204   1.492
 4860SOL    HW215480   4.253   5.236   1.641
 4861SOL     OW15481   5.223   5.150   6.888
 4861SOL    HW115482   5.253   5.122   6.796
 4861SOL    HW215483   5.262   5.088   6.956
 4862SOL     OW15484   1.273   5.371   3.310
 4862SOL    HW115485   1.295   5.333   3.400
 4862SOL    HW215486   1.357   5.384   3.258
 4863SOL     OW15487   5.712   4.255   0.845
 4863SOL    HW115488   5.651   4.201   0.788
 4863SOL    HW215489   5.806   4.223   0.834
 4864SOL     OW15490   2.840   0.927   3.262
 4864SOL    HW115491   2.772   0.868   3.218
 4864SOL    HW215492   2.931   0.889   3.248
 4865SOL     OW15493   2.260   6.919   4.524
 4865SOL    HW115494   2.320   6.999   4.526
 4865SOL    HW215495   2.251   6.888   4.429
 4866SOL     OW15496   6.712   3.553   1.480
 4866SOL    HW115497   6.691   3.584   1.388
 4866SOL    HW215498   6.772   3.620   1.525
 4867SOL     OW15499   4.539   5.604   2.136
 4867SOL    HW115500   4.592   5.635   2.058
 4867SOL    HW215501   4.566   5.654   2.218
 4868SOL     OW15502   6.521   4.473   1.890
 4868SOL    HW115503   6.558   4.566   1.897
 4868SOL    HW215504   6.569   4.414   1.955
 4869SOL     OW15505   1.826   1.400   0.666
 4869SOL    HW115506   1.850   1.304   0.676
 4869SOL    HW215507   1.827   1.425   0.569
 4870SOL     OW15508   0.407   6.228   1.749
 4870SOL    HW115509   0.462   6.311   1.739
 4870SOL    HW215510   0.355   6.233   1.834
 4871SOL     OW15511   1.444   0.793   4.819
 4871SOL    HW115512   1.357   0.794   4.771
 4871SOL    HW215513   1.434   0.745   4.906
 4872SOL     OW15514   0.039   6.500   2.919
 4872SOL    HW115515   0.019   6.452   3.004
 4872SOL    HW215516   0.119   6.460   2.875
 4873SOL     OW15517   6.924   5.473   4.907
 4873SOL    HW115518   7.004   5.414   4.904
 4873SOL    HW215519   6.917   5.524   4.820
 4874SOL     OW15520   4.887   2.558   2.967
 4874SOL    HW115521   4.801   2.521   3.002
 4874SOL    HW215522   4.892   2.545   2.868
 4875SOL     OW15523   4.862   6.856   0.118
 4875SOL    HW115524   4.851   6.917   0.197
 4875SOL    HW215525   4.908   6.906   0.044
 4876SOL     OW15526   0.510   1.492   3.455
 4876SOL    HW115527   0.481   1.573   3.504
 4876SOL    HW215528   0.595   1.457   3.496
 4877SOL     OW15529   0.684   2.021   5.245
 4877SOL    HW115530   0.593   1.995   5.214
 4877SOL    HW215531   0.677   2.101   5.306
 4878SOL     OW15532   6.812   1.752   1.854
 4878SOL    HW115533   6.821   1.825   1.787
 4878SOL    HW215534   6.755   1.679   1.816
 4879SOL     OW15535   5.060   1.787   2.553
 4879SOL    HW115536   4.980   1.773   2.611
 4879SOL    HW215537   5.095   1.879   2.568
 4880SOL     OW15538   6.860   3.088   0.270
 4880SOL    HW115539   6.768   3.064   0.241
 4880SOL    HW215540   6.920   3.092   0.190
 4881SOL     OW15541   1.840   2.620   1.432
 4881SOL    HW115542   1.780   2.692   1.398
 4881SOL    HW215543   1.785   2.543   1.465
 4882SOL     OW15544   4.234   2.046   5.166
 4882SOL    HW115545   4.170   2.036   5.090
 4882SOL    HW215546   4.241   1.959   5.215
 4883SOL     OW15547   5.108   3.827   2.075
 4883SOL    HW115548   5.156   3.913   2.060
 4883SOL    HW215549   5.039   3.840   2.147
 4884SOL     OW15550   2.334   5.471   0.931
 4884SOL    HW115551   2.421   5.513   0.906
 4884SOL    HW215552   2.276   5.540   0.976
 4885SOL     OW15553   2.422   4.780   1.896
 4885SOL    HW115554   2.347   4.813   1.953
 4885SOL    HW215555   2.406   4.684   1.872
 4886SOL     OW15556   3.116   6.702   1.886
 4886SOL    HW115557   3.032   6.666   1.846
 4886SOL    HW215558   3.183   6.719   1.814
 4887SOL     OW15559   1.175   6.419   1.381
 4887SOL    HW115560   1.081   6.388   1.371
 4887SOL    HW215561   1.233   6.343   1.412
 4888SOL     OW15562   2.984   6.454   2.833
 4888SOL    HW115563   3.063   6.431   2.776
 4888SOL    HW215564   3.011   6.448   2.930
 4889SOL     OW15565   6.724   1.706   4.596
 4889SOL    HW115566   6.723   1.761   4.512
 4889SOL    HW215567   6.731   1.767   4.675
 4890SOL     OW15568   0.893   1.509   5.561
 4890SOL    HW115569   0.796   1.484   5.559
 4890SOL    HW215570   0.936   1.482   5.475
 4891SOL     OW15571   2.345   5.165   6.217
 4891SOL    HW115572   2.285   5.234   6.258
 4891SOL    HW215573   2.437   5.202   6.207
 4892SOL     OW15574   5.502   6.646   2.299
 4892SOL    HW115575   5.569   6.703   2.346
 4892SOL    HW215576   5.546   6.599   2.223
 4893SOL     OW15577   0.403   3.393   2.025
 4893SOL    HW115578   0.453   3.468   2.069
 4893SOL    HW215579   0.412   3.402   1.925
 4894SOL     OW15580   3.504   0.137   2.042
 4894SOL    HW115581   3.585   0.177   1.999
 4894SOL    HW215582   3.422   0.187   2.013
 4895SOL     OW15583   0.622   4.917   3.611
 4895SOL    HW115584   0.582   4.986   3.672
 4895SOL    HW215585   0.598   4.938   3.516
 4896SOL     OW15586   2.198   4.858   3.409
 4896SOL    HW115587   2.200   4.950   3.449
 4896SOL    HW215588   2.204   4.790   3.482
 4897SOL     OW15589   1.835   5.774   5.344
 4897SOL    HW115590   1.869   5.706   5.278
 4897SOL    HW215591   1.799   5.726   5.425
 4898SOL     OW15592   4.387   0.924   5.072
 4898SOL    HW115593   4.366   1.013   5.033
 4898SOL    HW215594   4.316   0.858   5.046
 4899SOL     OW15595   6.205   5.679   2.241
 4899SOL    HW115596   6.207   5.590   2.286
 4899SOL    HW215597   6.121   5.688   2.188
 4900SOL     OW15598   4.709   5.853   5.821
 4900SOL    HW115599   4.766   5.893   5.750
 4900SOL    HW215600   4.745   5.763   5.846
 4901SOL     OW15601   1.417   2.258   4.942
 4901SOL    HW115602   1.441   2.203   5.022
 4901SOL    HW215603   1.334   2.222   4.900
 4902SOL     OW15604   1.792   0.541   6.184
 4902SOL    HW115605   1.786   0.624   6.129
 4902SOL    HW215606   1.863   0.481   6.147
 4903SOL     OW15607   4.319   5.488   0.965
 4903SOL    HW115608   4.311   5.467   0.868
 4903SOL    HW215609   4.415   5.479   0.994
 4904SOL     OW15610   2.284   0.706   5.740
 4904SOL    HW115611   2.314   0.677   5.831
 4904SOL    HW215612   2.210   0.773   5.750
 4905SOL     OW15613   3.007   0.207   2.909
 4905SOL    HW115614   3.031   0.292   2.955
 4905SOL    HW215615   3.035   0.211   2.813
 4906SOL     OW15616   4.806   3.291   5.242
 4906SOL    HW115617   4.881   3.257   5.186
 4906SOL    HW215618   4.774   3.378   5.205
 4907SOL     OW15619   4.918   1.319   0.520
 4907SOL    HW115620   4.852   1.386   0.488
 4907SOL    HW215621   4.988   1.304   0.450
 4908SOL     OW15622   4.775   0.324   0.944
 4908SOL    HW115623   4.863   0.297   0.904
 4908SOL    HW215624   4.775   0.422   0.963
 4909SOL     OW15625   6.508   3.945   3.667
 4909SOL    HW115626   6.523   3.934   3.765
 4909SOL    HW215627   6.559   3.875   3.617
 4910SOL     OW15628   5.689   1.382   4.533
 4910SOL    HW115629   5.730   1.445   4.467
 4910SOL    HW215630   5.603   1.420   4.566
 4911SOL     OW15631   1.712   2.684   3.134
 4911SOL    HW115632   1.701   2.666   3.037
 4911SOL    HW215633   1.737   2.599   3.181
 4912SOL     OW15634   5.213   1.941   5.617
 4912SOL    HW115635   5.159   1.877   5.562
 4912SOL    HW215636   5.151   2.006   5.662
 4913SOL     OW15637   5.651   2.976   5.716
 4913SOL    HW115638   5.637   3.068   5.752
 4913SOL    HW215639   5.616   2.971   5.623
 4914SOL     OW15640   4.426   0.301   5.346
 4914SOL    HW115641   4.515   0.333   5.314
 4914SOL    HW215642   4.416   0.321   5.443
 4915SOL     OW15643   2.819   5.890   5.206
 4915SOL    HW115644   2.764   5.818   5.164
 4915SOL    HW215645   2.839   5.865   5.301
 4916SOL     OW15646   0.098   0.695   4.219
 4916SOL    HW115647   0.078   0.645   4.303
 4916SOL    HW215648   0.129   0.787   4.241
 4917SOL     OW15649   3.324   5.598   0.934
 4917SOL    HW115650   3.338   5.658   1.014
 4917SOL    HW215651   3.245   5.539   0.951
 4918SOL     OW15652   6.499   5.773   1.984
 4918SOL    HW115653   6.486   5.783   2.082
 4918SOL    HW215654   6.590   5.737   1.965
 4919SOL     OW15655   3.871   2.935   2.092
 4919SOL    HW115656   3.870   2.983   2.180
 4919SOL    HW215657   3.897   2.840   2.106
 4920SOL     OW15658   5.572   0.557   5.198
 4920SOL    HW115659   5.565   0.471   5.250
 4920SOL    HW215660   5.663   0.596   5.211
 4921SOL     OW15661   1.037   5.714   0.264
 4921SOL    HW115662   1.128   5.712   0.225
 4921SOL    HW215663   0.996   5.804   0.250
 4922SOL     OW15664   3.448   2.172   5.233
 4922SOL    HW115665   3.500   2.249   5.271
 4922SOL    HW215666   3.352   2.198   5.225
 4923SOL     OW15667   3.144   1.805   2.775
 4923SOL    HW115668   3.214   1.875   2.763
 4923SOL    HW215669   3.054   1.845   2.759
 4924SOL     OW15670   2.288   1.554   5.892
 4924SOL    HW115671   2.289   1.636   5.835
 4924SOL    HW215672   2.232   1.570   5.973
 4925SOL     OW15673   4.354   0.274   3.115
 4925SOL    HW115674   4.392   0.362   3.143
 4925SOL    HW215675   4.396   0.246   3.028
 4926SOL     OW15676   5.502   1.630   1.424
 4926SOL    HW115677   5.602   1.629   1.431
 4926SOL    HW215678   5.476   1.642   1.329
 4927SOL     OW15679   3.098   2.696   6.224
 4927SOL    HW115680   3.181   2.644   6.242
 4927SOL    HW215681   3.057   2.665   6.138
 4928SOL     OW15682   1.195   1.085   0.606
 4928SOL    HW115683   1.286   1.119   0.583
 4928SOL    HW215684   1.200   1.034   0.692
 4929SOL     OW15685   0.025   0.059   3.365
 4929SOL    HW115686   0.001   0.004   3.285
 4929SOL    HW215687   0.009   0.156   3.345
 4930SOL     OW15688   6.078   0.082   2.335
 4930SOL    HW115689   6.059   7.003   2.343
 4930SOL    HW215690   6.154   0.107   2.396
 4931SOL     OW15691   5.852   6.342   1.903
 4931SOL    HW115692   5.888   6.254   1.874
 4931SOL    HW215693   5.752   6.339   1.902
 4932SOL     OW15694   3.263   4.027   3.465
 4932SOL    HW115695   3.340   4.078   3.426
 4932SOL    HW215696   3.240   4.066   3.554
 4933SOL     OW15697   2.377   6.432   4.429
 4933SOL    HW115698   2.430   6.495   4.486
 4933SOL    HW215699   2.416   6.340   4.435
 4934SOL     OW15700   3.620   6.222   2.639
 4934SOL    HW115701   3.629   6.271   2.725
 4934SOL    HW215702   3.700   6.162   2.626
 4935SOL     OW15703   1.502   2.016   6.995
 4935SOL    HW115704   1.501   2.106   0.019
 4935SOL    HW215705   1.482   2.024   6.897
 4936SOL     OW15706   2.483   4.763   0.682
 4936SOL    HW115707   2.485   4.824   0.761
 4936SOL    HW215708   2.576   4.734   0.659
 4937SOL     OW15709   5.069   3.300   5.080
 4937SOL    HW115710   5.097   3.358   5.003
 4937SOL    HW215711   5.132   3.223   5.090
 4938SOL     OW15712   3.449   5.718   5.273
 4938SOL    HW115713   3.434   5.793   5.337
 4938SOL    HW215714   3.493   5.753   5.190
 4939SOL     OW15715   4.801   3.083   5.431
 4939SOL    HW115716   4.805   3.153   5.360
 4939SOL    HW215717   4.877   3.019   5.419
 4940SOL     OW15718   1.937   0.292   5.274
 4940SOL    HW115719   1.953   0.246   5.362
 4940SOL    HW215720   1.847   0.336   5.276
 4941SOL     OW15721   4.093   1.537   7.002
 4941SOL    HW115722   4.073   1.568   6.909
 4941SOL    HW215723   4.186   1.561   0.007
 4942SOL     OW15724   5.019   3.747   5.409
 4942SOL    HW115725   4.942   3.746   5.473
 4942SOL    HW215726   5.005   3.677   5.339
 4943SOL     OW15727   4.565   2.383   0.737
 4943SOL    HW115728   4.523   2.452   0.677
 4943SOL    HW215729   4.574   2.421   0.829
 4944SOL     OW15730   2.100   3.901   2.761
 4944SOL    HW115731   2.128   3.820   2.708
 4944SOL    HW215732   2.026   3.876   2.824
 4945SOL     OW15733   1.070   0.257   3.953
 4945SOL    HW115734   1.055   0.174   3.899
 4945SOL    HW215735   1.123   0.233   4.034
 4946SOL     OW15736   1.387   2.805   1.910
 4946SOL    HW115737   1.326   2.861   1.967
 4946SOL    HW215738   1.444   2.748   1.969
 4947SOL     OW15739   0.803   6.986   0.647
 4947SOL    HW115740   0.816   6.914   0.579
 4947SOL    HW215741   0.706   7.002   0.660
 4948SOL     OW15742   2.147   0.879   2.742
 4948SOL    HW115743   2.059   0.837   2.720
 4948SOL    HW215744   2.134   0.978   2.753
 4949SOL     OW15745   5.249   0.720   5.427
 4949SOL    HW115746   5.294   0.739   5.340
 4949SOL    HW215747   5.185   0.645   5.416
 4950SOL     OW15748   2.717   6.225   4.363
 4950SOL    HW115749   2.667   6.228   4.449
 4950SOL    HW215750   2.754   6.133   4.349
 4951SOL     OW15751   4.202   1.518   4.119
 4951SOL    HW115752   4.294   1.514   4.159
 4951SOL    HW215753   4.136   1.481   4.184
 4952SOL     OW15754   0.392   6.237   4.860
 4952SOL    HW115755   0.371   6.272   4.768
 4952SOL    HW215756   0.471   6.286   4.897
 4953SOL     OW15757   2.141   5.260   0.843
 4953SOL    HW115758   2.217   5.229   0.901
 4953SOL    HW215759   2.175   5.329   0.778
 4954SOL     OW15760   5.238   4.703   0.362
 4954SOL    HW115761   5.268   4.608   0.355
 4954SOL    HW215762   5.175   4.724   0.287
 4955SOL     OW15763   1.518   6.329   0.399
 4955SOL    HW115764   1.464   6.399   0.445
 4955SOL    HW215765   1.465   6.289   0.324
 4956SOL     OW15766   4.084   0.059   5.747
 4956SOL    HW115767   3.994   0.019   5.732
 4956SOL    HW215768   4.074   0.158   5.764
 4957SOL     OW15769   0.359   1.689   4.054
 4957SOL    HW115770   0.345   1.673   3.956
 4957SOL    HW215771   0.400   1.608   4.095
 4958SOL     OW15772   0.372   6.478   6.340
 4958SOL    HW115773   0.351   6.490   6.243
 4958SOL    HW215774   0.377   6.381   6.362
 4959SOL     OW15775   1.133   0.759   7.012
 4959SOL    HW115776   1.149   0.662   6.996
 4959SOL    HW215777   1.149   0.811   6.928
 4960SOL     OW15778   3.926   6.666   4.173
 4960SOL    HW115779   3.871   6.606   4.116
 4960SOL    HW215780   4.023   6.648   4.155
 4961SOL     OW15781   5.516   0.074   4.595
 4961SOL    HW115782   5.482   7.018   4.537
 4961SOL    HW215783   5.601   0.111   4.557
 4962SOL     OW15784   5.645   2.553   1.917
 4962SOL    HW115785   5.729   2.499   1.920
 4962SOL    HW215786   5.664   2.642   1.875
 4963SOL     OW15787   0.427   5.243   1.208
 4963SOL    HW115788   0.387   5.333   1.192
 4963SOL    HW215789   0.396   5.209   1.297
 4964SOL     OW15790   3.800   5.746   3.779
 4964SOL    HW115791   3.884   5.735   3.726
 4964SOL    HW215792   3.724   5.706   3.729
 4965SOL     OW15793   0.239   6.769   4.500
 4965SOL    HW115794   0.323   6.764   4.554
 4965SOL    HW215795   0.183   6.688   4.518
 4966SOL     OW15796   2.994   6.087   4.697
 4966SOL    HW115797   3.092   6.084   4.678
 4966SOL    HW215798   2.971   6.022   4.770
 4967SOL     OW15799   4.228   2.670   6.958
 4967SOL    HW115800   4.178   2.584   6.967
 4967SOL    HW215801   4.275   2.673   6.870
 4968SOL     OW15802   4.753   2.814   3.489
 4968SOL    HW115803   4.842   2.777   3.464
 4968SOL    HW215804   4.684   2.742   3.483
 4969SOL     OW15805   1.617   1.176   1.742
 4969SOL    HW115806   1.696   1.175   1.802
 4969SOL    HW215807   1.623   1.254   1.680
 4970SOL     OW15808   1.214   2.115   4.781
 4970SOL    HW115809   1.290   2.053   4.802
 4970SOL    HW215810   1.128   2.064   4.778
 4971SOL     OW15811   6.368   5.902   3.033
 4971SOL    HW115812   6.277   5.878   3.067
 4971SOL    HW215813   6.360   5.972   2.962
 4972SOL     OW15814   1.966   3.491   1.042
 4972SOL    HW115815   1.959   3.543   1.127
 4972SOL    HW215816   2.020   3.542   0.975
 4973SOL     OW15817   6.082   6.262   2.144
 4973SOL    HW115818   6.093   6.281   2.047
 4973SOL    HW215819   6.012   6.322   2.183
 4974SOL     OW15820   5.636   5.957   2.705
 4974SOL    HW115821   5.659   5.859   2.699
 4974SOL    HW215822   5.720   6.009   2.723
 4975SOL     OW15823   5.935   6.175   0.594
 4975SOL    HW115824   5.935   6.238   0.517
 4975SOL    HW215825   5.848   6.180   0.642
 4976SOL     OW15826   3.383   0.265   4.929
 4976SOL    HW115827   3.336   0.180   4.951
 4976SOL    HW215828   3.332   0.314   4.858
 4977SOL     OW15829   4.180   3.689   0.414
 4977SOL    HW115830   4.199   3.784   0.439
 4977SOL    HW215831   4.258   3.651   0.365
 4978SOL     OW15832   5.779   3.985   5.146
 4978SOL    HW115833   5.769   3.908   5.209
 4978SOL    HW215834   5.715   4.058   5.171
 4979SOL     OW15835   0.586   0.779   5.534
 4979SOL    HW115836   0.637   0.864   5.522
 4979SOL    HW215837   0.493   0.791   5.498
 4980SOL     OW15838   3.823   5.331   2.535
 4980SOL    HW115839   3.765   5.382   2.471
 4980SOL    HW215840   3.795   5.235   2.537
 4981SOL     OW15841   4.535   0.024   5.718
 4981SOL    HW115842   4.560   0.118   5.697
 4981SOL    HW215843   4.508   6.996   5.634
 4982SOL     OW15844   2.002   2.154   0.147
 4982SOL    HW115845   1.945   2.086   0.102
 4982SOL    HW215846   2.099   2.133   0.132
 4983SOL     OW15847   5.116   2.829   3.689
 4983SOL    HW115848   5.200   2.789   3.723
 4983SOL    HW215849   5.128   2.927   3.675
 4984SOL     OW15850   4.994   3.809   4.400
 4984SOL    HW115851   4.937   3.740   4.444
 4984SOL    HW215852   5.006   3.887   4.461
 4985SOL     OW15853   5.326   5.595   3.141
 4985SOL    HW115854   5.311   5.693   3.150
 4985SOL    HW215855   5.274   5.560   3.063
 4986SOL     OW15856   5.884   4.440   2.468
 4986SOL    HW115857   5.877   4.341   2.479
 4986SOL    HW215858   5.858   4.466   2.376
 4987SOL     OW15859   0.089   3.458   1.089
 4987SOL    HW115860   0.126   3.372   1.123
 4987SOL    HW215861   0.061   3.448   0.993
 4988SOL     OW15862   0.327   1.870   4.271
 4988SOL    HW115863   0.232   1.872   4.300
 4988SOL    HW215864   0.338   1.802   4.198
 4989SOL     OW15865   6.405   1.358   0.754
 4989SOL    HW115866   6.465   1.288   0.794
 4989SOL    HW215867   6.337   1.386   0.822
 4990SOL     OW15868   0.698   2.835   5.257
 4990SOL    HW115869   0.768   2.788   5.204
 4990SOL    HW215870   0.619   2.855   5.198
 4991SOL     OW15871   0.397   3.037   4.179
 4991SOL    HW115872   0.429   3.020   4.086
 4991SOL    HW215873   0.297   3.037   4.180
 4992SOL     OW15874   3.504   0.462   5.266
 4992SOL    HW115875   3.556   0.410   5.199
 4992SOL    HW215876   3.500   0.558   5.239
 4993SOL     OW15877   3.047   5.830   3.645
 4993SOL    HW115878   3.024   5.770   3.568
 4993SOL    HW215879   3.028   5.783   3.731
 4994SOL     OW15880   0.731   6.312   2.785
 4994SOL    HW115881   0.755   6.404   2.752
 4994SOL    HW215882   0.632   6.300   2.782
 4995SOL     OW15883   6.833   2.831   6.482
 4995SOL    HW115884   6.765   2.901   6.459
 4995SOL    HW215885   6.844   2.769   6.405
 4996SOL     OW15886   0.522   2.350   1.935
 4996SOL    HW115887   0.490   2.438   1.899
 4996SOL    HW215888   0.452   2.312   1.996
 4997SOL     OW15889   6.945   2.121   2.553
 4997SOL    HW115890   0.003   2.148   2.496
 4997SOL    HW215891   6.864   2.174   2.529
 4998SOL     OW15892   1.685   5.126   4.929
 4998SOL    HW115893   1.596   5.093   4.899
 4998SOL    HW215894   1.701   5.217   4.891
 4999SOL     OW15895   5.278   5.548   0.593
 4999SOL    HW115896   5.299   5.635   0.637
 4999SOL    HW215897   5.179   5.533   0.595
 5000SOL     OW15898   0.990   0.153   5.144
 5000SOL    HW115899   0.938   0.236   5.164
 5000SOL    HW215900   0.933   0.091   5.090
 5001SOL     OW15901   2.557   4.125   5.916
 5001SOL    HW115902   2.519   4.065   5.846
 5001SOL    HW215903   2.623   4.188   5.874
 5002SOL     OW15904   2.049   1.204   2.655
 5002SOL    HW115905   2.111   1.153   2.595
 5002SOL    HW215906   1.967   1.230   2.604
 5003SOL     OW15907   7.005   6.366   2.553
 5003SOL    HW115908   0.035   6.443   2.593
 5003SOL    HW215909   0.024   6.346   2.462
 5004SOL     OW15910   2.405   5.858   6.367
 5004SOL    HW115911   2.471   5.843   6.293
 5004SOL    HW215912   2.316   5.823   6.339
 5005SOL     OW15913   4.381   2.991   0.498
 5005SOL    HW115914   4.418   3.000   0.591
 5005SOL    HW215915   4.283   2.974   0.504
 5006SOL     OW15916   5.410   6.878   5.242
 5006SOL    HW115917   5.331   6.824   5.214
 5006SOL    HW215918   5.460   6.909   5.161
 5007SOL     OW15919   4.125   0.943   5.998
 5007SOL    HW115920   4.133   1.038   5.968
 5007SOL    HW215921   4.211   0.913   6.039
 5008SOL     OW15922   5.781   1.263   3.258
 5008SOL    HW115923   5.691   1.228   3.283
 5008SOL    HW215924   5.802   1.239   3.163
 5009SOL     OW15925   0.812   6.074   1.909
 5009SOL    HW115926   0.857   6.163   1.900
 5009SOL    HW215927   0.874   6.010   1.955
 5010SOL     OW15928   3.698   3.875   3.763
 5010SOL    HW115929   3.760   3.833   3.697
 5010SOL    HW215930   3.750   3.921   3.835
 5011SOL     OW15931   0.689   3.123   2.095
 5011SOL    HW115932   0.703   3.056   2.167
 5011SOL    HW215933   0.769   3.182   2.088
 5012SOL     OW15934   6.993   2.835   6.124
 5012SOL    HW115935   7.016   2.924   6.163
 5012SOL    HW215936   6.895   2.817   6.138
 5013SOL     OW15937   3.816   1.023   6.319
 5013SOL    HW115938   3.900   1.067   6.352
 5013SOL    HW215939   3.808   0.933   6.363
 5014SOL     OW15940   6.197   5.992   0.568
 5014SOL    HW115941   6.124   5.973   0.634
 5014SOL    HW215942   6.217   5.909   0.516
 5015SOL     OW15943   4.329   2.045   3.602
 5015SOL    HW115944   4.401   2.022   3.668
 5015SOL    HW215945   4.252   2.085   3.650
 5016SOL     OW15946   1.785   0.358   2.871
 5016SOL    HW115947   1.823   0.386   2.959
 5016SOL    HW215948   1.690   0.331   2.883
 5017SOL     OW15949   2.689   1.928   0.650
 5017SOL    HW115950   2.749   1.851   0.668
 5017SOL    HW215951   2.634   1.948   0.732
 5018SOL     OW15952   0.163   4.159   2.970
 5018SOL    HW115953   0.156   4.236   2.906
 5018SOL    HW215954   0.089   4.094   2.952
 5019SOL     OW15955   2.661   4.168   0.787
 5019SOL    HW115956   2.620   4.129   0.869
 5019SOL    HW215957   2.716   4.099   0.741
 5020SOL     OW15958   4.744   5.216   6.197
 5020SOL    HW115959   4.653   5.221   6.156
 5020SOL    HW215960   4.742   5.259   6.287
 5021SOL     OW15961   1.975   4.833   5.797
 5021SOL    HW115962   2.026   4.833   5.711
 5021SOL    HW215963   2.034   4.863   5.872
 5022SOL     OW15964   1.684   6.312   0.751
 5022SOL    HW115965   1.687   6.287   0.654
 5022SOL    HW215966   1.609   6.377   0.766
 5023SOL     OW15967   6.344   2.754   0.913
 5023SOL    HW115968   6.252   2.720   0.896
 5023SOL    HW215969   6.408   2.678   0.917
 5024SOL     OW15970   6.646   4.199   3.661
 5024SOL    HW115971   6.583   4.124   3.676
 5024SOL    HW215972   6.740   4.164   3.664
 5025SOL     OW15973   5.117   1.429   3.041
 5025SOL    HW115974   5.083   1.468   3.127
 5025SOL    HW215975   5.202   1.475   3.014
 5026SOL     OW15976   6.091   5.520   4.362
 5026SOL    HW115977   6.041   5.572   4.431
 5026SOL    HW215978   6.153   5.455   4.407
 5027SOL     OW15979   0.032   6.668   3.152
 5027SOL    HW115980   0.103   6.683   3.220
 5027SOL    HW215981   0.074   6.649   3.063
 5028SOL     OW15982   0.276   6.236   2.274
 5028SOL    HW115983   0.366   6.229   2.319
 5028SOL    HW215984   0.244   6.331   2.279
 5029SOL     OW15985   0.277   2.537   1.403
 5029SOL    HW115986   0.177   2.548   1.402
 5029SOL    HW215987   0.303   2.465   1.339
 5030SOL     OW15988   6.432   0.260   6.805
 5030SOL    HW115989   6.528   0.288   6.809
 5030SOL    HW215990   6.426   0.161   6.799
 5031SOL     OW15991   5.593   0.618   4.242
 5031SOL    HW115992   5.552   0.672   4.316
 5031SOL    HW215993   5.637   0.680   4.177
 5032SOL     OW15994   1.437   5.111   0.758
 5032SOL    HW115995   1.429   5.209   0.780
 5032SOL    HW215996   1.533   5.086   0.753
 5033SOL     OW15997   2.519   4.664   5.563
 5033SOL    HW115998   2.618   4.671   5.568
 5033SOL    HW215999   2.490   4.574   5.596
 5034SOL     OW16000   6.369   1.986   2.082
 5034SOL    HW116001   6.346   2.074   2.123
 5034SOL    HW216002   6.367   1.995   1.982
 5035SOL     OW16003   4.650   5.431   0.639
 5035SOL    HW116004   4.706   5.366   0.690
 5035SOL    HW216005   4.689   5.523   0.648
 5036SOL     OW16006   0.717   6.172   0.452
 5036SOL    HW116007   0.806   6.201   0.417
 5036SOL    HW216008   0.645   6.196   0.386
 5037SOL     OW16009   4.108   1.626   3.579
 5037SOL    HW116010   4.092   1.701   3.644
 5037SOL    HW216011   4.079   1.540   3.620
 5038SOL     OW16012   1.362   5.945   5.929
 5038SOL    HW116013   1.309   5.972   5.848
 5038SOL    HW216014   1.450   5.907   5.901
 5039SOL     OW16015   2.346   2.929   5.423
 5039SOL    HW116016   2.331   2.831   5.417
 5039SOL    HW216017   2.359   2.967   5.332
 5040SOL     OW16018   3.221   3.398   6.661
 5040SOL    HW116019   3.139   3.345   6.684
 5040SOL    HW216020   3.199   3.496   6.664
 5041SOL     OW16021   1.069   3.530   1.432
 5041SOL    HW116022   0.980   3.488   1.415
 5041SOL    HW216023   1.107   3.565   1.346
 5042SOL     OW16024   5.723   3.550   6.481
 5042SOL    HW116025   5.816   3.539   6.443
 5042SOL    HW216026   5.661   3.576   6.408
 5043SOL     OW16027   3.983   0.738   3.559
 5043SOL    HW116028   3.915   0.706   3.493
 5043SOL    HW216029   4.073   0.705   3.532
 5044SOL     OW16030   6.056   5.682   3.673
 5044SOL    HW116031   6.041   5.748   3.746
 5044SOL    HW216032   6.077   5.592   3.712
 5045SOL     OW16033   6.061   3.331   0.353
 5045SOL    HW116034   6.005   3.413   0.367
 5045SOL    HW216035   6.146   3.357   0.307
 5046SOL     OW16036   3.514   3.145   5.226
 5046SOL    HW116037   3.589   3.178   5.168
 5046SOL    HW216038   3.549   3.078   5.291
 5047SOL     OW16039   6.182   0.273   2.754
 5047SOL    HW116040   6.152   0.251   2.846
 5047SOL    HW216041   6.276   0.240   2.740
 5048SOL     OW16042   6.980   1.926   1.711
 5048SOL    HW116043   7.009   1.956   1.802
 5048SOL    HW216044   0.030   1.863   1.674
 5049SOL     OW16045   1.182   2.230   1.904
 5049SOL    HW116046   1.097   2.257   1.857
 5049SOL    HW216047   1.182   2.266   1.997
 5050SOL     OW16048   0.592   2.380   1.644
 5050SOL    HW116049   0.642   2.296   1.622
 5050SOL    HW216050   0.499   2.357   1.670
 5051SOL     OW16051   2.919   4.192   0.924
 5051SOL    HW116052   2.947   4.098   0.906
 5051SOL    HW216053   2.830   4.210   0.883
 5052SOL     OW16054   4.323   5.162   0.724
 5052SOL    HW116055   4.254   5.111   0.671
 5052SOL    HW216056   4.412   5.154   0.680
 5053SOL     OW16057   2.719   4.089   1.587
 5053SOL    HW116058   2.658   4.011   1.602
 5053SOL    HW216059   2.665   4.169   1.561
 5054SOL     OW16060   3.550   6.167   4.694
 5054SOL    HW116061   3.536   6.222   4.611
 5054SOL    HW216062   3.579   6.075   4.668
 5055SOL     OW16063   1.017   2.023   5.141
 5055SOL    HW116064   0.934   2.060   5.182
 5055SOL    HW216065   1.049   2.085   5.070
 5056SOL     OW16066   0.178   3.763   5.799
 5056SOL    HW116067   0.140   3.787   5.710
 5056SOL    HW216068   0.171   3.664   5.812
 5057SOL     OW16069   0.821   5.990   3.800
 5057SOL    HW116070   0.743   6.016   3.857
 5057SOL    HW216071   0.841   5.893   3.812
 5058SOL     OW16072   4.264   3.937   6.366
 5058SOL    HW116073   4.213   3.985   6.437
 5058SOL    HW216074   4.270   3.840   6.390
 5059SOL     OW16075   3.578   2.092   5.016
 5059SOL    HW116076   3.663   2.136   5.044
 5059SOL    HW216077   3.508   2.106   5.086
 5060SOL     OW16078   0.380   3.518   5.375
 5060SOL    HW116079   0.468   3.563   5.358
 5060SOL    HW216080   0.382   3.475   5.465
 5061SOL     OW16081   3.491   3.522   4.539
 5061SOL    HW116082   3.577   3.526   4.489
 5061SOL    HW216083   3.431   3.453   4.498
 5062SOL     OW16084   4.753   1.010   2.923
 5062SOL    HW116085   4.833   1.069   2.933
 5062SOL    HW216086   4.698   1.040   2.845
 5063SOL     OW16087   1.212   6.380   2.179
 5063SOL    HW116088   1.117   6.379   2.148
 5063SOL    HW216089   1.253   6.469   2.161
 5064SOL     OW16090   4.747   5.681   0.617
 5064SOL    HW116091   4.726   5.778   0.629
 5064SOL    HW216092   4.840   5.663   0.650
 5065SOL     OW16093   2.509   6.816   3.379
 5065SOL    HW116094   2.454   6.734   3.399
 5065SOL    HW216095   2.524   6.822   3.281
 5066SOL     OW16096   2.099   4.536   1.671
 5066SOL    HW116097   2.079   4.632   1.687
 5066SOL    HW216098   2.086   4.485   1.756
 5067SOL     OW16099   4.341   2.304   1.566
 5067SOL    HW116100   4.255   2.289   1.517
 5067SOL    HW216101   4.353   2.402   1.584
 5068SOL     OW16102   3.517   6.141   0.466
 5068SOL    HW116103   3.441   6.078   0.483
 5068SOL    HW216104   3.540   6.139   0.369
 5069SOL     OW16105   3.221   4.241   6.356
 5069SOL    HW116106   3.187   4.289   6.275
 5069SOL    HW216107   3.145   4.225   6.419
 5070SOL     OW16108   5.787   3.100   4.169
 5070SOL    HW116109   5.760   3.070   4.077
 5070SOL    HW216110   5.706   3.118   4.224
 5071SOL     OW16111   3.455   1.220   3.489
 5071SOL    HW116112   3.365   1.265   3.493
 5071SOL    HW216113   3.524   1.287   3.460
 5072SOL     OW16114   1.512   0.814   1.029
 5072SOL    HW116115   1.566   0.818   0.945
 5072SOL    HW216116   1.530   0.727   1.076
 5073SOL     OW16117   2.799   6.549   2.475
 5073SOL    HW116118   2.788   6.451   2.454
 5073SOL    HW216119   2.886   6.581   2.438
 5074SOL     OW16120   3.770   2.068   1.728
 5074SOL    HW116121   3.774   1.992   1.794
 5074SOL    HW216122   3.742   2.151   1.776
 5075SOL     OW16123   1.966   3.278   6.962
 5075SOL    HW116124   1.934   3.305   0.034
 5075SOL    HW216125   2.011   3.189   6.968
 5076SOL     OW16126   5.304   1.038   0.515
 5076SOL    HW116127   5.364   1.040   0.594
 5076SOL    HW216128   5.278   1.131   0.491
 5077SOL     OW16129   1.393   4.721   4.357
 5077SOL    HW116130   1.442   4.752   4.438
 5077SOL    HW216131   1.404   4.787   4.283
 5078SOL     OW16132   0.653   1.190   3.849
 5078SOL    HW116133   0.630   1.287   3.840
 5078SOL    HW216134   0.652   1.164   3.946
 5079SOL     OW16135   1.766   2.602   5.870
 5079SOL    HW116136   1.756   2.534   5.798
 5079SOL    HW216137   1.756   2.693   5.831
 5080SOL     OW16138   6.405   5.255   6.144
 5080SOL    HW116139   6.337   5.189   6.114
 5080SOL    HW216140   6.486   5.249   6.085
 5081SOL     OW16141   3.657   6.023   5.182
 5081SOL    HW116142   3.594   6.082   5.133
 5081SOL    HW216143   3.606   5.955   5.235
 5082SOL     OW16144   4.932   6.305   0.997
 5082SOL    HW116145   4.881   6.225   1.026
 5082SOL    HW216146   4.869   6.369   0.952
 5083SOL     OW16147   2.445   0.580   2.713
 5083SOL    HW116148   2.530   0.631   2.728
 5083SOL    HW216149   2.421   0.583   2.616
 5084SOL     OW16150   0.739   5.251   5.155
 5084SOL    HW116151   0.729   5.340   5.109
 5084SOL    HW216152   0.666   5.190   5.124
 5085SOL     OW16153   1.549   3.823   6.266
 5085SOL    HW116154   1.555   3.855   6.171
 5085SOL    HW216155   1.636   3.782   6.292
 5086SOL     OW16156   1.168   4.796   2.291
 5086SOL    HW116157   1.133   4.704   2.308
 5086SOL    HW216158   1.120   4.837   2.214
 5087SOL     OW16159   6.714   5.623   2.426
 5087SOL    HW116160   6.776   5.579   2.491
 5087SOL    HW216161   6.650   5.681   2.476
 5088SOL     OW16162   4.373   5.917   2.165
 5088SOL    HW116163   4.327   5.829   2.162
 5088SOL    HW216164   4.429   5.928   2.082
 5089SOL     OW16165   5.592   4.253   4.471
 5089SOL    HW116166   5.541   4.233   4.387
 5089SOL    HW216167   5.611   4.167   4.518
 5090SOL     OW16168   1.796   0.255   3.430
 5090SOL    HW116169   1.743   0.225   3.351
 5090SOL    HW216170   1.885   0.210   3.430
 5091SOL     OW16171   6.508   0.166   0.276
 5091SOL    HW116172   6.506   0.251   0.329
 5091SOL    HW216173   6.601   0.130   0.275
 5092SOL     OW16174   3.752   3.642   4.416
 5092SOL    HW116175   3.808   3.715   4.377
 5092SOL    HW216176   3.760   3.645   4.516
 5093SOL     OW16177   1.709   1.793   2.863
 5093SOL    HW116178   1.732   1.735   2.786
 5093SOL    HW216179   1.643   1.863   2.833
 5094SOL     OW16180   2.581   5.836   6.153
 5094SOL    HW116181   2.576   5.832   6.054
 5094SOL    HW216182   2.635   5.759   6.187
 5095SOL     OW16183   0.277   1.220   3.802
 5095SOL    HW116184   0.187   1.204   3.760
 5095SOL    HW216185   0.287   1.318   3.822
 5096SOL     OW16186   5.473   3.829   6.152
 5096SOL    HW116187   5.526   3.898   6.200
 5096SOL    HW216188   5.485   3.840   6.053
 5097SOL     OW16189   6.255   0.170   6.015
 5097SOL    HW116190   6.171   0.200   6.061
 5097SOL    HW216191   6.285   0.241   5.951
 5098SOL     OW16192   3.746   1.918   2.023
 5098SOL    HW116193   3.758   1.909   2.122
 5098SOL    HW216194   3.730   2.014   2.000
 5099SOL     OW16195   0.538   5.665   1.343
 5099SOL    HW116196   0.466   5.616   1.392
 5099SOL    HW216197   0.601   5.599   1.302
 5100SOL     OW16198   5.135   4.500   2.780
 5100SOL    HW116199   5.035   4.490   2.783
 5100SOL    HW216200   5.171   4.506   2.873
 5101SOL     OW16201   4.059   0.320   5.804
 5101SOL    HW116202   3.998   0.381   5.755
 5101SOL    HW216203   4.148   0.364   5.816
 5102SOL     OW16204   4.831   5.212   4.093
 5102SOL    HW116205   4.815   5.158   4.176
 5102SOL    HW216206   4.925   5.245   4.092
 5103SOL     OW16207   0.876   0.885   5.258
 5103SOL    HW116208   0.858   0.966   5.203
 5103SOL    HW216209   0.823   0.808   5.221
 5104SOL     OW16210   3.565   5.875   1.725
 5104SOL    HW116211   3.625   5.851   1.801
 5104SOL    HW216212   3.550   5.795   1.667
 5105SOL     OW16213   3.689   3.440   6.803
 5105SOL    HW116214   3.705   3.342   6.815
 5105SOL    HW216215   3.597   3.455   6.767
 5106SOL     OW16216   4.125   2.365   0.752
 5106SOL    HW116217   4.148   2.446   0.698
 5106SOL    HW216218   4.113   2.286   0.692
 5107SOL     OW16219   5.185   2.570   1.415
 5107SOL    HW116220   5.104   2.587   1.472
 5107SOL    HW216221   5.156   2.532   1.327
 5108SOL     OW16222   4.533   3.927   6.249
 5108SOL    HW116223   4.586   3.980   6.316
 5108SOL    HW216224   4.437   3.926   6.277
 5109SOL     OW16225   2.026   2.900   1.416
 5109SOL    HW116226   2.039   2.999   1.419
 5109SOL    HW216227   2.067   2.864   1.332
 5110SOL     OW16228   6.117   6.973   6.299
 5110SOL    HW116229   6.204   6.973   6.250
 5110SOL    HW216230   6.053   6.912   6.253
 5111SOL     OW16231   1.348   5.868   4.865
 5111SOL    HW116232   1.399   5.865   4.951
 5111SOL    HW216233   1.297   5.783   4.854
 5112SOL     OW16234   0.479   0.466   3.381
 5112SOL    HW116235   0.542   0.410   3.327
 5112SOL    HW216236   0.526   0.498   3.464
 5113SOL     OW16237   1.715   5.039   0.770
 5113SOL    HW116238   1.667   4.958   0.804
 5113SOL    HW216239   1.814   5.024   0.773
 5114SOL     OW16240   3.987   6.858   0.436
 5114SOL    HW116241   4.085   6.835   0.432
 5114SOL    HW216242   3.948   6.817   0.519
 5115SOL     OW16243   2.208   3.662   1.540
 5115SOL    HW116244   2.168   3.722   1.610
 5115SOL    HW216245   2.293   3.622   1.575
 5116SOL     OW16246   2.668   6.925   6.558
 5116SOL    HW116247   2.694   6.939   6.653
 5116SOL    HW216248   2.697   6.833   6.529
 5117SOL     OW16249   0.997   2.968   4.310
 5117SOL    HW116250   1.097   2.968   4.309
 5117SOL    HW216251   0.964   3.004   4.397
 5118SOL     OW16252   5.851   0.361   6.969
 5118SOL    HW116253   5.839   0.290   0.020
 5118SOL    HW216254   5.937   0.409   6.985
 5119SOL     OW16255   5.446   2.100   0.002
 5119SOL    HW116256   5.413   2.066   0.090
 5119SOL    HW216257   5.389   2.064   6.947
 5120SOL     OW16258   5.248   0.894   4.713
 5120SOL    HW116259   5.323   0.960   4.709
 5120SOL    HW216260   5.277   0.809   4.671
 5121SOL     OW16261   3.182   3.875   0.516
 5121SOL    HW116262   3.134   3.960   0.536
 5121SOL    HW216263   3.149   3.803   0.578
 5122SOL     OW16264   4.095   5.534   3.100
 5122SOL    HW116265   4.156   5.590   3.157
 5122SOL    HW216266   4.078   5.447   3.147
 5123SOL     OW16267   5.385   1.728   2.083
 5123SOL    HW116268   5.320   1.652   2.088
 5123SOL    HW216269   5.339   1.813   2.111
 5124SOL     OW16270   1.702   6.423   4.144
 5124SOL    HW116271   1.749   6.507   4.169
 5124SOL    HW216272   1.767   6.347   4.142
 5125SOL     OW16273   0.530   2.088   4.177
 5125SOL    HW116274   0.607   2.035   4.140
 5125SOL    HW216275   0.453   2.027   4.194
 5126SOL     OW16276   1.811   6.839   0.535
 5126SOL    HW116277   1.757   6.864   0.455
 5126SOL    HW216278   1.769   6.759   0.579
 5127SOL     OW16279   2.086   5.413   0.557
 5127SOL    HW116280   2.005   5.374   0.601
 5127SOL    HW216281   2.059   5.461   0.474
 5128SOL     OW16282   6.985   5.994   1.307
 5128SOL    HW116283   6.901   6.048   1.303
 5128SOL    HW216284   6.967   5.907   1.352
 5129SOL     OW16285   4.589   5.876   1.132
 5129SOL    HW116286   4.591   5.825   1.046
 5129SOL    HW216287   4.680   5.876   1.173
 5130SOL     OW16288   6.556   4.722   2.684
 5130SOL    HW116289   6.611   4.673   2.751
 5130SOL    HW216290   6.591   4.704   2.592
 5131SOL     OW16291   0.845   2.992   3.238
 5131SOL    HW116292   0.943   2.972   3.230
 5131SOL    HW216293   0.809   2.949   3.321
 5132SOL     OW16294   3.593   4.182   6.540
 5132SOL    HW116295   3.674   4.139   6.581
 5132SOL    HW216296   3.601   4.281   6.549
 5133SOL     OW16297   3.615   5.755   6.457
 5133SOL    HW116298   3.706   5.753   6.415
 5133SOL    HW216299   3.596   5.847   6.491
 5134SOL     OW16300   0.533   3.222   1.300
 5134SOL    HW116301   0.586   3.149   1.343
 5134SOL    HW216302   0.520   3.201   1.204
 5135SOL     OW16303   6.873   2.158   5.359
 5135SOL    HW116304   6.946   2.205   5.409
 5135SOL    HW216305   6.815   2.109   5.424
 5136SOL     OW16306   5.274   0.634   4.603
 5136SOL    HW116307   5.218   0.581   4.539
 5136SOL    HW216308   5.336   0.572   4.652
 5137SOL     OW16309   5.286   3.921   6.409
 5137SOL    HW116310   5.375   3.898   6.449
 5137SOL    HW216311   5.290   3.908   6.310
 5138SOL     OW16312   3.580   3.048   6.713
 5138SOL    HW116313   3.597   3.083   6.621
 5138SOL    HW216314   3.483   3.061   6.735
 5139SOL     OW16315   1.837   0.158   4.109
 5139SOL    HW116316   1.853   0.166   4.010
 5139SOL    HW216317   1.739   0.145   4.126
 5140SOL     OW16318   3.186   1.816   0.459
 5140SOL    HW116319   3.271   1.809   0.407
 5140SOL    HW216320   3.205   1.853   0.550
 5141SOL     OW16321   5.508   3.840   1.371
 5141SOL    HW116322   5.545   3.881   1.454
 5141SOL    HW216323   5.472   3.912   1.312
 5142SOL     OW16324   5.987   3.016   4.330
 5142SOL    HW116325   6.079   3.048   4.310
 5142SOL    HW216326   5.924   3.048   4.260
 5143SOL     OW16327   0.926   4.864   4.091
 5143SOL    HW116328   0.891   4.916   4.169
 5143SOL    HW216329   0.934   4.925   4.012
 5144SOL     OW16330   1.518   6.821   6.135
 5144SOL    HW116331   1.445   6.775   6.186
 5144SOL    HW216332   1.495   6.822   6.038
 5145SOL     OW16333   2.138   5.303   6.344
 5145SOL    HW116334   2.057   5.313   6.287
 5145SOL    HW216335   2.126   5.224   6.405
 5146SOL     OW16336   3.973   3.845   6.428
 5146SOL    HW116337   3.879   3.815   6.446
 5146SOL    HW216338   3.972   3.925   6.368
 5147SOL     OW16339   0.016   4.478   0.701
 5147SOL    HW116340   6.974   4.506   0.775
 5147SOL    HW216341   0.076   4.405   0.733
 5148SOL     OW16342   0.223   6.004   1.242
 5148SOL    HW116343   0.124   5.991   1.238
 5148SOL    HW216344   0.244   6.094   1.281
 5149SOL     OW16345   6.491   0.658   3.121
 5149SOL    HW116346   6.533   0.568   3.111
 5149SOL    HW216347   6.419   0.669   3.052
 5150SOL     OW16348   1.902   5.903   3.990
 5150SOL    HW116349   1.946   5.863   4.069
 5150SOL    HW216350   1.945   5.991   3.969
 5151SOL     OW16351   5.240   1.508   6.790
 5151SOL    HW116352   5.303   1.439   6.756
 5151SOL    HW216353   5.249   1.592   6.737
 5152SOL     OW16354   1.734   4.464   0.399
 5152SOL    HW116355   1.791   4.508   0.468
 5152SOL    HW216356   1.793   4.425   0.328
 5153SOL     OW16357   2.167   2.395   0.574
 5153SOL    HW116358   2.224   2.478   0.572
 5153SOL    HW216359   2.220   2.318   0.540
 5154SOL     OW16360   1.799   3.740   6.321
 5154SOL    HW116361   1.850   3.671   6.269
 5154SOL    HW216362   1.849   3.826   6.321
 5155SOL     OW16363   4.112   5.992   2.136
 5155SOL    HW116364   4.103   6.091   2.138
 5155SOL    HW216365   4.208   5.967   2.154
 5156SOL     OW16366   6.610   2.322   6.176
 5156SOL    HW116367   6.589   2.402   6.232
 5156SOL    HW216368   6.561   2.327   6.090
 5157SOL     OW16369   4.616   2.707   3.748
 5157SOL    HW116370   4.715   2.718   3.743
 5157SOL    HW216371   4.579   2.698   3.655
 5158SOL     OW16372   3.217   1.810   1.420
 5158SOL    HW116373   3.153   1.833   1.494
 5158SOL    HW216374   3.261   1.723   1.440
 5159SOL     OW16375   0.567   2.950   3.952
 5159SOL    HW116376   0.559   3.037   3.904
 5159SOL    HW216377   0.639   2.956   4.022
 5160SOL     OW16378   1.364   3.713   4.170
 5160SOL    HW116379   1.450   3.676   4.204
 5160SOL    HW216380   1.298   3.639   4.157
 5161SOL     OW16381   1.328   4.298   5.533
 5161SOL    HW116382   1.291   4.208   5.510
 5161SOL    HW216383   1.343   4.350   5.449
 5162SOL     OW16384   6.551   5.117   4.082
 5162SOL    HW116385   6.471   5.074   4.040
 5162SOL    HW216386   6.629   5.111   4.019
 5163SOL     OW16387   4.904   5.034   1.128
 5163SOL    HW116388   4.832   5.102   1.146
 5163SOL    HW216389   4.878   4.947   1.168
 5164SOL     OW16390   5.235   2.630   5.181
 5164SOL    HW116391   5.258   2.690   5.105
 5164SOL    HW216392   5.320   2.597   5.224
 5165SOL     OW16393   6.136   4.541   4.895
 5165SOL    HW116394   6.080   4.473   4.942
 5165SOL    HW216395   6.099   4.632   4.912
 5166SOL     OW16396   1.692   4.773   1.474
 5166SOL    HW116397   1.623   4.841   1.448
 5166SOL    HW216398   1.775   4.819   1.505
 5167SOL     OW16399   6.155   6.467   5.454
 5167SOL    HW116400   6.112   6.554   5.480
 5167SOL    HW216401   6.203   6.429   5.532
 5168SOL     OW16402   4.314   2.115   3.173
 5168SOL    HW116403   4.351   2.149   3.259
 5168SOL    HW216404   4.318   2.187   3.103
 5169SOL     OW16405   3.496   3.833   6.436
 5169SOL    HW116406   3.480   3.930   6.456
 5169SOL    HW216407   3.489   3.818   6.338
 5170SOL     OW16408   6.791   4.429   5.206
 5170SOL    HW116409   6.723   4.493   5.169
 5170SOL    HW216410   6.831   4.467   5.289
 5171SOL     OW16411   2.402   4.397   4.489
 5171SOL    HW116412   2.396   4.299   4.468
 5171SOL    HW216413   2.353   4.415   4.575
 5172SOL     OW16414   0.654   3.513   1.836
 5172SOL    HW116415   0.688   3.466   1.917
 5172SOL    HW216416   0.595   3.452   1.783
 5173SOL     OW16417   5.858   4.351   6.093
 5173SOL    HW116418   5.842   4.446   6.118
 5173SOL    HW216419   5.813   4.331   6.006
 5174SOL     OW16420   1.764   4.964   5.142
 5174SOL    HW116421   1.722   5.024   5.074
 5174SOL    HW216422   1.828   4.902   5.097
 5175SOL     OW16423   2.048   4.305   6.899
 5175SOL    HW116424   1.952   4.319   6.873
 5175SOL    HW216425   2.087   4.231   6.845
 5176SOL     OW16426   4.153   3.509   0.672
 5176SOL    HW116427   4.087   3.559   0.727
 5176SOL    HW216428   4.161   3.552   0.582
 5177SOL     OW16429   4.715   6.784   5.628
 5177SOL    HW116430   4.784   6.715   5.602
 5177SOL    HW216431   4.761   6.869   5.653
 5178SOL     OW16432   2.408   2.499   1.776
 5178SOL    HW116433   2.401   2.468   1.681
 5178SOL    HW216434   2.316   2.507   1.815
 5179SOL     OW16435   4.476   6.693   5.602
 5179SOL    HW116436   4.575   6.698   5.606
 5179SOL    HW216437   4.438   6.705   5.694
 5180SOL     OW16438   3.484   2.140   6.866
 5180SOL    HW116439   3.583   2.152   6.867
 5180SOL    HW216440   3.446   2.181   6.783
 5181SOL     OW16441   3.833   0.500   2.566
 5181SOL    HW116442   3.928   0.510   2.535
 5181SOL    HW216443   3.812   0.402   2.575
 5182SOL     OW16444   5.677   4.575   1.497
 5182SOL    HW116445   5.737   4.550   1.573
 5182SOL    HW216446   5.607   4.505   1.485
 5183SOL     OW16447   4.432   6.717   2.247
 5183SOL    HW116448   4.406   6.646   2.182
 5183SOL    HW216449   4.483   6.676   2.323
 5184SOL     OW16450   0.912   1.236   3.420
 5184SOL    HW116451   0.856   1.244   3.338
 5184SOL    HW216452   0.940   1.140   3.432
 5185SOL     OW16453   3.672   6.715   2.624
 5185SOL    HW116454   3.612   6.716   2.544
 5185SOL    HW216455   3.751   6.774   2.607
 5186SOL     OW16456   6.664   3.670   1.218
 5186SOL    HW116457   6.734   3.740   1.219
 5186SOL    HW216458   6.641   3.648   1.123
 5187SOL     OW16459   6.608   1.710   3.272
 5187SOL    HW116460   6.582   1.708   3.175
 5187SOL    HW216461   6.668   1.788   3.289
 5188SOL     OW16462   0.186   5.536   0.005
 5188SOL    HW116463   0.245   5.584   0.070
 5188SOL    HW216464   0.126   5.474   0.054
 5189SOL     OW16465   4.959   4.880   6.424
 5189SOL    HW116466   5.052   4.861   6.456
 5189SOL    HW216467   4.910   4.932   6.495
 5190SOL     OW16468   0.844   2.225   4.111
 5190SOL    HW116469   0.901   2.228   4.029
 5190SOL    HW216470   0.830   2.130   4.138
 5191SOL     OW16471   3.451   1.634   2.159
 5191SOL    HW116472   3.363   1.595   2.132
 5191SOL    HW216473   3.450   1.733   2.145
 5192SOL     OW16474   5.780   5.706   2.789
 5192SOL    HW116475   5.700   5.715   2.848
 5192SOL    HW216476   5.857   5.670   2.843
 5193SOL     OW16477   4.881   4.526   3.590
 5193SOL    HW116478   4.794   4.536   3.639
 5193SOL    HW216479   4.864   4.500   3.496
 5194SOL     OW16480   4.874   1.118   5.945
 5194SOL    HW116481   4.861   1.124   5.846
 5194SOL    HW216482   4.952   1.060   5.966
 5195SOL     OW16483   6.482   6.756   4.850
 5195SOL    HW116484   6.430   6.676   4.820
 5195SOL    HW216485   6.570   6.726   4.888
 5196SOL     OW16486   0.818   4.435   1.741
 5196SOL    HW116487   0.732   4.430   1.690
 5196SOL    HW216488   0.798   4.449   1.838
 5197SOL     OW16489   1.978   6.490   4.801
 5197SOL    HW116490   1.887   6.478   4.839
 5197SOL    HW216491   1.971   6.517   4.705
 5198SOL     OW16492   2.978   6.367   5.137
 5198SOL    HW116493   2.905   6.364   5.068
 5198SOL    HW216494   2.956   6.435   5.207
 5199SOL     OW16495   2.092   5.580   1.673
 5199SOL    HW116496   2.126   5.603   1.582
 5199SOL    HW216497   2.051   5.489   1.670
 5200SOL     OW16498   0.731   1.602   4.667
 5200SOL    HW116499   0.683   1.570   4.585
 5200SOL    HW216500   0.788   1.681   4.644
 5201SOL     OW16501   5.507   5.090   3.990
 5201SOL    HW116502   5.583   5.039   4.029
 5201SOL    HW216503   5.480   5.048   3.903
 5202SOL     OW16504   4.695   3.406   6.810
 5202SOL    HW116505   4.706   3.312   6.842
 5202SOL    HW216506   4.784   3.451   6.808
 5203SOL     OW16507   1.698   0.521   0.558
 5203SOL    HW116508   1.761   0.510   0.635
 5203SOL    HW216509   1.749   0.522   0.472
 5204SOL     OW16510   3.464   0.078   6.386
 5204SOL    HW116511   3.391   0.019   6.420
 5204SOL    HW216512   3.457   0.085   6.286
 5205SOL     OW16513   6.526   5.854   1.078
 5205SOL    HW116514   6.540   5.939   1.029
 5205SOL    HW216515   6.430   5.845   1.103
 5206SOL     OW16516   0.353   4.549   4.992
 5206SOL    HW116517   0.371   4.458   4.955
 5206SOL    HW216518   0.269   4.546   5.046
 5207SOL     OW16519   6.939   0.120   4.514
 5207SOL    HW116520   0.018   0.130   4.532
 5207SOL    HW216521   6.905   0.199   4.464
 5208SOL     OW16522   4.862   2.356   0.221
 5208SOL    HW116523   4.815   2.381   0.306
 5208SOL    HW216524   4.805   2.382   0.143
 5209SOL     OW16525   5.008   6.702   3.226
 5209SOL    HW116526   5.088   6.650   3.257
 5209SOL    HW216527   5.017   6.722   3.128
 5210SOL     OW16528   5.173   4.390   0.993
 5210SOL    HW116529   5.078   4.420   0.985
 5210SOL    HW216530   5.232   4.471   0.999
 5211SOL     OW16531   4.833   2.091   4.217
 5211SOL    HW116532   4.891   2.151   4.272
 5211SOL    HW216533   4.745   2.081   4.263
 5212SOL     OW16534   1.400   2.758   0.655
 5212SOL    HW116535   1.376   2.815   0.733
 5212SOL    HW216536   1.352   2.670   0.661
 5213SOL     OW16537   3.972   3.027   2.571
 5213SOL    HW116538   3.929   3.021   2.660
 5213SOL    HW216539   4.052   2.967   2.568
 5214SOL     OW16540   5.404   4.349   6.529
 5214SOL    HW116541   5.490   4.303   6.507
 5214SOL    HW216542   5.333   4.280   6.543
 5215SOL     OW16543   6.458   3.392   4.788
 5215SOL    HW116544   6.528   3.355   4.727
 5215SOL    HW216545   6.394   3.320   4.814
 5216SOL     OW16546   5.524   4.789   0.958
 5216SOL    HW116547   5.612   4.776   1.004
 5216SOL    HW216548   5.464   4.712   0.979
 5217SOL     OW16549   4.197   5.615   4.114
 5217SOL    HW116550   4.288   5.589   4.147
 5217SOL    HW216551   4.196   5.615   4.014
 5218SOL     OW16552   0.890   0.304   0.984
 5218SOL    HW116553   0.826   0.316   0.908
 5218SOL    HW216554   0.935   0.215   0.977
 5219SOL     OW16555   2.258   2.148   5.170
 5219SOL    HW116556   2.194   2.087   5.216
 5219SOL    HW216557   2.331   2.094   5.127
 5220SOL     OW16558   2.483   4.857   3.039
 5220SOL    HW116559   2.558   4.797   3.064
 5220SOL    HW216560   2.512   4.953   3.046
 5221SOL     OW16561   0.117   0.484   1.797
 5221SOL    HW116562   0.049   0.538   1.748
 5221SOL    HW216563   0.087   0.389   1.802
 5222SOL     OW16564   4.180   4.612   1.521
 5222SOL    HW116565   4.169   4.700   1.475
 5222SOL    HW216566   4.273   4.577   1.506
 5223SOL     OW16567   0.731   2.924   0.872
 5223SOL    HW116568   0.817   2.874   0.864
 5223SOL    HW216569   0.655   2.861   0.857
 5224SOL     OW16570   0.862   1.703   4.254
 5224SOL    HW116571   0.803   1.668   4.182
 5224SOL    HW216572   0.828   1.792   4.285
 5225SOL     OW16573   6.875   1.279   5.073
 5225SOL    HW116574   6.814   1.296   4.996
 5225SOL    HW216575   6.970   1.291   5.044
 5226SOL     OW16576   0.401   5.792   3.840
 5226SOL    HW116577   0.322   5.798   3.902
 5226SOL    HW216578   0.378   5.734   3.762
 5227SOL     OW16579   6.964   3.079   5.116
 5227SOL    HW116580   6.877   3.125   5.097
 5227SOL    HW216581   0.001   3.137   5.176
 5228SOL     OW16582   1.664   3.053   5.490
 5228SOL    HW116583   1.658   3.136   5.544
 5228SOL    HW216584   1.731   2.991   5.531
 5229SOL     OW16585   3.028   0.201   6.313
 5229SOL    HW116586   3.031   0.160   6.404
 5229SOL    HW216587   3.088   0.280   6.309
 5230SOL     OW16588   6.747   0.489   1.724
 5230SOL    HW116589   6.780   0.458   1.813
 5230SOL    HW216590   6.708   0.412   1.673
 5231SOL     OW16591   5.909   1.563   2.725
 5231SOL    HW116592   5.966   1.499   2.673
 5231SOL    HW216593   5.842   1.605   2.664
 5232SOL     OW16594   2.060   3.946   6.195
 5232SOL    HW116595   2.036   3.955   6.098
 5232SOL    HW216596   2.109   4.028   6.225
 5233SOL     OW16597   3.110   0.212   2.598
 5233SOL    HW116598   3.051   0.133   2.583
 5233SOL    HW216599   3.176   0.219   2.524
 5234SOL     OW16600   2.015   2.211   0.945
 5234SOL    HW116601   2.072   2.258   1.012
 5234SOL    HW216602   2.073   2.172   0.874
 5235SOL     OW16603   2.539   1.675   1.266
 5235SOL    HW116604   2.585   1.735   1.330
 5235SOL    HW216605   2.458   1.634   1.309
 5236SOL     OW16606   3.698   5.144   2.055
 5236SOL    HW116607   3.659   5.236   2.049
 5236SOL    HW216608   3.630   5.082   2.095
 5237SOL     OW16609   2.178   2.379   4.795
 5237SOL    HW116610   2.211   2.386   4.889
 5237SOL    HW216611   2.111   2.452   4.777
 5238SOL     OW16612   1.039   5.350   2.535
 5238SOL    HW116613   1.085   5.352   2.624
 5238SOL    HW216614   0.986   5.434   2.523
 5239SOL     OW16615   2.958   3.671   1.793
 5239SOL    HW116616   3.004   3.614   1.861
 5239SOL    HW216617   2.994   3.764   1.799
 5240SOL     OW16618   2.623   2.587   6.266
 5240SOL    HW116619   2.589   2.509   6.319
 5240SOL    HW216620   2.695   2.633   6.317
 5241SOL     OW16621   1.047   5.970   2.526
 5241SOL    HW116622   1.087   5.878   2.526
 5241SOL    HW216623   0.987   5.981   2.446
 5242SOL     OW16624   4.706   0.588   0.643
 5242SOL    HW116625   4.617   0.562   0.679
 5242SOL    HW216626   4.708   0.687   0.626
 5243SOL     OW16627   1.796   6.128   1.914
 5243SOL    HW116628   1.778   6.051   1.853
 5243SOL    HW216629   1.738   6.120   1.996
 5244SOL     OW16630   5.125   3.686   0.798
 5244SOL    HW116631   5.062   3.615   0.830
 5244SOL    HW216632   5.107   3.707   0.702
 5245SOL     OW16633   4.168   4.293   6.915
 5245SOL    HW116634   4.220   4.378   6.920
 5245SOL    HW216635   4.228   4.215   6.934
 5246SOL     OW16636   6.614   2.764   1.322
 5246SOL    HW116637   6.575   2.699   1.387
 5246SOL    HW216638   6.713   2.751   1.319
 5247SOL     OW16639   3.869   2.113   5.920
 5247SOL    HW116640   3.880   2.099   6.019
 5247SOL    HW216641   3.778   2.082   5.892
 5248SOL     OW16642   6.532   1.628   2.622
 5248SOL    HW116643   6.617   1.624   2.569
 5248SOL    HW216644   6.516   1.723   2.651
 5249SOL     OW16645   0.509   4.770   0.289
 5249SOL    HW116646   0.514   4.749   0.386
 5249SOL    HW216647   0.564   4.705   0.237
 5250SOL     OW16648   2.096   5.754   0.208
 5250SOL    HW116649   2.134   5.832   0.257
 5250SOL    HW216650   2.136   5.751   0.116
 5251SOL     OW16651   0.704   3.921   0.911
 5251SOL    HW116652   0.737   3.826   0.916
 5251SOL    HW216653   0.655   3.934   0.825
 5252SOL     OW16654   3.397   6.612   2.315
 5252SOL    HW116655   3.488   6.652   2.307
 5252SOL    HW216656   3.350   6.652   2.394
 5253SOL     OW16657   5.668   4.718   4.604
 5253SOL    HW116658   5.700   4.728   4.698
 5253SOL    HW216659   5.721   4.647   4.558
 5254SOL     OW16660   6.030   6.958   3.089
 5254SOL    HW116661   6.062   6.875   3.043
 5254SOL    HW216662   5.959   6.934   3.156
 5255SOL     OW16663   5.725   1.892   4.653
 5255SOL    HW116664   5.748   1.833   4.730
 5255SOL    HW216665   5.756   1.985   4.672
 5256SOL     OW16666   4.912   0.554   3.178
 5256SOL    HW116667   4.967   0.535   3.260
 5256SOL    HW216668   4.969   0.599   3.109
 5257SOL     OW16669   4.024   0.837   6.569
 5257SOL    HW116670   3.971   0.758   6.536
 5257SOL    HW216671   4.088   0.807   6.639
 5258SOL     OW16672   5.201   1.339   2.361
 5258SOL    HW116673   5.234   1.267   2.300
 5258SOL    HW216674   5.280   1.386   2.402
 5259SOL     OW16675   5.340   5.112   3.056
 5259SOL    HW116676   5.317   5.189   3.114
 5259SOL    HW216677   5.278   5.036   3.075
 5260SOL     OW16678   2.538   6.434   0.174
 5260SOL    HW116679   2.618   6.449   0.115
 5260SOL    HW216680   2.477   6.367   0.131
 5261SOL     OW16681   6.619   4.906   0.616
 5261SOL    HW116682   6.548   4.836   0.609
 5261SOL    HW216683   6.585   4.993   0.581
 5262SOL     OW16684   1.874   0.243   2.613
 5262SOL    HW116685   1.839   0.304   2.684
 5262SOL    HW216686   1.851   0.280   2.523
 5263SOL     OW16687   1.747   1.355   3.595
 5263SOL    HW116688   1.744   1.256   3.602
 5263SOL    HW216689   1.739   1.395   3.686
 5264SOL     OW16690   6.806   1.913   1.398
 5264SOL    HW116691   6.817   1.959   1.310
 5264SOL    HW216692   6.783   1.981   1.468
 5265SOL     OW16693   5.579   2.812   4.750
 5265SOL    HW116694   5.656   2.751   4.763
 5265SOL    HW216695   5.605   2.886   4.688
 5266SOL     OW16696   2.456   6.672   0.315
 5266SOL    HW116697   2.456   6.573   0.304
 5266SOL    HW216698   2.544   6.709   0.284
 5267SOL     OW16699   4.397   2.378   4.405
 5267SOL    HW116700   4.359   2.396   4.315
 5267SOL    HW216701   4.495   2.399   4.405
 5268SOL     OW16702   5.546   1.196   6.447
 5268SOL    HW116703   5.638   1.197   6.487
 5268SOL    HW216704   5.545   1.251   6.364
 5269SOL     OW16705   0.183   6.495   2.339
 5269SOL    HW116706   0.189   6.569   2.272
 5269SOL    HW216707   0.186   6.533   2.431
 5270SOL     OW16708   7.002   2.146   0.054
 5270SOL    HW116709   0.022   2.087   7.001
 5270SOL    HW216710   6.906   2.163   0.034
 5271SOL     OW16711   6.287   5.869   4.493
 5271SOL    HW116712   6.371   5.899   4.446
 5271SOL    HW216713   6.296   5.773   4.520
 5272SOL     OW16714   3.811   6.880   0.231
 5272SOL    HW116715   3.865   6.895   0.315
 5272SOL    HW216716   3.851   6.934   0.157
 5273SOL     OW16717   1.109   3.095   2.892
 5273SOL    HW116718   1.157   3.008   2.896
 5273SOL    HW216719   1.168   3.163   2.848
 5274SOL     OW16720   5.065   6.015   2.350
 5274SOL    HW116721   5.158   6.035   2.382
 5274SOL    HW216722   5.012   5.975   2.425
 5275SOL     OW16723   3.064   0.689   0.913
 5275SOL    HW116724   3.062   0.733   0.823
 5275SOL    HW216725   3.137   0.620   0.914
 5276SOL     OW16726   2.816   6.571   1.556
 5276SOL    HW116727   2.751   6.507   1.515
 5276SOL    HW216728   2.863   6.526   1.632
 5277SOL     OW16729   1.837   1.327   2.503
 5277SOL    HW116730   1.765   1.373   2.554
 5277SOL    HW216731   1.797   1.271   2.431
 5278SOL     OW16732   4.301   5.112   2.230
 5278SOL    HW116733   4.370   5.140   2.297
 5278SOL    HW216734   4.210   5.129   2.267
 5279SOL     OW16735   2.439   5.717   1.091
 5279SOL    HW116736   2.484   5.680   1.010
 5279SOL    HW216737   2.348   5.752   1.066
 5280SOL     OW16738   3.480   6.129   4.959
 5280SOL    HW116739   3.496   6.143   4.861
 5280SOL    HW216740   3.384   6.147   4.979
 5281SOL     OW16741   0.560   2.142   2.248
 5281SOL    HW116742   0.600   2.097   2.168
 5281SOL    HW216743   0.605   2.110   2.331
 5282SOL     OW16744   2.628   1.852   3.261
 5282SOL    HW116745   2.702   1.917   3.275
 5282SOL    HW216746   2.607   1.846   3.163
 5283SOL     OW16747   5.113   5.787   0.485
 5283SOL    HW116748   5.190   5.817   0.427
 5283SOL    HW216749   5.065   5.867   0.520
 5284SOL     OW16750   5.488   3.908   3.000
 5284SOL    HW116751   5.503   3.977   3.071
 5284SOL    HW216752   5.455   3.823   3.043
 5285SOL     OW16753   2.965   5.110   3.737
 5285SOL    HW116754   2.949   5.016   3.766
 5285SOL    HW216755   2.963   5.171   3.817
 5286SOL     OW16756   1.510   4.069   1.392
 5286SOL    HW116757   1.459   4.124   1.458
 5286SOL    HW216758   1.588   4.027   1.437
 5287SOL     OW16759   2.613   1.602   0.479
 5287SOL    HW116760   2.688   1.547   0.443
 5287SOL    HW216761   2.558   1.547   0.541
 5288SOL     OW16762   2.984   0.106   1.201
 5288SOL    HW116763   2.985   0.088   1.102
 5288SOL    HW216764   3.043   0.184   1.221
 5289SOL     OW16765   1.260   5.291   1.098
 5289SOL    HW116766   1.173   5.285   1.049
 5289SOL    HW216767   1.290   5.200   1.125
 5290SOL     OW16768   3.412   5.769   0.281
 5290SOL    HW116769   3.327   5.744   0.328
 5290SOL    HW216770   3.479   5.798   0.349
 5291SOL     OW16771   2.051   5.181   5.362
 5291SOL    HW116772   1.962   5.224   5.351
 5291SOL    HW216773   2.077   5.137   5.276
 5292SOL     OW16774   5.107   3.316   6.411
 5292SOL    HW116775   5.143   3.330   6.503
 5292SOL    HW216776   5.007   3.313   6.415
 5293SOL     OW16777   0.563   0.248   4.237
 5293SOL    HW116778   0.510   0.296   4.167
 5293SOL    HW216779   0.501   0.195   4.295
 5294SOL     OW16780   6.158   3.066   6.307
 5294SOL    HW116781   6.082   3.006   6.283
 5294SOL    HW216782   6.165   3.073   6.406
 5295SOL     OW16783   6.116   0.615   3.011
 5295SOL    HW116784   6.138   0.619   2.914
 5295SOL    HW216785   6.081   0.523   3.033
 5296SOL     OW16786   1.030   4.578   0.802
 5296SOL    HW116787   0.973   4.657   0.826
 5296SOL    HW216788   1.024   4.510   0.875
 5297SOL     OW16789   1.846   1.504   1.503
 5297SOL    HW116790   1.876   1.523   1.597
 5297SOL    HW216791   1.843   1.589   1.451
 5298SOL     OW16792   6.885   5.234   0.912
 5298SOL    HW116793   6.982   5.253   0.926
 5298SOL    HW216794   6.858   5.158   0.972
 5299SOL     OW16795   2.977   0.795   2.161
 5299SOL    HW116796   3.076   0.807   2.152
 5299SOL    HW216797   2.951   0.805   2.256
 5300SOL     OW16798   0.014   5.831   3.757
 5300SOL    HW116799   0.031   5.928   3.740
 5300SOL    HW216800   0.015   5.782   3.670
 5301SOL     OW16801   4.264   1.432   6.584
 5301SOL    HW116802   4.258   1.401   6.489
 5301SOL    HW216803   4.340   1.386   6.630
 5302SOL     OW16804   6.305   4.342   2.539
 5302SOL    HW116805   6.230   4.383   2.592
 5302SOL    HW216806   6.380   4.320   2.601
 5303SOL     OW16807   6.088   4.162   3.680
 5303SOL    HW116808   6.085   4.200   3.773
 5303SOL    HW216809   6.041   4.074   3.679
 5304SOL     OW16810   5.089   1.713   5.798
 5304SOL    HW116811   5.187   1.692   5.803
 5304SOL    HW216812   5.069   1.793   5.854
 5305SOL     OW16813   2.531   0.852   3.516
 5305SOL    HW116814   2.521   0.853   3.416
 5305SOL    HW216815   2.515   0.759   3.550
 5306SOL     OW16816   3.190   6.900   5.506
 5306SOL    HW116817   3.149   6.931   5.420
 5306SOL    HW216818   3.285   6.873   5.490
 5307SOL     OW16819   4.463   6.911   6.676
 5307SOL    HW116820   4.416   6.938   6.760
 5307SOL    HW216821   4.395   6.882   6.608
 5308SOL     OW16822   6.984   1.420   3.271
 5308SOL    HW116823   6.955   1.443   3.178
 5308SOL    HW216824   0.026   1.341   3.268
 5309SOL     OW16825   3.522   4.132   3.451
 5309SOL    HW116826   3.562   4.156   3.540
 5309SOL    HW216827   3.595   4.104   3.389
 5310SOL     OW16828   5.283   2.199   1.208
 5310SOL    HW116829   5.206   2.136   1.209
 5310SOL    HW216830   5.318   2.211   1.302
 5311SOL     OW16831   2.083   5.527   6.882
 5311SOL    HW116832   2.004   5.574   6.920
 5311SOL    HW216833   2.114   5.456   6.945
 5312SOL     OW16834   0.471   3.986   3.195
 5312SOL    HW116835   0.411   3.953   3.122
 5312SOL    HW216836   0.533   4.054   3.158
 5313SOL     OW16837   1.089   5.725   6.587
 5313SOL    HW116838   1.144   5.809   6.593
 5313SOL    HW216839   1.101   5.684   6.497
 5314SOL     OW16840   3.648   5.181   0.558
 5314SOL    HW116841   3.570   5.140   0.512
 5314SOL    HW216842   3.726   5.185   0.496
 5315SOL     OW16843   6.054   2.864   2.021
 5315SOL    HW116844   6.021   2.793   2.083
 5315SOL    HW216845   5.976   2.917   1.988
 5316SOL     OW16846   0.001   4.323   3.808
 5316SOL    HW116847   7.004   4.237   3.760
 5316SOL    HW216848   0.025   4.395   3.742
 5317SOL     OW16849   5.398   6.601   2.827
 5317SOL    HW116850   5.417   6.650   2.742
 5317SOL    HW216851   5.467   6.625   2.896
 5318SOL     OW16852   0.797   2.632   4.417
 5318SOL    HW116853   0.787   2.544   4.370
 5318SOL    HW216854   0.751   2.703   4.364
 5319SOL     OW16855   5.081   0.513   0.362
 5319SOL    HW116856   4.985   0.539   0.348
 5319SOL    HW216857   5.086   0.436   0.426
 5320SOL     OW16858   5.946   3.265   6.289
 5320SOL    HW116859   5.928   3.174   6.325
 5320SOL    HW216860   5.859   3.314   6.279
 5321SOL     OW16861   1.781   5.143   5.852
 5321SOL    HW116862   1.750   5.173   5.943
 5321SOL    HW216863   1.880   5.153   5.846
 5322SOL     OW16864   3.149   5.827   6.437
 5322SOL    HW116865   3.167   5.757   6.506
 5322SOL    HW216866   3.075   5.887   6.468
 5323SOL     OW16867   4.902   2.445   0.881
 5323SOL    HW116868   4.821   2.503   0.890
 5323SOL    HW216869   4.984   2.501   0.884
 5324SOL     OW16870   3.854   3.007   1.753
 5324SOL    HW116871   3.940   2.964   1.726
 5324SOL    HW216872   3.873   3.086   1.811
 5325SOL     OW16873   5.633   6.263   2.888
 5325SOL    HW116874   5.572   6.323   2.939
 5325SOL    HW216875   5.623   6.169   2.921
 5326SOL     OW16876   6.758   6.182   1.233
 5326SOL    HW116877   6.819   6.256   1.205
 5326SOL    HW216878   6.665   6.202   1.201
 5327SOL     OW16879   6.428   0.218   4.120
 5327SOL    HW116880   6.458   0.306   4.083
 5327SOL    HW216881   6.383   0.231   4.208
 5328SOL     OW16882   3.748   4.469   0.222
 5328SOL    HW116883   3.844   4.446   0.206
 5328SOL    HW216884   3.714   4.415   0.299
 5329SOL     OW16885   0.265   4.546   0.606
 5329SOL    HW116886   0.168   4.534   0.627
 5329SOL    HW216887   0.274   4.596   0.520
 5330SOL     OW16888   4.404   4.036   1.412
 5330SOL    HW116889   4.308   4.035   1.441
 5330SOL    HW216890   4.422   4.121   1.362
 5331SOL     OW16891   4.855   2.952   0.308
 5331SOL    HW116892   4.835   2.876   0.370
 5331SOL    HW216893   4.888   3.030   0.361
 5332SOL     OW16894   5.785   3.969   0.625
 5332SOL    HW116895   5.704   3.991   0.678
 5332SOL    HW216896   5.862   4.024   0.658
 5333SOL     OW16897   2.427   1.183   4.070
 5333SOL    HW116898   2.473   1.171   3.982
 5333SOL    HW216899   2.459   1.268   4.112
 5334SOL     OW16900   4.649   4.834   2.300
 5334SOL    HW116901   4.655   4.908   2.233
 5334SOL    HW216902   4.736   4.785   2.304
 5335SOL     OW16903   0.277   4.700   1.761
 5335SOL    HW116904   0.222   4.731   1.839
 5335SOL    HW216905   0.224   4.713   1.676
 5336SOL     OW16906   1.401   2.496   4.022
 5336SOL    HW116907   1.355   2.448   4.097
 5336SOL    HW216908   1.429   2.587   4.054
 5337SOL     OW16909   0.062   4.211   0.992
 5337SOL    HW116910   0.058   4.297   1.042
 5337SOL    HW216911   6.992   4.165   0.997
 5338SOL     OW16912   6.771   3.209   0.677
 5338SOL    HW116913   6.707   3.245   0.745
 5338SOL    HW216914   6.823   3.133   0.715
 5339SOL     OW16915   5.986   2.700   2.757
 5339SOL    HW116916   5.997   2.636   2.681
 5339SOL    HW216917   5.923   2.662   2.824
 5340SOL     OW16918   5.208   2.810   2.493
 5340SOL    HW116919   5.118   2.843   2.464
 5340SOL    HW216920   5.206   2.710   2.498
 5341SOL     OW16921   4.523   5.324   3.520
 5341SOL    HW116922   4.540   5.277   3.433
 5341SOL    HW216923   4.609   5.363   3.554
 5342SOL     OW16924   6.097   6.803   4.391
 5342SOL    HW116925   6.072   6.870   4.320
 5342SOL    HW216926   6.042   6.721   4.379
 5343SOL     OW16927   3.968   3.621   5.855
 5343SOL    HW116928   4.032   3.696   5.874
 5343SOL    HW216929   3.966   3.603   5.757
 5344SOL     OW16930   0.874   1.627   6.218
 5344SOL    HW116931   0.896   1.637   6.315
 5344SOL    HW216932   0.876   1.531   6.193
 5345SOL     OW16933   5.618   2.101   6.809
 5345SOL    HW116934   5.566   2.143   6.882
 5345SOL    HW216935   5.715   2.124   6.818
 5346SOL     OW16936   3.013   5.443   3.783
 5346SOL    HW116937   3.112   5.450   3.793
 5346SOL    HW216938   2.990   5.431   3.687
 5347SOL     OW16939   5.829   1.990   4.147
 5347SOL    HW116940   5.792   1.988   4.054
 5347SOL    HW216941   5.820   2.083   4.184
 5348SOL     OW16942   5.319   1.453   3.293
 5348SOL    HW116943   5.303   1.531   3.354
 5348SOL    HW216944   5.360   1.486   3.208
 5349SOL     OW16945   0.094   3.627   2.402
 5349SOL    HW116946   0.015   3.622   2.463
 5349SOL    HW216947   0.074   3.689   2.326
 5350SOL     OW16948   1.920   6.385   6.293
 5350SOL    HW116949   1.940   6.466   6.348
 5350SOL    HW216950   2.003   6.331   6.279
 5351SOL     OW16951   0.145   5.117   1.856
 5351SOL    HW116952   0.230   5.067   1.848
 5351SOL    HW216953   0.164   5.213   1.875
 5352SOL     OW16954   1.835   3.703   4.500
 5352SOL    HW116955   1.933   3.688   4.514
 5352SOL    HW216956   1.791   3.724   4.587
 5353SOL     OW16957   4.345   5.720   3.205
 5353SOL    HW116958   4.328   5.754   3.113
 5353SOL    HW216959   4.433   5.753   3.238
 5354SOL     OW16960   3.801   5.720   0.642
 5354SOL    HW116961   3.813   5.621   0.629
 5354SOL    HW216962   3.883   5.768   0.609
 5355SOL     OW16963   5.120   4.825   5.164
 5355SOL    HW116964   5.219   4.807   5.169
 5355SOL    HW216965   5.082   4.822   5.257
 5356SOL     OW16966   6.984   4.985   1.675
 5356SOL    HW116967   6.998   5.008   1.579
 5356SOL    HW216968   0.020   5.047   1.732
 5357SOL     OW16969   5.420   4.118   2.572
 5357SOL    HW116970   5.489   4.078   2.633
 5357SOL    HW216971   5.380   4.199   2.616
 5358SOL     OW16972   4.966   2.263   0.691
 5358SOL    HW116973   4.893   2.194   0.693
 5358SOL    HW216974   4.949   2.331   0.762
 5359SOL     OW16975   2.488   1.755   6.226
 5359SOL    HW116976   2.576   1.729   6.267
 5359SOL    HW216977   2.491   1.738   6.128
 5360SOL     OW16978   4.877   4.590   3.105
 5360SOL    HW116979   4.943   4.517   3.089
 5360SOL    HW216980   4.896   4.633   3.193
 5361SOL     OW16981   2.571   5.740   2.259
 5361SOL    HW116982   2.639   5.812   2.243
 5361SOL    HW216983   2.500   5.745   2.188
 5362SOL     OW16984   6.029   0.388   2.070
 5362SOL    HW116985   6.033   0.426   1.977
 5362SOL    HW216986   6.089   0.442   2.130
 5363SOL     OW16987   5.851   5.337   4.520
 5363SOL    HW116988   5.780   5.270   4.498
 5363SOL    HW216989   5.811   5.411   4.575
 5364SOL     OW16990   5.065   1.000   2.312
 5364SOL    HW116991   5.051   0.996   2.411
 5364SOL    HW216992   5.128   1.074   2.290
 5365SOL     OW16993   3.284   2.973   4.300
 5365SOL    HW116994   3.207   3.032   4.327
 5365SOL    HW216995   3.254   2.911   4.228
 5366SOL     OW16996   6.482   6.347   1.988
 5366SOL    HW116997   6.419   6.311   1.919
 5366SOL    HW216998   6.446   6.327   2.079
 5367SOL     OW16999   6.164   5.926   1.532
 5367SOL    HW117000   6.250   5.895   1.490
 5367SOL    HW217001   6.170   6.024   1.551
 5368SOL     OW17002   6.604   5.461   3.820
 5368SOL    HW117003   6.657   5.442   3.737
 5368SOL    HW217004   6.540   5.536   3.801
 5369SOL     OW17005   2.396   6.056   2.209
 5369SOL    HW117006   2.424   6.112   2.131
 5369SOL    HW217007   2.314   6.004   2.186
 5370SOL     OW17008   2.731   3.664   1.655
 5370SOL    HW117009   2.806   3.647   1.720
 5370SOL    HW217010   2.742   3.603   1.576
 5371SOL     OW17011   5.810   5.370   4.974
 5371SOL    HW117012   5.867   5.349   5.054
 5371SOL    HW217013   5.867   5.379   4.893
 5372SOL     OW17014   0.588   0.425   2.981
 5372SOL    HW117015   0.602   0.516   3.019
 5372SOL    HW217016   0.669   0.368   2.998
 5373SOL     OW17017   3.188   0.510   0.067
 5373SOL    HW117018   3.235   0.571   0.004
 5373SOL    HW217019   3.224   0.524   0.159
 5374SOL     OW17020   2.587   4.959   2.267
 5374SOL    HW117021   2.609   4.863   2.256
 5374SOL    HW217022   2.642   5.014   2.204
 5375SOL     OW17023   0.905   5.071   4.314
 5375SOL    HW117024   0.809   5.100   4.312
 5375SOL    HW217025   0.913   4.985   4.364
 5376SOL     OW17026   7.018   1.361   6.236
 5376SOL    HW117027   0.061   1.289   6.268
 5376SOL    HW217028   6.993   1.343   6.141
 5377SOL     OW17029   2.448   0.484   3.123
 5377SOL    HW117030   2.500   0.565   3.094
 5377SOL    HW217031   2.398   0.448   3.044
 5378SOL     OW17032   5.772   0.980   2.066
 5378SOL    HW117033   5.710   1.032   2.007
 5378SOL    HW217034   5.719   0.926   2.132
 5379SOL     OW17035   1.575   2.849   6.112
 5379SOL    HW117036   1.644   2.876   6.180
 5379SOL    HW217037   1.607   2.768   6.063
 5380SOL     OW17038   4.594   6.815   1.304
 5380SOL    HW117039   4.569   6.909   1.281
 5380SOL    HW217040   4.514   6.756   1.295
 5381SOL     OW17041   4.706   6.333   3.973
 5381SOL    HW117042   4.789   6.278   3.983
 5381SOL    HW217043   4.633   6.293   4.027
 5382SOL     OW17044   4.485   2.056   1.885
 5382SOL    HW117045   4.440   1.976   1.924
 5382SOL    HW217046   4.529   2.108   1.958
 5383SOL     OW17047   2.406   2.752   4.534
 5383SOL    HW117048   2.483   2.689   4.543
 5383SOL    HW217049   2.366   2.770   4.624
 5384SOL     OW17050   5.579   5.463   4.854
 5384SOL    HW117051   5.490   5.436   4.891
 5384SOL    HW217052   5.652   5.429   4.913
 5385SOL     OW17053   4.664   2.634   5.836
 5385SOL    HW117054   4.654   2.541   5.872
 5385SOL    HW217055   4.642   2.700   5.908
 5386SOL     OW17056   5.991   4.160   4.004
 5386SOL    HW117057   6.068   4.096   4.003
 5386SOL    HW217058   5.998   4.221   4.084
 5387SOL     OW17059   1.595   1.007   2.890
 5387SOL    HW117060   1.568   0.998   2.794
 5387SOL    HW217061   1.594   1.103   2.915
 5388SOL     OW17062   0.980   6.746   1.894
 5388SOL    HW117063   1.065   6.699   1.869
 5388SOL    HW217064   0.973   6.831   1.843
 5389SOL     OW17065   4.173   1.307   3.934
 5389SOL    HW117066   4.206   1.384   3.989
 5389SOL    HW217067   4.113   1.250   3.989
 5390SOL     OW17068   0.002   2.761   3.745
 5390SOL    HW117069   7.007   2.671   3.788
 5390SOL    HW217070   0.091   2.763   3.699
 5391SOL     OW17071   2.345   3.497   0.888
 5391SOL    HW117072   2.397   3.533   0.811
 5391SOL    HW217073   2.408   3.464   0.959
 5392SOL     OW17074   5.955   2.013   3.548
 5392SOL    HW117075   5.968   1.915   3.558
 5392SOL    HW217076   5.925   2.051   3.636
 5393SOL     OW17077   3.614   1.863   5.551
 5393SOL    HW117078   3.585   1.851   5.456
 5393SOL    HW217079   3.637   1.774   5.591
 5394SOL     OW17080   1.217   0.638   1.271
 5394SOL    HW117081   1.152   0.711   1.292
 5394SOL    HW217082   1.169   0.564   1.223
 5395SOL     OW17083   6.201   1.495   0.891
 5395SOL    HW117084   6.192   1.541   0.803
 5395SOL    HW217085   6.193   1.563   0.965
 5396SOL     OW17086   5.328   5.260   2.465
 5396SOL    HW117087   5.380   5.338   2.429
 5396SOL    HW217088   5.328   5.263   2.565
 5397SOL     OW17089   0.107   0.870   2.354
 5397SOL    HW117090   0.180   0.917   2.402
 5397SOL    HW217091   0.074   0.926   2.279
 5398SOL     OW17092   5.112   1.794   3.195
 5398SOL    HW117093   5.065   1.876   3.227
 5398SOL    HW217094   5.189   1.773   3.255
 5399SOL     OW17095   2.547   0.441   6.028
 5399SOL    HW117096   2.630   0.392   6.054
 5399SOL    HW217097   2.529   0.426   5.931
 5400SOL     OW17098   4.410   3.032   1.637
 5400SOL    HW117099   4.414   3.130   1.618
 5400SOL    HW217100   4.503   2.995   1.640
 5401SOL     OW17101   5.945   4.002   1.536
 5401SOL    HW117102   5.877   3.943   1.580
 5401SOL    HW217103   5.903   4.089   1.512
 5402SOL     OW17104   0.929   6.490   1.033
 5402SOL    HW117105   0.946   6.432   1.112
 5402SOL    HW217106   1.004   6.479   0.967
 5403SOL     OW17107   5.323   2.652   0.095
 5403SOL    HW117108   5.318   2.558   0.129
 5403SOL    HW217109   5.239   2.674   0.046
 5404SOL     OW17110   6.764   0.960   0.822
 5404SOL    HW117111   6.779   0.868   0.787
 5404SOL    HW217112   6.847   0.994   0.865
 5405SOL     OW17113   5.403   5.575   6.980
 5405SOL    HW117114   5.492   5.600   7.018
 5405SOL    HW217115   5.403   5.478   6.954
 5406SOL     OW17116   2.975   0.727   4.091
 5406SOL    HW117117   2.971   0.736   3.991
 5406SOL    HW217118   2.889   0.688   4.125
 5407SOL     OW17119   1.456   6.788   2.618
 5407SOL    HW117120   1.470   6.877   2.662
 5407SOL    HW217121   1.509   6.784   2.534
 5408SOL     OW17122   3.527   1.752   4.325
 5408SOL    HW117123   3.552   1.679   4.262
 5408SOL    HW217124   3.574   1.738   4.413
 5409SOL     OW17125   1.000   3.143   0.685
 5409SOL    HW117126   0.954   3.054   0.685
 5409SOL    HW217127   1.090   3.134   0.642
 5410SOL     OW17128   0.959   2.400   0.554
 5410SOL    HW117129   0.930   2.419   0.460
 5410SOL    HW217130   0.923   2.471   0.615
 5411SOL     OW17131   3.517   4.994   6.539
 5411SOL    HW117132   3.423   4.962   6.554
 5411SOL    HW217133   3.516   5.069   6.473
 5412SOL     OW17134   0.026   2.102   5.975
 5412SOL    HW117135   0.099   2.157   6.016
 5412SOL    HW217136   6.968   2.095   6.039
 5413SOL     OW17137   0.074   6.552   4.588
 5413SOL    HW117138   0.115   6.559   4.679
 5413SOL    HW217139   6.997   6.578   4.593
 5414SOL     OW17140   5.465   3.459   5.019
 5414SOL    HW117141   5.556   3.439   5.054
 5414SOL    HW217142   5.432   3.380   4.966
 5415SOL     OW17143   3.654   0.348   6.917
 5415SOL    HW117144   3.685   0.411   6.846
 5415SOL    HW217145   3.577   0.295   6.884
 5416SOL     OW17146   3.145   5.668   6.112
 5416SOL    HW117147   3.122   5.600   6.181
 5416SOL    HW217148   3.215   5.730   6.148
 5417SOL     OW17149   4.838   5.980   3.829
 5417SOL    HW117150   4.821   6.069   3.787
 5417SOL    HW217151   4.816   5.983   3.926
 5418SOL     OW17152   6.505   3.736   4.537
 5418SOL    HW117153   6.432   3.700   4.479
 5418SOL    HW217154   6.539   3.821   4.499
 5419SOL     OW17155   4.378   6.936   6.329
 5419SOL    HW117156   4.453   6.971   6.385
 5419SOL    HW217157   4.297   6.994   6.343
 5420SOL     OW17158   0.985   0.857   1.586
 5420SOL    HW117159   0.913   0.871   1.654
 5420SOL    HW217160   1.043   0.780   1.614
 5421SOL     OW17161   3.963   4.865   2.284
 5421SOL    HW117162   3.941   4.889   2.190
 5421SOL    HW217163   3.889   4.896   2.344
 5422SOL     OW17164   2.589   5.971   3.878
 5422SOL    HW117165   2.601   5.873   3.860
 5422SOL    HW217166   2.646   6.024   3.815
 5423SOL     OW17167   5.742   5.866   1.939
 5423SOL    HW117168   5.677   5.839   2.010
 5423SOL    HW217169   5.711   5.949   1.894
 5424SOL     OW17170   4.249   3.829   5.612
 5424SOL    HW117171   4.179   3.901   5.612
 5424SOL    HW217172   4.272   3.805   5.706
 5425SOL     OW17173   0.986   4.064   5.868
 5425SOL    HW117174   0.893   4.083   5.901
 5425SOL    HW217175   0.982   4.046   5.769
 5426SOL     OW17176   5.407   5.304   1.861
 5426SOL    HW117177   5.506   5.317   1.864
 5426SOL    HW217178   5.376   5.311   1.766
 5427SOL     OW17179   4.858   2.570   6.821
 5427SOL    HW117180   4.806   2.522   6.751
 5427SOL    HW217181   4.860   2.668   6.799
 5428SOL     OW17182   6.188   5.825   3.478
 5428SOL    HW117183   6.223   5.764   3.407
 5428SOL    HW217184   6.140   5.772   3.547
 5429SOL     OW17185   3.494   7.011   4.318
 5429SOL    HW117186   3.594   7.013   4.327
 5429SOL    HW217187   3.470   7.005   4.221
 5430SOL     OW17188   2.806   3.902   5.729
 5430SOL    HW117189   2.803   3.804   5.706
 5430SOL    HW217190   2.862   3.950   5.662
 5431SOL     OW17191   3.268   4.951   6.293
 5431SOL    HW117192   3.275   4.951   6.393
 5431SOL    HW217193   3.350   4.909   6.254
 5432SOL     OW17194   5.793   5.230   7.002
 5432SOL    HW117195   5.725   5.289   6.959
 5432SOL    HW217196   5.818   5.157   6.939
 5433SOL     OW17197   1.920   0.372   1.404
 5433SOL    HW117198   1.878   0.293   1.360
 5433SOL    HW217199   1.948   0.438   1.335
 5434SOL     OW17200   5.490   0.307   4.718
 5434SOL    HW117201   5.481   0.215   4.680
 5434SOL    HW217202   5.425   0.319   4.793
 5435SOL     OW17203   0.002   4.119   0.636
 5435SOL    HW117204   6.964   4.043   0.605
 5435SOL    HW217205   7.002   4.138   0.733
 5436SOL     OW17206   1.061   4.519   2.928
 5436SOL    HW117207   1.130   4.508   3.000
 5436SOL    HW217208   1.063   4.440   2.868
 5437SOL     OW17209   3.722   5.920   1.460
 5437SOL    HW117210   3.679   5.850   1.516
 5437SOL    HW217211   3.820   5.899   1.450
 5438SOL     OW17212   4.870   4.859   2.577
 5438SOL    HW117213   4.920   4.790   2.525
 5438SOL    HW217214   4.802   4.903   2.518
 5439SOL     OW17215   1.287   5.237   1.437
 5439SOL    HW117216   1.306   5.237   1.535
 5439SOL    HW217217   1.310   5.327   1.398
 5440SOL     OW17218   6.555   6.187   3.730
 5440SOL    HW117219   6.489   6.213   3.800
 5440SOL    HW217220   6.587   6.269   3.683
 5441SOL     OW17221   4.979   2.745   3.308
 5441SOL    HW117222   4.987   2.716   3.212
 5441SOL    HW217223   5.021   2.677   3.367
 5442SOL     OW17224   4.430   6.411   5.840
 5442SOL    HW117225   4.360   6.341   5.853
 5442SOL    HW217226   4.387   6.501   5.831
 5443SOL     OW17227   4.363   0.702   4.165
 5443SOL    HW117228   4.387   0.710   4.068
 5443SOL    HW217229   4.375   0.790   4.210
 5444SOL     OW17230   5.702   1.426   4.866
 5444SOL    HW117231   5.726   1.355   4.932
 5444SOL    HW217232   5.739   1.402   4.776
 5445SOL     OW17233   5.948   5.134   5.602
 5445SOL    HW117234   5.905   5.205   5.546
 5445SOL    HW217235   5.976   5.058   5.543
 5446SOL     OW17236   0.332   4.290   6.313
 5446SOL    HW117237   0.304   4.361   6.248
 5446SOL    HW217238   0.428   4.304   6.337
 5447SOL     OW17239   1.334   1.695   0.467
 5447SOL    HW117240   1.348   1.695   0.566
 5447SOL    HW217241   1.313   1.602   0.435
 5448SOL     OW17242   4.428   5.199   2.866
 5448SOL    HW117243   4.436   5.267   2.793
 5448SOL    HW217244   4.413   5.246   2.953
 5449SOL     OW17245   2.586   1.609   1.577
 5449SOL    HW117246   2.513   1.541   1.571
 5449SOL    HW217247   2.670   1.570   1.540
 5450SOL     OW17248   4.108   5.514   1.738
 5450SOL    HW117249   4.050   5.439   1.772
 5450SOL    HW217250   4.104   5.516   1.638
 5451SOL     OW17251   0.296   6.766   3.289
 5451SOL    HW117252   0.380   6.714   3.303
 5451SOL    HW217253   0.318   6.862   3.276
 5452SOL     OW17254   2.121   4.677   2.016
 5452SOL    HW117255   2.090   4.770   2.039
 5452SOL    HW217256   2.057   4.636   1.951
 5453SOL     OW17257   5.903   3.983   3.009
 5453SOL    HW117258   5.832   4.015   2.947
 5453SOL    HW217259   5.993   4.000   2.969
 5454SOL     OW17260   5.451   5.492   2.700
 5454SOL    HW117261   5.373   5.467   2.757
 5454SOL    HW217262   5.534   5.490   2.756
 5455SOL     OW17263   1.307   1.225   3.525
 5455SOL    HW117264   1.384   1.289   3.517
 5455SOL    HW217265   1.221   1.276   3.521
 5456SOL     OW17266   6.276   0.885   6.876
 5456SOL    HW117267   6.325   0.972   6.876
 5456SOL    HW217268   6.313   0.826   6.947
 5457SOL     OW17269   5.987   2.669   6.693
 5457SOL    HW117270   5.973   2.684   6.791
 5457SOL    HW217271   6.036   2.583   6.679
 5458SOL     OW17272   5.812   3.965   0.351
 5458SOL    HW117273   5.873   3.902   0.303
 5458SOL    HW217274   5.805   3.938   0.447
 5459SOL     OW17275   2.277   3.718   5.714
 5459SOL    HW117276   2.181   3.690   5.722
 5459SOL    HW217277   2.292   3.762   5.626
 5460SOL     OW17278   1.780   0.516   0.864
 5460SOL    HW117279   1.777   0.615   0.857
 5460SOL    HW217280   1.873   0.486   0.883
 5461SOL     OW17281   6.368   0.910   5.547
 5461SOL    HW117282   6.446   0.945   5.598
 5461SOL    HW217283   6.400   0.861   5.466
 5462SOL     OW17284   4.844   5.493   6.669
 5462SOL    HW117285   4.843   5.456   6.762
 5462SOL    HW217286   4.878   5.588   6.672
 5463SOL     OW17287   0.629   3.259   6.428
 5463SOL    HW117288   0.684   3.197   6.373
 5463SOL    HW217289   0.585   3.208   6.502
 5464SOL     OW17290   6.907   6.265   5.324
 5464SOL    HW117291   6.846   6.333   5.281
 5464SOL    HW217292   6.870   6.239   5.413
 5465SOL     OW17293   6.763   5.815   3.836
 5465SOL    HW117294   6.849   5.866   3.842
 5465SOL    HW217295   6.783   5.717   3.830
 5466SOL     OW17296   6.178   2.589   6.046
 5466SOL    HW117297   6.153   2.570   6.141
 5466SOL    HW217298   6.096   2.594   5.989
 5467SOL     OW17299   5.204   3.503   3.920
 5467SOL    HW117300   5.159   3.490   4.008
 5467SOL    HW217301   5.286   3.559   3.932
 5468SOL     OW17302   0.588   1.272   1.661
 5468SOL    HW117303   0.640   1.306   1.583
 5468SOL    HW217304   0.636   1.296   1.746
 5469SOL     OW17305   2.819   0.569   5.182
 5469SOL    HW117306   2.805   0.569   5.281
 5469SOL    HW217307   2.847   0.477   5.152
 5470SOL     OW17308   3.861   5.396   4.333
 5470SOL    HW117309   3.927   5.333   4.292
 5470SOL    HW217310   3.771   5.353   4.337
 5471SOL     OW17311   4.715   0.608   3.005
 5471SOL    HW117312   4.763   0.653   2.930
 5471SOL    HW217313   4.780   0.584   3.077
 5472SOL     OW17314   2.507   2.192   6.788
 5472SOL    HW117315   2.452   2.163   6.710
 5472SOL    HW217316   2.537   2.286   6.774
 5473SOL     OW17317   2.702   3.813   1.124
 5473SOL    HW117318   2.710   3.868   1.208
 5473SOL    HW217319   2.794   3.787   1.093
 5474SOL     OW17320   0.590   5.461   3.586
 5474SOL    HW117321   0.562   5.427   3.496
 5474SOL    HW217322   0.616   5.557   3.579
 5475SOL     OW17323   6.772   2.383   5.199
 5475SOL    HW117324   6.846   2.331   5.241
 5475SOL    HW217325   6.684   2.348   5.231
 5476SOL     OW17326   2.482   6.721   6.113
 5476SOL    HW117327   2.474   6.820   6.115
 5476SOL    HW217328   2.390   6.680   6.113
 5477SOL     OW17329   2.232   4.805   3.936
 5477SOL    HW117330   2.245   4.862   3.855
 5477SOL    HW217331   2.139   4.769   3.937
 5478SOL     OW17332   5.781   5.107   5.857
 5478SOL    HW117333   5.722   5.165   5.802
 5478SOL    HW217334   5.858   5.076   5.801
 5479SOL     OW17335   3.461   1.636   5.110
 5479SOL    HW117336   3.416   1.636   5.021
 5479SOL    HW217337   3.548   1.588   5.104
 5480SOL     OW17338   6.801   3.703   4.681
 5480SOL    HW117339   6.720   3.654   4.649
 5480SOL    HW217340   6.779   3.800   4.694
 5481SOL     OW17341   4.519   1.341   6.751
 5481SOL    HW117342   4.605   1.294   6.769
 5481SOL    HW217343   4.450   1.311   6.816
 5482SOL     OW17344   4.739   2.924   1.697
 5482SOL    HW117345   4.831   2.964   1.694
 5482SOL    HW217346   4.703   2.930   1.789
 5483SOL     OW17347   6.740   3.540   5.972
 5483SOL    HW117348   6.759   3.619   5.914
 5483SOL    HW217349   6.822   3.518   6.025
 5484SOL     OW17350   6.740   6.426   4.336
 5484SOL    HW117351   6.673   6.357   4.309
 5484SOL    HW217352   6.771   6.476   4.255
 5485SOL     OW17353   3.732   6.765   5.760
 5485SOL    HW117354   3.759   6.850   5.805
 5485SOL    HW217355   3.692   6.703   5.827
 5486SOL     OW17356   1.242   1.114   3.121
 5486SOL    HW117357   1.219   1.018   3.139
 5486SOL    HW217358   1.229   1.133   3.024
 5487SOL     OW17359   6.406   4.655   0.353
 5487SOL    HW117360   6.479   4.643   0.420
 5487SOL    HW217361   6.438   4.624   0.264
 5488SOL     OW17362   5.320   1.918   6.224
 5488SOL    HW117363   5.332   1.957   6.315
 5488SOL    HW217364   5.242   1.961   6.179
 5489SOL     OW17365   1.838   4.568   2.863
 5489SOL    HW117366   1.888   4.497   2.912
 5489SOL    HW217367   1.745   4.537   2.846
 5490SOL     OW17368   2.489   1.429   0.779
 5490SOL    HW117369   2.441   1.363   0.721
 5490SOL    HW217370   2.586   1.403   0.784
 5491SOL     OW17371   1.687   4.879   0.543
 5491SOL    HW117372   1.634   4.798   0.568
 5491SOL    HW217373   1.686   4.944   0.620
 5492SOL     OW17374   0.691   2.041   6.347
 5492SOL    HW117375   0.784   2.066   6.318
 5492SOL    HW217376   0.657   2.110   6.411
 5493SOL     OW17377   3.783   3.124   6.365
 5493SOL    HW117378   3.766   3.112   6.267
 5493SOL    HW217379   3.695   3.130   6.413
 5494SOL     OW17380   6.066   3.575   1.669
 5494SOL    HW117381   6.101   3.591   1.762
 5494SOL    HW217382   6.061   3.477   1.651
 5495SOL     OW17383   4.053   3.351   2.757
 5495SOL    HW117384   4.004   3.300   2.828
 5495SOL    HW217385   4.052   3.298   2.672
 5496SOL     OW17386   3.314   5.868   1.648
 5496SOL    HW117387   3.259   5.861   1.731
 5496SOL    HW217388   3.408   5.893   1.672
 5497SOL     OW17389   0.025   1.132   2.575
 5497SOL    HW117390   0.120   1.139   2.546
 5497SOL    HW217391   0.021   1.113   2.673
 5498SOL     OW17392   4.443   1.697   6.058
 5498SOL    HW117393   4.423   1.732   6.150
 5498SOL    HW217394   4.457   1.773   5.996
 5499SOL     OW17395   6.814   1.869   3.085
 5499SOL    HW117396   6.797   1.847   2.989
 5499SOL    HW217397   6.869   1.797   3.127
 5500SOL     OW17398   2.054   6.246   0.488
 5500SOL    HW117399   2.149   6.232   0.459
 5500SOL    HW217400   1.999   6.167   0.461
 5501SOL     OW17401   2.765   0.354   2.456
 5501SOL    HW117402   2.844   0.300   2.486
 5501SOL    HW217403   2.683   0.297   2.459
 5502SOL     OW17404   6.453   4.051   5.729
 5502SOL    HW117405   6.367   4.091   5.760
 5502SOL    HW217406   6.477   3.974   5.788
 5503SOL     OW17407   1.193   4.529   3.190
 5503SOL    HW117408   1.239   4.446   3.220
 5503SOL    HW217409   1.255   4.607   3.199
 5504SOL     OW17410   3.618   1.697   4.602
 5504SOL    HW117411   3.594   1.706   4.699
 5504SOL    HW217412   3.698   1.638   4.593
 5505SOL     OW17413   3.257   5.535   5.253
 5505SOL    HW117414   3.174   5.591   5.243
 5505SOL    HW217415   3.337   5.594   5.261
 5506SOL     OW17416   6.473   0.760   5.334
 5506SOL    HW117417   6.545   0.746   5.266
 5506SOL    HW217418   6.385   0.732   5.295
 5507SOL     OW17419   2.915   6.752   3.867
 5507SOL    HW117420   2.912   6.754   3.767
 5507SOL    HW217421   2.895   6.843   3.903
 5508SOL     OW17422   2.319   0.240   6.655
 5508SOL    HW117423   2.398   0.185   6.629
 5508SOL    HW217424   2.265   0.261   6.573
 5509SOL     OW17425   5.953   0.050   0.433
 5509SOL    HW117426   5.914   7.007   0.364
 5509SOL    HW217427   6.033   0.007   0.475
 5510SOL     OW17428   4.764   0.518   5.913
 5510SOL    HW117429   4.759   0.596   5.975
 5510SOL    HW217430   4.809   0.546   5.828
 5511SOL     OW17431   0.467   0.647   2.298
 5511SOL    HW117432   0.414   0.597   2.366
 5511SOL    HW217433   0.554   0.599   2.281
 5512SOL     OW17434   1.134   1.236   6.760
 5512SOL    HW117435   1.144   1.154   6.703
 5512SOL    HW217436   1.208   1.300   6.739
 5513SOL     OW17437   4.634   4.278   4.593
 5513SOL    HW117438   4.631   4.255   4.691
 5513SOL    HW217439   4.689   4.210   4.545
 5514SOL     OW17440   5.382   4.873   2.385
 5514SOL    HW117441   5.334   4.829   2.310
 5514SOL    HW217442   5.379   4.814   2.466
 5515SOL     OW17443   6.553   2.287   2.088
 5515SOL    HW117444   6.481   2.345   2.050
 5515SOL    HW217445   6.630   2.344   2.117
 5516SOL     OW17446   1.429   3.628   6.768
 5516SOL    HW117447   1.346   3.596   6.813
 5516SOL    HW217448   1.457   3.716   6.807
 5517SOL     OW17449   3.209   1.703   0.931
 5517SOL    HW117450   3.216   1.744   0.840
 5517SOL    HW217451   3.171   1.770   0.995
 5518SOL     OW17452   6.123   5.187   5.819
 5518SOL    HW117453   6.047   5.250   5.836
 5518SOL    HW217454   6.121   5.158   5.723
 5519SOL     OW17455   5.464   3.323   3.992
 5519SOL    HW117456   5.551   3.321   3.943
 5519SOL    HW217457   5.436   3.418   4.006
 5520SOL     OW17458   1.080   3.876   2.127
 5520SOL    HW117459   1.078   3.792   2.072
 5520SOL    HW217460   1.166   3.925   2.110
 5521SOL     OW17461   5.690   6.175   1.496
 5521SOL    HW117462   5.696   6.274   1.494
 5521SOL    HW217463   5.741   6.136   1.419
 5522SOL     OW17464   2.570   3.311   1.759
 5522SOL    HW117465   2.496   3.359   1.806
 5522SOL    HW217466   2.658   3.338   1.798
 5523SOL     OW17467   3.042   6.896   2.627
 5523SOL    HW117468   3.096   6.833   2.683
 5523SOL    HW217469   3.100   6.932   2.553
 5524SOL     OW17470   1.040   4.866   5.261
 5524SOL    HW117471   1.137   4.848   5.279
 5524SOL    HW217472   0.985   4.818   5.330
 5525SOL     OW17473   6.741   5.162   6.598
 5525SOL    HW117474   6.765   5.253   6.566
 5525SOL    HW217475   6.807   5.132   6.668
 5526SOL     OW17476   6.220   3.372   3.477
 5526SOL    HW117477   6.303   3.317   3.468
 5526SOL    HW217478   6.243   3.458   3.524
 5527SOL     OW17479   1.617   2.770   1.522
 5527SOL    HW117480   1.670   2.698   1.566
 5527SOL    HW217481   1.520   2.759   1.544
 5528SOL     OW17482   0.582   2.422   4.671
 5528SOL    HW117483   0.651   2.493   4.682
 5528SOL    HW217484   0.566   2.377   4.759
 5529SOL     OW17485   2.320   0.907   4.484
 5529SOL    HW117486   2.397   0.942   4.430
 5529SOL    HW217487   2.323   0.807   4.486
 5530SOL     OW17488   0.374   1.997   0.525
 5530SOL    HW117489   0.453   1.967   0.472
 5530SOL    HW217490   0.290   1.970   0.478
 5531SOL     OW17491   4.157   3.092   5.287
 5531SOL    HW117492   4.094   3.018   5.264
 5531SOL    HW217493   4.105   3.177   5.300
 5532SOL     OW17494   1.777   1.512   0.386
 5532SOL    HW117495   1.812   1.456   0.311
 5532SOL    HW217496   1.723   1.588   0.349
 5533SOL     OW17497   3.520   0.639   2.348
 5533SOL    HW117498   3.529   0.574   2.272
 5533SOL    HW217499   3.572   0.721   2.328
 5534SOL     OW17500   1.125   3.683   6.396
 5534SOL    HW117501   1.101   3.743   6.318
 5534SOL    HW217502   1.087   3.722   6.480
 5535SOL     OW17503   6.441   2.788   3.229
 5535SOL    HW117504   6.398   2.755   3.313
 5535SOL    HW217505   6.376   2.845   3.178
 5536SOL     OW17506   2.351   0.761   4.188
 5536SOL    HW117507   2.271   0.817   4.210
 5536SOL    HW217508   2.381   0.712   4.270
 5537SOL     OW17509   3.862   0.554   5.106
 5537SOL    HW117510   3.944   0.536   5.159
 5537SOL    HW217511   3.797   0.479   5.117
 5538SOL     OW17512   3.919   1.286   5.852
 5538SOL    HW117513   3.884   1.330   5.935
 5538SOL    HW217514   4.013   1.257   5.867
 5539SOL     OW17515   1.071   0.792   1.871
 5539SOL    HW117516   1.093   0.887   1.894
 5539SOL    HW217517   1.143   0.754   1.814
 5540SOL     OW17518   5.338   3.040   0.737
 5540SOL    HW117519   5.342   2.951   0.781
 5540SOL    HW217520   5.289   3.105   0.796
 5541SOL     OW17521   5.217   3.459   5.970
 5541SOL    HW117522   5.267   3.426   6.051
 5541SOL    HW217523   5.171   3.545   5.992
 5542SOL     OW17524   5.235   4.923   6.415
 5542SOL    HW117525   5.256   4.830   6.383
 5542SOL    HW217526   5.242   4.987   6.339
 5543SOL     OW17527   1.967   6.315   0.211
 5543SOL    HW117528   1.971   6.358   0.301
 5543SOL    HW217529   2.052   6.334   0.161
 5544SOL     OW17530   4.601   5.003   5.927
 5544SOL    HW117531   4.609   4.909   5.959
 5544SOL    HW217532   4.683   5.029   5.877
 5545SOL     OW17533   4.069   1.273   2.686
 5545SOL    HW117534   4.036   1.364   2.712
 5545SOL    HW217535   4.134   1.281   2.611
 5546SOL     OW17536   0.923   6.113   4.948
 5546SOL    HW117537   0.848   6.113   4.881
 5546SOL    HW217538   1.010   6.119   4.901
 5547SOL     OW17539   4.778   1.917   5.548
 5547SOL    HW117540   4.765   1.841   5.611
 5547SOL    HW217541   4.695   1.974   5.547
 5548SOL     OW17542   0.136   3.795   5.538
 5548SOL    HW117543   0.043   3.830   5.533
 5548SOL    HW217544   0.141   3.706   5.492
 5549SOL     OW17545   4.166   3.411   1.814
 5549SOL    HW117546   4.084   3.463   1.839
 5549SOL    HW217547   4.233   3.473   1.773
 5550SOL     OW17548   2.186   4.162   2.768
 5550SOL    HW117549   2.170   4.064   2.781
 5550SOL    HW217550   2.190   4.207   2.857
 5551SOL     OW17551   1.701   5.183   2.981
 5551SOL    HW117552   1.737   5.142   3.066
 5551SOL    HW217553   1.775   5.192   2.915
 5552SOL     OW17554   6.510   6.894   5.836
 5552SOL    HW117555   6.411   6.881   5.848
 5552SOL    HW217556   6.538   6.975   5.887
 5553SOL     OW17557   4.136   0.316   6.927
 5553SOL    HW117558   4.062   0.363   6.974
 5553SOL    HW217559   4.146   0.353   6.834
 5554SOL     OW17560   5.125   3.064   1.521
 5554SOL    HW117561   5.176   3.106   1.596
 5554SOL    HW217562   5.053   3.126   1.491
 5555SOL     OW17563   0.831   3.925   2.967
 5555SOL    HW117564   0.743   3.972   2.959
 5555SOL    HW217565   0.873   3.948   3.055
 5556SOL     OW17566   6.214   1.345   4.341
 5556SOL    HW117567   6.304   1.319   4.376
 5556SOL    HW217568   6.162   1.262   4.321
 5557SOL     OW17569   2.991   5.805   1.334
 5557SOL    HW117570   2.979   5.863   1.414
 5557SOL    HW217571   3.079   5.759   1.339
 5558SOL     OW17572   3.279   4.070   0.745
 5558SOL    HW117573   3.327   4.024   0.671
 5558SOL    HW217574   3.209   4.010   0.782
 5559SOL     OW17575   1.080   0.289   2.491
 5559SOL    HW117576   1.087   0.330   2.400
 5559SOL    HW217577   0.999   0.231   2.495
 5560SOL     OW17578   6.560   5.827   2.822
 5560SOL    HW117579   6.488   5.850   2.888
 5560SOL    HW217580   6.633   5.895   2.827
 5561SOL     OW17581   2.915   0.588   4.849
 5561SOL    HW117582   2.937   0.670   4.797
 5561SOL    HW217583   2.815   0.582   4.861
 5562SOL     OW17584   4.268   4.608   6.930
 5562SOL    HW117585   4.354   4.659   6.920
 5562SOL    HW217586   4.204   4.662   6.985
 5563SOL     OW17587   3.161   4.986   2.760
 5563SOL    HW117588   3.062   4.976   2.770
 5563SOL    HW217589   3.206   4.951   2.842
 5564SOL     OW17590   4.805   0.035   6.717
 5564SOL    HW117591   4.777   6.958   6.715
 5564SOL    HW217592   4.848   0.055   6.805
 5565SOL     OW17593   4.479   3.062   0.255
 5565SOL    HW117594   4.453   3.153   0.224
 5565SOL    HW217595   4.462   3.053   0.353
 5566SOL     OW17596   1.807   4.253   1.109
 5566SOL    HW117597   1.818   4.190   1.186
 5566SOL    HW217598   1.797   4.200   1.024
 5567SOL     OW17599   6.998   3.683   1.992
 5567SOL    HW117600   6.935   3.632   2.050
 5567SOL    HW217601   7.006   3.637   1.904
 5568SOL     OW17602   4.342   6.947   3.278
 5568SOL    HW117603   4.302   6.923   3.189
 5568SOL    HW217604   4.270   6.946   3.348
 5569SOL     OW17605   2.351   1.809   3.181
 5569SOL    HW117606   2.355   1.719   3.138
 5569SOL    HW217607   2.434   1.823   3.236
 5570SOL     OW17608   6.236   3.446   3.135
 5570SOL    HW117609   6.190   3.381   3.076
 5570SOL    HW217610   6.176   3.470   3.211
 5571SOL     OW17611   6.788   4.954   2.153
 5571SOL    HW117612   6.793   5.034   2.093
 5571SOL    HW217613   6.854   4.886   2.123
 5572SOL     OW17614   1.724   4.384   4.925
 5572SOL    HW117615   1.822   4.395   4.911
 5572SOL    HW217616   1.676   4.393   4.838
 5573SOL     OW17617   1.529   5.307   5.212
 5573SOL    HW117618   1.468   5.235   5.246
 5573SOL    HW217619   1.491   5.346   5.128
 5574SOL     OW17620   0.315   2.916   6.833
 5574SOL    HW117621   0.402   2.917   6.882
 5574SOL    HW217622   0.241   2.943   6.895
 5575SOL     OW17623   0.036   0.093   0.951
 5575SOL    HW117624   0.124   0.131   0.979
 5575SOL    HW217625   0.048   0.038   0.868
 5576SOL     OW17626   1.341   4.089   2.797
 5576SOL    HW117627   1.299   4.146   2.867
 5576SOL    HW217628   1.427   4.131   2.767
 5577SOL     OW17629   2.080   3.362   0.799
 5577SOL    HW117630   2.133   3.357   0.884
 5577SOL    HW217631   2.117   3.435   0.741
 5578SOL     OW17632   3.580   4.005   2.603
 5578SOL    HW117633   3.638   3.983   2.682
 5578SOL    HW217634   3.524   3.925   2.581
 5579SOL     OW17635   0.647   3.388   1.055
 5579SOL    HW117636   0.729   3.419   1.103
 5579SOL    HW217637   0.566   3.409   1.109
 5580SOL     OW17638   4.470   2.149   6.182
 5580SOL    HW117639   4.394   2.114   6.237
 5580SOL    HW217640   4.517   2.221   6.233
 5581SOL     OW17641   1.032   1.364   1.201
 5581SOL    HW117642   1.038   1.427   1.124
 5581SOL    HW217643   1.095   1.392   1.273
 5582SOL     OW17644   2.750   4.178   0.020
 5582SOL    HW117645   2.787   4.268   0.045
 5582SOL    HW217646   2.804   4.138   6.965
 5583SOL     OW17647   3.780   0.709   2.377
 5583SOL    HW117648   3.778   0.612   2.400
 5583SOL    HW217649   3.746   0.762   2.455
 5584SOL     OW17650   6.267   3.706   4.338
 5584SOL    HW117651   6.334   3.781   4.337
 5584SOL    HW217652   6.278   3.650   4.257
 5585SOL     OW17653   4.993   5.157   3.158
 5585SOL    HW117654   5.051   5.076   3.143
 5585SOL    HW217655   5.051   5.238   3.161
 5586SOL     OW17656   6.818   3.501   5.641
 5586SOL    HW117657   6.804   3.544   5.552
 5586SOL    HW217658   6.828   3.571   5.711
 5587SOL     OW17659   4.250   0.038   0.689
 5587SOL    HW117660   4.255   0.125   0.739
 5587SOL    HW217661   4.317   0.039   0.615
 5588SOL     OW17662   2.733   6.389   2.827
 5588SOL    HW117663   2.674   6.458   2.869
 5588SOL    HW217664   2.827   6.423   2.826
 5589SOL     OW17665   6.190   4.599   6.727
 5589SOL    HW117666   6.264   4.612   6.661
 5589SOL    HW217667   6.130   4.525   6.695
 5590SOL     OW17668   6.168   6.302   3.745
 5590SOL    HW117669   6.082   6.320   3.795
 5590SOL    HW217670   6.185   6.203   3.745
 5591SOL     OW17671   0.462   1.641   0.918
 5591SOL    HW117672   0.420   1.664   1.006
 5591SOL    HW217673   0.436   1.710   0.850
 5592SOL     OW17674   1.734   5.556   3.971
 5592SOL    HW117675   1.707   5.477   3.916
 5592SOL    HW217676   1.804   5.608   3.922
 5593SOL     OW17677   0.241   2.629   6.716
 5593SOL    HW117678   0.163   2.575   6.684
 5593SOL    HW217679   0.250   2.712   6.660
 5594SOL     OW17680   5.016   0.814   4.609
 5594SOL    HW117681   4.953   0.741   4.637
 5594SOL    HW217682   5.092   0.820   4.674
 5595SOL     OW17683   1.019   1.326   4.619
 5595SOL    HW117684   1.106   1.343   4.666
 5595SOL    HW217685   0.996   1.405   4.563
 5596SOL     OW17686   4.659   6.481   2.638
 5596SOL    HW117687   4.583   6.417   2.627
 5596SOL    HW217688   4.642   6.539   2.718
 5597SOL     OW17689   4.946   2.321   4.363
 5597SOL    HW117690   4.995   2.354   4.283
 5597SOL    HW217691   5.004   2.329   4.444
 5598SOL     OW17692   5.148   3.557   4.524
 5598SOL    HW117693   5.245   3.545   4.499
 5598SOL    HW217694   5.101   3.469   4.519
 5599SOL     OW17695   0.869   1.163   4.258
 5599SOL    HW117696   0.934   1.222   4.211
 5599SOL    HW217697   0.851   1.082   4.203
 5600SOL     OW17698   0.472   1.376   2.403
 5600SOL    HW117699   0.489   1.281   2.430
 5600SOL    HW217700   0.403   1.378   2.331
 5601SOL     OW17701   3.100   0.004   5.788
 5601SOL    HW117702   3.166   0.045   5.725
 5601SOL    HW217703   3.094   0.059   5.871
 5602SOL     OW17704   0.267   1.288   0.404
 5602SOL    HW117705   0.311   1.217   0.459
 5602SOL    HW217706   0.331   1.364   0.391
 5603SOL     OW17707   5.435   2.662   6.402
 5603SOL    HW117708   5.351   2.612   6.385
 5603SOL    HW217709   5.477   2.686   6.314
 5604SOL     OW17710   6.517   2.297   5.267
 5604SOL    HW117711   6.453   2.259   5.200
 5604SOL    HW217712   6.512   2.245   5.352
 5605SOL     OW17713   0.946   0.642   4.577
 5605SOL    HW117714   0.889   0.572   4.533
 5605SOL    HW217715   0.893   0.726   4.588
 5606SOL     OW17716   5.026   0.204   0.868
 5606SOL    HW117717   5.122   0.226   0.851
 5606SOL    HW217718   5.018   0.162   0.959
 5607SOL     OW17719   5.670   0.467   3.076
 5607SOL    HW117720   5.588   0.512   3.042
 5607SOL    HW217721   5.690   0.386   3.020
 5608SOL     OW17722   4.733   0.086   5.100
 5608SOL    HW117723   4.712   0.066   5.005
 5608SOL    HW217724   4.832   0.093   5.112
 5609SOL     OW17725   2.187   4.882   0.950
 5609SOL    HW117726   2.195   4.837   1.039
 5609SOL    HW217727   2.276   4.882   0.904
 5610SOL     OW17728   4.838   6.769   0.825
 5610SOL    HW117729   4.838   6.808   0.917
 5610SOL    HW217730   4.757   6.801   0.776
 5611SOL     OW17731   1.419   5.101   2.627
 5611SOL    HW117732   1.383   5.142   2.711
 5611SOL    HW217733   1.347   5.045   2.585
 5612SOL     OW17734   4.099   2.326   6.730
 5612SOL    HW117735   4.110   2.327   6.830
 5612SOL    HW217736   4.062   2.238   6.702
 5613SOL     OW17737   5.221   3.808   3.435
 5613SOL    HW117738   5.217   3.708   3.442
 5613SOL    HW217739   5.200   3.835   3.341
 5614SOL     OW17740   4.364   2.426   4.121
 5614SOL    HW117741   4.288   2.385   4.070
 5614SOL    HW217742   4.414   2.488   4.061
 5615SOL     OW17743   0.864   1.009   5.505
 5615SOL    HW117744   0.880   0.969   5.415
 5615SOL    HW217745   0.818   1.096   5.495
 5616SOL     OW17746   2.116   1.190   4.949
 5616SOL    HW117747   2.089   1.113   5.007
 5616SOL    HW217748   2.036   1.246   4.928
 5617SOL     OW17749   2.234   6.619   6.162
 5617SOL    HW117750   2.176   6.700   6.149
 5617SOL    HW217751   2.249   6.604   6.259
 5618SOL     OW17752   6.293   3.590   3.623
 5618SOL    HW117753   6.242   3.673   3.601
 5618SOL    HW217754   6.337   3.601   3.713
 5619SOL     OW17755   3.179   3.791   6.260
 5619SOL    HW117756   3.194   3.875   6.208
 5619SOL    HW217757   3.177   3.812   6.358
 5620SOL     OW17758   3.705   3.492   0.953
 5620SOL    HW117759   3.736   3.586   0.964
 5620SOL    HW217760   3.772   3.440   0.900
 5621SOL     OW17761   0.981   2.505   5.976
 5621SOL    HW117762   1.032   2.591   5.968
 5621SOL    HW217763   0.883   2.525   5.978
 5622SOL     OW17764   4.498   0.284   5.889
 5622SOL    HW117765   4.477   0.215   5.958
 5622SOL    HW217766   4.429   0.356   5.892
 5623SOL     OW17767   2.153   5.851   6.236
 5623SOL    HW117768   2.072   5.908   6.225
 5623SOL    HW217769   2.173   5.804   6.150
 5624SOL     OW17770   0.886   4.289   3.190
 5624SOL    HW117771   0.929   4.280   3.100
 5624SOL    HW217772   0.877   4.386   3.212
 5625SOL     OW17773   5.886   1.914   4.436
 5625SOL    HW117774   5.852   1.947   4.348
 5625SOL    HW217775   5.812   1.916   4.503
 5626SOL     OW17776   2.992   6.935   4.687
 5626SOL    HW117777   2.990   6.883   4.602
 5626SOL    HW217778   3.003   6.873   4.764
 5627SOL     OW17779   0.974   5.966   0.270
 5627SOL    HW117780   1.046   6.003   0.329
 5627SOL    HW217781   1.012   5.944   0.180
 5628SOL     OW17782   1.290   2.927   5.629
 5628SOL    HW117783   1.321   3.021   5.624
 5628SOL    HW217784   1.273   2.902   5.725
 5629SOL     OW17785   3.242   3.705   2.332
 5629SOL    HW117786   3.290   3.638   2.275
 5629SOL    HW217787   3.145   3.702   2.312
 5630SOL     OW17788   1.342   5.010   0.340
 5630SOL    HW117789   1.353   4.916   0.373
 5630SOL    HW217790   1.365   5.015   0.243
 5631SOL     OW17791   4.332   1.676   0.011
 5631SOL    HW117792   4.429   1.699   7.017
 5631SOL    HW217793   4.277   1.759   0.004
 5632SOL     OW17794   4.173   2.514   5.832
 5632SOL    HW117795   4.128   2.550   5.914
 5632SOL    HW217796   4.164   2.414   5.831
 5633SOL     OW17797   5.827   2.575   3.857
 5633SOL    HW117798   5.832   2.495   3.798
 5633SOL    HW217799   5.912   2.626   3.852
 5634SOL     OW17800   2.245   6.178   5.346
 5634SOL    HW117801   2.189   6.096   5.330
 5634SOL    HW217802   2.336   6.150   5.376
 5635SOL     OW17803   2.111   3.825   5.400
 5635SOL    HW117804   2.199   3.789   5.370
 5635SOL    HW217805   2.114   3.925   5.399
 5636SOL     OW17806   3.267   6.209   2.266
 5636SOL    HW117807   3.198   6.141   2.290
 5636SOL    HW217808   3.348   6.197   2.323
 5637SOL     OW17809   5.075   0.174   3.800
 5637SOL    HW117810   5.090   0.112   3.877
 5637SOL    HW217811   5.158   0.228   3.785
 5638SOL     OW17812   5.811   3.738   1.686
 5638SOL    HW117813   5.727   3.692   1.716
 5638SOL    HW217814   5.840   3.701   1.598
 5639SOL     OW17815   0.342   0.639   0.257
 5639SOL    HW117816   0.355   0.555   0.204
 5639SOL    HW217817   0.411   0.706   0.231
 5640SOL     OW17818   2.949   0.687   3.804
 5640SOL    HW117819   3.003   0.648   3.729
 5640SOL    HW217820   2.887   0.756   3.768
 5641SOL     OW17821   0.774   4.755   5.392
 5641SOL    HW117822   0.710   4.811   5.444
 5641SOL    HW217823   0.728   4.670   5.365
 5642SOL     OW17824   2.169   6.521   6.695
 5642SOL    HW117825   2.139   6.590   6.761
 5642SOL    HW217826   2.118   6.436   6.709
 5643SOL     OW17827   4.497   1.404   4.928
 5643SOL    HW117828   4.483   1.455   4.843
 5643SOL    HW217829   4.589   1.420   4.962
 5644SOL     OW17830   2.797   7.008   5.346
 5644SOL    HW117831   2.773   6.954   5.426
 5644SOL    HW217832   2.736   6.984   5.270
 5645SOL     OW17833   6.283   3.795   3.853
 5645SOL    HW117834   6.346   3.858   3.898
 5645SOL    HW217835   6.275   3.818   3.757
 5646SOL     OW17836   2.055   5.268   3.035
 5646SOL    HW117837   2.001   5.207   3.093
 5646SOL    HW217838   2.056   5.360   3.076
 5647SOL     OW17839   5.589   6.426   1.859
 5647SOL    HW117840   5.635   6.513   1.844
 5647SOL    HW217841   5.517   6.413   1.791
 5648SOL     OW17842   2.483   5.612   3.106
 5648SOL    HW117843   2.557   5.642   3.044
 5648SOL    HW217844   2.415   5.685   3.114
 5649SOL     OW17845   0.831   6.458   3.971
 5649SOL    HW117846   0.749   6.508   3.999
 5649SOL    HW217847   0.904   6.523   3.948
 5650SOL     OW17848   0.869   4.774   0.630
 5650SOL    HW117849   0.938   4.808   0.566
 5650SOL    HW217850   0.893   4.802   0.723
 5651SOL     OW17851   1.576   0.785   0.709
 5651SOL    HW117852   1.614   0.754   0.622
 5651SOL    HW217853   1.476   0.773   0.708
 5652SOL     OW17854   7.014   5.520   1.743
 5652SOL    HW117855   0.069   5.464   1.704
 5652SOL    HW217856   0.031   5.611   1.766
 5653SOL     OW17857   0.334   6.009   0.280
 5653SOL    HW117858   0.304   5.984   0.188
 5653SOL    HW217859   0.389   5.935   0.320
 5654SOL     OW17860   1.358   5.455   4.367
 5654SOL    HW117861   1.416   5.535   4.375
 5654SOL    HW217862   1.351   5.428   4.271
 5655SOL     OW17863   6.470   2.840   3.883
 5655SOL    HW117864   6.384   2.791   3.872
 5655SOL    HW217865   6.524   2.834   3.799
 5656SOL     OW17866   6.550   3.663   6.165
 5656SOL    HW117867   6.575   3.576   6.123
 5656SOL    HW217868   6.623   3.692   6.228
 5657SOL     OW17869   4.656   4.349   5.063
 5657SOL    HW117870   4.673   4.322   4.968
 5657SOL    HW217871   4.692   4.278   5.124
 5658SOL     OW17872   2.924   3.106   6.187
 5658SOL    HW117873   2.997   3.038   6.185
 5658SOL    HW217874   2.875   3.105   6.100
 5659SOL     OW17875   3.404   3.767   5.950
 5659SOL    HW117876   3.467   3.689   5.949
 5659SOL    HW217877   3.364   3.779   5.859
 5660SOL     OW17878   4.473   0.384   6.552
 5660SOL    HW117879   4.538   0.393   6.476
 5660SOL    HW217880   4.500   0.308   6.611
 5661SOL     OW17881   1.240   5.165   5.962
 5661SOL    HW117882   1.182   5.234   5.921
 5661SOL    HW217883   1.222   5.076   5.920
 5662SOL     OW17884   2.530   6.882   2.840
 5662SOL    HW117885   2.536   6.844   2.748
 5662SOL    HW217886   2.495   6.976   2.835
 5663SOL     OW17887   1.173   2.573   0.718
 5663SOL    HW117888   1.074   2.571   0.734
 5663SOL    HW217889   1.208   2.479   0.716
 5664SOL     OW17890   5.647   3.992   4.493
 5664SOL    HW117891   5.739   3.966   4.464
 5664SOL    HW217892   5.609   3.921   4.552
 5665SOL     OW17893   1.324   6.021   0.050
 5665SOL    HW117894   1.312   5.932   0.094
 5665SOL    HW217895   1.415   6.025   0.008
 5666SOL     OW17896   6.324   1.040   3.806
 5666SOL    HW117897   6.301   1.053   3.710
 5666SOL    HW217898   6.350   0.944   3.822
 5667SOL     OW17899   1.562   4.727   4.005
 5667SOL    HW117900   1.593   4.638   4.038
 5667SOL    HW217901   1.638   4.791   4.003
 5668SOL     OW17902   6.452   2.736   2.596
 5668SOL    HW117903   6.407   2.818   2.559
 5668SOL    HW217904   6.533   2.763   2.649
 5669SOL     OW17905   6.768   4.617   0.156
 5669SOL    HW117906   6.825   4.644   0.078
 5669SOL    HW217907   6.748   4.697   0.212
 5670SOL     OW17908   1.627   3.279   3.102
 5670SOL    HW117909   1.707   3.337   3.109
 5670SOL    HW217910   1.654   3.183   3.111
 5671SOL     OW17911   6.085   5.530   4.769
 5671SOL    HW117912   6.030   5.586   4.708
 5671SOL    HW217913   6.179   5.565   4.772
 5672SOL     OW17914   4.734   4.013   5.552
 5672SOL    HW117915   4.818   4.066   5.568
 5672SOL    HW217916   4.679   4.012   5.636
 5673SOL     OW17917   0.842   6.547   1.478
 5673SOL    HW117918   0.801   6.637   1.467
 5673SOL    HW217919   0.931   6.557   1.522
 5674SOL     OW17920   2.228   4.661   4.415
 5674SOL    HW117921   2.277   4.573   4.419
 5674SOL    HW217922   2.198   4.686   4.506
 5675SOL     OW17923   3.996   1.420   0.239
 5675SOL    HW117924   4.012   1.465   0.151
 5675SOL    HW217925   3.915   1.362   0.232
 5676SOL     OW17926   2.721   2.238   1.851
 5676SOL    HW117927   2.794   2.275   1.909
 5676SOL    HW217928   2.713   2.295   1.769
 5677SOL     OW17929   6.798   0.711   0.749
 5677SOL    HW117930   6.869   0.664   0.801
 5677SOL    HW217931   6.732   0.644   0.714
 5678SOL     OW17932   3.749   1.119   2.229
 5678SOL    HW117933   3.812   1.196   2.238
 5678SOL    HW217934   3.748   1.087   2.134
 5679SOL     OW17935   5.910   2.067   4.933
 5679SOL    HW117936   5.968   2.129   4.985
 5679SOL    HW217937   5.824   2.113   4.910
 5680SOL     OW17938   1.725   4.775   5.721
 5680SOL    HW117939   1.801   4.817   5.770
 5680SOL    HW217940   1.758   4.694   5.672
 5681SOL     OW17941   0.256   4.169   3.227
 5681SOL    HW117942   0.344   4.124   3.234
 5681SOL    HW217943   0.205   4.131   3.149
 5682SOL     OW17944   2.880   5.612   3.100
 5682SOL    HW117945   2.880   5.641   3.005
 5682SOL    HW217946   2.922   5.521   3.107
 5683SOL     OW17947   4.383   2.689   6.746
 5683SOL    HW117948   4.339   2.676   6.658
 5683SOL    HW217949   4.459   2.754   6.735
 5684SOL     OW17950   2.469   3.928   6.284
 5684SOL    HW117951   2.377   3.895   6.263
 5684SOL    HW217952   2.482   4.018   6.243
 5685SOL     OW17953   1.946   2.215   3.946
 5685SOL    HW117954   1.912   2.266   3.867
 5685SOL    HW217955   1.898   2.127   3.951
 5686SOL     OW17956   3.046   1.047   5.644
 5686SOL    HW117957   2.979   0.972   5.646
 5686SOL    HW217958   3.138   1.008   5.650
 5687SOL     OW17959   0.238   6.112   5.673
 5687SOL    HW117960   0.221   6.016   5.695
 5687SOL    HW217961   0.216   6.128   5.577
 5688SOL     OW17962   2.231   2.634   3.547
 5688SOL    HW117963   2.213   2.722   3.591
 5688SOL    HW217964   2.209   2.640   3.450
 5689SOL     OW17965   2.235   0.487   1.957
 5689SOL    HW117966   2.309   0.466   1.893
 5689SOL    HW217967   2.262   0.563   2.016
 5690SOL     OW17968   0.582   5.289   6.784
 5690SOL    HW117969   0.530   5.364   6.743
 5690SOL    HW217970   0.635   5.323   6.861
 5691SOL     OW17971   3.277   0.885   2.217
 5691SOL    HW117972   3.261   0.793   2.251
 5691SOL    HW217973   3.370   0.914   2.241
 5692SOL     OW17974   4.845   5.241   0.737
 5692SOL    HW117975   4.931   5.281   0.705
 5692SOL    HW217976   4.823   5.276   0.828
 5693SOL     OW17977   4.019   0.642   1.270
 5693SOL    HW117978   4.070   0.611   1.350
 5693SOL    HW217979   3.944   0.578   1.251
 5694SOL     OW17980   0.556   0.033   2.601
 5694SOL    HW117981   0.529   0.033   2.697
 5694SOL    HW217982   0.655   0.018   2.594
 5695SOL     OW17983   1.134   0.851   2.195
 5695SOL    HW117984   1.056   0.800   2.159
 5695SOL    HW217985   1.183   0.895   2.120
 5696SOL     OW17986   1.568   0.751   4.292
 5696SOL    HW117987   1.570   0.764   4.193
 5696SOL    HW217988   1.572   0.653   4.313
 5697SOL     OW17989   6.422   2.233   1.532
 5697SOL    HW117990   6.464   2.278   1.454
 5697SOL    HW217991   6.487   2.230   1.608
 5698SOL     OW17992   1.793   3.498   3.394
 5698SOL    HW117993   1.887   3.472   3.418
 5698SOL    HW217994   1.762   3.571   3.455
 5699SOL     OW17995   2.597   1.870   2.973
 5699SOL    HW117996   2.547   1.956   2.963
 5699SOL    HW217997   2.574   1.809   2.898
 5700SOL     OW17998   6.821   0.340   1.938
 5700SOL    HW117999   6.812   0.329   2.037
 5700SOL    HW218000   6.911   0.309   1.908
 5701SOL     OW18001   0.029   1.554   1.088
 5701SOL    HW118002   7.001   1.641   1.074
 5701SOL    HW218003   0.015   1.522   1.181
 5702SOL     OW18004   1.956   6.548   4.534
 5702SOL    HW118005   1.907   6.483   4.477
 5702SOL    HW218006   1.900   6.629   4.549
 5703SOL     OW18007   0.076   4.210   6.330
 5703SOL    HW118008   0.170   4.239   6.348
 5703SOL    HW218009   0.059   4.213   6.232
 5704SOL     OW18010   5.481   4.563   3.622
 5704SOL    HW118011   5.537   4.540   3.543
 5704SOL    HW218012   5.436   4.651   3.607
 5705SOL     OW18013   5.959   6.105   6.416
 5705SOL    HW118014   5.879   6.091   6.358
 5705SOL    HW218015   5.990   6.200   6.408
 5706SOL     OW18016   5.594   2.786   0.967
 5706SOL    HW118017   5.593   2.720   0.892
 5706SOL    HW218018   5.663   2.760   1.033
 5707SOL     OW18019   4.992   0.128   1.456
 5707SOL    HW118020   5.057   0.167   1.521
 5707SOL    HW218021   4.971   0.197   1.386
 5708SOL     OW18022   4.898   5.896   3.308
 5708SOL    HW118023   4.968   5.940   3.364
 5708SOL    HW218024   4.810   5.942   3.322
 5709SOL     OW18025   0.800   0.889   2.411
 5709SOL    HW118026   0.892   0.870   2.376
 5709SOL    HW218027   0.740   0.917   2.336
 5710SOL     OW18028   2.958   2.733   0.795
 5710SOL    HW118029   2.942   2.831   0.787
 5710SOL    HW218030   3.012   2.702   0.716
 5711SOL     OW18031   5.224   0.572   1.917
 5711SOL    HW118032   5.133   0.530   1.920
 5711SOL    HW218033   5.277   0.533   1.842
 5712SOL     OW18034   6.331   6.095   0.931
 5712SOL    HW118035   6.301   6.188   0.951
 5712SOL    HW218036   6.356   6.088   0.835
 5713SOL     OW18037   2.866   5.495   0.485
 5713SOL    HW118038   2.766   5.495   0.479
 5713SOL    HW218039   2.895   5.542   0.568
 5714SOL     OW18040   6.708   6.445   1.731
 5714SOL    HW118041   6.699   6.373   1.800
 5714SOL    HW218042   6.802   6.478   1.728
 5715SOL     OW18043   0.542   6.496   1.227
 5715SOL    HW118044   0.574   6.454   1.312
 5715SOL    HW218045   0.538   6.428   1.155
 5716SOL     OW18046   1.157   5.086   6.359
 5716SOL    HW118047   1.066   5.080   6.319
 5716SOL    HW218048   1.225   5.056   6.292
 5717SOL     OW18049   2.294   5.061   2.600
 5717SOL    HW118050   2.335   5.080   2.690
 5717SOL    HW218051   2.206   5.108   2.593
 5718SOL     OW18052   0.820   2.696   0.225
 5718SOL    HW118053   0.906   2.681   0.176
 5718SOL    HW218054   0.785   2.787   0.203
 5719SOL     OW18055   2.778   3.078   1.266
 5719SOL    HW118056   2.706   3.137   1.227
 5719SOL    HW218057   2.754   2.982   1.251
 5720SOL     OW18058   2.025   5.816   5.577
 5720SOL    HW118059   2.058   5.784   5.488
 5720SOL    HW218060   2.082   5.891   5.608
 5721SOL     OW18061   5.604   4.412   1.082
 5721SOL    HW118062   5.622   4.400   0.985
 5721SOL    HW218063   5.685   4.452   1.126
 5722SOL     OW18064   0.532   1.472   5.236
 5722SOL    HW118065   0.564   1.555   5.191
 5722SOL    HW218066   0.445   1.444   5.196
 5723SOL     OW18067   3.835   3.193   6.857
 5723SOL    HW118068   3.909   3.141   6.901
 5723SOL    HW218069   3.761   3.130   6.832
 5724SOL     OW18070   6.337   3.068   3.590
 5724SOL    HW118071   6.240   3.075   3.566
 5724SOL    HW218072   6.366   2.972   3.585
 5725SOL     OW18073   6.152   5.252   2.897
 5725SOL    HW118074   6.145   5.339   2.848
 5725SOL    HW218075   6.088   5.252   2.973
 5726SOL     OW18076   5.341   4.049   3.494
 5726SOL    HW118077   5.410   4.028   3.564
 5726SOL    HW218078   5.283   3.969   3.480
 5727SOL     OW18079   0.352   2.625   4.744
 5727SOL    HW118080   0.408   2.545   4.766
 5727SOL    HW218081   0.405   2.688   4.687
 5728SOL     OW18082   4.948   5.769   5.614
 5728SOL    HW118083   4.890   5.757   5.533
 5728SOL    HW218084   5.008   5.690   5.623
 5729SOL     OW18085   2.213   2.095   6.281
 5729SOL    HW118086   2.131   2.096   6.225
 5729SOL    HW218087   2.246   2.189   6.293
 5730SOL     OW18088   0.092   4.195   5.756
 5730SOL    HW118089   7.016   4.208   5.725
 5730SOL    HW218090   0.094   4.123   5.825
 5731SOL     OW18091   6.721   0.032   1.426
 5731SOL    HW118092   6.809   7.012   1.396
 5731SOL    HW218093   6.738   0.109   1.488
 5732SOL     OW18094   1.311   6.172   4.042
 5732SOL    HW118095   1.247   6.142   3.971
 5732SOL    HW218096   1.293   6.121   4.126
 5733SOL     OW18097   4.246   6.784   5.215
 5733SOL    HW118098   4.248   6.685   5.200
 5733SOL    HW218099   4.225   6.830   5.129
 5734SOL     OW18100   1.704   6.182   4.836
 5734SOL    HW118101   1.800   6.153   4.834
 5734SOL    HW218102   1.644   6.102   4.842
 5735SOL     OW18103   3.099   1.861   1.661
 5735SOL    HW118104   3.014   1.849   1.712
 5735SOL    HW218105   3.176   1.868   1.725
 5736SOL     OW18106   0.733   5.050   0.344
 5736SOL    HW118107   0.819   5.099   0.357
 5736SOL    HW218108   0.749   4.952   0.359
 5737SOL     OW18109   5.454   6.013   6.261
 5737SOL    HW118110   5.403   5.936   6.223
 5737SOL    HW218111   5.397   6.061   6.328
 5738SOL     OW18112   1.945   3.348   6.643
 5738SOL    HW118113   2.033   3.373   6.683
 5738SOL    HW218114   1.903   3.430   6.603
 5739SOL     OW18115   1.531   1.090   0.740
 5739SOL    HW118116   1.561   1.085   0.836
 5739SOL    HW218117   1.529   0.997   0.702
 5740SOL     OW18118   4.396   5.874   6.846
 5740SOL    HW118119   4.473   5.875   6.909
 5740SOL    HW218120   4.312   5.856   6.897
 5741SOL     OW18121   6.364   5.662   4.888
 5741SOL    HW118122   6.405   5.746   4.851
 5741SOL    HW218123   6.421   5.584   4.864
 5742SOL     OW18124   6.322   6.567   2.344
 5742SOL    HW118125   6.350   6.480   2.304
 5742SOL    HW218126   6.259   6.551   2.420
 5743SOL     OW18127   2.752   0.012   4.965
 5743SOL    HW118128   2.777   0.002   4.869
 5743SOL    HW218129   2.726   6.941   5.001
 5744SOL     OW18130   5.643   1.510   0.280
 5744SOL    HW118131   5.607   1.481   0.191
 5744SOL    HW218132   5.615   1.445   0.350
 5745SOL     OW18133   1.700   1.686   4.442
 5745SOL    HW118134   1.746   1.663   4.528
 5745SOL    HW218135   1.703   1.607   4.381
 5746SOL     OW18136   4.982   1.899   6.945
 5746SOL    HW118137   5.007   1.909   0.022
 5746SOL    HW218138   4.914   1.968   6.921
 5747SOL     OW18139   0.192   5.491   2.956
 5747SOL    HW118140   0.192   5.462   2.861
 5747SOL    HW218141   0.144   5.424   3.012
 5748SOL     OW18142   2.162   4.963   1.950
 5748SOL    HW118143   2.094   4.905   1.905
 5748SOL    HW218144   2.199   5.028   1.884
 5749SOL     OW18145   2.079   1.922   3.432
 5749SOL    HW118146   2.026   1.912   3.516
 5749SOL    HW218147   2.167   1.964   3.454
 5750SOL     OW18148   6.432   5.042   4.580
 5750SOL    HW118149   6.426   4.973   4.653
 5750SOL    HW218150   6.370   5.016   4.505
 5751SOL     OW18151   2.048   3.339   5.557
 5751SOL    HW118152   1.955   3.369   5.579
 5751SOL    HW218153   2.067   3.357   5.461
 5752SOL     OW18154   6.711   6.473   5.953
 5752SOL    HW118155   6.731   6.568   5.929
 5752SOL    HW218156   6.692   6.466   6.051
 5753SOL     OW18157   3.339   3.035   6.817
 5753SOL    HW118158   3.422   3.008   6.866
 5753SOL    HW218159   3.262   3.038   6.880
 5754SOL     OW18160   5.547   5.581   1.915
 5754SOL    HW118161   5.604   5.500   1.925
 5754SOL    HW218162   5.517   5.589   1.819
 5755SOL     OW18163   3.362   3.836   6.941
 5755SOL    HW118164   3.413   3.795   7.016
 5755SOL    HW218165   3.405   3.810   6.854
 5756SOL     OW18166   6.970   5.104   3.427
 5756SOL    HW118167   0.049   5.116   3.408
 5756SOL    HW218168   6.959   5.071   3.521
 5757SOL     OW18169   6.258   5.354   1.220
 5757SOL    HW118170   6.187   5.285   1.208
 5757SOL    HW218171   6.263   5.380   1.316
 5758SOL     OW18172   1.967   2.238   5.113
 5758SOL    HW118173   1.930   2.325   5.080
 5758SOL    HW218174   2.063   2.232   5.088
 5759SOL     OW18175   5.221   1.375   6.244
 5759SOL    HW118176   5.211   1.417   6.154
 5759SOL    HW218177   5.142   1.396   6.300
 5760SOL     OW18178   1.410   5.026   2.301
 5760SOL    HW118179   1.472   4.950   2.320
 5760SOL    HW218180   1.346   5.038   2.377
 5761SOL     OW18181   4.651   6.438   5.000
 5761SOL    HW118182   4.588   6.510   5.028
 5761SOL    HW218183   4.603   6.373   4.940
 5762SOL     OW18184   5.681   6.519   1.583
 5762SOL    HW118185   5.622   6.600   1.589
 5762SOL    HW218186   5.771   6.541   1.622
 5763SOL     OW18187   1.564   0.343   0.945
 5763SOL    HW118188   1.658   0.378   0.941
 5763SOL    HW218189   1.551   0.274   0.873
 5764SOL     OW18190   5.764   4.311   5.211
 5764SOL    HW118191   5.762   4.334   5.113
 5764SOL    HW218192   5.857   4.286   5.237
 5765SOL     OW18193   6.132   4.502   0.124
 5765SOL    HW118194   6.046   4.453   0.111
 5765SOL    HW218195   6.189   4.453   0.191
 5766SOL     OW18196   3.189   1.868   2.081
 5766SOL    HW118197   3.218   1.868   2.176
 5766SOL    HW218198   3.116   1.936   2.069
 5767SOL     OW18199   0.098   6.699   0.838
 5767SOL    HW118200   0.146   6.639   0.901
 5767SOL    HW218201   0.029   6.647   0.787
 5768SOL     OW18202   6.414   1.148   3.113
 5768SOL    HW118203   6.410   1.234   3.061
 5768SOL    HW218204   6.361   1.078   3.066
 5769SOL     OW18205   2.737   6.408   3.897
 5769SOL    HW118206   2.753   6.492   3.948
 5769SOL    HW218207   2.742   6.427   3.799
 5770SOL     OW18208   6.329   0.393   1.336
 5770SOL    HW118209   6.290   0.472   1.288
 5770SOL    HW218210   6.272   0.313   1.318
 5771SOL     OW18211   1.440   0.660   1.488
 5771SOL    HW118212   1.514   0.725   1.477
 5771SOL    HW218213   1.377   0.666   1.410
 5772SOL     OW18214   5.970   3.265   0.880
 5772SOL    HW118215   5.961   3.356   0.918
 5772SOL    HW218216   5.969   3.197   0.954
 5773SOL     OW18217   5.456   6.500   4.114
 5773SOL    HW118218   5.383   6.568   4.125
 5773SOL    HW218219   5.526   6.536   4.053
 5774SOL     OW18220   1.976   5.151   3.959
 5774SOL    HW118221   2.055   5.130   4.016
 5774SOL    HW218222   2.002   5.217   3.888
 5775SOL     OW18223   6.989   6.805   6.285
 5775SOL    HW118224   0.005   6.826   6.377
 5775SOL    HW218225   0.036   6.746   6.238
 5776SOL     OW18226   4.766   0.239   5.808
 5776SOL    HW118227   4.676   0.266   5.843
 5776SOL    HW218228   4.831   0.236   5.884
 5777SOL     OW18229   0.153   1.388   4.037
 5777SOL    HW118230   0.234   1.410   4.092
 5777SOL    HW218231   0.133   1.290   4.045
 5778SOL     OW18232   1.313   6.856   3.157
 5778SOL    HW118233   1.275   6.930   3.101
 5778SOL    HW218234   1.346   6.893   3.243
 5779SOL     OW18235   4.019   1.169   1.476
 5779SOL    HW118236   3.973   1.145   1.391
 5779SOL    HW218237   4.098   1.227   1.456
 5780SOL     OW18238   0.112   4.056   1.452
 5780SOL    HW118239   0.041   4.115   1.414
 5780SOL    HW218240   0.194   4.063   1.395
 5781SOL     OW18241   2.127   5.077   5.107
 5781SOL    HW118242   2.067   5.052   5.030
 5781SOL    HW218243   2.162   4.994   5.150
 5782SOL     OW18244   2.333   0.923   1.626
 5782SOL    HW118245   2.288   0.953   1.541
 5782SOL    HW218246   2.264   0.884   1.687
 5783SOL     OW18247   1.342   0.165   0.981
 5783SOL    HW118248   1.348   0.178   1.080
 5783SOL    HW218249   1.420   0.209   0.937
 5784SOL     OW18250   0.557   6.191   0.209
 5784SOL    HW118251   0.458   6.181   0.216
 5784SOL    HW218252   0.597   6.106   0.176
 5785SOL     OW18253   2.112   1.674   0.139
 5785SOL    HW118254   2.060   1.588   0.142
 5785SOL    HW218255   2.181   1.668   0.066
 5786SOL     OW18256   1.614   3.483   1.731
 5786SOL    HW118257   1.704   3.455   1.766
 5786SOL    HW218258   1.558   3.515   1.807
 5787SOL     OW18259   5.847   2.413   4.966
 5787SOL    HW118260   5.946   2.398   4.974
 5787SOL    HW218261   5.798   2.332   4.998
 5788SOL     OW18262   2.785   1.265   2.225
 5788SOL    HW118263   2.754   1.290   2.133
 5788SOL    HW218264   2.721   1.301   2.293
 5789SOL     OW18265   4.325   4.082   6.792
 5789SOL    HW118266   4.400   4.145   6.772
 5789SOL    HW218267   4.266   4.074   6.712
 5790SOL     OW18268   5.494   5.722   4.507
 5790SOL    HW118269   5.494   5.685   4.414
 5790SOL    HW218270   5.448   5.811   4.508
 5791SOL     OW18271   3.868   1.058   2.636
 5791SOL    HW118272   3.891   1.071   2.539
 5791SOL    HW218273   3.886   1.143   2.686
 5792SOL     OW18274   5.146   3.884   3.174
 5792SOL    HW118275   5.200   3.803   3.150
 5792SOL    HW218276   5.152   3.951   3.099
 5793SOL     OW18277   4.970   2.155   5.277
 5793SOL    HW118278   5.024   2.236   5.255
 5793SOL    HW218279   4.881   2.182   5.315
 5794SOL     OW18280   3.633   6.655   6.302
 5794SOL    HW118281   3.548   6.626   6.259
 5794SOL    HW218282   3.652   6.750   6.276
 5795SOL     OW18283   1.244   5.748   1.727
 5795SOL    HW118284   1.208   5.817   1.791
 5795SOL    HW218285   1.307   5.688   1.776
 5796SOL     OW18286   4.274   2.159   0.069
 5796SOL    HW118287   4.245   2.081   0.013
 5796SOL    HW218288   4.283   2.130   0.164
 5797SOL     OW18289   5.120   2.440   0.356
 5797SOL    HW118290   5.040   2.424   0.298
 5797SOL    HW218291   5.128   2.538   0.376
 5798SOL     OW18292   1.488   4.262   5.761
 5798SOL    HW118293   1.415   4.296   5.703
 5798SOL    HW218294   1.458   4.261   5.856
 5799SOL     OW18295   1.590   6.629   2.941
 5799SOL    HW118296   1.619   6.725   2.940
 5799SOL    HW218297   1.647   6.577   3.005
 5800SOL     OW18298   0.578   6.322   0.647
 5800SOL    HW118299   0.612   6.269   0.569
 5800SOL    HW218300   0.603   6.278   0.732
 5801SOL     OW18301   2.099   1.928   2.510
 5801SOL    HW118302   2.055   1.966   2.428
 5801SOL    HW218303   2.093   1.994   2.585
 5802SOL     OW18304   0.016   1.258   2.136
 5802SOL    HW118305   6.958   1.312   2.171
 5802SOL    HW218306   7.012   1.160   2.142
 5803SOL     OW18307   0.900   5.070   3.900
 5803SOL    HW118308   0.833   5.142   3.880
 5803SOL    HW218309   0.886   4.994   3.837
 5804SOL     OW18310   6.470   0.541   3.514
 5804SOL    HW118311   6.405   0.482   3.466
 5804SOL    HW218312   6.475   0.629   3.468
 5805SOL     OW18313   2.354   2.954   1.186
 5805SOL    HW118314   2.255   2.943   1.186
 5805SOL    HW218315   2.378   3.040   1.231
 5806SOL     OW18316   0.350   3.459   3.089
 5806SOL    HW118317   0.437   3.507   3.077
 5806SOL    HW218318   0.291   3.475   3.010
 5807SOL     OW18319   0.937   0.034   0.885
 5807SOL    HW118320   0.879   0.043   0.804
 5807SOL    HW218321   0.893   6.991   0.950
 5808SOL     OW18322   5.952   0.533   5.004
 5808SOL    HW118323   5.890   0.532   5.082
 5808SOL    HW218324   5.899   0.522   4.920
 5809SOL     OW18325   0.334   2.093   5.872
 5809SOL    HW118326   0.360   2.144   5.954
 5809SOL    HW218327   0.288   2.008   5.898
 5810SOL     OW18328   4.008   0.205   5.261
 5810SOL    HW118329   4.057   0.153   5.332
 5810SOL    HW218330   4.074   0.244   5.197
 5811SOL     OW18331   3.115   3.678   5.974
 5811SOL    HW118332   3.192   3.677   6.039
 5811SOL    HW218333   3.110   3.768   5.931
 5812SOL     OW18334   5.548   2.597   0.787
 5812SOL    HW118335   5.453   2.569   0.777
 5812SOL    HW218336   5.583   2.627   0.699
 5813SOL     OW18337   4.521   6.347   1.385
 5813SOL    HW118338   4.461   6.379   1.459
 5813SOL    HW218339   4.594   6.414   1.371
 5814SOL     OW18340   5.638   1.756   1.941
 5814SOL    HW118341   5.671   1.850   1.951
 5814SOL    HW218342   5.544   1.750   1.973
 5815SOL     OW18343   6.631   1.920   3.829
 5815SOL    HW118344   6.709   1.866   3.860
 5815SOL    HW218345   6.573   1.863   3.770
 5816SOL     OW18346   6.853   4.035   2.784
 5816SOL    HW118347   6.931   3.993   2.738
 5816SOL    HW218348   6.862   4.023   2.883
 5817SOL     OW18349   5.873   4.196   3.360
 5817SOL    HW118350   5.820   4.207   3.277
 5817SOL    HW218351   5.814   4.207   3.440
 5818SOL     OW18352   1.987   0.421   5.705
 5818SOL    HW118353   1.912   0.369   5.746
 5818SOL    HW218354   2.067   0.417   5.765
 5819SOL     OW18355   4.221   5.002   0.373
 5819SOL    HW118356   4.317   4.976   0.368
 5819SOL    HW218357   4.208   5.091   0.329
 5820SOL     OW18358   5.997   5.014   2.309
 5820SOL    HW118359   6.090   5.017   2.346
 5820SOL    HW218360   5.984   5.088   2.244
 5821SOL     OW18361   6.372   0.944   1.299
 5821SOL    HW118362   6.421   0.918   1.217
 5821SOL    HW218363   6.395   0.881   1.374
 5822SOL     OW18364   2.001   2.951   2.408
 5822SOL    HW118365   2.067   3.018   2.373
 5822SOL    HW218366   1.950   2.911   2.332
 5823SOL     OW18367   1.871   6.650   4.166
 5823SOL    HW118368   1.947   6.596   4.130
 5823SOL    HW218369   1.812   6.680   4.091
 5824SOL     OW18370   0.361   6.818   1.649
 5824SOL    HW118371   0.432   6.805   1.580
 5824SOL    HW218372   0.365   6.911   1.685
 5825SOL     OW18373   6.036   0.558   4.620
 5825SOL    HW118374   6.111   0.607   4.664
 5825SOL    HW218375   5.985   0.620   4.560
 5826SOL     OW18376   0.717   6.802   4.901
 5826SOL    HW118377   0.814   6.792   4.921
 5826SOL    HW218378   0.699   6.892   4.861
 5827SOL     OW18379   2.077   4.598   5.255
 5827SOL    HW118380   2.045   4.648   5.335
 5827SOL    HW218381   2.010   4.608   5.181
 5828SOL     OW18382   4.220   6.775   4.470
 5828SOL    HW118383   4.240   6.863   4.427
 5828SOL    HW218384   4.129   6.745   4.442
 5829SOL     OW18385   2.932   1.050   3.864
 5829SOL    HW118386   3.021   1.043   3.818
 5829SOL    HW218387   2.888   1.136   3.837
 5830SOL     OW18388   3.594   5.585   4.628
 5830SOL    HW118389   3.504   5.545   4.610
 5830SOL    HW218390   3.614   5.654   4.559
 5831SOL     OW18391   1.718   1.756   5.210
 5831SOL    HW118392   1.730   1.803   5.298
 5831SOL    HW218393   1.670   1.815   5.146
 5832SOL     OW18394   2.363   5.224   1.048
 5832SOL    HW118395   2.348   5.303   0.988
 5832SOL    HW218396   2.433   5.165   1.007
 5833SOL     OW18397   4.626   3.506   6.438
 5833SOL    HW118398   4.620   3.591   6.492
 5833SOL    HW218399   4.573   3.517   6.354
 5834SOL     OW18400   5.518   3.895   6.553
 5834SOL    HW118401   5.576   3.831   6.602
 5834SOL    HW218402   5.541   3.989   6.581
 5835SOL     OW18403   5.454   1.009   2.371
 5835SOL    HW118404   5.421   0.931   2.318
 5835SOL    HW218405   5.545   0.989   2.407
 5836SOL     OW18406   3.949   0.065   2.263
 5836SOL    HW118407   3.974   6.989   2.281
 5836SOL    HW218408   3.972   0.121   2.343
 5837SOL     OW18409   3.107   4.332   6.810
 5837SOL    HW118410   3.099   4.247   6.861
 5837SOL    HW218411   3.186   4.327   6.749
 5838SOL     OW18412   3.413   1.853   0.277
 5838SOL    HW118413   3.401   1.806   0.189
 5838SOL    HW218414   3.485   1.921   0.268
 5839SOL     OW18415   1.543   1.921   0.752
 5839SOL    HW118416   1.565   1.823   0.746
 5839SOL    HW218417   1.605   1.972   0.693
 5840SOL     OW18418   1.202   3.245   3.272
 5840SOL    HW118419   1.154   3.333   3.266
 5840SOL    HW218420   1.278   3.244   3.206
 5841SOL     OW18421   5.259   2.229   0.714
 5841SOL    HW118422   5.284   2.205   0.808
 5841SOL    HW218423   5.159   2.232   0.705
 5842SOL     OW18424   2.943   1.756   0.751
 5842SOL    HW118425   2.985   1.847   0.742
 5842SOL    HW218426   2.931   1.716   0.660
 5843SOL     OW18427   2.004   3.156   1.455
 5843SOL    HW118428   2.008   3.221   1.530
 5843SOL    HW218429   2.033   3.200   1.370
 5844SOL     OW18430   0.853   0.420   4.841
 5844SOL    HW118431   0.897   0.465   4.763
 5844SOL    HW218432   0.865   0.321   4.832
 5845SOL     OW18433   1.127   6.148   1.854
 5845SOL    HW118434   1.101   6.152   1.757
 5845SOL    HW218435   1.187   6.070   1.869
 5846SOL     OW18436   6.475   4.150   6.114
 5846SOL    HW118437   6.533   4.075   6.084
 5846SOL    HW218438   6.383   4.115   6.135
 5847SOL     OW18439   3.011   3.431   0.777
 5847SOL    HW118440   2.938   3.468   0.834
 5847SOL    HW218441   2.974   3.358   0.720
 5848SOL     OW18442   2.583   5.106   3.119
 5848SOL    HW118443   2.661   5.148   3.166
 5848SOL    HW218444   2.541   5.174   3.059
 5849SOL     OW18445   2.723   6.397   5.496
 5849SOL    HW118446   2.643   6.408   5.438
 5849SOL    HW218447   2.801   6.444   5.454
 5850SOL     OW18448   0.760   1.765   2.151
 5850SOL    HW118449   0.671   1.742   2.111
 5850SOL    HW218450   0.800   1.842   2.102
 5851SOL     OW18451   6.207   3.530   4.799
 5851SOL    HW118452   6.283   3.498   4.743
 5851SOL    HW218453   6.240   3.551   4.891
 5852SOL     OW18454   5.112   4.870   2.946
 5852SOL    HW118455   5.021   4.886   2.907
 5852SOL    HW218456   5.180   4.872   2.873
 5853SOL     OW18457   3.485   4.488   5.384
 5853SOL    HW118458   3.450   4.575   5.349
 5853SOL    HW218459   3.585   4.492   5.389
 5854SOL     OW18460   3.036   5.130   6.018
 5854SOL    HW118461   3.034   5.154   6.115
 5854SOL    HW218462   3.052   5.031   6.009
 5855SOL     OW18463   2.275   2.887   3.834
 5855SOL    HW118464   2.188   2.866   3.790
 5855SOL    HW218465   2.305   2.809   3.888
 5856SOL     OW18466   1.637   6.631   3.313
 5856SOL    HW118467   1.638   6.651   3.411
 5856SOL    HW218468   1.684   6.545   3.295
 5857SOL     OW18469   6.874   4.148   6.505
 5857SOL    HW118470   6.809   4.129   6.431
 5857SOL    HW218471   6.962   4.175   6.467
 5858SOL     OW18472   2.247   0.655   3.761
 5858SOL    HW118473   2.171   0.717   3.781
 5858SOL    HW218474   2.269   0.601   3.842
 5859SOL     OW18475   5.845   6.975   2.137
 5859SOL    HW118476   5.890   7.010   2.220
 5859SOL    HW218477   5.888   7.016   2.057
 5860SOL     OW18478   0.170   2.858   3.969
 5860SOL    HW118479   0.092   2.832   3.911
 5860SOL    HW218480   0.255   2.839   3.920
 5861SOL     OW18481   4.661   0.808   4.963
 5861SOL    HW118482   4.651   0.904   4.991
 5861SOL    HW218483   4.571   0.763   4.969
 5862SOL     OW18484   6.709   5.138   3.425
 5862SOL    HW118485   6.661   5.069   3.478
 5862SOL    HW218486   6.808   5.121   3.431
 5863SOL     OW18487   3.864   6.978   5.595
 5863SOL    HW118488   3.771   6.958   5.565
 5863SOL    HW218489   3.929   6.939   5.530
 5864SOL     OW18490   2.939   3.766   2.510
 5864SOL    HW118491   2.950   3.770   2.411
 5864SOL    HW218492   2.973   3.850   2.551
 5865SOL     OW18493   6.072   0.787   5.699
 5865SOL    HW118494   6.166   0.819   5.687
 5865SOL    HW218495   6.039   0.747   5.613
 5866SOL     OW18496   3.696   3.213   2.583
 5866SOL    HW118497   3.733   3.129   2.623
 5866SOL    HW218498   3.605   3.194   2.546
 5867SOL     OW18499   3.084   2.107   1.531
 5867SOL    HW118500   3.088   2.180   1.599
 5867SOL    HW218501   3.119   2.022   1.570
 5868SOL     OW18502   1.124   1.022   6.547
 5868SOL    HW118503   1.044   0.962   6.546
 5868SOL    HW218504   1.179   1.007   6.465
 5869SOL     OW18505   1.392   4.909   4.150
 5869SOL    HW118506   1.412   5.006   4.162
 5869SOL    HW218507   1.451   4.872   4.077
 5870SOL     OW18508   4.460   4.574   4.751
 5870SOL    HW118509   4.554   4.542   4.745
 5870SOL    HW218510   4.421   4.547   4.839
 5871SOL     OW18511   3.295   3.217   3.383
 5871SOL    HW118512   3.335   3.303   3.353
 5871SOL    HW218513   3.207   3.203   3.337
 5872SOL     OW18514   3.556   5.907   2.038
 5872SOL    HW118515   3.514   5.904   2.129
 5872SOL    HW218516   3.614   5.988   2.031
 5873SOL     OW18517   4.205   4.751   2.388
 5873SOL    HW118518   4.294   4.784   2.357
 5873SOL    HW218519   4.134   4.816   2.359
 5874SOL     OW18520   3.177   5.021   5.689
 5874SOL    HW118521   3.146   5.024   5.784
 5874SOL    HW218522   3.251   5.087   5.676
 5875SOL     OW18523   2.722   1.037   0.625
 5875SOL    HW118524   2.739   1.087   0.710
 5875SOL    HW218525   2.633   0.991   0.631
 5876SOL     OW18526   3.755   3.404   2.172
 5876SOL    HW118527   3.699   3.324   2.191
 5876SOL    HW218528   3.833   3.377   2.116
 5877SOL     OW18529   5.738   4.781   1.128
 5877SOL    HW118530   5.779   4.690   1.135
 5877SOL    HW218531   5.678   4.796   1.206
 5878SOL     OW18532   2.383   4.725   2.227
 5878SOL    HW118533   2.327   4.792   2.275
 5878SOL    HW218534   2.328   4.644   2.205
 5879SOL     OW18535   0.219   3.985   6.655
 5879SOL    HW118536   0.136   4.034   6.680
 5879SOL    HW218537   0.216   3.960   6.559
 5880SOL     OW18538   2.646   6.218   1.080
 5880SOL    HW118539   2.616   6.176   1.166
 5880SOL    HW218540   2.737   6.186   1.057
 5881SOL     OW18541   0.245   5.100   4.009
 5881SOL    HW118542   0.235   5.199   3.999
 5881SOL    HW218543   0.335   5.080   4.047
 5882SOL     OW18544   4.583   0.780   1.658
 5882SOL    HW118545   4.619   0.834   1.582
 5882SOL    HW218546   4.561   0.840   1.735
 5883SOL     OW18547   7.006   3.027   0.054
 5883SOL    HW118548   6.981   2.945   0.004
 5883SOL    HW218549   6.998   3.107   7.013
 5884SOL     OW18550   0.818   1.426   2.733
 5884SOL    HW118551   0.768   1.432   2.646
 5884SOL    HW218552   0.757   1.450   2.808
 5885SOL     OW18553   6.112   6.153   1.176
 5885SOL    HW118554   6.130   6.190   1.086
 5885SOL    HW218555   6.153   6.211   1.246
 5886SOL     OW18556   0.378   1.944   5.363
 5886SOL    HW118557   0.440   1.928   5.439
 5886SOL    HW218558   0.291   1.978   5.398
 5887SOL     OW18559   3.208   1.033   4.213
 5887SOL    HW118560   3.131   1.094   4.226
 5887SOL    HW218561   3.286   1.084   4.178
 5888SOL     OW18562   1.984   6.356   3.455
 5888SOL    HW118563   2.038   6.432   3.493
 5888SOL    HW218564   1.932   6.313   3.528
 5889SOL     OW18565   2.327   0.198   1.333
 5889SOL    HW118566   2.283   0.233   1.250
 5889SOL    HW218567   2.410   0.250   1.351
 5890SOL     OW18568   2.142   5.444   5.465
 5890SOL    HW118569   2.242   5.448   5.468
 5890SOL    HW218570   2.114   5.356   5.428
 5891SOL     OW18571   3.629   2.846   0.303
 5891SOL    HW118572   3.563   2.796   0.359
 5891SOL    HW218573   3.715   2.795   0.299
 5892SOL     OW18574   0.297   6.233   1.394
 5892SOL    HW118575   0.393   6.255   1.406
 5892SOL    HW218576   0.265   6.178   1.471
 5893SOL     OW18577   1.177   1.705   3.916
 5893SOL    HW118578   1.095   1.749   3.879
 5893SOL    HW218579   1.240   1.774   3.950
 5894SOL     OW18580   1.347   3.617   3.200
 5894SOL    HW118581   1.398   3.574   3.275
 5894SOL    HW218582   1.249   3.609   3.217
 5895SOL     OW18583   5.608   3.428   4.255
 5895SOL    HW118584   5.595   3.337   4.216
 5895SOL    HW218585   5.702   3.458   4.240
 5896SOL     OW18586   4.005   1.772   0.362
 5896SOL    HW118587   4.083   1.708   0.362
 5896SOL    HW218588   3.925   1.726   0.400
 5897SOL     OW18589   3.752   0.475   0.870
 5897SOL    HW118590   3.661   0.478   0.828
 5897SOL    HW218591   3.782   0.568   0.891
 5898SOL     OW18592   1.759   0.005   2.679
 5898SOL    HW118593   1.796   6.945   2.630
 5898SOL    HW218594   1.807   0.088   2.650
 5899SOL     OW18595   5.895   6.578   4.518
 5899SOL    HW118596   5.819   6.638   4.542
 5899SOL    HW218597   5.860   6.488   4.492
 5900SOL     OW18598   4.941   4.756   3.323
 5900SOL    HW118599   4.896   4.835   3.282
 5900SOL    HW218600   4.909   4.744   3.416
 5901SOL     OW18601   2.457   6.537   6.867
 5901SOL    HW118602   2.407   6.546   6.781
 5901SOL    HW218603   2.475   6.441   6.886
 5902SOL     OW18604   6.820   2.595   0.241
 5902SOL    HW118605   6.733   2.644   0.229
 5902SOL    HW218606   6.840   2.588   0.339
 5903SOL     OW18607   5.767   3.788   6.927
 5903SOL    HW118608   5.691   3.818   6.985
 5903SOL    HW218609   5.816   3.869   6.893
 5904SOL     OW18610   0.095   3.830   2.190
 5904SOL    HW118611   0.124   3.922   2.166
 5904SOL    HW218612   0.070   3.779   2.107
 5905SOL     OW18613   6.842   6.593   2.301
 5905SOL    HW118614   6.810   6.599   2.395
 5905SOL    HW218615   6.834   6.498   2.269
 5906SOL     OW18616   5.976   1.351   3.529
 5906SOL    HW118617   6.072   1.346   3.557
 5906SOL    HW218618   5.961   1.436   3.478
 5907SOL     OW18619   0.181   6.058   1.656
 5907SOL    HW118620   0.270   6.087   1.692
 5907SOL    HW218621   0.110   6.123   1.685
 5908SOL     OW18622   0.532   2.609   4.976
 5908SOL    HW118623   0.601   2.612   4.904
 5908SOL    HW218624   0.573   2.571   5.060
 5909SOL     OW18625   0.247   6.148   0.562
 5909SOL    HW118626   0.310   6.192   0.498
 5909SOL    HW218627   0.179   6.096   0.511
 5910SOL     OW18628   1.401   2.143   3.526
 5910SOL    HW118629   1.425   2.180   3.437
 5910SOL    HW218630   1.400   2.043   3.521
 5911SOL     OW18631   6.606   5.468   6.944
 5911SOL    HW118632   6.619   5.481   6.846
 5911SOL    HW218633   6.566   5.378   6.961
 5912SOL     OW18634   6.502   2.010   4.637
 5912SOL    HW118635   6.558   2.024   4.718
 5912SOL    HW218636   6.556   2.025   4.555
 5913SOL     OW18637   5.601   2.624   0.255
 5913SOL    HW118638   5.511   2.631   0.212
 5913SOL    HW218639   5.589   2.617   0.354
 5914SOL     OW18640   0.750   6.292   6.435
 5914SOL    HW118641   0.849   6.279   6.430
 5914SOL    HW218642   0.704   6.217   6.386
 5915SOL     OW18643   3.507   0.162   6.678
 5915SOL    HW118644   3.447   0.129   6.605
 5915SOL    HW218645   3.521   0.260   6.668
 5916SOL     OW18646   1.601   6.705   2.381
 5916SOL    HW118647   1.689   6.659   2.381
 5916SOL    HW218648   1.591   6.757   2.296
 5917SOL     OW18649   3.070   4.134   0.012
 5917SOL    HW118650   3.019   4.084   6.961
 5917SOL    HW218651   3.168   4.113   0.003
 5918SOL     OW18652   2.968   6.545   6.011
 5918SOL    HW118653   2.934   6.568   5.920
 5918SOL    HW218654   2.906   6.480   6.055
 5919SOL     OW18655   3.922   2.998   3.355
 5919SOL    HW118656   3.967   3.087   3.345
 5919SOL    HW218657   3.934   2.945   3.271
 5920SOL     OW18658   6.576   0.115   5.904
 5920SOL    HW118659   6.592   0.157   5.993
 5920SOL    HW218660   6.600   0.180   5.831
 5921SOL     OW18661   3.207   4.596   6.478
 5921SOL    HW118662   3.201   4.497   6.492
 5921SOL    HW218663   3.117   4.637   6.492
 5922SOL     OW18664   6.031   3.684   3.010
 5922SOL    HW118665   6.120   3.640   2.996
 5922SOL    HW218666   5.999   3.665   3.103
 5923SOL     OW18667   6.547   1.240   1.406
 5923SOL    HW118668   6.626   1.201   1.454
 5923SOL    HW218669   6.500   1.168   1.355
 5924SOL     OW18670   5.983   0.109   2.662
 5924SOL    HW118671   5.912   0.153   2.606
 5924SOL    HW218672   6.047   0.179   2.695
 5925SOL     OW18673   4.661   5.503   1.047
 5925SOL    HW118674   4.745   5.553   1.067
 5925SOL    HW218675   4.622   5.469   1.133
 5926SOL     OW18676   4.030   4.829   2.746
 5926SOL    HW118677   4.093   4.906   2.757
 5926SOL    HW218678   4.082   4.747   2.721
 5927SOL     OW18679   1.308   3.856   1.500
 5927SOL    HW118680   1.209   3.851   1.482
 5927SOL    HW218681   1.341   3.947   1.475
 5928SOL     OW18682   3.931   0.227   1.005
 5928SOL    HW118683   3.961   0.139   1.044
 5928SOL    HW218684   3.981   0.245   0.921
 5929SOL     OW18685   7.001   0.838   5.759
 5929SOL    HW118686   6.967   0.853   5.852
 5929SOL    HW218687   6.929   0.862   5.693
 5930SOL     OW18688   1.825   3.786   1.942
 5930SOL    HW118689   1.877   3.707   1.975
 5930SOL    HW218690   1.881   3.869   1.952
 5931SOL     OW18691   5.907   6.000   3.059
 5931SOL    HW118692   5.928   6.034   2.968
 5931SOL    HW218693   5.863   6.072   3.113
 5932SOL     OW18694   2.745   0.538   6.294
 5932SOL    HW118695   2.671   0.483   6.334
 5932SOL    HW218696   2.820   0.545   6.360
 5933SOL     OW18697   6.472   5.199   4.332
 5933SOL    HW118698   6.512   5.176   4.244
 5933SOL    HW218699   6.539   5.179   4.405
 5934SOL     OW18700   3.338   3.617   5.689
 5934SOL    HW118701   3.429   3.578   5.693
 5934SOL    HW218702   3.271   3.548   5.717
 5935SOL     OW18703   0.679   5.950   4.805
 5935SOL    HW118704   0.716   5.968   4.714
 5935SOL    HW218705   0.584   5.981   4.809
 5936SOL     OW18706   3.560   3.200   3.535
 5936SOL    HW118707   3.602   3.124   3.486
 5936SOL    HW218708   3.492   3.244   3.476
 5937SOL     OW18709   0.116   3.117   1.984
 5937SOL    HW118710   0.092   3.212   2.005
 5937SOL    HW218711   0.210   3.099   2.013
 5938SOL     OW18712   6.301   4.804   5.070
 5938SOL    HW118713   6.389   4.853   5.067
 5938SOL    HW218714   6.317   4.706   5.060
 5939SOL     OW18715   3.688   6.854   4.612
 5939SOL    HW118716   3.687   6.802   4.526
 5939SOL    HW218717   3.599   6.899   4.624
 5940SOL     OW18718   5.059   5.723   2.698
 5940SOL    HW118719   5.000   5.801   2.674
 5940SOL    HW218720   5.077   5.668   2.617
 5941SOL     OW18721   6.543   2.217   1.750
 5941SOL    HW118722   6.510   2.123   1.760
 5941SOL    HW218723   6.527   2.268   1.834
 5942SOL     OW18724   6.304   3.596   6.299
 5942SOL    HW118725   6.391   3.621   6.257
 5942SOL    HW218726   6.283   3.501   6.277
 5943SOL     OW18727   3.968   3.646   0.810
 5943SOL    HW118728   3.975   3.600   0.899
 5943SOL    HW218729   3.902   3.721   0.817
 5944SOL     OW18730   0.850   3.360   6.558
 5944SOL    HW118731   0.778   3.325   6.498
 5944SOL    HW218732   0.938   3.357   6.509
 5945SOL     OW18733   0.829   5.519   5.441
 5945SOL    HW118734   0.788   5.434   5.405
 5945SOL    HW218735   0.803   5.530   5.537
 5946SOL     OW18736   3.770   4.702   7.005
 5946SOL    HW118737   3.790   4.702   0.084
 5946SOL    HW218738   3.763   4.797   6.972
 5947SOL     OW18739   2.934   3.228   4.739
 5947SOL    HW118740   2.854   3.180   4.775
 5947SOL    HW218741   3.018   3.187   4.776
 5948SOL     OW18742   5.185   3.638   2.384
 5948SOL    HW118743   5.088   3.628   2.364
 5948SOL    HW218744   5.238   3.634   2.299
 5949SOL     OW18745   6.255   5.891   1.172
 5949SOL    HW118746   6.201   5.972   1.147
 5949SOL    HW218747   6.194   5.820   1.207
 5950SOL     OW18748   5.465   2.618   5.645
 5950SOL    HW118749   5.419   2.666   5.570
 5950SOL    HW218750   5.410   2.627   5.728
 5951SOL     OW18751   0.824   4.345   5.630
 5951SOL    HW118752   0.924   4.346   5.636
 5951SOL    HW218753   0.793   4.252   5.607
 5952SOL     OW18754   3.989   4.994   1.646
 5952SOL    HW118755   3.909   5.052   1.664
 5952SOL    HW218756   4.051   4.998   1.725
 5953SOL     OW18757   5.907   2.370   5.395
 5953SOL    HW118758   5.989   2.372   5.454
 5953SOL    HW218759   5.827   2.347   5.450
 5954SOL     OW18760   0.763   6.148   4.580
 5954SOL    HW118761   0.847   6.106   4.545
 5954SOL    HW218762   0.780   6.244   4.602
 5955SOL     OW18763   5.292   4.267   1.311
 5955SOL    HW118764   5.287   4.340   1.242
 5955SOL    HW218765   5.202   4.255   1.353
 5956SOL     OW18766   4.964   2.673   4.491
 5956SOL    HW118767   5.000   2.598   4.546
 5956SOL    HW218768   4.865   2.662   4.480
 5957SOL     OW18769   0.961   1.219   2.950
 5957SOL    HW118770   0.964   1.315   2.922
 5957SOL    HW218771   1.053   1.181   2.945
 5958SOL     OW18772   4.157   6.959   2.736
 5958SOL    HW118773   4.202   6.879   2.697
 5958SOL    HW218774   4.192   0.023   2.691
 5959SOL     OW18775   4.833   2.278   4.998
 5959SOL    HW118776   4.837   2.190   5.046
 5959SOL    HW218777   4.776   2.341   5.051
 5960SOL     OW18778   3.706   6.724   5.503
 5960SOL    HW118779   3.608   6.743   5.495
 5960SOL    HW218780   3.735   6.740   5.598
 5961SOL     OW18781   3.575   1.663   2.543
 5961SOL    HW118782   3.478   1.660   2.567
 5961SOL    HW218783   3.603   1.758   2.528
 5962SOL     OW18784   5.265   6.485   0.027
 5962SOL    HW118785   5.325   6.565   0.022
 5962SOL    HW218786   5.170   6.515   0.030
 5963SOL     OW18787   3.768   4.882   6.655
 5963SOL    HW118788   3.845   4.874   6.593
 5963SOL    HW218789   3.687   4.912   6.605
 5964SOL     OW18790   2.008   6.393   2.595
 5964SOL    HW118791   1.997   6.400   2.694
 5964SOL    HW218792   2.056   6.308   2.572
 5965SOL     OW18793   1.664   6.878   6.889
 5965SOL    HW118794   1.748   6.854   6.937
 5965SOL    HW218795   1.655   6.978   6.886
 5966SOL     OW18796   2.347   0.500   5.312
 5966SOL    HW118797   2.439   0.531   5.288
 5966SOL    HW218798   2.300   0.572   5.364
 5967SOL     OW18799   2.380   1.909   4.750
 5967SOL    HW118800   2.430   1.995   4.744
 5967SOL    HW218801   2.413   1.845   4.681
 5968SOL     OW18802   5.575   2.272   0.331
 5968SOL    HW118803   5.623   2.308   0.250
 5968SOL    HW218804   5.513   2.342   0.367
 5969SOL     OW18805   5.164   1.114   6.682
 5969SOL    HW118806   5.130   1.030   6.725
 5969SOL    HW218807   5.124   1.194   6.727
 5970SOL     OW18808   0.911   2.911   0.553
 5970SOL    HW118809   0.828   2.856   0.539
 5970SOL    HW218810   0.912   2.986   0.486
 5971SOL     OW18811   6.272   6.977   3.237
 5971SOL    HW118812   6.186   6.989   3.188
 5971SOL    HW218813   6.279   6.883   3.269
 5972SOL     OW18814   5.099   5.260   0.632
 5972SOL    HW118815   5.154   5.297   0.707
 5972SOL    HW218816   5.124   5.165   0.615
 5973SOL     OW18817   1.889   3.087   2.608
 5973SOL    HW118818   1.926   3.034   2.531
 5973SOL    HW218819   1.855   3.175   2.574
 5974SOL     OW18820   3.756   0.961   6.731
 5974SOL    HW118821   3.730   0.927   6.640
 5974SOL    HW218822   3.826   0.902   6.770
 5975SOL     OW18823   5.421   4.166   0.234
 5975SOL    HW118824   5.340   4.106   0.238
 5975SOL    HW218825   5.442   4.199   0.326
 5976SOL     OW18826   3.612   3.543   5.775
 5976SOL    HW118827   3.682   3.480   5.742
 5976SOL    HW218828   3.630   3.568   5.870
 5977SOL     OW18829   0.243   5.123   0.513
 5977SOL    HW118830   0.151   5.132   0.474
 5977SOL    HW218831   0.305   5.185   0.466
 5978SOL     OW18832   3.352   5.429   6.629
 5978SOL    HW118833   3.391   5.408   6.719
 5978SOL    HW218834   3.426   5.444   6.564
 5979SOL     OW18835   6.422   0.551   1.623
 5979SOL    HW118836   6.451   0.601   1.542
 5979SOL    HW218837   6.459   0.596   1.705
 5980SOL     OW18838   3.636   2.861   1.857
 5980SOL    HW118839   3.731   2.882   1.836
 5980SOL    HW218840   3.576   2.909   1.792
 5981SOL     OW18841   4.649   2.737   0.586
 5981SOL    HW118842   4.611   2.721   0.494
 5981SOL    HW218843   4.575   2.738   0.653
 5982SOL     OW18844   6.099   1.912   2.526
 5982SOL    HW118845   6.159   1.836   2.547
 5982SOL    HW218846   6.055   1.944   2.610
 5983SOL     OW18847   6.847   0.991   4.503
 5983SOL    HW118848   6.921   0.974   4.568
 5983SOL    HW218849   6.862   1.079   4.457
 5984SOL     OW18850   6.271   6.716   3.362
 5984SOL    HW118851   6.277   6.628   3.316
 5984SOL    HW218852   6.328   6.715   3.445
 5985SOL     OW18853   5.990   2.070   3.281
 5985SOL    HW118854   6.037   2.156   3.260
 5985SOL    HW218855   5.989   2.056   3.380
 5986SOL     OW18856   4.386   3.882   5.344
 5986SOL    HW118857   4.325   3.861   5.420
 5986SOL    HW218858   4.344   3.853   5.258
 5987SOL     OW18859   6.590   0.590   4.583
 5987SOL    HW118860   6.528   0.547   4.649
 5987SOL    HW218861   6.655   0.648   4.631
 5988SOL     OW18862   2.728   1.563   6.972
 5988SOL    HW118863   2.792   1.613   6.914
 5988SOL    HW218864   2.705   1.618   0.033
 5989SOL     OW18865   0.653   6.118   6.749
 5989SOL    HW118866   0.645   6.199   6.691
 5989SOL    HW218867   0.606   6.133   6.836
 5990SOL     OW18868   3.606   4.447   1.691
 5990SOL    HW118869   3.704   4.430   1.690
 5990SOL    HW218870   3.589   4.543   1.715
 5991SOL     OW18871   5.064   5.986   1.314
 5991SOL    HW118872   5.139   5.979   1.247
 5991SOL    HW218873   5.050   6.082   1.338
 5992SOL     OW18874   3.037   0.051   1.640
 5992SOL    HW118875   3.045   7.000   1.569
 5992SOL    HW218876   2.941   0.060   1.667
 5993SOL     OW18877   6.319   2.840   0.511
 5993SOL    HW118878   6.412   2.875   0.502
 5993SOL    HW218879   6.294   2.835   0.608
 5994SOL     OW18880   0.063   2.917   1.044
 5994SOL    HW118881   0.064   2.831   1.095
 5994SOL    HW218882   0.142   2.922   0.984
 5995SOL     OW18883   4.886   3.558   1.607
 5995SOL    HW118884   4.959   3.614   1.568
 5995SOL    HW218885   4.822   3.617   1.655
 5996SOL     OW18886   2.627   5.607   1.428
 5996SOL    HW118887   2.646   5.705   1.437
 5996SOL    HW218888   2.618   5.584   1.331
 5997SOL     OW18889   6.466   6.716   3.058
 5997SOL    HW118890   6.516   6.800   3.078
 5997SOL    HW218891   6.527   6.651   3.014
 5998SOL     OW18892   6.219   0.631   2.059
 5998SOL    HW118893   6.192   0.590   1.972
 5998SOL    HW218894   6.141   0.679   2.099
 5999SOL     OW18895   3.731   4.215   0.945
 5999SOL    HW118896   3.648   4.197   0.998
 5999SOL    HW218897   3.807   4.233   1.007
 6000SOL     OW18898   0.028   5.571   0.410
 6000SOL    HW118899   0.107   5.622   0.443
 6000SOL    HW218900   6.974   5.635   0.383
 6001SOL     OW18901   5.250   6.113   5.507
 6001SOL    HW118902   5.213   6.132   5.416
 6001SOL    HW218903   5.237   6.194   5.565
 6002SOL     OW18904   7.006   0.049   4.856
 6002SOL    HW118905   0.052   0.087   4.788
 6002SOL    HW218906   6.975   6.978   4.825
 6003SOL     OW18907   6.316   3.039   4.403
 6003SOL    HW118908   6.294   3.123   4.354
 6003SOL    HW218909   6.415   3.025   4.403
 6004SOL     OW18910   4.961   2.403   3.560
 6004SOL    HW118911   4.875   2.384   3.513
 6004SOL    HW218912   5.035   2.353   3.516
 6005SOL     OW18913   4.648   4.385   5.446
 6005SOL    HW118914   4.560   4.394   5.399
 6005SOL    HW218915   4.639   4.418   5.540
 6006SOL     OW18916   3.452   6.842   5.469
 6006SOL    HW118917   3.486   6.934   5.450
 6006SOL    HW218918   3.446   6.790   5.384
 6007SOL     OW18919   0.622   4.499   5.532
 6007SOL    HW118920   0.602   4.479   5.436
 6007SOL    HW218921   0.699   4.442   5.563
 6008SOL     OW18922   2.142   4.347   5.339
 6008SOL    HW118923   2.124   4.445   5.343
 6008SOL    HW218924   2.179   4.323   5.249
 6009SOL     OW18925   4.429   5.392   3.118
 6009SOL    HW118926   4.488   5.471   3.137
 6009SOL    HW218927   4.344   5.401   3.170
 6010SOL     OW18928   0.436   3.933   4.576
 6010SOL    HW118929   0.363   3.972   4.631
 6010SOL    HW218930   0.397   3.867   4.512
 6011SOL     OW18931   5.285   1.815   2.790
 6011SOL    HW118932   5.296   1.914   2.796
 6011SOL    HW218933   5.190   1.791   2.810
 6012SOL     OW18934   6.000   0.798   6.497
 6012SOL    HW118935   6.015   0.853   6.580
 6012SOL    HW218936   6.066   0.825   6.427
 6013SOL     OW18937   5.313   0.882   2.583
 6013SOL    HW118938   5.346   0.789   2.569
 6013SOL    HW218939   5.347   0.941   2.510
 6014SOL     OW18940   3.211   2.981   4.637
 6014SOL    HW118941   3.120   2.960   4.599
 6014SOL    HW218942   3.281   2.938   4.580
 6015SOL     OW18943   6.413   2.295   4.349
 6015SOL    HW118944   6.373   2.279   4.439
 6015SOL    HW218945   6.497   2.241   4.339
 6016SOL     OW18946   4.881   1.729   4.774
 6016SOL    HW118947   4.923   1.777   4.698
 6016SOL    HW218948   4.952   1.684   4.829
 6017SOL     OW18949   6.794   3.320   5.093
 6017SOL    HW118950   6.842   3.395   5.141
 6017SOL    HW218951   6.770   3.350   5.001
 6018SOL     OW18952   3.057   0.843   4.942
 6018SOL    HW118953   3.132   0.805   4.996
 6018SOL    HW218954   2.970   0.826   4.990
 6019SOL     OW18955   0.712   4.122   6.314
 6019SOL    HW118956   0.761   4.084   6.236
 6019SOL    HW218957   0.743   4.077   6.398
 6020SOL     OW18958   1.004   5.157   0.389
 6020SOL    HW118959   0.991   5.204   0.301
 6020SOL    HW218960   0.984   5.220   0.464
 6021SOL     OW18961   4.064   0.422   2.294
 6021SOL    HW118962   4.042   0.365   2.374
 6021SOL    HW218963   4.064   0.365   2.212
 6022SOL     OW18964   6.275   0.954   2.980
 6022SOL    HW118965   6.257   0.903   3.063
 6022SOL    HW218966   6.189   0.977   2.935
 6023SOL     OW18967   4.804   0.690   1.309
 6023SOL    HW118968   4.742   0.626   1.356
 6023SOL    HW218969   4.848   0.643   1.233
 6024SOL     OW18970   0.482   4.746   1.103
 6024SOL    HW118971   0.428   4.830   1.111
 6024SOL    HW218972   0.444   4.690   1.029
 6025SOL     OW18973   2.793   1.434   4.086
 6025SOL    HW118974   2.767   1.373   4.161
 6025SOL    HW218975   2.889   1.460   4.097
 6026SOL     OW18976   6.361   3.963   4.263
 6026SOL    HW118977   6.451   3.979   4.223
 6026SOL    HW218978   6.350   4.021   4.344
 6027SOL     OW18979   5.765   3.809   6.105
 6027SOL    HW118980   5.786   3.779   6.011
 6027SOL    HW218981   5.807   3.746   6.170
 6028SOL     OW18982   5.525   5.178   0.157
 6028SOL    HW118983   5.624   5.187   0.158
 6028SOL    HW218984   5.491   5.174   0.251
 6029SOL     OW18985   2.559   0.703   2.986
 6029SOL    HW118986   2.493   0.761   2.937
 6029SOL    HW218987   2.642   0.693   2.932
 6030SOL     OW18988   4.904   3.764   4.772
 6030SOL    HW118989   4.864   3.693   4.713
 6030SOL    HW218990   4.871   3.751   4.866
 6031SOL     OW18991   0.597   5.976   3.938
 6031SOL    HW118992   0.549   5.901   3.893
 6031SOL    HW218993   0.592   5.964   4.037
 6032SOL     OW18994   3.670   6.796   3.963
 6032SOL    HW118995   3.726   6.727   3.917
 6032SOL    HW218996   3.584   6.808   3.914
 6033SOL     OW18997   2.457   2.587   2.471
 6033SOL    HW118998   2.429   2.590   2.376
 6033SOL    HW218999   2.400   2.521   2.521
 6034SOL     OW19000   1.345   0.207   6.561
 6034SOL    HW119001   1.380   0.193   6.469
 6034SOL    HW219002   1.324   0.118   6.603
 6035SOL     OW19003   0.810   1.112   2.713
 6035SOL    HW119004   0.859   1.178   2.769
 6035SOL    HW219005   0.861   1.027   2.708
 6036SOL     OW19006   5.856   4.498   1.165
 6036SOL    HW119007   5.932   4.483   1.101
 6036SOL    HW219008   5.886   4.476   1.258
 6037SOL     OW19009   4.153   1.409   1.121
 6037SOL    HW119010   4.236   1.353   1.115
 6037SOL    HW219011   4.171   1.500   1.083
 6038SOL     OW19012   1.126   2.190   6.868
 6038SOL    HW119013   1.110   2.243   6.951
 6038SOL    HW219014   1.191   2.237   6.809
 6039SOL     OW19015   3.880   4.026   3.926
 6039SOL    HW119016   3.971   3.985   3.916
 6039SOL    HW219017   3.852   4.021   4.022
 6040SOL     OW19018   1.624   1.581   6.965
 6040SOL    HW119019   1.700   1.613   6.909
 6040SOL    HW219020   1.584   1.498   6.925
 6041SOL     OW19021   2.766   2.271   5.559
 6041SOL    HW119022   2.800   2.230   5.474
 6041SOL    HW219023   2.832   2.256   5.632
 6042SOL     OW19024   3.727   6.243   3.323
 6042SOL    HW119025   3.672   6.214   3.245
 6042SOL    HW219026   3.672   6.305   3.380
 6043SOL     OW19027   1.802   0.760   3.928
 6043SOL    HW119028   1.860   0.705   3.988
 6043SOL    HW219029   1.860   0.813   3.866
 6044SOL     OW19030   1.865   1.785   1.484
 6044SOL    HW119031   1.769   1.809   1.499
 6044SOL    HW219032   1.923   1.846   1.539
 6045SOL     OW19033   5.120   3.091   3.601
 6045SOL    HW119034   5.030   3.088   3.559
 6045SOL    HW219035   5.122   3.163   3.671
 6046SOL     OW19036   3.829   2.490   1.711
 6046SOL    HW119037   3.789   2.581   1.723
 6046SOL    HW219038   3.783   2.425   1.771
 6047SOL     OW19039   5.725   1.891   0.459
 6047SOL    HW119040   5.734   1.805   0.508
 6047SOL    HW219041   5.642   1.938   0.490
 6048SOL     OW19042   5.434   5.139   5.012
 6048SOL    HW119043   5.384   5.107   5.093
 6048SOL    HW219044   5.396   5.227   4.983
 6049SOL     OW19045   5.430   4.930   5.800
 6049SOL    HW119046   5.338   4.902   5.772
 6049SOL    HW219047   5.486   4.945   5.718
 6050SOL     OW19048   2.982   5.649   0.694
 6050SOL    HW119049   3.045   5.577   0.722
 6050SOL    HW219050   2.917   5.668   0.769
 6051SOL     OW19051   0.436   1.606   2.850
 6051SOL    HW119052   0.406   1.544   2.778
 6051SOL    HW219053   0.528   1.581   2.880
 6052SOL     OW19054   5.382   6.896   1.141
 6052SOL    HW119055   5.389   6.843   1.057
 6052SOL    HW219056   5.292   6.940   1.146
 6053SOL     OW19057   4.338   1.274   6.131
 6053SOL    HW119058   4.381   1.195   6.088
 6053SOL    HW219059   4.315   1.342   6.062
 6054SOL     OW19060   3.500   5.356   0.705
 6054SOL    HW119061   3.523   5.380   0.799
 6054SOL    HW219062   3.564   5.287   0.672
 6055SOL     OW19063   3.073   5.477   6.365
 6055SOL    HW119064   3.114   5.499   6.454
 6055SOL    HW219065   3.100   5.384   6.338
 6056SOL     OW19066   5.646   3.369   4.799
 6056SOL    HW119067   5.713   3.297   4.783
 6056SOL    HW219068   5.660   3.443   4.733
 6057SOL     OW19069   4.877   0.252   2.606
 6057SOL    HW119070   4.923   0.200   2.677
 6057SOL    HW219071   4.881   0.202   2.519
 6058SOL     OW19072   6.077   3.103   0.502
 6058SOL    HW119073   6.070   3.020   0.446
 6058SOL    HW219074   6.073   3.184   0.444
 6059SOL     OW19075   5.261   4.099   5.817
 6059SOL    HW119076   5.312   4.161   5.876
 6059SOL    HW219077   5.173   4.077   5.860
 6060SOL     OW19078   3.419   3.190   0.515
 6060SOL    HW119079   3.408   3.288   0.531
 6060SOL    HW219080   3.357   3.139   0.574
 6061SOL     OW19081   3.664   4.837   0.833
 6061SOL    HW119082   3.760   4.813   0.819
 6061SOL    HW219083   3.605   4.775   0.781
 6062SOL     OW19084   2.778   1.930   6.999
 6062SOL    HW119085   2.737   1.867   0.047
 6062SOL    HW219086   2.821   2.006   0.030
 6063SOL     OW19087   4.189   4.146   5.923
 6063SOL    HW119088   4.128   4.204   5.870
 6063SOL    HW219089   4.195   4.182   6.016
 6064SOL     OW19090   6.957   0.637   0.477
 6064SOL    HW119091   0.014   0.576   0.502
 6064SOL    HW219092   6.894   0.588   0.417
 6065SOL     OW19093   1.428   5.132   2.046
 6065SOL    HW119094   1.406   5.098   2.137
 6065SOL    HW219095   1.444   5.055   1.984
 6066SOL     OW19096   5.517   1.194   3.326
 6066SOL    HW119097   5.475   1.267   3.380
 6066SOL    HW219098   5.459   1.113   3.330
 6067SOL     OW19099   6.143   6.926   5.431
 6067SOL    HW119100   6.180   6.979   5.354
 6067SOL    HW219101   6.075   6.861   5.397
 6068SOL     OW19102   4.956   1.458   4.558
 6068SOL    HW119103   4.899   1.469   4.639
 6068SOL    HW219104   5.024   1.386   4.573
 6069SOL     OW19105   0.121   2.885   5.837
 6069SOL    HW119106   0.097   2.927   5.924
 6069SOL    HW219107   0.048   2.900   5.771
 6070SOL     OW19108   3.504   2.249   1.699
 6070SOL    HW119109   3.577   2.285   1.758
 6070SOL    HW219110   3.506   2.149   1.702
 6071SOL     OW19111   6.901   6.172   4.791
 6071SOL    HW119112   6.911   6.248   4.856
 6071SOL    HW219113   6.988   6.124   4.783
 6072SOL     OW19114   0.782   1.621   0.690
 6072SOL    HW119115   0.730   1.541   0.722
 6072SOL    HW219116   0.729   1.668   0.620
 6073SOL     OW19117   4.997   3.111   0.982
 6073SOL    HW119118   5.089   3.146   0.966
 6073SOL    HW219119   4.971   3.128   1.077
 6074SOL     OW19120   0.991   6.476   2.538
 6074SOL    HW119121   0.946   6.547   2.483
 6074SOL    HW219122   1.077   6.511   2.575
 6075SOL     OW19123   4.291   6.677   6.565
 6075SOL    HW119124   4.340   6.623   6.496
 6075SOL    HW219125   4.246   6.615   6.630
 6076SOL     OW19126   2.372   4.809   4.182
 6076SOL    HW119127   2.312   4.742   4.227
 6076SOL    HW219128   2.347   4.816   4.085
 6077SOL     OW19129   5.657   6.431   1.301
 6077SOL    HW119130   5.704   6.462   1.384
 6077SOL    HW219131   5.560   6.452   1.308
 6078SOL     OW19132   4.208   4.261   0.495
 6078SOL    HW119133   4.215   4.294   0.401
 6078SOL    HW219134   4.244   4.331   0.557
 6079SOL     OW19135   4.257   4.610   6.627
 6079SOL    HW119136   4.348   4.601   6.668
 6079SOL    HW219137   4.188   4.573   6.688
 6080SOL     OW19138   1.292   4.597   1.176
 6080SOL    HW119139   1.295   4.543   1.092
 6080SOL    HW219140   1.200   4.593   1.215
 6081SOL     OW19141   0.338   3.817   5.257
 6081SOL    HW119142   0.374   3.725   5.269
 6081SOL    HW219143   0.342   3.843   5.161
 6082SOL     OW19144   4.118   0.309   1.468
 6082SOL    HW119145   4.159   0.224   1.433
 6082SOL    HW219146   4.061   0.288   1.547
 6083SOL     OW19147   5.241   6.987   6.913
 6083SOL    HW119148   5.306   0.043   6.930
 6083SOL    HW219149   5.266   6.908   6.969
 6084SOL     OW19150   0.690   6.444   2.042
 6084SOL    HW119151   0.760   6.430   2.112
 6084SOL    HW219152   0.733   6.443   1.952
 6085SOL     OW19153   5.974   6.677   6.880
 6085SOL    HW119154   5.973   6.613   6.957
 6085SOL    HW219155   6.068   6.705   6.862
 6086SOL     OW19156   3.979   3.477   6.772
 6086SOL    HW119157   3.900   3.419   6.755
 6086SOL    HW219158   4.013   3.515   6.686
 6087SOL     OW19159   4.486   6.547   0.152
 6087SOL    HW119160   4.551   6.617   0.120
 6087SOL    HW219161   4.481   6.550   0.252
 6088SOL     OW19162   5.194   6.311   5.000
 6088SOL    HW119163   5.269   6.379   5.000
 6088SOL    HW219164   5.107   6.359   4.991
 6089SOL     OW19165   6.664   2.021   2.161
 6089SOL    HW119166   6.671   2.112   2.121
 6089SOL    HW219167   6.570   1.988   2.152
 6090SOL     OW19168   2.997   5.253   3.971
 6090SOL    HW119169   3.033   5.337   3.930
 6090SOL    HW219170   2.932   5.277   4.044
 6091SOL     OW19171   2.468   0.748   1.442
 6091SOL    HW119172   2.392   0.694   1.407
 6091SOL    HW219173   2.434   0.819   1.503
 6092SOL     OW19174   4.325   0.158   2.063
 6092SOL    HW119175   4.378   0.241   2.047
 6092SOL    HW219176   4.329   0.134   2.160
 6093SOL     OW19177   1.736   1.741   2.199
 6093SOL    HW119178   1.694   1.825   2.164
 6093SOL    HW219179   1.665   1.677   2.227
 6094SOL     OW19180   0.787   6.777   4.438
 6094SOL    HW119181   0.773   6.701   4.374
 6094SOL    HW219182   0.754   6.751   4.528
 6095SOL     OW19183   4.356   5.503   0.327
 6095SOL    HW119184   4.360   5.568   0.250
 6095SOL    HW219185   4.369   5.553   0.413
 6096SOL     OW19186   5.662   6.528   2.139
 6096SOL    HW119187   5.750   6.487   2.163
 6096SOL    HW219188   5.671   6.578   2.053
 6097SOL     OW19189   1.431   6.023   2.101
 6097SOL    HW119190   1.350   6.037   2.157
 6097SOL    HW219191   1.406   6.031   2.004
 6098SOL     OW19192   6.781   0.820   5.469
 6098SOL    HW119193   6.874   0.826   5.432
 6098SOL    HW219194   6.750   0.725   5.463
 6099SOL     OW19195   5.497   6.270   5.748
 6099SOL    HW119196   5.431   6.261   5.823
 6099SOL    HW219197   5.560   6.193   5.751
 6100SOL     OW19198   0.907   5.933   2.808
 6100SOL    HW119199   0.865   5.974   2.727
 6100SOL    HW219200   1.006   5.945   2.805
 6101SOL     OW19201   6.789   2.099   1.598
 6101SOL    HW119202   6.849   2.037   1.648
 6101SOL    HW219203   6.718   2.133   1.659
 6102SOL     OW19204   4.452   6.302   2.625
 6102SOL    HW119205   4.353   6.315   2.640
 6102SOL    HW219206   4.474   6.205   2.636
 6103SOL     OW19207   6.891   1.772   1.080
 6103SOL    HW119208   6.806   1.718   1.078
 6103SOL    HW219209   6.873   1.859   1.127
 6104SOL     OW19210   6.320   1.600   4.836
 6104SOL    HW119211   6.250   1.534   4.861
 6104SOL    HW219212   6.350   1.649   4.918
 6105SOL     OW19213   2.804   5.283   5.527
 6105SOL    HW119214   2.903   5.271   5.529
 6105SOL    HW219215   2.773   5.288   5.432
 6106SOL     OW19216   0.644   3.826   0.174
 6106SOL    HW119217   0.565   3.864   0.222
 6106SOL    HW219218   0.717   3.806   0.239
 6107SOL     OW19219   5.138   5.288   4.712
 6107SOL    HW119220   5.058   5.322   4.761
 6107SOL    HW219221   5.111   5.213   4.651
 6108SOL     OW19222   1.274   1.437   1.826
 6108SOL    HW119223   1.303   1.504   1.758
 6108SOL    HW219224   1.258   1.482   1.913
 6109SOL     OW19225   5.330   0.304   3.761
 6109SOL    HW119226   5.382   0.278   3.679
 6109SOL    HW219227   5.372   0.262   3.841
 6110SOL     OW19228   0.649   2.116   6.059
 6110SOL    HW119229   0.674   2.083   6.150
 6110SOL    HW219230   0.721   2.093   5.994
 6111SOL     OW19231   1.309   3.653   1.981
 6111SOL    HW119232   1.255   3.721   1.931
 6111SOL    HW219233   1.406   3.665   1.961
 6112SOL     OW19234   3.226   0.668   2.373
 6112SOL    HW119235   3.304   0.656   2.434
 6112SOL    HW219236   3.215   0.587   2.316
 6113SOL     OW19237   2.498   4.503   6.720
 6113SOL    HW119238   2.570   4.513   6.651
 6113SOL    HW219239   2.520   4.428   6.782
 6114SOL     OW19240   4.979   1.757   1.569
 6114SOL    HW119241   4.885   1.780   1.593
 6114SOL    HW219242   4.979   1.683   1.501
 6115SOL     OW19243   0.698   1.234   5.467
 6115SOL    HW119244   0.660   1.281   5.388
 6115SOL    HW219245   0.648   1.261   5.549
 6116SOL     OW19246   3.893   2.258   5.261
 6116SOL    HW119247   3.804   2.293   5.289
 6116SOL    HW219248   3.893   2.158   5.267
 6117SOL     OW19249   1.028   1.794   3.030
 6117SOL    HW119250   1.116   1.839   3.040
 6117SOL    HW219251   1.039   1.709   2.978
 6118SOL     OW19252   6.179   1.253   1.006
 6118SOL    HW119253   6.187   1.348   0.977
 6118SOL    HW219254   6.267   1.207   0.996
 6119SOL     OW19255   0.165   2.504   0.244
 6119SOL    HW119256   0.250   2.452   0.251
 6119SOL    HW219257   0.159   2.545   0.153
 6120SOL     OW19258   2.290   0.008   5.397
 6120SOL    HW119259   2.224   6.960   5.431
 6120SOL    HW219260   2.243   0.077   5.341
 6121SOL     OW19261   0.476   3.649   5.736
 6121SOL    HW119262   0.457   3.619   5.829
 6121SOL    HW219263   0.435   3.740   5.721
 6122SOL     OW19264   5.048   5.972   5.805
 6122SOL    HW119265   4.998   5.908   5.748
 6122SOL    HW219266   4.991   6.054   5.821
 6123SOL     OW19267   5.090   1.327   5.670
 6123SOL    HW119268   5.065   1.231   5.654
 6123SOL    HW219269   5.183   1.342   5.638
 6124SOL     OW19270   2.234   0.073   5.035
 6124SOL    HW119271   2.144   0.031   5.023
 6124SOL    HW219272   2.234   0.129   5.118
 6125SOL     OW19273   2.677   4.212   0.292
 6125SOL    HW119274   2.627   4.241   0.374
 6125SOL    HW219275   2.616   4.217   0.212
 6126SOL     OW19276   0.661   2.481   5.179
 6126SOL    HW119277   0.742   2.437   5.219
 6126SOL    HW219278   0.578   2.441   5.218
 6127SOL     OW19279   4.347   1.018   1.585
 6127SOL    HW119280   4.413   1.084   1.549
 6127SOL    HW219281   4.271   1.068   1.627
 6128SOL     OW19282   5.341   5.825   0.686
 6128SOL    HW119283   5.413   5.812   0.619
 6128SOL    HW219284   5.335   5.921   0.712
 6129SOL     OW19285   2.219   4.181   3.297
 6129SOL    HW119286   2.123   4.210   3.296
 6129SOL    HW219287   2.278   4.261   3.298
 6130SOL     OW19288   5.380   2.647   2.248
 6130SOL    HW119289   5.331   2.594   2.317
 6130SOL    HW219290   5.409   2.734   2.288
 6131SOL     OW19291   0.280   2.264   2.047
 6131SOL    HW119292   0.225   2.343   2.075
 6131SOL    HW219293   0.293   2.204   2.126
 6132SOL     OW19294   3.491   1.875   6.702
 6132SOL    HW119295   3.515   1.798   6.760
 6132SOL    HW219296   3.402   1.857   6.658
 6133SOL     OW19297   1.366   2.283   3.765
 6133SOL    HW119298   1.324   2.373   3.772
 6133SOL    HW219299   1.358   2.249   3.671
 6134SOL     OW19300   5.230   6.396   6.422
 6134SOL    HW119301   5.172   6.396   6.341
 6134SOL    HW219302   5.246   6.491   6.451
 6135SOL     OW19303   6.324   0.024   0.166
 6135SOL    HW119304   6.398   0.075   0.211
 6135SOL    HW219305   6.252   0.087   0.139
 6136SOL     OW19306   1.589   3.124   1.098
 6136SOL    HW119307   1.637   3.205   1.132
 6136SOL    HW219308   1.492   3.132   1.118
 6137SOL     OW19309   0.949   4.139   3.411
 6137SOL    HW119310   0.932   4.189   3.327
 6137SOL    HW219311   1.035   4.089   3.404
 6138SOL     OW19312   4.075   0.258   2.079
 6138SOL    HW119313   4.029   0.173   2.105
 6138SOL    HW219314   4.174   0.243   2.074
 6139SOL     OW19315   0.916   6.700   6.218
 6139SOL    HW119316   0.910   6.793   6.252
 6139SOL    HW219317   0.836   6.679   6.162
 6140SOL     OW19318   1.293   0.302   3.081
 6140SOL    HW119319   1.338   0.306   2.991
 6140SOL    HW219320   1.229   0.379   3.089
 6141SOL     OW19321   0.737   0.242   6.419
 6141SOL    HW119322   0.722   0.331   6.461
 6141SOL    HW219323   0.829   0.239   6.380
 6142SOL     OW19324   0.874   0.855   0.021
 6142SOL    HW119325   0.961   0.808   0.011
 6142SOL    HW219326   0.800   0.788   0.026
 6143SOL     OW19327   6.834   3.885   0.139
 6143SOL    HW119328   6.917   3.866   0.192
 6143SOL    HW219329   6.797   3.974   0.166
 6144SOL     OW19330   4.813   4.444   3.352
 6144SOL    HW119331   4.779   4.473   3.263
 6144SOL    HW219332   4.743   4.387   3.396
 6145SOL     OW19333   5.796   4.301   3.894
 6145SOL    HW119334   5.865   4.234   3.922
 6145SOL    HW219335   5.715   4.292   3.952
 6146SOL     OW19336   3.798   0.213   4.167
 6146SOL    HW119337   3.855   0.280   4.119
 6146SOL    HW219338   3.807   0.227   4.266
 6147SOL     OW19339   1.586   3.131   4.751
 6147SOL    HW119340   1.547   3.180   4.673
 6147SOL    HW219341   1.526   3.054   4.775
 6148SOL     OW19342   3.913   4.924   6.401
 6148SOL    HW119343   3.840   4.986   6.372
 6148SOL    HW219344   3.942   4.868   6.323
 6149SOL     OW19345   2.088   0.084   2.335
 6149SOL    HW119346   2.030   0.155   2.296
 6149SOL    HW219347   2.152   0.126   2.400
 6150SOL     OW19348   6.330   4.298   6.742
 6150SOL    HW119349   6.420   4.305   6.786
 6150SOL    HW219350   6.287   4.212   6.767
 6151SOL     OW19351   5.515   5.272   4.636
 6151SOL    HW119352   5.573   5.202   4.593
 6151SOL    HW219353   5.564   5.315   4.712
 6152SOL     OW19354   1.134   5.628   4.178
 6152SOL    HW119355   1.180   5.696   4.235
 6152SOL    HW219356   1.077   5.569   4.236
 6153SOL     OW19357   5.133   5.735   0.876
 6153SOL    HW119358   5.231   5.730   0.855
 6153SOL    HW219359   5.111   5.827   0.907
 6154SOL     OW19360   4.925   3.600   2.969
 6154SOL    HW119361   4.858   3.558   2.907
 6154SOL    HW219362   5.017   3.576   2.939
 6155SOL     OW19363   2.402   0.892   2.882
 6155SOL    HW119364   2.319   0.888   2.826
 6155SOL    HW219365   2.441   0.984   2.878
 6156SOL     OW19366   5.368   4.071   1.626
 6156SOL    HW119367   5.451   4.023   1.598
 6156SOL    HW219368   5.296   4.056   1.558
 6157SOL     OW19369   0.640   2.321   3.446
 6157SOL    HW119370   0.619   2.412   3.483
 6157SOL    HW219371   0.631   2.323   3.347
 6158SOL     OW19372   3.380   2.360   6.190
 6158SOL    HW119373   3.326   2.395   6.114
 6158SOL    HW219374   3.387   2.431   6.261
 6159SOL     OW19375   5.448   2.906   0.148
 6159SOL    HW119376   5.418   2.876   0.238
 6159SOL    HW219377   5.424   2.837   0.080
 6160SOL     OW19378   6.850   0.403   5.965
 6160SOL    HW119379   6.778   0.397   6.035
 6160SOL    HW219380   6.888   0.312   5.949
 6161SOL     OW19381   5.123   2.898   6.314
 6161SOL    HW119382   5.102   2.804   6.344
 6161SOL    HW219383   5.162   2.949   6.391
 6162SOL     OW19384   5.596   6.664   3.242
 6162SOL    HW119385   5.571   6.709   3.328
 6162SOL    HW219386   5.593   6.565   3.254
 6163SOL     OW19387   5.114   6.021   2.828
 6163SOL    HW119388   5.104   6.117   2.802
 6163SOL    HW219389   5.202   5.987   2.797
 6164SOL     OW19390   3.836   3.929   4.218
 6164SOL    HW119391   3.740   3.915   4.194
 6164SOL    HW219392   3.843   3.982   4.302
 6165SOL     OW19393   4.131   2.340   0.328
 6165SOL    HW119394   4.052   2.384   0.371
 6165SOL    HW219395   4.200   2.409   0.307
 6166SOL     OW19396   6.713   2.230   7.016
 6166SOL    HW119397   6.742   2.299   6.950
 6166SOL    HW219398   6.714   2.270   0.090
 6167SOL     OW19399   1.494   4.620   2.887
 6167SOL    HW119400   1.552   4.693   2.851
 6167SOL    HW219401   1.429   4.659   2.953
 6168SOL     OW19402   6.456   2.371   3.417
 6168SOL    HW119403   6.516   2.441   3.458
 6168SOL    HW219404   6.388   2.343   3.484
 6169SOL     OW19405   1.046   0.731   6.041
 6169SOL    HW119406   1.032   0.821   6.001
 6169SOL    HW219407   1.013   0.661   5.978
 6170SOL     OW19408   3.338   4.342   6.668
 6170SOL    HW119409   3.347   4.256   6.617
 6170SOL    HW219410   3.429   4.382   6.681
 6171SOL     OW19411   1.287   3.834   2.379
 6171SOL    HW119412   1.255   3.821   2.473
 6171SOL    HW219413   1.212   3.866   2.322
 6172SOL     OW19414   0.496   0.739   2.016
 6172SOL    HW119415   0.496   0.688   2.102
 6172SOL    HW219416   0.452   0.686   1.944
 6173SOL     OW19417   0.793   4.936   2.518
 6173SOL    HW119418   0.815   4.898   2.608
 6173SOL    HW219419   0.874   4.983   2.481
 6174SOL     OW19420   5.935   4.657   2.741
 6174SOL    HW119421   5.837   4.662   2.762
 6174SOL    HW219422   5.973   4.749   2.742
 6175SOL     OW19423   5.625   6.397   2.618
 6175SOL    HW119424   5.608   6.337   2.697
 6175SOL    HW219425   5.580   6.485   2.633
 6176SOL     OW19426   6.305   3.544   6.605
 6176SOL    HW119427   6.243   3.598   6.663
 6176SOL    HW219428   6.294   3.572   6.510
 6177SOL     OW19429   5.307   0.913   1.211
 6177SOL    HW119430   5.350   1.001   1.230
 6177SOL    HW219431   5.308   0.857   1.294
 6178SOL     OW19432   4.732   5.139   1.741
 6178SOL    HW119433   4.744   5.236   1.761
 6178SOL    HW219434   4.688   5.094   1.819
 6179SOL     OW19435   6.974   3.565   5.013
 6179SOL    HW119436   6.901   3.530   4.955
 6179SOL    HW219437   0.031   3.499   5.014
 6180SOL     OW19438   3.407   6.882   0.041
 6180SOL    HW119439   3.318   6.885   0.088
 6180SOL    HW219440   3.479   6.906   0.105
 6181SOL     OW19441   4.707   6.796   0.496
 6181SOL    HW119442   4.665   6.794   0.587
 6181SOL    HW219443   4.777   6.725   0.489
 6182SOL     OW19444   5.104   5.488   5.374
 6182SOL    HW119445   5.104   5.388   5.372
 6182SOL    HW219446   5.126   5.519   5.467
 6183SOL     OW19447   1.935   0.148   3.014
 6183SOL    HW119448   1.972   0.240   3.026
 6183SOL    HW219449   1.844   0.153   2.974
 6184SOL     OW19450   1.233   0.229   6.889
 6184SOL    HW119451   1.247   0.321   6.853
 6184SOL    HW219452   1.246   0.230   6.989
 6185SOL     OW19453   1.200   3.519   6.888
 6185SOL    HW119454   1.228   3.425   6.866
 6185SOL    HW219455   1.127   3.547   6.825
 6186SOL     OW19456   5.525   0.062   4.277
 6186SOL    HW119457   5.593   0.120   4.322
 6186SOL    HW219458   5.567   0.015   4.200
 6187SOL     OW19459   5.186   5.021   3.744
 6187SOL    HW119460   5.161   5.053   3.835
 6187SOL    HW219461   5.103   5.000   3.692
 6188SOL     OW19462   2.151   6.189   1.332
 6188SOL    HW119463   2.159   6.229   1.241
 6188SOL    HW219464   2.155   6.089   1.326
 6189SOL     OW19465   5.153   4.921   3.208
 6189SOL    HW119466   5.142   4.892   3.113
 6189SOL    HW219467   5.107   4.856   3.269
 6190SOL     OW19468   5.638   4.083   6.152
 6190SOL    HW119469   5.681   3.997   6.125
 6190SOL    HW219470   5.607   4.132   6.071
 6191SOL     OW19471   5.626   2.147   0.900
 6191SOL    HW119472   5.658   2.237   0.930
 6191SOL    HW219473   5.693   2.108   0.837
 6192SOL     OW19474   3.092   3.693   0.703
 6192SOL    HW119475   3.041   3.619   0.746
 6192SOL    HW219476   3.138   3.747   0.774
 6193SOL     OW19477   4.584   0.365   2.030
 6193SOL    HW119478   4.630   0.452   2.017
 6193SOL    HW219479   4.616   0.299   1.963
 6194SOL     OW19480   2.052   0.198   0.632
 6194SOL    HW119481   2.095   0.148   0.707
 6194SOL    HW219482   2.117   0.209   0.557
 6195SOL     OW19483   4.291   5.132   5.575
 6195SOL    HW119484   4.259   5.081   5.495
 6195SOL    HW219485   4.220   5.130   5.646
 6196SOL     OW19486   0.252   2.718   6.192
 6196SOL    HW119487   0.266   2.715   6.093
 6196SOL    HW219488   0.155   2.703   6.212
 6197SOL     OW19489   3.341   4.347   0.794
 6197SOL    HW119490   3.353   4.249   0.810
 6197SOL    HW219491   3.386   4.373   0.708
 6198SOL     OW19492   3.702   5.913   2.838
 6198SOL    HW119493   3.786   5.860   2.853
 6198SOL    HW219494   3.711   5.963   2.752
 6199SOL     OW19495   6.968   0.259   0.656
 6199SOL    HW119496   6.920   0.171   0.661
 6199SOL    HW219497   0.044   0.244   0.627
 6200SOL     OW19498   2.524   1.391   6.563
 6200SOL    HW119499   2.612   1.436   6.578
 6200SOL    HW219500   2.455   1.459   6.538
 6201SOL     OW19501   2.472   5.121   5.654
 6201SOL    HW119502   2.456   5.031   5.695
 6201SOL    HW219503   2.462   5.192   5.724
 6202SOL     OW19504   4.111   1.757   1.608
 6202SOL    HW119505   4.026   1.805   1.585
 6202SOL    HW219506   4.169   1.816   1.664
 6203SOL     OW19507   4.898   0.055   3.630
 6203SOL    HW119508   4.948   0.125   3.681
 6203SOL    HW219509   4.961   0.010   3.567
 6204SOL     OW19510   0.458   4.707   5.269
 6204SOL    HW119511   0.521   4.760   5.325
 6204SOL    HW219512   0.505   4.629   5.230
 6205SOL     OW19513   5.289   5.333   6.570
 6205SOL    HW119514   5.239   5.400   6.624
 6205SOL    HW219515   5.356   5.380   6.512
 6206SOL     OW19516   6.840   0.144   2.478
 6206SOL    HW119517   6.799   0.057   2.449
 6206SOL    HW219518   6.935   0.148   2.447
 6207SOL     OW19519   1.394   3.715   4.608
 6207SOL    HW119520   1.334   3.786   4.571
 6207SOL    HW219521   1.461   3.756   4.669
 6208SOL     OW19522   6.108   0.458   5.720
 6208SOL    HW119523   6.199   0.422   5.735
 6208SOL    HW219524   6.114   0.546   5.673
 6209SOL     OW19525   3.719   6.292   0.091
 6209SOL    HW119526   3.799   6.282   0.032
 6209SOL    HW219527   3.663   6.368   0.059
 6210SOL     OW19528   5.600   4.552   3.371
 6210SOL    HW119529   5.574   4.488   3.297
 6210SOL    HW219530   5.698   4.570   3.366
 6211SOL     OW19531   2.765   0.125   6.353
 6211SOL    HW119532   2.861   0.141   6.330
 6211SOL    HW219533   2.756   0.040   6.403
 6212SOL     OW19534   0.151   5.841   3.097
 6212SOL    HW119535   0.068   5.788   3.077
 6212SOL    HW219536   0.231   5.790   3.065
 6213SOL     OW19537   5.644   6.760   6.201
 6213SOL    HW119538   5.739   6.771   6.172
 6213SOL    HW219539   5.639   6.754   6.300
 6214SOL     OW19540   6.094   4.836   3.055
 6214SOL    HW119541   6.088   4.886   2.968
 6214SOL    HW219542   6.004   4.802   3.081
 6215SOL     OW19543   3.576   1.685   6.874
 6215SOL    HW119544   3.669   1.708   6.902
 6215SOL    HW219545   3.573   1.590   6.841
 6216SOL     OW19546   6.221   1.753   1.734
 6216SOL    HW119547   6.308   1.714   1.702
 6216SOL    HW219548   6.165   1.680   1.774
 6217SOL     OW19549   5.250   2.679   1.759
 6217SOL    HW119550   5.310   2.695   1.837
 6217SOL    HW219551   5.198   2.594   1.775
 6218SOL     OW19552   3.683   4.911   3.835
 6218SOL    HW119553   3.712   4.994   3.883
 6218SOL    HW219554   3.754   4.884   3.770
 6219SOL     OW19555   1.260   1.576   4.762
 6219SOL    HW119556   1.220   1.618   4.681
 6219SOL    HW219557   1.227   1.622   4.844
 6220SOL     OW19558   1.882   4.551   5.562
 6220SOL    HW119559   1.961   4.540   5.623
 6220SOL    HW219560   1.802   4.508   5.603
 6221SOL     OW19561   5.213   5.087   5.191
 6221SOL    HW119562   5.169   4.997   5.199
 6221SOL    HW219563   5.202   5.121   5.098
 6222SOL     OW19564   0.726   6.661   1.098
 6222SOL    HW119565   0.801   6.608   1.058
 6222SOL    HW219566   0.672   6.603   1.159
 6223SOL     OW19567   5.953   3.450   4.502
 6223SOL    HW119568   6.025   3.383   4.522
 6223SOL    HW219569   5.913   3.429   4.413
 6224SOL     OW19570   1.765   1.791   6.340
 6224SOL    HW119571   1.744   1.857   6.268
 6224SOL    HW219572   1.687   1.781   6.401
 6225SOL     OW19573   3.367   3.681   1.584
 6225SOL    HW119574   3.398   3.586   1.574
 6225SOL    HW219575   3.440   3.737   1.623
 6226SOL     OW19576   5.915   1.756   3.772
 6226SOL    HW119577   6.008   1.735   3.802
 6226SOL    HW219578   5.879   1.833   3.825
 6227SOL     OW19579   3.200   4.702   6.191
 6227SOL    HW119580   3.187   4.620   6.247
 6227SOL    HW219581   3.203   4.783   6.250
 6228SOL     OW19582   0.221   2.314   3.008
 6228SOL    HW119583   0.297   2.249   3.011
 6228SOL    HW219584   0.151   2.279   2.945
 6229SOL     OW19585   1.892   2.172   3.346
 6229SOL    HW119586   1.959   2.240   3.376
 6229SOL    HW219587   1.820   2.164   3.415
 6230SOL     OW19588   1.247   1.297   4.789
 6230SOL    HW119589   1.256   1.396   4.798
 6230SOL    HW219590   1.228   1.256   4.878
 6231SOL     OW19591   6.978   5.070   1.397
 6231SOL    HW119592   6.880   5.056   1.381
 6231SOL    HW219593   7.007   5.155   1.351
 6232SOL     OW19594   6.869   1.351   6.702
 6232SOL    HW119595   6.902   1.400   6.783
 6232SOL    HW219596   6.940   1.287   6.671
 6233SOL     OW19597   5.523   1.862   6.709
 6233SOL    HW119598   5.511   1.790   6.778
 6233SOL    HW219599   5.522   1.951   6.753
 6234SOL     OW19600   0.726   1.307   5.081
 6234SOL    HW119601   0.784   1.335   5.005
 6234SOL    HW219602   0.642   1.359   5.081
 6235SOL     OW19603   1.703   6.876   3.262
 6235SOL    HW119604   1.686   6.780   3.283
 6235SOL    HW219605   1.617   6.920   3.235
 6236SOL     OW19606   0.687   5.177   1.052
 6236SOL    HW119607   0.598   5.212   1.080
 6236SOL    HW219608   0.747   5.169   1.133
 6237SOL     OW19609   4.777   5.973   0.587
 6237SOL    HW119610   4.724   6.050   0.621
 6237SOL    HW219611   4.871   6.003   0.568
 6238SOL     OW19612   4.544   5.005   2.686
 6238SOL    HW119613   4.615   4.958   2.738
 6238SOL    HW219614   4.498   5.073   2.744
 6239SOL     OW19615   2.782   6.416   1.968
 6239SOL    HW119616   2.700   6.471   1.986
 6239SOL    HW219617   2.860   6.456   2.014
 6240SOL     OW19618   2.994   2.028   0.712
 6240SOL    HW119619   3.042   2.105   0.754
 6240SOL    HW219620   2.933   2.062   0.640
 6241SOL     OW19621   2.220   1.241   2.857
 6241SOL    HW119622   2.312   1.258   2.823
 6241SOL    HW219623   2.160   1.218   2.780
 6242SOL     OW19624   5.747   1.516   3.375
 6242SOL    HW119625   5.764   1.424   3.339
 6242SOL    HW219626   5.670   1.558   3.326
 6243SOL     OW19627   5.838   6.896   3.284
 6243SOL    HW119628   5.899   6.843   3.343
 6243SOL    HW219629   5.754   6.845   3.269
 6244SOL     OW19630   1.519   2.263   1.848
 6244SOL    HW119631   1.543   2.246   1.752
 6244SOL    HW219632   1.427   2.228   1.866
 6245SOL     OW19633   3.070   4.490   1.642
 6245SOL    HW119634   3.149   4.547   1.622
 6245SOL    HW219635   3.045   4.499   1.738
 6246SOL     OW19636   2.847   2.630   6.700
 6246SOL    HW119637   2.921   2.592   6.755
 6246SOL    HW219638   2.879   2.642   6.605
 6247SOL     OW19639   0.223   6.560   3.675
 6247SOL    HW119640   0.296   6.515   3.728
 6247SOL    HW219641   0.135   6.524   3.705
 6248SOL     OW19642   0.806   3.434   1.454
 6248SOL    HW119643   0.809   3.367   1.528
 6248SOL    HW219644   0.835   3.391   1.369
 6249SOL     OW19645   0.423   4.611   0.826
 6249SOL    HW119646   0.370   4.569   0.753
 6249SOL    HW219647   0.465   4.539   0.882
 6250SOL     OW19648   6.222   6.281   0.457
 6250SOL    HW119649   6.309   6.262   0.411
 6250SOL    HW219650   6.195   6.200   0.510
 6251SOL     OW19651   3.923   6.558   1.027
 6251SOL    HW119652   3.834   6.568   0.983
 6251SOL    HW219653   3.915   6.582   1.124
 6252SOL     OW19654   2.000   6.168   4.798
 6252SOL    HW119655   1.999   6.268   4.798
 6252SOL    HW219656   1.980   6.134   4.706
 6253SOL     OW19657   2.283   4.286   2.548
 6253SOL    HW119658   2.234   4.221   2.605
 6253SOL    HW219659   2.382   4.271   2.558
 6254SOL     OW19660   5.029   1.106   0.009
 6254SOL    HW119661   5.067   1.181   6.974
 6254SOL    HW219662   4.934   1.089   6.999
 6255SOL     OW19663   1.332   1.244   1.561
 6255SOL    HW119664   1.425   1.277   1.574
 6255SOL    HW219665   1.319   1.159   1.611
 6256SOL     OW19666   4.240   5.009   2.821
 6256SOL    HW119667   4.310   5.077   2.845
 6256SOL    HW219668   4.275   4.917   2.838
 6257SOL     OW19669   5.687   2.509   1.254
 6257SOL    HW119670   5.719   2.420   1.286
 6257SOL    HW219671   5.604   2.535   1.303
 6258SOL     OW19672   4.541   0.840   3.073
 6258SOL    HW119673   4.594   0.758   3.051
 6258SOL    HW219674   4.564   0.914   3.009
 6259SOL     OW19675   2.953   1.222   1.221
 6259SOL    HW119676   3.036   1.244   1.272
 6259SOL    HW219677   2.940   1.290   1.148
 6260SOL     OW19678   3.338   4.291   0.335
 6260SOL    HW119679   3.253   4.244   0.313
 6260SOL    HW219680   3.414   4.227   0.328
 6261SOL     OW19681   3.237   6.942   6.448
 6261SOL    HW119682   3.279   6.881   6.515
 6261SOL    HW219683   3.139   6.949   6.467
 6262SOL     OW19684   2.236   4.191   0.708
 6262SOL    HW119685   2.252   4.259   0.779
 6262SOL    HW219686   2.139   4.168   0.704
 6263SOL     OW19687   0.238   6.406   6.091
 6263SOL    HW119688   0.286   6.372   6.010
 6263SOL    HW219689   0.168   6.341   6.118
 6264SOL     OW19690   1.885   0.167   1.062
 6264SOL    HW119691   1.892   0.199   0.967
 6264SOL    HW219692   1.953   0.095   1.078
 6265SOL     OW19693   3.012   4.225   1.187
 6265SOL    HW119694   2.970   4.226   1.096
 6265SOL    HW219695   2.973   4.300   1.241
 6266SOL     OW19696   4.281   0.749   4.460
 6266SOL    HW119697   4.289   0.801   4.374
 6266SOL    HW219698   4.185   0.726   4.476
 6267SOL     OW19699   3.142   6.996   6.979
 6267SOL    HW119700   3.149   6.959   0.053
 6267SOL    HW219701   3.215   0.044   6.964
 6268SOL     OW19702   2.596   6.076   3.243
 6268SOL    HW119703   2.593   6.027   3.330
 6268SOL    HW219704   2.520   6.045   3.185
 6269SOL     OW19705   6.802   5.943   2.121
 6269SOL    HW119706   6.889   5.968   2.079
 6269SOL    HW219707   6.726   5.974   2.063
 6270SOL     OW19708   1.662   0.263   6.066
 6270SOL    HW119709   1.688   0.166   6.062
 6270SOL    HW219710   1.742   0.318   6.089
 6271SOL     OW19711   6.720   2.728   5.961
 6271SOL    HW119712   6.709   2.823   5.932
 6271SOL    HW219713   6.631   2.689   5.984
 6272SOL     OW19714   0.690   2.900   4.907
 6272SOL    HW119715   0.775   2.906   4.958
 6272SOL    HW219716   0.613   2.901   4.970
 6273SOL     OW19717   1.329   0.490   2.181
 6273SOL    HW119718   1.255   0.492   2.114
 6273SOL    HW219719   1.415   0.517   2.137
 6274SOL     OW19720   2.415   5.488   5.455
 6274SOL    HW119721   2.435   5.585   5.471
 6274SOL    HW219722   2.471   5.433   5.517
 6275SOL     OW19723   2.977   6.506   5.460
 6275SOL    HW119724   2.958   6.587   5.403
 6275SOL    HW219725   3.014   6.535   5.548
 6276SOL     OW19726   1.690   4.948   3.354
 6276SOL    HW119727   1.652   4.939   3.445
 6276SOL    HW219728   1.661   4.870   3.298
 6277SOL     OW19729   4.470   2.475   2.862
 6277SOL    HW119730   4.515   2.564   2.855
 6277SOL    HW219731   4.456   2.437   2.771
 6278SOL     OW19732   4.726   0.441   4.814
 6278SOL    HW119733   4.652   0.396   4.765
 6278SOL    HW219734   4.807   0.382   4.815
 6279SOL     OW19735   3.774   1.268   0.281
 6279SOL    HW119736   3.696   1.290   0.340
 6279SOL    HW219737   3.800   1.173   0.294
 6280SOL     OW19738   0.387   2.859   5.509
 6280SOL    HW119739   0.290   2.877   5.494
 6280SOL    HW219740   0.442   2.924   5.456
 6281SOL     OW19741   2.426   6.390   5.586
 6281SOL    HW119742   2.448   6.484   5.614
 6281SOL    HW219743   2.457   6.376   5.492
 6282SOL     OW19744   1.372   0.017   4.500
 6282SOL    HW119745   1.424   0.093   4.537
 6282SOL    HW219746   1.397   6.951   4.548
 6283SOL     OW19747   6.249   2.513   4.856
 6283SOL    HW119748   6.195   2.589   4.891
 6283SOL    HW219749   6.339   2.513   4.900
 6284SOL     OW19750   1.944   5.568   5.161
 6284SOL    HW119751   2.016   5.503   5.186
 6284SOL    HW219752   1.960   5.601   5.069
 6285SOL     OW19753   1.246   2.923   3.820
 6285SOL    HW119754   1.311   2.907   3.746
 6285SOL    HW219755   1.203   2.837   3.847
 6286SOL     OW19756   6.667   1.493   3.917
 6286SOL    HW119757   6.721   1.410   3.903
 6286SOL    HW219758   6.578   1.483   3.871
 6287SOL     OW19759   4.936   4.367   2.349
 6287SOL    HW119760   4.913   4.404   2.259
 6287SOL    HW219761   4.912   4.433   2.420
 6288SOL     OW19762   5.601   3.939   1.884
 6288SOL    HW119763   5.616   3.923   1.982
 6288SOL    HW219764   5.524   4.001   1.872
 6289SOL     OW19765   1.433   2.685   3.248
 6289SOL    HW119766   1.429   2.783   3.266
 6289SOL    HW219767   1.514   2.664   3.193
 6290SOL     OW19768   5.463   3.707   4.276
 6290SOL    HW119769   5.484   3.665   4.364
 6290SOL    HW219770   5.387   3.771   4.288
 6291SOL     OW19771   4.104   3.607   4.033
 6291SOL    HW119772   4.059   3.528   3.991
 6291SOL    HW219773   4.182   3.575   4.087
 6292SOL     OW19774   0.446   3.223   3.213
 6292SOL    HW119775   0.474   3.271   3.297
 6292SOL    HW219776   0.393   3.286   3.156
 6293SOL     OW19777   4.152   6.748   0.092
 6293SOL    HW119778   4.213   6.706   0.024
 6293SOL    HW219779   4.085   6.805   0.045
 6294SOL     OW19780   3.623   5.157   3.215
 6294SOL    HW119781   3.667   5.152   3.305
 6294SOL    HW219782   3.628   5.068   3.171
 6295SOL     OW19783   5.119   5.556   5.678
 6295SOL    HW119784   5.206   5.508   5.686
 6295SOL    HW219785   5.069   5.547   5.764
 6296SOL     OW19786   6.764   0.555   4.032
 6296SOL    HW119787   6.766   0.546   4.132
 6296SOL    HW219788   6.798   0.646   4.007
 6297SOL     OW19789   5.182   0.248   5.291
 6297SOL    HW119790   5.096   0.236   5.241
 6297SOL    HW219791   5.216   0.158   5.318
 6298SOL     OW19792   1.864   4.079   6.625
 6298SOL    HW119793   1.766   4.076   6.644
 6298SOL    HW219794   1.879   4.092   6.527
 6299SOL     OW19795   6.093   2.455   6.293
 6299SOL    HW119796   6.010   2.465   6.349
 6299SOL    HW219797   6.155   2.391   6.338
 6300SOL     OW19798   5.556   0.694   4.825
 6300SOL    HW119799   5.638   0.682   4.769
 6300SOL    HW219800   5.539   0.791   4.839
 6301SOL     OW19801   2.552   0.103   1.525
 6301SOL    HW119802   2.508   0.037   1.464
 6301SOL    HW219803   2.575   0.185   1.473
 6302SOL     OW19804   1.042   1.231   4.030
 6302SOL    HW119805   1.079   1.271   3.947
 6302SOL    HW219806   1.024   1.134   4.016
 6303SOL     OW19807   2.492   0.709   4.907
 6303SOL    HW119808   2.488   0.806   4.884
 6303SOL    HW219809   2.514   0.700   5.005
 6304SOL     OW19810   2.582   0.887   1.155
 6304SOL    HW119811   2.531   0.877   1.240
 6304SOL    HW219812   2.536   0.835   1.083
 6305SOL     OW19813   6.007   6.429   0.934
 6305SOL    HW119814   5.941   6.440   1.008
 6305SOL    HW219815   5.981   6.351   0.877
 6306SOL     OW19816   0.089   3.426   4.405
 6306SOL    HW119817   0.157   3.458   4.472
 6306SOL    HW219818   0.131   3.425   4.314
 6307SOL     OW19819   3.558   4.747   5.662
 6307SOL    HW119820   3.467   4.763   5.623
 6307SOL    HW219821   3.605   4.835   5.673
 6308SOL     OW19822   1.475   1.611   5.144
 6308SOL    HW119823   1.403   1.626   5.212
 6308SOL    HW219824   1.561   1.650   5.178
 6309SOL     OW19825   4.871   3.811   4.155
 6309SOL    HW119826   4.911   3.836   4.243
 6309SOL    HW219827   4.811   3.885   4.124
 6310SOL     OW19828   2.185   4.427   4.013
 6310SOL    HW119829   2.170   4.329   4.028
 6310SOL    HW219830   2.098   4.472   3.995
 6311SOL     OW19831   6.218   0.740   5.240
 6311SOL    HW119832   6.175   0.830   5.237
 6311SOL    HW219833   6.217   0.699   5.149
 6312SOL     OW19834   4.539   5.201   5.771
 6312SOL    HW119835   4.458   5.177   5.717
 6312SOL    HW219836   4.561   5.126   5.834
 6313SOL     OW19837   1.332   6.089   3.460
 6313SOL    HW119838   1.374   6.046   3.380
 6313SOL    HW219839   1.315   6.186   3.440
 6314SOL     OW19840   3.645   6.331   1.892
 6314SOL    HW119841   3.595   6.258   1.845
 6314SOL    HW219842   3.602   6.349   1.980
 6315SOL     OW19843   4.488   2.316   7.014
 6315SOL    HW119844   4.403   2.272   0.024
 6315SOL    HW219845   4.481   2.343   6.918
 6316SOL     OW19846   4.721   2.430   6.218
 6316SOL    HW119847   4.768   2.518   6.214
 6316SOL    HW219848   4.646   2.436   6.284
 6317SOL     OW19849   5.486   6.401   3.290
 6317SOL    HW119850   5.497   6.381   3.192
 6317SOL    HW219851   5.428   6.332   3.332
 6318SOL     OW19852   2.531   2.202   5.306
 6318SOL    HW119853   2.624   2.173   5.284
 6318SOL    HW219854   2.486   2.235   5.224
 6319SOL     OW19855   0.544   3.124   3.683
 6319SOL    HW119856   0.493   3.160   3.761
 6319SOL    HW219857   0.487   3.127   3.601
 6320SOL     OW19858   6.053   4.386   3.453
 6320SOL    HW119859   5.995   4.310   3.425
 6320SOL    HW219860   6.099   4.364   3.539
 6321SOL     OW19861   2.999   5.164   1.158
 6321SOL    HW119862   3.064   5.208   1.096
 6321SOL    HW219863   2.906   5.176   1.124
 6322SOL     OW19864   1.423   2.144   6.224
 6322SOL    HW119865   1.351   2.075   6.229
 6322SOL    HW219866   1.485   2.133   6.302
 6323SOL     OW19867   3.660   2.482   1.440
 6323SOL    HW119868   3.735   2.475   1.505
 6323SOL    HW219869   3.590   2.414   1.463
 6324SOL     OW19870   4.399   0.878   6.062
 6324SOL    HW119871   4.438   0.968   6.046
 6324SOL    HW219872   4.451   0.809   6.011
 6325SOL     OW19873   1.544   2.578   1.775
 6325SOL    HW119874   1.612   2.636   1.819
 6325SOL    HW219875   1.463   2.572   1.834
 6326SOL     OW19876   5.374   5.511   1.053
 6326SOL    HW119877   5.348   5.564   1.133
 6326SOL    HW219878   5.450   5.450   1.075
 6327SOL     OW19879   6.878   0.102   5.099
 6327SOL    HW119880   6.880   0.202   5.102
 6327SOL    HW219881   6.934   0.069   5.023
 6328SOL     OW19882   2.452   3.727   6.867
 6328SOL    HW119883   2.442   3.634   6.832
 6328SOL    HW219884   2.525   3.774   6.817
 6329SOL     OW19885   1.162   1.411   3.822
 6329SOL    HW119886   1.185   1.405   3.725
 6329SOL    HW219887   1.121   1.500   3.842
 6330SOL     OW19888   4.846   0.618   0.985
 6330SOL    HW119889   4.768   0.677   0.964
 6330SOL    HW219890   4.916   0.629   0.915
 6331SOL     OW19891   6.704   2.893   0.878
 6331SOL    HW119892   6.711   2.809   0.931
 6331SOL    HW219893   6.612   2.902   0.839
 6332SOL     OW19894   6.007   5.046   1.736
 6332SOL    HW119895   5.966   5.132   1.767
 6332SOL    HW219896   6.100   5.039   1.773
 6333SOL     OW19897   3.714   5.136   3.479
 6333SOL    HW119898   3.698   5.210   3.544
 6333SOL    HW219899   3.747   5.055   3.528
 6334SOL     OW19900   2.131   6.888   2.870
 6334SOL    HW119901   2.057   6.821   2.876
 6334SOL    HW219902   2.173   6.884   2.780
 6335SOL     OW19903   5.624   1.771   0.231
 6335SOL    HW119904   5.615   1.827   0.313
 6335SOL    HW219905   5.636   1.676   0.256
 6336SOL     OW19906   0.066   2.333   4.961
 6336SOL    HW119907   0.130   2.294   4.895
 6336SOL    HW219908   0.108   2.413   5.004
 6337SOL     OW19909   4.861   3.493   6.160
 6337SOL    HW119910   4.789   3.502   6.092
 6337SOL    HW219911   4.857   3.569   6.224
 6338SOL     OW19912   2.638   2.380   2.484
 6338SOL    HW119913   2.679   2.337   2.404
 6338SOL    HW219914   2.575   2.452   2.455
 6339SOL     OW19915   0.512   2.508   3.872
 6339SOL    HW119916   0.548   2.501   3.779
 6339SOL    HW219917   0.535   2.425   3.923
 6340SOL     OW19918   2.213   5.483   3.408
 6340SOL    HW119919   2.275   5.542   3.459
 6340SOL    HW219920   2.227   5.388   3.437
 6341SOL     OW19921   6.725   4.752   4.036
 6341SOL    HW119922   6.803   4.738   3.976
 6341SOL    HW219923   6.670   4.829   4.003
 6342SOL     OW19924   2.433   2.142   1.769
 6342SOL    HW119925   2.533   2.143   1.762
 6342SOL    HW219926   2.406   2.174   1.860
 6343SOL     OW19927   5.024   2.704   0.058
 6343SOL    HW119928   4.943   2.764   0.056
 6343SOL    HW219929   5.017   2.638   7.002
 6344SOL     OW19930   6.682   3.278   5.852
 6344SOL    HW119931   6.747   3.207   5.825
 6344SOL    HW219932   6.727   3.367   5.848
 6345SOL     OW19933   4.259   1.293   2.468
 6345SOL    HW119934   4.311   1.335   2.393
 6345SOL    HW219935   4.217   1.209   2.436
 6346SOL     OW19936   6.479   3.709   3.416
 6346SOL    HW119937   6.414   3.646   3.459
 6346SOL    HW219938   6.507   3.673   3.327
 6347SOL     OW19939   3.035   0.585   1.654
 6347SOL    HW119940   2.992   0.641   1.726
 6347SOL    HW219941   2.976   0.585   1.573
 6348SOL     OW19942   0.725   3.978   4.925
 6348SOL    HW119943   0.662   3.909   4.889
 6348SOL    HW219944   0.732   4.054   4.860
 6349SOL     OW19945   2.701   0.996   2.064
 6349SOL    HW119946   2.728   0.970   2.157
 6349SOL    HW219947   2.773   1.050   2.022
 6350SOL     OW19948   1.464   5.055   3.533
 6350SOL    HW119949   1.526   5.016   3.601
 6350SOL    HW219950   1.422   5.138   3.570
 6351SOL     OW19951   6.534   2.603   2.018
 6351SOL    HW119952   6.539   2.693   2.060
 6351SOL    HW219953   6.453   2.555   2.050
 6352SOL     OW19954   1.384   5.381   3.970
 6352SOL    HW119955   1.284   5.382   3.969
 6352SOL    HW219956   1.419   5.472   3.995
 6353SOL     OW19957   6.374   0.357   6.459
 6353SOL    HW119958   6.341   0.346   6.553
 6353SOL    HW219959   6.452   0.419   6.459
 6354SOL     OW19960   0.741   6.601   2.746
 6354SOL    HW119961   0.809   6.649   2.802
 6354SOL    HW219962   0.717   6.656   2.667
 6355SOL     OW19963   0.439   4.287   4.829
 6355SOL    HW119964   0.479   4.244   4.910
 6355SOL    HW219965   0.507   4.346   4.784
 6356SOL     OW19966   5.357   4.690   1.951
 6356SOL    HW119967   5.395   4.603   1.920
 6356SOL    HW219968   5.299   4.674   2.031
 6357SOL     OW19969   4.456   2.718   0.765
 6357SOL    HW119970   4.505   2.772   0.834
 6357SOL    HW219971   4.389   2.659   0.810
 6358SOL     OW19972   0.289   2.261   4.796
 6358SOL    HW119973   0.383   2.291   4.815
 6358SOL    HW219974   0.271   2.269   4.698
 6359SOL     OW19975   6.647   0.516   5.459
 6359SOL    HW119976   6.716   0.446   5.439
 6359SOL    HW219977   6.580   0.518   5.385
 6360SOL     OW19978   2.409   4.341   3.796
 6360SOL    HW119979   2.338   4.284   3.836
 6360SOL    HW219980   2.457   4.391   3.869
 6361SOL     OW19981   5.099   6.693   6.907
 6361SOL    HW119982   5.149   6.773   6.875
 6361SOL    HW219983   5.011   6.723   6.945
 6362SOL     OW19984   5.985   4.845   0.180
 6362SOL    HW119985   5.974   4.945   0.180
 6362SOL    HW219986   6.040   4.817   0.102
 6363SOL     OW19987   2.084   5.344   3.793
 6363SOL    HW119988   2.038   5.429   3.818
 6363SOL    HW219989   2.177   5.364   3.763
 6364SOL     OW19990   3.026   1.699   5.781
 6364SOL    HW119991   3.098   1.721   5.714
 6364SOL    HW219992   2.937   1.706   5.737
 6365SOL     OW19993   4.724   6.698   4.449
 6365SOL    HW119994   4.729   6.719   4.351
 6365SOL    HW219995   4.629   6.677   4.473
 6366SOL     OW19996   1.083   5.411   5.393
 6366SOL    HW119997   0.996   5.459   5.403
 6366SOL    HW219998   1.151   5.451   5.455
 6367SOL     OW19999   4.750   0.542   3.755
 6367SOL    HW120000   4.703   0.455   3.737
 6367SOL    HW220001   4.689   0.603   3.805
 6368SOL     OW20002   3.301   0.125   4.076
 6368SOL    HW120003   3.253   0.077   4.003
 6368SOL    HW220004   3.399   0.118   4.063
 6369SOL     OW20005   3.501   4.908   4.052
 6369SOL    HW120006   3.547   4.870   3.972
 6369SOL    HW220007   3.413   4.947   4.025
 6370SOL     OW20008   0.989   2.695   2.406
 6370SOL    HW120009   0.964   2.685   2.502
 6370SOL    HW220010   1.085   2.723   2.399
 6371SOL     OW20011   4.846   3.053   3.588
 6371SOL    HW120012   4.856   3.056   3.688
 6371SOL    HW220013   4.792   2.974   3.562
 6372SOL     OW20014   3.345   6.760   1.760
 6372SOL    HW120015   3.332   6.849   1.804
 6372SOL    HW220016   3.353   6.773   1.661
 6373SOL     OW20017   6.505   4.170   4.637
 6373SOL    HW120018   6.544   4.150   4.727
 6373SOL    HW220019   6.511   4.268   4.620
 6374SOL     OW20020   3.256   3.646   3.977
 6374SOL    HW120021   3.319   3.582   3.932
 6374SOL    HW220022   3.298   3.737   3.980
 6375SOL     OW20023   1.101   1.345   3.199
 6375SOL    HW120024   1.149   1.258   3.195
 6375SOL    HW220025   1.167   1.418   3.219
 6376SOL     OW20026   6.733   1.493   5.186
 6376SOL    HW120027   6.796   1.418   5.166
 6376SOL    HW220028   6.651   1.458   5.230
 6377SOL     OW20029   6.658   0.868   6.090
 6377SOL    HW120030   6.644   0.846   6.186
 6377SOL    HW220031   6.571   0.896   6.049
 6378SOL     OW20032   5.197   4.627   3.320
 6378SOL    HW120033   5.211   4.531   3.295
 6378SOL    HW220034   5.099   4.648   3.316
 6379SOL     OW20035   1.998   4.838   4.572
 6379SOL    HW120036   1.899   4.854   4.576
 6379SOL    HW220037   2.017   4.741   4.584
 6380SOL     OW20038   1.167   1.554   5.606
 6380SOL    HW120039   1.202   1.504   5.526
 6380SOL    HW220040   1.072   1.528   5.623
 6381SOL     OW20041   3.213   2.995   2.368
 6381SOL    HW120042   3.156   3.013   2.449
 6381SOL    HW220043   3.287   3.063   2.364
 6382SOL     OW20044   1.636   2.511   6.888
 6382SOL    HW120045   1.588   2.512   6.976
 6382SOL    HW220046   1.694   2.592   6.880
 6383SOL     OW20047   2.182   2.120   3.748
 6383SOL    HW120048   2.144   2.074   3.828
 6383SOL    HW220049   2.129   2.098   3.667
 6384SOL     OW20050   6.385   4.702   1.417
 6384SOL    HW120051   6.472   4.751   1.426
 6384SOL    HW220052   6.357   4.667   1.506
 6385SOL     OW20053   6.093   4.650   4.643
 6385SOL    HW120054   6.184   4.681   4.615
 6385SOL    HW220055   6.099   4.607   4.734
 6386SOL     OW20056   2.322   4.817   0.470
 6386SOL    HW120057   2.374   4.812   0.556
 6386SOL    HW220058   2.370   4.765   0.399
 6387SOL     OW20059   0.908   2.100   6.225
 6387SOL    HW120060   0.916   2.009   6.184
 6387SOL    HW220061   0.951   2.167   6.166
 6388SOL     OW20062   3.986   4.420   1.395
 6388SOL    HW120063   4.028   4.505   1.363
 6388SOL    HW220064   4.040   4.383   1.471
 6389SOL     OW20065   0.571   6.150   2.080
 6389SOL    HW120066   0.570   6.248   2.065
 6389SOL    HW220067   0.621   6.105   2.007
 6390SOL     OW20068   0.010   2.655   3.396
 6390SOL    HW120069   0.016   2.737   3.339
 6390SOL    HW220070   0.100   2.633   3.432
 6391SOL     OW20071   3.118   1.060   0.403
 6391SOL    HW120072   3.070   0.973   0.416
 6391SOL    HW220073   3.136   1.074   0.306
 6392SOL     OW20074   2.180   6.833   4.266
 6392SOL    HW120075   2.141   6.925   4.258
 6392SOL    HW220076   2.106   6.766   4.274
 6393SOL     OW20077   5.905   6.632   1.687
 6393SOL    HW120078   5.987   6.605   1.736
 6393SOL    HW220079   5.927   6.704   1.621
 6394SOL     OW20080   2.478   4.903   0.914
 6394SOL    HW120081   2.488   4.994   0.874
 6394SOL    HW220082   2.538   4.894   0.992
 6395SOL     OW20083   5.949   1.871   1.321
 6395SOL    HW120084   5.975   1.964   1.347
 6395SOL    HW220085   6.027   1.810   1.334
 6396SOL     OW20086   5.855   2.953   6.015
 6396SOL    HW120087   5.827   2.931   6.109
 6396SOL    HW220088   5.788   3.014   5.974
 6397SOL     OW20089   6.634   1.951   6.994
 6397SOL    HW120090   6.599   1.939   0.068
 6397SOL    HW220091   6.665   2.045   6.981
 6398SOL     OW20092   3.292   1.196   1.260
 6398SOL    HW120093   3.228   1.120   1.254
 6398SOL    HW220094   3.383   1.165   1.234
 6399SOL     OW20095   1.826   5.301   6.346
 6399SOL    HW120096   1.839   5.399   6.362
 6399SOL    HW220097   1.762   5.264   6.414
 6400SOL     OW20098   2.232   5.700   3.091
 6400SOL    HW120099   2.168   5.759   3.138
 6400SOL    HW220100   2.234   5.610   3.135
 6401SOL     OW20101   6.904   4.766   3.806
 6401SOL    HW120102   6.895   4.697   3.734
 6401SOL    HW220103   7.001   4.785   3.820
 6402SOL     OW20104   2.691   0.719   2.726
 6402SOL    HW120105   2.674   0.808   2.685
 6402SOL    HW220106   2.718   0.654   2.655
 6403SOL     OW20107   0.803   5.536   6.390
 6403SOL    HW120108   0.763   5.622   6.420
 6403SOL    HW220109   0.864   5.501   6.462
 6404SOL     OW20110   3.861   1.509   3.352
 6404SOL    HW120111   3.837   1.575   3.281
 6404SOL    HW220112   3.882   1.558   3.437
 6405SOL     OW20113   1.865   2.129   3.079
 6405SOL    HW120114   1.918   2.207   3.046
 6405SOL    HW220115   1.892   2.108   3.173
 6406SOL     OW20116   1.248   1.613   3.392
 6406SOL    HW120117   1.345   1.634   3.385
 6406SOL    HW220118   1.194   1.696   3.378
 6407SOL     OW20119   3.194   6.649   3.942
 6407SOL    HW120120   3.174   6.553   3.920
 6407SOL    HW220121   3.137   6.708   3.885
 6408SOL     OW20122   6.128   2.443   6.968
 6408SOL    HW120123   6.166   2.395   6.888
 6408SOL    HW220124   6.075   2.521   6.937
 6409SOL     OW20125   6.469   4.280   2.743
 6409SOL    HW120126   6.560   4.313   2.716
 6409SOL    HW220127   6.471   4.180   2.749
 6410SOL     OW20128   1.592   1.661   0.716
 6410SOL    HW120129   1.649   1.655   0.634
 6410SOL    HW220130   1.594   1.573   0.765
 6411SOL     OW20131   0.559   2.348   3.200
 6411SOL    HW120132   0.508   2.371   3.117
 6411SOL    HW220133   0.538   2.254   3.226
 6412SOL     OW20134   0.077   3.272   5.257
 6412SOL    HW120135   0.151   3.338   5.243
 6412SOL    HW220136   7.009   3.320   5.266
 6413SOL     OW20137   5.960   4.723   1.969
 6413SOL    HW120138   6.010   4.698   1.886
 6413SOL    HW220139   6.021   4.714   2.048
 6414SOL     OW20140   5.725   0.765   1.552
 6414SOL    HW120141   5.732   0.864   1.537
 6414SOL    HW220142   5.741   0.745   1.649
 6415SOL     OW20143   3.086   2.190   2.719
 6415SOL    HW120144   3.169   2.154   2.675
 6415SOL    HW220145   3.036   2.246   2.654
 6416SOL     OW20146   0.781   0.840   6.206
 6416SOL    HW120147   0.814   0.758   6.161
 6416SOL    HW220148   0.681   0.841   6.206
 6417SOL     OW20149   0.682   6.017   2.945
 6417SOL    HW120150   0.772   6.001   2.904
 6417SOL    HW220151   0.644   5.929   2.975
 6418SOL     OW20152   6.769   5.000   2.423
 6418SOL    HW120153   6.780   4.959   2.332
 6418SOL    HW220154   6.848   4.976   2.479
 6419SOL     OW20155   3.145   5.485   1.757
 6419SOL    HW120156   3.220   5.463   1.694
 6419SOL    HW220157   3.088   5.557   1.716
 6420SOL     OW20158   3.418   3.384   6.443
 6420SOL    HW120159   3.347   3.399   6.512
 6420SOL    HW220160   3.403   3.445   6.366
 6421SOL     OW20161   6.241   1.712   1.068
 6421SOL    HW120162   6.161   1.719   1.128
 6421SOL    HW220163   6.320   1.682   1.122
 6422SOL     OW20164   6.764   0.065   3.720
 6422SOL    HW120165   6.855   0.105   3.729
 6422SOL    HW220166   6.725   0.090   3.631
 6423SOL     OW20167   4.764   4.374   1.233
 6423SOL    HW120168   4.789   4.277   1.233
 6423SOL    HW220169   4.759   4.406   1.328
 6424SOL     OW20170   6.791   4.429   6.065
 6424SOL    HW120171   6.750   4.363   6.128
 6424SOL    HW220172   6.747   4.518   6.078
 6425SOL     OW20173   6.848   5.001   3.674
 6425SOL    HW120174   6.761   4.965   3.641
 6425SOL    HW220175   6.899   4.928   3.721
 6426SOL     OW20176   0.777   3.002   4.151
 6426SOL    HW120177   0.762   3.097   4.180
 6426SOL    HW220178   0.867   2.971   4.185
 6427SOL     OW20179   1.772   3.538   6.976
 6427SOL    HW120180   1.782   3.570   0.052
 6427SOL    HW220181   1.853   3.487   6.949
 6428SOL     OW20182   6.436   3.673   1.402
 6428SOL    HW120183   6.499   3.636   1.334
 6428SOL    HW220184   6.488   3.721   1.472
 6429SOL     OW20185   1.320   0.942   5.073
 6429SOL    HW120186   1.315   0.943   5.173
 6429SOL    HW220187   1.367   0.859   5.043
 6430SOL     OW20188   4.536   1.010   1.900
 6430SOL    HW120189   4.565   1.017   1.996
 6430SOL    HW220190   4.448   0.964   1.896
 6431SOL     OW20191   5.871   6.904   3.856
 6431SOL    HW120192   5.912   6.925   3.767
 6431SOL    HW220193   5.875   6.805   3.872
 6432SOL     OW20194   4.237   4.358   0.256
 6432SOL    HW120195   4.311   4.303   0.215
 6432SOL    HW220196   4.272   4.449   0.279
 6433SOL     OW20197   2.876   4.904   0.961
 6433SOL    HW120198   2.957   4.878   1.015
 6433SOL    HW220199   2.903   4.970   0.891
 6434SOL     OW20200   1.073   3.662   1.188
 6434SOL    HW120201   1.032   3.581   1.146
 6434SOL    HW220202   1.133   3.707   1.123
 6435SOL     OW20203   3.497   5.136   6.816
 6435SOL    HW120204   3.490   5.234   6.833
 6435SOL    HW220205   3.565   5.119   6.745
 6436SOL     OW20206   2.219   3.098   3.640
 6436SOL    HW120207   2.204   3.183   3.691
 6436SOL    HW220208   2.281   3.038   3.692
 6437SOL     OW20209   1.505   1.473   0.172
 6437SOL    HW120210   1.554   1.523   0.100
 6437SOL    HW220211   1.507   1.527   0.256
 6438SOL     OW20212   0.284   4.338   5.473
 6438SOL    HW120213   0.380   4.309   5.474
 6438SOL    HW220214   0.278   4.434   5.447
 6439SOL     OW20215   0.672   6.612   0.710
 6439SOL    HW120216   0.677   6.676   0.633
 6439SOL    HW220217   0.671   6.518   0.675
 6440SOL     OW20218   2.246   1.730   2.074
 6440SOL    HW120219   2.158   1.738   2.120
 6440SOL    HW220220   2.311   1.683   2.134
 6441SOL     OW20221   1.059   0.596   2.506
 6441SOL    HW120222   0.969   0.633   2.530
 6441SOL    HW220223   1.088   0.530   2.576
 6442SOL     OW20224   2.774   1.865   4.175
 6442SOL    HW120225   2.676   1.849   4.176
 6442SOL    HW220226   2.815   1.830   4.259
 6443SOL     OW20227   3.450   2.788   0.816
 6443SOL    HW120228   3.473   2.698   0.853
 6443SOL    HW220229   3.414   2.846   0.890
 6444SOL     OW20230   0.438   2.675   3.232
 6444SOL    HW120231   0.514   2.697   3.170
 6444SOL    HW220232   0.351   2.684   3.183
 6445SOL     OW20233   4.538   2.370   5.125
 6445SOL    HW120234   4.525   2.394   5.029
 6445SOL    HW220235   4.471   2.418   5.181
 6446SOL     OW20236   0.210   1.431   5.821
 6446SOL    HW120237   0.264   1.398   5.899
 6446SOL    HW220238   0.113   1.423   5.843
 6447SOL     OW20239   0.681   5.706   2.408
 6447SOL    HW120240   0.656   5.788   2.357
 6447SOL    HW220241   0.750   5.654   2.357
 6448SOL     OW20242   6.364   4.038   2.267
 6448SOL    HW120243   6.274   4.079   2.283
 6448SOL    HW220244   6.434   4.093   2.313
 6449SOL     OW20245   3.791   4.118   1.821
 6449SOL    HW120246   3.703   4.150   1.857
 6449SOL    HW220247   3.848   4.087   1.897
 6450SOL     OW20248   6.926   2.817   1.707
 6450SOL    HW120249   6.935   2.888   1.637
 6450SOL    HW220250   6.858   2.846   1.775
 6451SOL     OW20251   3.193   6.306   5.517
 6451SOL    HW120252   3.190   6.329   5.615
 6451SOL    HW220253   3.106   6.333   5.475
 6452SOL     OW20254   3.830   6.791   5.154
 6452SOL    HW120255   3.736   6.759   5.154
 6452SOL    HW220256   3.834   6.886   5.185
 6453SOL     OW20257   1.807   6.756   6.602
 6453SOL    HW120258   1.814   6.760   6.702
 6453SOL    HW220259   1.713   6.777   6.575
 6454SOL     OW20260   2.764   1.337   3.817
 6454SOL    HW120261   2.721   1.413   3.767
 6454SOL    HW220262   2.794   1.370   3.907
 6455SOL     OW20263   0.976   2.428   4.690
 6455SOL    HW120264   0.898   2.432   4.752
 6455SOL    HW220265   0.994   2.519   4.653
 6456SOL     OW20266   1.630   0.553   3.293
 6456SOL    HW120267   1.579   0.585   3.373
 6456SOL    HW220268   1.682   0.628   3.254
 6457SOL     OW20269   5.679   1.314   1.071
 6457SOL    HW120270   5.626   1.319   0.987
 6457SOL    HW220271   5.655   1.393   1.129
 6458SOL     OW20272   0.642   6.127   2.376
 6458SOL    HW120273   0.663   6.083   2.463
 6458SOL    HW220274   0.556   6.177   2.384
 6459SOL     OW20275   5.337   5.751   0.327
 6459SOL    HW120276   5.421   5.781   0.282
 6459SOL    HW220277   5.351   5.660   0.366
 6460SOL     OW20278   4.077   5.034   6.066
 6460SOL    HW120279   4.021   5.100   6.017
 6460SOL    HW220280   4.019   4.966   6.109
 6461SOL     OW20281   3.259   5.461   4.823
 6461SOL    HW120282   3.174   5.434   4.777
 6461SOL    HW220283   3.334   5.404   4.790
 6462SOL     OW20284   2.088   3.102   5.219
 6462SOL    HW120285   2.074   3.156   5.136
 6462SOL    HW220286   2.170   3.133   5.266
 6463SOL     OW20287   2.599   4.727   6.406
 6463SOL    HW120288   2.632   4.636   6.432
 6463SOL    HW220289   2.502   4.723   6.386
 6464SOL     OW20290   0.656   4.820   4.090
 6464SOL    HW120291   0.639   4.724   4.066
 6464SOL    HW220292   0.748   4.846   4.062
 6465SOL     OW20293   5.809   2.426   3.597
 6465SOL    HW120294   5.728   2.476   3.566
 6465SOL    HW220295   5.797   2.328   3.579
 6466SOL     OW20296   6.855   2.842   4.701
 6466SOL    HW120297   6.833   2.850   4.798
 6466SOL    HW220298   6.874   2.746   4.679
 6467SOL     OW20299   2.109   1.172   6.640
 6467SOL    HW120300   2.140   1.264   6.616
 6467SOL    HW220301   2.033   1.146   6.580
 6468SOL     OW20302   3.778   5.972   1.178
 6468SOL    HW120303   3.755   5.899   1.241
 6468SOL    HW220304   3.844   5.938   1.110
 6469SOL     OW20305   5.730   1.282   5.469
 6469SOL    HW120306   5.755   1.350   5.400
 6469SOL    HW220307   5.782   1.198   5.454
 6470SOL     OW20308   6.565   5.421   6.297
 6470SOL    HW120309   6.491   5.385   6.240
 6470SOL    HW220310   6.653   5.390   6.262
 6471SOL     OW20311   6.846   5.525   6.420
 6471SOL    HW120312   6.772   5.591   6.416
 6471SOL    HW220313   6.869   5.494   6.327
 6472SOL     OW20314   0.934   5.543   1.043
 6472SOL    HW120315   0.886   5.504   0.965
 6472SOL    HW220316   1.010   5.600   1.012
 6473SOL     OW20317   2.157   1.312   5.732
 6473SOL    HW120318   2.160   1.399   5.781
 6473SOL    HW220319   2.091   1.251   5.777
 6474SOL     OW20320   1.708   4.187   6.082
 6474SOL    HW120321   1.617   4.174   6.040
 6474SOL    HW220322   1.759   4.255   6.030
 6475SOL     OW20323   6.276   6.093   4.141
 6475SOL    HW120324   6.345   6.044   4.195
 6475SOL    HW220325   6.287   6.068   4.045
 6476SOL     OW20326   4.793   4.126   2.372
 6476SOL    HW120327   4.785   4.098   2.276
 6476SOL    HW220328   4.853   4.206   2.378
 6477SOL     OW20329   6.841   4.839   0.784
 6477SOL    HW120330   6.766   4.859   0.720
 6477SOL    HW220331   6.929   4.849   0.737
 6478SOL     OW20332   3.293   5.653   2.252
 6478SOL    HW120333   3.277   5.627   2.347
 6478SOL    HW220334   3.312   5.571   2.197
 6479SOL     OW20335   4.081   5.222   2.388
 6479SOL    HW120336   4.121   5.144   2.436
 6479SOL    HW220337   4.004   5.257   2.442
 6480SOL     OW20338   4.029   2.817   5.757
 6480SOL    HW120339   4.107   2.787   5.703
 6480SOL    HW220340   4.030   2.771   5.846
 6481SOL     OW20341   3.320   2.449   1.698
 6481SOL    HW120342   3.231   2.408   1.678
 6481SOL    HW220343   3.386   2.376   1.717
 6482SOL     OW20344   6.699   0.595   6.949
 6482SOL    HW120345   6.740   0.608   6.858
 6482SOL    HW220346   6.726   0.670   7.008
 6483SOL     OW20347   2.529   6.201   2.415
 6483SOL    HW120348   2.497   6.135   2.348
 6483SOL    HW220349   2.510   6.166   2.507
 6484SOL     OW20350   4.004   0.229   2.476
 6484SOL    HW120351   4.070   0.201   2.546
 6484SOL    HW220352   3.912   0.220   2.512
 6485SOL     OW20353   1.840   3.176   3.390
 6485SOL    HW120354   1.858   3.265   3.433
 6485SOL    HW220355   1.778   3.123   3.447
 6486SOL     OW20356   1.343   4.250   3.626
 6486SOL    HW120357   1.276   4.298   3.570
 6486SOL    HW220358   1.342   4.152   3.603
 6487SOL     OW20359   6.228   6.003   4.720
 6487SOL    HW120360   6.291   5.980   4.794
 6487SOL    HW220361   6.263   5.966   4.633
 6488SOL     OW20362   3.040   6.121   5.333
 6488SOL    HW120363   3.134   6.094   5.314
 6488SOL    HW220364   2.986   6.116   5.249
 6489SOL     OW20365   1.749   2.785   6.746
 6489SOL    HW120366   1.804   2.868   6.738
 6489SOL    HW220367   1.802   2.706   6.715
 6490SOL     OW20368   3.910   2.266   0.128
 6490SOL    HW120369   3.972   2.253   0.206
 6490SOL    HW220370   3.816   2.259   0.160
 6491SOL     OW20371   3.997   1.255   6.910
 6491SOL    HW120372   3.970   1.266   6.814
 6491SOL    HW220373   4.010   1.345   6.951
 6492SOL     OW20374   5.931   6.935   6.897
 6492SOL    HW120375   5.957   6.840   6.879
 6492SOL    HW220376   5.985   6.996   6.839
 6493SOL     OW20377   1.539   6.446   5.291
 6493SOL    HW120378   1.514   6.385   5.366
 6493SOL    HW220379   1.603   6.399   5.230
 6494SOL     OW20380   0.844   0.413   3.199
 6494SOL    HW120381   0.828   0.321   3.162
 6494SOL    HW220382   0.840   0.409   3.299
 6495SOL     OW20383   5.368   6.122   4.091
 6495SOL    HW120384   5.387   6.178   4.172
 6495SOL    HW220385   5.345   6.029   4.119
 6496SOL     OW20386   0.016   6.026   1.973
 6496SOL    HW120387   0.087   6.002   2.039
 6496SOL    HW220388   0.005   6.125   1.970
 6497SOL     OW20389   2.562   3.164   1.102
 6497SOL    HW120390   2.519   3.153   1.192
 6497SOL    HW220391   2.534   3.088   1.043
 6498SOL     OW20392   2.317   4.992   3.701
 6498SOL    HW120393   2.281   5.044   3.624
 6498SOL    HW220394   2.384   5.047   3.751
 6499SOL     OW20395   4.951   0.767   5.308
 6499SOL    HW120396   4.944   0.749   5.210
 6499SOL    HW220397   5.047   0.766   5.335
 6500SOL     OW20398   6.232   3.877   3.324
 6500SOL    HW120399   6.324   3.874   3.286
 6500SOL    HW220400   6.178   3.946   3.276
 6501SOL     OW20401   6.385   3.278   1.049
 6501SOL    HW120402   6.315   3.212   1.077
 6501SOL    HW220403   6.342   3.367   1.033
 6502SOL     OW20404   0.209   4.090   3.732
 6502SOL    HW120405   0.301   4.056   3.754
 6502SOL    HW220406   0.162   4.115   3.817
 6503SOL     OW20407   5.917   6.653   3.878
 6503SOL    HW120408   5.911   6.557   3.851
 6503SOL    HW220409   6.008   6.670   3.917
 6504SOL     OW20410   3.861   6.881   6.438
 6504SOL    HW120411   3.929   6.812   6.418
 6504SOL    HW220412   3.811   6.904   6.354
 6505SOL     OW20413   6.363   4.776   0.762
 6505SOL    HW120414   6.365   4.726   0.849
 6505SOL    HW220415   6.298   4.852   0.770
 6506SOL     OW20416   0.878   3.023   1.090
 6506SOL    HW120417   0.904   2.951   1.154
 6506SOL    HW220418   0.796   2.996   1.040
 6507SOL     OW20419   1.313   5.754   0.177
 6507SOL    HW120420   1.375   5.758   0.255
 6507SOL    HW220421   1.359   5.710   0.099
 6508SOL     OW20422   2.511   1.740   3.525
 6508SOL    HW120423   2.559   1.810   3.472
 6508SOL    HW220424   2.423   1.720   3.481
 6509SOL     OW20425   1.723   2.600   4.742
 6509SOL    HW120426   1.662   2.675   4.716
 6509SOL    HW220427   1.668   2.524   4.777
 6510SOL     OW20428   0.211   5.204   6.425
 6510SOL    HW120429   0.282   5.135   6.441
 6510SOL    HW220430   0.122   5.159   6.416
 6511SOL     OW20431   5.883   0.380   4.728
 6511SOL    HW120432   5.951   0.441   4.686
 6511SOL    HW220433   5.798   0.384   4.675
 6512SOL     OW20434   4.477   0.123   2.912
 6512SOL    HW120435   4.572   0.131   2.942
 6512SOL    HW220436   4.443   0.031   2.933
 6513SOL     OW20437   3.600   6.445   3.786
 6513SOL    HW120438   3.673   6.381   3.760
 6513SOL    HW220439   3.565   6.420   3.876
 6514SOL     OW20440   5.164   0.027   4.048
 6514SOL    HW120441   5.179   7.003   4.138
 6514SOL    HW220442   5.249   0.027   3.996
 6515SOL     OW20443   0.066   4.751   4.153
 6515SOL    HW120444   0.126   4.681   4.114
 6515SOL    HW220445   0.063   4.830   4.091
 6516SOL     OW20446   0.256   1.837   6.582
 6516SOL    HW120447   0.307   1.769   6.528
 6516SOL    HW220448   0.268   1.818   6.679
 6517SOL     OW20449   6.697   2.019   0.419
 6517SOL    HW120450   6.692   1.942   0.355
 6517SOL    HW220451   6.720   2.102   0.370
 6518SOL     OW20452   0.861   6.268   0.164
 6518SOL    HW120453   0.923   6.235   0.236
 6518SOL    HW220454   0.770   6.230   0.179
 6519SOL     OW20455   2.785   1.733   3.916
 6519SOL    HW120456   2.764   1.776   4.003
 6519SOL    HW220457   2.872   1.684   3.922
 6520SOL     OW20458   6.063   5.479   3.246
 6520SOL    HW120459   6.123   5.551   3.213
 6520SOL    HW220460   6.118   5.400   3.275
 6521SOL     OW20461   0.864   1.116   4.528
 6521SOL    HW120462   0.881   1.136   4.432
 6521SOL    HW220463   0.928   1.168   4.585
 6522SOL     OW20464   2.584   5.465   6.812
 6522SOL    HW120465   2.596   5.373   6.849
 6522SOL    HW220466   2.586   5.462   6.712
 6523SOL     OW20467   2.825   1.477   6.387
 6523SOL    HW120468   2.778   1.565   6.393
 6523SOL    HW220469   2.888   1.468   6.464
 6524SOL     OW20470   3.597   3.236   3.938
 6524SOL    HW120471   3.564   3.210   4.028
 6524SOL    HW220472   3.661   3.167   3.905
 6525SOL     OW20473   1.670   2.869   2.597
 6525SOL    HW120474   1.752   2.925   2.582
 6525SOL    HW220475   1.670   2.793   2.532
 6526SOL     OW20476   0.793   6.530   5.102
 6526SOL    HW120477   0.845   6.506   5.184
 6526SOL    HW220478   0.738   6.611   5.119
 6527SOL     OW20479   1.122   1.143   5.075
 6527SOL    HW120480   1.192   1.072   5.078
 6527SOL    HW220481   1.165   1.233   5.076
 6528SOL     OW20482   0.352   0.990   4.075
 6528SOL    HW120483   0.352   0.960   3.980
 6528SOL    HW220484   0.437   0.960   4.120
 6529SOL     OW20485   6.054   1.829   2.830
 6529SOL    HW120486   6.053   1.928   2.817
 6529SOL    HW220487   5.960   1.795   2.833
 6530SOL     OW20488   6.507   3.088   0.523
 6530SOL    HW120489   6.580   3.020   0.517
 6530SOL    HW220490   6.465   3.083   0.614
 6531SOL     OW20491   5.694   2.943   3.968
 6531SOL    HW120492   5.742   2.880   4.028
 6531SOL    HW220493   5.597   2.917   3.962
 6532SOL     OW20494   6.272   1.763   0.164
 6532SOL    HW120495   6.307   1.831   0.100
 6532SOL    HW220496   6.348   1.710   0.201
 6533SOL     OW20497   5.616   6.180   1.171
 6533SOL    HW120498   5.616   6.269   1.218
 6533SOL    HW220499   5.697   6.128   1.198
 6534SOL     OW20500   2.589   3.576   1.253
 6534SOL    HW120501   2.638   3.657   1.221
 6534SOL    HW220502   2.554   3.524   1.175
 6535SOL     OW20503   0.465   2.879   5.086
 6535SOL    HW120504   0.423   2.798   5.045
 6535SOL    HW220505   0.414   2.960   5.060
 6536SOL     OW20506   6.386   2.858   6.492
 6536SOL    HW120507   6.429   2.781   6.539
 6536SOL    HW220508   6.457   2.917   6.453
 6537SOL     OW20509   6.674   6.682   6.641
 6537SOL    HW120510   6.685   6.686   6.542
 6537SOL    HW220511   6.707   6.594   6.675
 6538SOL     OW20512   3.999   4.434   0.133
 6538SOL    HW120513   4.094   4.411   0.154
 6538SOL    HW220514   3.980   4.411   0.037
 6539SOL     OW20515   2.351   2.109   6.580
 6539SOL    HW120516   2.392   2.114   6.489
 6539SOL    HW220517   2.272   2.171   6.584
 6540SOL     OW20518   3.853   1.888   4.373
 6540SOL    HW120519   3.834   1.835   4.290
 6540SOL    HW220520   3.809   1.977   4.366
 6541SOL     OW20521   3.018   2.144   5.107
 6541SOL    HW120522   2.961   2.155   5.026
 6541SOL    HW220523   3.104   2.195   5.095
 6542SOL     OW20524   6.339   4.979   3.127
 6542SOL    HW120525   6.261   4.924   3.099
 6542SOL    HW220526   6.383   5.018   3.046
 6543SOL     OW20527   6.382   5.188   0.204
 6543SOL    HW120528   6.362   5.101   0.159
 6543SOL    HW220529   6.308   5.212   0.266
 6544SOL     OW20530   0.051   5.937   4.128
 6544SOL    HW120531   6.979   5.898   4.110
 6544SOL    HW220532   0.040   6.023   4.178
 6545SOL     OW20533   4.975   1.497   6.354
 6545SOL    HW120534   4.943   1.579   6.402
 6545SOL    HW220535   4.962   1.508   6.256
 6546SOL     OW20536   4.639   4.012   6.509
 6546SOL    HW120537   4.564   4.049   6.563
 6546SOL    HW220538   4.725   4.026   6.558
 6547SOL     OW20539   4.148   1.872   6.120
 6547SOL    HW120540   4.196   1.810   6.182
 6547SOL    HW220541   4.213   1.935   6.078
 6548SOL     OW20542   0.748   4.379   6.462
 6548SOL    HW120543   0.733   4.287   6.427
 6548SOL    HW220544   0.673   4.405   6.522
 6549SOL     OW20545   3.758   1.930   1.164
 6549SOL    HW120546   3.839   1.875   1.148
 6549SOL    HW220547   3.774   1.994   1.239
 6550SOL     OW20548   0.535   6.204   3.446
 6550SOL    HW120549   0.561   6.172   3.355
 6550SOL    HW220550   0.615   6.209   3.505
 6551SOL     OW20551   2.044   4.384   1.888
 6551SOL    HW120552   2.136   4.377   1.927
 6551SOL    HW220553   2.009   4.292   1.869
 6552SOL     OW20554   2.306   5.690   5.142
 6552SOL    HW120555   2.258   5.724   5.062
 6552SOL    HW220556   2.297   5.756   5.217
 6553SOL     OW20557   0.177   3.228   1.238
 6553SOL    HW120558   0.158   3.135   1.270
 6553SOL    HW220559   0.274   3.237   1.217
 6554SOL     OW20560   5.920   1.487   5.758
 6554SOL    HW120561   5.850   1.459   5.823
 6554SOL    HW220562   5.894   1.574   5.716
 6555SOL     OW20563   1.702   0.791   2.301
 6555SOL    HW120564   1.631   0.862   2.305
 6555SOL    HW220565   1.712   0.749   2.391
 6556SOL     OW20566   4.715   4.650   4.955
 6556SOL    HW120567   4.796   4.709   4.962
 6556SOL    HW220568   4.720   4.596   4.871
 6557SOL     OW20569   5.569   5.804   0.517
 6557SOL    HW120570   5.558   5.850   0.429
 6557SOL    HW220571   5.664   5.810   0.546
 6558SOL     OW20572   6.400   5.489   1.036
 6558SOL    HW120573   6.343   5.463   1.114
 6558SOL    HW220574   6.406   5.412   0.971
 6559SOL     OW20575   5.306   3.465   1.159
 6559SOL    HW120576   5.267   3.552   1.189
 6559SOL    HW220577   5.354   3.422   1.235
 6560SOL     OW20578   3.752   2.919   1.499
 6560SOL    HW120579   3.767   2.958   1.590
 6560SOL    HW220580   3.823   2.951   1.437
 6561SOL     OW20581   3.936   3.893   2.539
 6561SOL    HW120582   3.910   3.955   2.465
 6561SOL    HW220583   3.885   3.916   2.622
 6562SOL     OW20584   6.586   4.602   6.194
 6562SOL    HW120585   6.506   4.616   6.135
 6562SOL    HW220586   6.583   4.510   6.232
 6563SOL     OW20587   0.584   5.738   0.079
 6563SOL    HW120588   0.655   5.692   0.133
 6563SOL    HW220589   0.597   5.716   7.001
 6564SOL     OW20590   1.007   3.551   2.171
 6564SOL    HW120591   1.053   3.466   2.146
 6564SOL    HW220592   0.999   3.610   2.091
 6565SOL     OW20593   6.095   2.642   5.081
 6565SOL    HW120594   6.076   2.726   5.030
 6565SOL    HW220595   6.145   2.664   5.165
 6566SOL     OW20596   3.280   0.485   1.628
 6566SOL    HW120597   3.324   0.528   1.550
 6566SOL    HW220598   3.186   0.519   1.636
 6567SOL     OW20599   4.853   2.912   1.290
 6567SOL    HW120600   4.890   3.005   1.287
 6567SOL    HW220601   4.762   2.914   1.332
 6568SOL     OW20602   4.601   5.012   1.963
 6568SOL    HW120603   4.531   4.964   2.016
 6568SOL    HW220604   4.687   5.011   2.014
 6569SOL     OW20605   2.500   5.155   0.796
 6569SOL    HW120606   2.425   5.187   0.738
 6569SOL    HW220607   2.552   5.234   0.828
 6570SOL     OW20608   4.618   6.915   1.963
 6570SOL    HW120609   4.679   6.991   1.945
 6570SOL    HW220610   4.546   6.911   1.894
 6571SOL     OW20611   2.363   6.033   3.103
 6571SOL    HW120612   2.394   6.005   3.012
 6571SOL    HW220613   2.264   6.021   3.110
 6572SOL     OW20614   6.367   4.274   5.077
 6572SOL    HW120615   6.369   4.225   5.164
 6572SOL    HW220616   6.283   4.252   5.027
 6573SOL     OW20617   3.563   0.689   2.832
 6573SOL    HW120618   3.481   0.652   2.786
 6573SOL    HW220619   3.628   0.719   2.763
 6574SOL     OW20620   2.402   6.199   1.969
 6574SOL    HW120621   2.330   6.153   1.915
 6574SOL    HW220622   2.443   6.271   1.913
 6575SOL     OW20623   0.697   1.284   1.944
 6575SOL    HW120624   0.669   1.299   2.039
 6575SOL    HW220625   0.734   1.192   1.934
 6576SOL     OW20626   0.985   5.990   6.498
 6576SOL    HW120627   0.986   6.074   6.444
 6576SOL    HW220628   1.079   5.961   6.516
 6577SOL     OW20629   0.419   1.743   3.517
 6577SOL    HW120630   0.333   1.784   3.546
 6577SOL    HW220631   0.486   1.815   3.497
 6578SOL     OW20632   6.384   5.351   3.435
 6578SOL    HW120633   6.467   5.340   3.382
 6578SOL    HW220634   6.373   5.274   3.498
 6579SOL     OW20635   6.872   3.884   3.869
 6579SOL    HW120636   6.880   3.818   3.944
 6579SOL    HW220637   6.909   3.844   3.785
 6580SOL     OW20638   6.017   1.020   0.942
 6580SOL    HW120639   5.955   1.049   1.015
 6580SOL    HW220640   6.087   1.090   0.928
 6581SOL     OW20641   3.552   0.988   5.364
 6581SOL    HW120642   3.460   1.024   5.381
 6581SOL    HW220643   3.604   0.987   5.450
 6582SOL     OW20644   1.138   6.853   2.346
 6582SOL    HW120645   1.153   6.906   2.430
 6582SOL    HW220646   1.047   6.814   2.348
 6583SOL     OW20647   4.975   1.523   6.094
 6583SOL    HW120648   5.060   1.502   6.046
 6583SOL    HW220649   4.903   1.541   6.027
 6584SOL     OW20650   5.842   2.195   6.497
 6584SOL    HW120651   5.838   2.128   6.571
 6584SOL    HW220652   5.779   2.271   6.516
 6585SOL     OW20653   0.030   1.540   0.263
 6585SOL    HW120654   0.121   1.553   0.302
 6585SOL    HW220655   6.998   1.627   0.265
 6586SOL     OW20656   6.585   2.403   5.700
 6586SOL    HW120657   6.609   2.307   5.686
 6586SOL    HW220658   6.662   2.450   5.744
 6587SOL     OW20659   2.651   5.623   4.359
 6587SOL    HW120660   2.651   5.635   4.459
 6587SOL    HW220661   2.744   5.604   4.328
 6588SOL     OW20662   1.565   3.988   1.129
 6588SOL    HW120663   1.650   3.943   1.101
 6588SOL    HW220664   1.574   4.021   1.223
 6589SOL     OW20665   4.795   0.420   6.687
 6589SOL    HW120666   4.765   0.515   6.678
 6589SOL    HW220667   4.791   0.376   6.597
 6590SOL     OW20668   0.173   1.670   4.601
 6590SOL    HW120669   0.204   1.760   4.631
 6590SOL    HW220670   0.124   1.678   4.514
 6591SOL     OW20671   5.907   6.841   2.609
 6591SOL    HW120672   5.877   6.797   2.693
 6591SOL    HW220673   5.897   6.940   2.618
 6592SOL     OW20674   4.370   7.007   4.194
 6592SOL    HW120675   4.298   0.056   4.176
 6592SOL    HW220676   4.358   6.929   4.132
 6593SOL     OW20677   2.613   2.092   3.797
 6593SOL    HW120678   2.629   2.187   3.823
 6593SOL    HW220679   2.701   2.044   3.788
 6594SOL     OW20680   4.551   1.069   0.016
 6594SOL    HW120681   4.472   1.107   6.987
 6594SOL    HW220682   4.523   1.037   0.107
 6595SOL     OW20683   1.052   3.829   1.406
 6595SOL    HW120684   1.067   3.767   1.329
 6595SOL    HW220685   0.969   3.802   1.455
 6596SOL     OW20686   4.001   0.541   6.204
 6596SOL    HW120687   3.959   0.589   6.127
 6596SOL    HW220688   4.022   0.447   6.177
 6597SOL     OW20689   1.034   6.445   4.445
 6597SOL    HW120690   0.988   6.480   4.363
 6597SOL    HW220691   1.111   6.503   4.469
 6598SOL     OW20692   1.807   5.262   5.279
 6598SOL    HW120693   1.715   5.290   5.253
 6598SOL    HW220694   1.835   5.182   5.226
 6599SOL     OW20695   4.204   4.712   5.923
 6599SOL    HW120696   4.237   4.668   6.007
 6599SOL    HW220697   4.199   4.811   5.937
 6600SOL     OW20698   5.754   5.064   5.325
 6600SOL    HW120699   5.701   5.141   5.291
 6600SOL    HW220700   5.754   5.065   5.425
 6601SOL     OW20701   0.312   0.262   6.976
 6601SOL    HW120702   0.214   0.245   6.983
 6601SOL    HW220703   0.328   0.360   6.971
 6602SOL     OW20704   0.312   2.625   0.994
 6602SOL    HW120705   0.247   2.571   0.941
 6602SOL    HW220706   0.392   2.569   1.015
 6603SOL     OW20707   1.999   3.154   4.200
 6603SOL    HW120708   2.042   3.140   4.289
 6603SOL    HW220709   2.069   3.152   4.129
 6604SOL     OW20710   2.503   5.974   1.674
 6604SOL    HW120711   2.451   6.057   1.657
 6604SOL    HW220712   2.546   5.980   1.765
 6605SOL     OW20713   4.909   5.195   0.405
 6605SOL    HW120714   4.932   5.271   0.344
 6605SOL    HW220715   4.961   5.205   0.491
 6606SOL     OW20716   4.621   0.330   2.550
 6606SOL    HW120717   4.605   0.317   2.452
 6606SOL    HW220718   4.712   0.297   2.574
 6607SOL     OW20719   1.764   1.371   2.126
 6607SOL    HW120720   1.707   1.413   2.056
 6607SOL    HW220721   1.712   1.364   2.211
 6608SOL     OW20722   5.369   3.485   2.739
 6608SOL    HW120723   5.403   3.452   2.651
 6608SOL    HW220724   5.359   3.584   2.736
 6609SOL     OW20725   5.130   0.829   7.006
 6609SOL    HW120726   5.094   0.922   7.013
 6609SOL    HW220727   5.068   0.766   0.034
 6610SOL     OW20728   1.800   0.229   7.015
 6610SOL    HW120729   1.732   0.207   6.945
 6610SOL    HW220730   1.802   0.328   0.010
 6611SOL     OW20731   6.627   2.593   3.132
 6611SOL    HW120732   6.563   2.653   3.179
 6611SOL    HW220733   6.697   2.561   3.196
 6612SOL     OW20734   1.728   4.800   6.500
 6612SOL    HW120735   1.758   4.705   6.495
 6612SOL    HW220736   1.797   4.859   6.458
 6613SOL     OW20737   5.493   6.060   3.775
 6613SOL    HW120738   5.503   6.155   3.745
 6613SOL    HW220739   5.582   6.023   3.801
 6614SOL     OW20740   4.646   6.533   6.623
 6614SOL    HW120741   4.571   6.552   6.560
 6614SOL    HW220742   4.729   6.512   6.571
 6615SOL     OW20743   0.513   3.828   4.848
 6615SOL    HW120744   0.424   3.847   4.889
 6615SOL    HW220745   0.506   3.837   4.748
 6616SOL     OW20746   3.915   1.682   6.074
 6616SOL    HW120747   3.990   1.745   6.054
 6616SOL    HW220748   3.854   1.723   6.142
 6617SOL     OW20749   3.543   6.847   3.541
 6617SOL    HW120750   3.529   6.882   3.449
 6617SOL    HW220751   3.507   6.913   3.607
 6618SOL     OW20752   1.135   3.157   2.232
 6618SOL    HW120753   1.211   3.222   2.229
 6618SOL    HW220754   1.110   3.139   2.328
 6619SOL     OW20755   4.473   6.636   4.185
 6619SOL    HW120756   4.563   6.673   4.208
 6619SOL    HW220757   4.457   6.551   4.235
 6620SOL     OW20758   1.565   3.049   5.900
 6620SOL    HW120759   1.478   3.005   5.880
 6620SOL    HW220760   1.604   3.008   5.983
 6621SOL     OW20761   3.048   3.944   0.850
 6621SOL    HW120762   2.960   3.899   0.838
 6621SOL    HW220763   3.080   3.930   0.944
 6622SOL     OW20764   6.078   5.612   1.200
 6622SOL    HW120765   6.084   5.531   1.259
 6622SOL    HW220766   6.029   5.684   1.248
 6623SOL     OW20767   3.892   3.207   1.943
 6623SOL    HW120768   3.969   3.258   1.981
 6623SOL    HW220769   3.880   3.122   1.994
 6624SOL     OW20770   2.715   6.046   4.656
 6624SOL    HW120771   2.805   6.088   4.664
 6624SOL    HW220772   2.648   6.115   4.631
 6625SOL     OW20773   5.953   1.392   6.673
 6625SOL    HW120774   6.036   1.373   6.726
 6625SOL    HW220775   5.917   1.306   6.636
 6626SOL     OW20776   3.439   5.338   3.329
 6626SOL    HW120777   3.359   5.305   3.380
 6626SOL    HW220778   3.487   5.260   3.289
 6627SOL     OW20779   1.999   0.731   5.738
 6627SOL    HW120780   2.057   0.653   5.759
 6627SOL    HW220781   1.907   0.700   5.716
 6628SOL     OW20782   4.856   4.947   2.814
 6628SOL    HW120783   4.872   4.919   2.719
 6628SOL    HW220784   4.827   5.043   2.815
 6629SOL     OW20785   3.324   6.048   0.763
 6629SOL    HW120786   3.297   5.956   0.734
 6629SOL    HW220787   3.395   6.042   0.833
 6630SOL     OW20788   3.614   1.357   0.024
 6630SOL    HW120789   3.604   1.278   0.085
 6630SOL    HW220790   3.674   1.425   0.068
 6631SOL     OW20791   4.773   0.100   2.274
 6631SOL    HW120792   4.840   0.029   2.256
 6631SOL    HW220793   4.681   0.061   2.271
 6632SOL     OW20794   0.284   1.528   1.557
 6632SOL    HW120795   0.324   1.499   1.644
 6632SOL    HW220796   0.250   1.622   1.567
 6633SOL     OW20797   1.454   5.579   6.129
 6633SOL    HW120798   1.544   5.612   6.101
 6633SOL    HW220799   1.447   5.481   6.111
 6634SOL     OW20800   6.534   3.354   6.104
 6634SOL    HW120801   6.601   3.376   6.033
 6634SOL    HW220802   6.509   3.257   6.099
 6635SOL     OW20803   4.080   5.048   3.513
 6635SOL    HW120804   4.156   5.066   3.575
 6635SOL    HW220805   4.012   5.121   3.523
 6636SOL     OW20806   1.278   3.469   5.139
 6636SOL    HW120807   1.364   3.520   5.144
 6636SOL    HW220808   1.220   3.508   5.067
 6637SOL     OW20809   0.870   0.463   0.137
 6637SOL    HW120810   0.826   0.373   0.131
 6637SOL    HW220811   0.878   0.490   0.233
 6638SOL     OW20812   3.338   5.115   4.664
 6638SOL    HW120813   3.386   5.177   4.725
 6638SOL    HW220814   3.286   5.048   4.718
 6639SOL     OW20815   5.703   5.360   6.285
 6639SOL    HW120816   5.709   5.433   6.216
 6639SOL    HW220817   5.720   5.272   6.241
 6640SOL     OW20818   0.068   1.759   4.355
 6640SOL    HW120819   0.061   1.697   4.277
 6640SOL    HW220820   7.011   1.824   4.353
 6641SOL     OW20821   3.068   3.730   6.622
 6641SOL    HW120822   3.105   3.792   6.553
 6641SOL    HW220823   3.101   3.758   6.712
 6642SOL     OW20824   2.252   5.154   6.861
 6642SOL    HW120825   2.288   5.213   6.788
 6642SOL    HW220826   2.326   5.096   6.896
 6643SOL     OW20827   6.151   4.713   6.974
 6643SOL    HW120828   6.159   4.682   6.879
 6643SOL    HW220829   6.148   4.634   0.016
 6644SOL     OW20830   3.077   4.771   1.902
 6644SOL    HW120831   3.008   4.699   1.900
 6644SOL    HW220832   3.159   4.740   1.855
 6645SOL     OW20833   6.922   5.086   0.598
 6645SOL    HW120834   6.822   5.087   0.588
 6645SOL    HW220835   6.957   5.179   0.590
 6646SOL     OW20836   4.640   5.458   4.461
 6646SOL    HW120837   4.679   5.464   4.370
 6646SOL    HW220838   4.547   5.495   4.460
 6647SOL     OW20839   3.199   0.836   2.963
 6647SOL    HW120840   3.243   0.915   2.918
 6647SOL    HW220841   3.205   0.848   3.062
 6648SOL     OW20842   3.785   5.480   3.009
 6648SOL    HW120843   3.872   5.477   2.959
 6648SOL    HW220844   3.802   5.467   3.107
 6649SOL     OW20845   5.520   2.383   6.031
 6649SOL    HW120846   5.585   2.315   5.998
 6649SOL    HW220847   5.566   2.471   6.042
 6650SOL     OW20848   3.965   1.278   3.220
 6650SOL    HW120849   3.909   1.198   3.238
 6650SOL    HW220850   3.938   1.352   3.281
 6651SOL     OW20851   1.546   2.298   1.003
 6651SOL    HW120852   1.468   2.237   0.988
 6651SOL    HW220853   1.618   2.275   0.938
 6652SOL     OW20854   6.702   3.804   0.798
 6652SOL    HW120855   6.728   3.767   0.709
 6652SOL    HW220856   6.774   3.783   0.865
 6653SOL     OW20857   3.797   3.916   2.786
 6653SOL    HW120858   3.779   3.981   2.859
 6653SOL    HW220859   3.761   3.826   2.812
 6654SOL     OW20860   2.067   2.869   1.145
 6654SOL    HW120861   2.003   2.945   1.137
 6654SOL    HW220862   2.090   2.835   1.054
 6655SOL     OW20863   2.649   6.854   2.011
 6655SOL    HW120864   2.613   6.765   1.985
 6655SOL    HW220865   2.623   6.875   2.106
 6656SOL     OW20866   6.829   0.898   2.784
 6656SOL    HW120867   6.758   0.870   2.719
 6656SOL    HW220868   6.793   0.971   2.843
 6657SOL     OW20869   4.100   6.726   6.396
 6657SOL    HW120870   4.130   6.763   6.308
 6657SOL    HW220871   4.178   6.714   6.456
 6658SOL     OW20872   5.774   0.845   5.785
 6658SOL    HW120873   5.760   0.942   5.804
 6658SOL    HW220874   5.872   0.828   5.771
 6659SOL     OW20875   2.685   2.326   0.250
 6659SOL    HW120876   2.711   2.261   0.321
 6659SOL    HW220877   2.677   2.278   0.163
 6660SOL     OW20878   6.778   6.558   1.326
 6660SOL    HW120879   6.833   6.525   1.249
 6660SOL    HW220880   6.828   6.544   1.411
 6661SOL     OW20881   6.756   5.345   3.609
 6661SOL    HW120882   6.743   5.279   3.534
 6661SOL    HW220883   6.786   5.432   3.572
 6662SOL     OW20884   1.717   1.120   0.296
 6662SOL    HW120885   1.666   1.035   0.304
 6662SOL    HW220886   1.693   1.165   0.210
 6663SOL     OW20887   0.015   5.721   3.494
 6663SOL    HW120888   6.947   5.673   3.476
 6663SOL    HW220889   0.091   5.667   3.458
 6664SOL     OW20890   1.345   0.112   1.624
 6664SOL    HW120891   1.428   0.156   1.589
 6664SOL    HW220892   1.370   0.033   1.680
 6665SOL     OW20893   1.019   0.045   3.790
 6665SOL    HW120894   0.962   0.089   3.722
 6665SOL    HW220895   1.029   6.966   3.769
 6666SOL     OW20896   6.411   1.788   5.004
 6666SOL    HW120897   6.405   1.883   4.971
 6666SOL    HW220898   6.497   1.775   5.053
 6667SOL     OW20899   6.283   5.215   4.947
 6667SOL    HW120900   6.283   5.141   5.014
 6667SOL    HW220901   6.267   5.302   4.993
 6668SOL     OW20902   0.285   5.417   1.900
 6668SOL    HW120903   0.276   5.514   1.924
 6668SOL    HW220904   0.335   5.369   1.972
 6669SOL     OW20905   2.213   4.653   3.588
 6669SOL    HW120906   2.298   4.681   3.633
 6669SOL    HW220907   2.209   4.553   3.582
 6670SOL     OW20908   3.471   4.658   6.476
 6670SOL    HW120909   3.378   4.621   6.472
 6670SOL    HW220910   3.474   4.735   6.540
 6671SOL     OW20911   5.304   4.302   0.020
 6671SOL    HW120912   5.320   4.263   0.111
 6671SOL    HW220913   5.346   4.392   0.015
 6672SOL     OW20914   0.997   0.662   5.464
 6672SOL    HW120915   0.951   0.717   5.394
 6672SOL    HW220916   0.940   0.583   5.486
 6673SOL     OW20917   5.300   5.744   2.875
 6673SOL    HW120918   5.228   5.687   2.834
 6673SOL    HW220919   5.324   5.818   2.812
 6674SOL     OW20920   0.828   6.010   6.106
 6674SOL    HW120921   0.773   5.928   6.118
 6674SOL    HW220922   0.925   5.986   6.109
 6675SOL     OW20923   5.440   4.028   1.149
 6675SOL    HW120924   5.523   4.081   1.136
 6675SOL    HW220925   5.367   4.064   1.091
 6676SOL     OW20926   0.689   3.359   5.439
 6676SOL    HW120927   0.694   3.269   5.396
 6676SOL    HW220928   0.756   3.364   5.513
 6677SOL     OW20929   0.334   3.280   0.221
 6677SOL    HW120930   0.294   3.224   0.148
 6677SOL    HW220931   0.429   3.251   0.236
 6678SOL     OW20932   1.100   2.799   6.485
 6678SOL    HW120933   1.144   2.737   6.549
 6678SOL    HW220934   1.124   2.774   6.391
 6679SOL     OW20935   1.358   1.895   4.857
 6679SOL    HW120936   1.269   1.854   4.876
 6679SOL    HW220937   1.406   1.841   4.787
 6680SOL     OW20938   3.745   5.693   5.715
 6680SOL    HW120939   3.707   5.631   5.646
 6680SOL    HW220940   3.740   5.787   5.682
 6681SOL     OW20941   5.424   5.879   6.591
 6681SOL    HW120942   5.439   5.968   6.547
 6681SOL    HW220943   5.413   5.808   6.522
 6682SOL     OW20944   0.758   4.289   2.718
 6682SOL    HW120945   0.688   4.237   2.670
 6682SOL    HW220946   0.720   4.325   2.803
 6683SOL     OW20947   4.921   1.797   5.349
 6683SOL    HW120948   4.951   1.863   5.281
 6683SOL    HW220949   4.887   1.845   5.430
 6684SOL     OW20950   1.966   6.809   2.562
 6684SOL    HW120951   2.006   6.763   2.483
 6684SOL    HW220952   1.902   6.747   2.608
 6685SOL     OW20953   5.468   1.731   6.125
 6685SOL    HW120954   5.456   1.650   6.182
 6685SOL    HW220955   5.391   1.793   6.137
 6686SOL     OW20956   6.312   4.199   4.407
 6686SOL    HW120957   6.344   4.232   4.495
 6686SOL    HW220958   6.213   4.185   4.409
 6687SOL     OW20959   1.250   1.380   1.009
 6687SOL    HW120960   1.302   1.459   0.975
 6687SOL    HW220961   1.167   1.369   0.954
 6688SOL     OW20962   0.187   4.475   2.276
 6688SOL    HW120963   0.237   4.490   2.361
 6688SOL    HW220964   0.230   4.400   2.224
 6689SOL     OW20965   4.747   3.356   1.101
 6689SOL    HW120966   4.722   3.453   1.099
 6689SOL    HW220967   4.705   3.309   1.023
 6690SOL     OW20968   2.051   1.891   1.651
 6690SOL    HW120969   2.112   1.970   1.643
 6690SOL    HW220970   2.101   1.815   1.692
 6691SOL     OW20971   2.493   5.967   1.254
 6691SOL    HW120972   2.556   5.925   1.319
 6691SOL    HW220973   2.464   5.899   1.186
 6692SOL     OW20974   2.756   4.442   5.376
 6692SOL    HW120975   2.669   4.400   5.350
 6692SOL    HW220976   2.802   4.476   5.294
 6693SOL     OW20977   4.679   3.558   5.950
 6693SOL    HW120978   4.644   3.466   5.930
 6693SOL    HW220979   4.651   3.621   5.878
 6694SOL     OW20980   4.160   5.957   0.276
 6694SOL    HW120981   4.166   6.030   0.208
 6694SOL    HW220982   4.242   5.900   0.271
 6695SOL     OW20983   0.369   2.074   6.470
 6695SOL    HW120984   0.403   2.042   6.381
 6695SOL    HW220985   0.333   1.997   6.522
 6696SOL     OW20986   2.174   2.847   1.642
 6696SOL    HW120987   2.274   2.853   1.642
 6696SOL    HW220988   2.139   2.878   1.554
 6697SOL     OW20989   4.651   1.585   2.528
 6697SOL    HW120990   4.678   1.538   2.612
 6697SOL    HW220991   4.553   1.608   2.534
 6698SOL     OW20992   3.554   2.449   0.620
 6698SOL    HW120993   3.629   2.389   0.649
 6698SOL    HW220994   3.515   2.496   0.699
 6699SOL     OW20995   3.625   4.434   6.607
 6699SOL    HW120996   3.688   4.446   6.684
 6699SOL    HW220997   3.589   4.523   6.580
 6700SOL     OW20998   0.473   5.871   0.885
 6700SOL    HW120999   0.407   5.940   0.915
 6700SOL    HW221000   0.472   5.793   0.948
 6701SOL     OW21001   6.146   2.504   1.031
 6701SOL    HW121002   6.225   2.500   0.970
 6701SOL    HW221003   6.073   2.447   0.994
 6702SOL     OW21004   2.963   1.813   0.228
 6702SOL    HW121005   2.979   1.912   0.226
 6702SOL    HW221006   2.983   1.778   0.319
 6703SOL     OW21007   6.462   2.236   6.861
 6703SOL    HW121008   6.380   2.209   6.910
 6703SOL    HW221009   6.542   2.224   6.921
 6704SOL     OW21010   4.346   2.393   2.338
 6704SOL    HW121011   4.384   2.441   2.259
 6704SOL    HW221012   4.287   2.318   2.307
 6705SOL     OW21013   0.183   2.532   1.740
 6705SOL    HW121014   0.141   2.486   1.662
 6705SOL    HW221015   0.113   2.585   1.789
 6706SOL     OW21016   0.816   3.781   0.410
 6706SOL    HW121017   0.893   3.719   0.426
 6706SOL    HW221018   0.735   3.744   0.455
 6707SOL     OW21019   6.198   6.214   4.525
 6707SOL    HW121020   6.126   6.177   4.465
 6707SOL    HW221021   6.216   6.150   4.599
 6708SOL     OW21022   1.619   5.612   2.760
 6708SOL    HW121023   1.600   5.610   2.662
 6708SOL    HW221024   1.638   5.706   2.789
 6709SOL     OW21025   3.652   6.561   1.682
 6709SOL    HW121026   3.624   6.486   1.742
 6709SOL    HW221027   3.660   6.646   1.735
 6710SOL     OW21028   2.523   2.558   5.958
 6710SOL    HW121029   2.548   2.539   6.053
 6710SOL    HW221030   2.558   2.485   5.900
 6711SOL     OW21031   5.199   4.151   6.532
 6711SOL    HW121032   5.117   4.184   6.486
 6711SOL    HW221033   5.246   4.086   6.473
 6712SOL     OW21034   3.801   5.473   0.211
 6712SOL    HW121035   3.857   5.398   0.173
 6712SOL    HW221036   3.861   5.540   0.254
 6713SOL     OW21037   2.674   2.257   1.574
 6713SOL    HW121038   2.581   2.264   1.538
 6713SOL    HW221039   2.715   2.171   1.545
 6714SOL     OW21040   4.998   6.915   5.303
 6714SOL    HW121041   5.063   6.991   5.296
 6714SOL    HW221042   5.011   6.870   5.392
 6715SOL     OW21043   0.900   1.272   0.360
 6715SOL    HW121044   0.896   1.216   0.277
 6715SOL    HW221045   0.900   1.369   0.335
 6716SOL     OW21046   1.741   6.247   1.111
 6716SOL    HW121047   1.678   6.188   1.060
 6716SOL    HW221048   1.819   6.271   1.054
 6717SOL     OW21049   3.741   3.567   0.486
 6717SOL    HW121050   3.697   3.561   0.576
 6717SOL    HW221051   3.672   3.550   0.415
 6718SOL     OW21052   3.682   5.929   6.113
 6718SOL    HW121053   3.659   5.834   6.135
 6718SOL    HW221054   3.653   5.989   6.187
 6719SOL     OW21055   0.223   6.950   5.844
 6719SOL    HW121056   0.186   6.857   5.837
 6719SOL    HW221057   0.318   6.949   5.813
 6720SOL     OW21058   2.274   6.212   1.658
 6720SOL    HW121059   2.258   6.153   1.579
 6720SOL    HW221060   2.225   6.175   1.738
 6721SOL     OW21061   5.121   6.521   4.741
 6721SOL    HW121062   5.220   6.528   4.749
 6721SOL    HW221063   5.083   6.476   4.821
 6722SOL     OW21064   5.002   3.315   0.652
 6722SOL    HW121065   5.094   3.322   0.615
 6722SOL    HW221066   4.963   3.226   0.630
 6723SOL     OW21067   2.251   6.383   2.968
 6723SOL    HW121068   2.158   6.385   3.003
 6723SOL    HW221069   2.310   6.334   3.032
 6724SOL     OW21070   2.338   4.692   6.309
 6724SOL    HW121071   2.256   4.717   6.360
 6724SOL    HW221072   2.359   4.764   6.243
 6725SOL     OW21073   0.978   4.611   2.627
 6725SOL    HW121074   0.973   4.514   2.650
 6725SOL    HW221075   0.933   4.627   2.539
 6726SOL     OW21076   1.953   3.079   4.676
 6726SOL    HW121077   2.033   3.081   4.736
 6726SOL    HW221078   1.903   3.164   4.683
 6727SOL     OW21079   5.236   3.566   6.447
 6727SOL    HW121080   5.175   3.498   6.408
 6727SOL    HW221081   5.227   3.568   6.546
 6728SOL     OW21082   3.977   2.140   4.529
 6728SOL    HW121083   4.057   2.101   4.483
 6728SOL    HW221084   3.911   2.171   4.460
 6729SOL     OW21085   6.967   0.619   2.337
 6729SOL    HW121086   0.009   0.693   2.368
 6729SOL    HW221087   6.876   0.655   2.319
 6730SOL     OW21088   2.680   0.149   7.017
 6730SOL    HW121089   2.722   0.182   0.083
 6730SOL    HW221090   2.750   0.103   6.962
 6731SOL     OW21091   2.697   4.286   1.257
 6731SOL    HW121092   2.624   4.282   1.324
 6731SOL    HW221093   2.779   4.325   1.299
 6732SOL     OW21094   2.318   6.217   0.451
 6732SOL    HW121095   2.319   6.303   0.502
 6732SOL    HW221096   2.412   6.185   0.438
 6733SOL     OW21097   4.396   5.441   5.844
 6733SOL    HW121098   4.309   5.433   5.794
 6733SOL    HW221099   4.456   5.365   5.818
 6734SOL     OW21100   1.090   3.530   5.627
 6734SOL    HW121101   1.159   3.525   5.554
 6734SOL    HW221102   1.136   3.530   5.716
 6735SOL     OW21103   0.220   4.879   5.478
 6735SOL    HW121104   0.258   4.941   5.410
 6735SOL    HW221105   0.216   4.926   5.567
 6736SOL     OW21106   2.559   3.094   1.599
 6736SOL    HW121107   2.556   3.180   1.649
 6736SOL    HW221108   2.651   3.055   1.605
 6737SOL     OW21109   1.570   1.379   2.323
 6737SOL    HW121110   1.507   1.448   2.289
 6737SOL    HW221111   1.569   1.380   2.423
 6738SOL     OW21112   2.284   1.460   2.300
 6738SOL    HW121113   2.188   1.450   2.272
 6738SOL    HW221114   2.344   1.430   2.227
 6739SOL     OW21115   4.138   6.060   4.974
 6739SOL    HW121116   4.165   6.080   5.069
 6739SOL    HW221117   4.039   6.073   4.964
 6740SOL     OW21118   1.308   1.105   4.447
 6740SOL    HW121119   1.397   1.060   4.448
 6740SOL    HW221120   1.320   1.202   4.466
 6741SOL     OW21121   5.645   1.082   6.053
 6741SOL    HW121122   5.677   1.119   5.966
 6741SOL    HW221123   5.566   1.135   6.084
 6742SOL     OW21124   6.765   5.623   5.098
 6742SOL    HW121125   6.820   5.576   5.029
 6742SOL    HW221126   6.814   5.623   5.185
 6743SOL     OW21127   3.892   3.350   0.797
 6743SOL    HW121128   3.928   3.356   0.704
 6743SOL    HW221129   3.963   3.318   0.859
 6744SOL     OW21130   4.096   4.338   5.683
 6744SOL    HW121131   4.006   4.364   5.648
 6744SOL    HW221132   4.123   4.250   5.643
 6745SOL     OW21133   0.906   4.942   3.179
 6745SOL    HW121134   0.899   4.956   3.278
 6745SOL    HW221135   0.975   5.004   3.141
 6746SOL     OW21136   0.724   1.802   1.276
 6746SOL    HW121137   0.712   1.825   1.373
 6746SOL    HW221138   0.702   1.706   1.262
 6747SOL     OW21139   5.371   6.424   4.552
 6747SOL    HW121140   5.280   6.385   4.538
 6747SOL    HW221141   5.363   6.509   4.604
 6748SOL     OW21142   0.832   0.283   2.196
 6748SOL    HW121143   0.816   0.186   2.214
 6748SOL    HW221144   0.908   0.292   2.131
 6749SOL     OW21145   3.780   0.658   0.237
 6749SOL    HW121146   3.818   0.641   0.328
 6749SOL    HW221147   3.823   0.739   0.197
 6750SOL     OW21148   2.794   2.375   4.678
 6750SOL    HW121149   2.811   2.317   4.598
 6750SOL    HW221150   2.787   2.470   4.649
 6751SOL     OW21151   2.596   2.493   4.471
 6751SOL    HW121152   2.640   2.410   4.437
 6751SOL    HW221153   2.536   2.469   4.548
 6752SOL     OW21154   5.593   3.389   1.247
 6752SOL    HW121155   5.572   3.406   1.343
 6752SOL    HW221156   5.692   3.382   1.235
 6753SOL     OW21157   4.201   1.833   6.503
 6753SOL    HW121158   4.122   1.771   6.498
 6753SOL    HW221159   4.258   1.808   6.581
 6754SOL     OW21160   6.024   1.800   6.400
 6754SOL    HW121161   6.124   1.807   6.408
 6754SOL    HW221162   5.994   1.711   6.434
 6755SOL     OW21163   5.153   2.232   3.419
 6755SOL    HW121164   5.173   2.135   3.404
 6755SOL    HW221165   5.231   2.288   3.392
 6756SOL     OW21166   5.160   4.659   3.991
 6756SOL    HW121167   5.074   4.709   3.997
 6756SOL    HW221168   5.200   4.672   3.901
 6757SOL     OW21169   5.213   6.193   1.673
 6757SOL    HW121170   5.169   6.131   1.739
 6757SOL    HW221171   5.167   6.186   1.584
 6758SOL     OW21172   5.173   3.299   2.375
 6758SOL    HW121173   5.121   3.219   2.406
 6758SOL    HW221174   5.115   3.380   2.379
 6759SOL     OW21175   1.282   4.866   2.907
 6759SOL    HW121176   1.368   4.911   2.885
 6759SOL    HW221177   1.287   4.826   2.998
 6760SOL     OW21178   0.250   4.358   4.212
 6760SOL    HW121179   0.249   4.373   4.113
 6760SOL    HW221180   0.235   4.261   4.231
 6761SOL     OW21181   5.305   2.821   5.554
 6761SOL    HW121182   5.265   2.854   5.639
 6761SOL    HW221183   5.244   2.753   5.513
 6762SOL     OW21184   6.515   4.711   3.710
 6762SOL    HW121185   6.434   4.663   3.676
 6762SOL    HW221186   6.494   4.754   3.798
 6763SOL     OW21187   6.367   6.960   5.604
 6763SOL    HW121188   6.351   6.955   5.703
 6763SOL    HW221189   6.282   6.939   5.556
 6764SOL     OW21190   3.086   3.745   6.889
 6764SOL    HW121191   3.015   3.763   6.956
 6764SOL    HW221192   3.174   3.778   6.922
 6765SOL     OW21193   6.586   4.019   2.730
 6765SOL    HW121194   6.683   4.031   2.752
 6765SOL    HW221195   6.564   3.921   2.729
 6766SOL     OW21196   1.906   0.585   5.474
 6766SOL    HW121197   1.901   0.675   5.518
 6766SOL    HW221198   1.935   0.517   5.542
 6767SOL     OW21199   0.659   2.493   6.587
 6767SOL    HW121200   0.651   2.569   6.522
 6767SOL    HW221201   0.755   2.468   6.598
 6768SOL     OW21202   0.852   0.076   4.196
 6768SOL    HW121203   0.769   0.044   4.241
 6768SOL    HW221204   0.837   0.169   4.162
 6769SOL     OW21205   2.048   2.572   5.529
 6769SOL    HW121206   2.024   2.631   5.452
 6769SOL    HW221207   2.146   2.581   5.548
 6770SOL     OW21208   0.335   1.830   3.247
 6770SOL    HW121209   0.295   1.912   3.289
 6770SOL    HW221210   0.390   1.782   3.314
 6771SOL     OW21211   3.715   2.109   4.067
 6771SOL    HW121212   3.766   2.046   4.010
 6771SOL    HW221213   3.623   2.120   4.031
 6772SOL     OW21214   6.314   1.326   2.928
 6772SOL    HW121215   6.250   1.402   2.938
 6772SOL    HW221216   6.283   1.266   2.854
 6773SOL     OW21217   0.013   5.865   1.753
 6773SOL    HW121218   0.023   5.913   1.840
 6773SOL    HW221219   0.064   5.915   1.682
 6774SOL     OW21220   2.059   2.472   5.813
 6774SOL    HW121221   2.027   2.556   5.769
 6774SOL    HW221222   2.146   2.489   5.860
 6775SOL     OW21223   0.716   2.054   4.945
 6775SOL    HW121224   0.677   1.972   4.902
 6775SOL    HW221225   0.696   2.053   5.043
 6776SOL     OW21226   3.555   4.096   2.153
 6776SOL    HW121227   3.561   4.195   2.165
 6776SOL    HW221228   3.476   4.061   2.203
 6777SOL     OW21229   5.277   4.936   1.151
 6777SOL    HW121230   5.236   4.999   1.085
 6777SOL    HW221231   5.269   4.842   1.118
 6778SOL     OW21232   0.555   4.573   2.725
 6778SOL    HW121233   0.605   4.659   2.722
 6778SOL    HW221234   0.511   4.557   2.637
 6779SOL     OW21235   5.845   4.109   5.683
 6779SOL    HW121236   5.794   4.195   5.690
 6779SOL    HW221237   5.783   4.037   5.652
 6780SOL     OW21238   2.892   2.272   2.518
 6780SOL    HW121239   2.898   2.233   2.426
 6780SOL    HW221240   2.811   2.331   2.523
 6781SOL     OW21241   6.851   1.249   4.170
 6781SOL    HW121242   6.921   1.189   4.209
 6781SOL    HW221243   6.885   1.290   4.086
 6782SOL     OW21244   6.754   2.159   3.036
 6782SOL    HW121245   6.781   2.211   2.956
 6782SOL    HW221246   6.811   2.078   3.045
 6783SOL     OW21247   1.539   4.584   5.365
 6783SOL    HW121248   1.444   4.557   5.355
 6783SOL    HW221249   1.552   4.629   5.454
 6784SOL     OW21250   2.029   3.871   1.217
 6784SOL    HW121251   2.006   3.865   1.314
 6784SOL    HW221252   2.109   3.931   1.206
 6785SOL     OW21253   5.138   4.982   4.395
 6785SOL    HW121254   5.218   5.027   4.354
 6785SOL    HW221255   5.079   4.946   4.323
 6786SOL     OW21256   6.356   2.489   6.779
 6786SOL    HW121257   6.386   2.398   6.810
 6786SOL    HW221258   6.432   2.534   6.731
 6787SOL     OW21259   3.819   2.119   6.453
 6787SOL    HW121260   3.841   2.130   6.356
 6787SOL    HW221261   3.756   2.191   6.482
 6788SOL     OW21262   6.716   4.100   3.292
 6788SOL    HW121263   6.762   4.170   3.347
 6788SOL    HW221264   6.620   4.126   3.279
 6789SOL     OW21265   6.169   3.958   4.053
 6789SOL    HW121266   6.252   3.984   4.102
 6789SOL    HW221267   6.120   3.888   4.104
 6790SOL     OW21268   0.578   4.930   5.528
 6790SOL    HW121269   0.653   4.982   5.570
 6790SOL    HW221270   0.526   4.990   5.467
 6791SOL     OW21271   3.453   0.484   3.599
 6791SOL    HW121272   3.547   0.449   3.597
 6791SOL    HW221273   3.407   0.462   3.513
 6792SOL     OW21274   4.182   0.114   5.422
 6792SOL    HW121275   4.271   0.149   5.395
 6792SOL    HW221276   4.166   0.136   5.518
 6793SOL     OW21277   1.622   3.503   0.479
 6793SOL    HW121278   1.547   3.438   0.489
 6793SOL    HW221279   1.701   3.457   0.438
 6794SOL     OW21280   5.248   1.682   5.229
 6794SOL    HW121281   5.231   1.720   5.320
 6794SOL    HW221282   5.220   1.586   5.227
 6795SOL     OW21283   1.033   1.144   1.056
 6795SOL    HW121284   0.978   1.195   0.989
 6795SOL    HW221285   1.056   1.203   1.133
 6796SOL     OW21286   6.935   0.652   2.723
 6796SOL    HW121287   6.893   0.604   2.646
 6796SOL    HW221288   6.873   0.724   2.755
 6797SOL     OW21289   0.572   2.462   1.027
 6797SOL    HW121290   0.553   2.386   0.965
 6797SOL    HW221291   0.577   2.428   1.121
 6798SOL     OW21292   5.186   0.195   1.656
 6798SOL    HW121293   5.170   0.216   1.753
 6798SOL    HW221294   5.281   0.166   1.645
 6799SOL     OW21295   5.485   0.732   3.396
 6799SOL    HW121296   5.481   0.769   3.489
 6799SOL    HW221297   5.563   0.770   3.348
 6800SOL     OW21298   0.386   1.502   1.304
 6800SOL    HW121299   0.353   1.509   1.398
 6800SOL    HW221300   0.334   1.432   1.255
 6801SOL     OW21301   0.643   5.883   5.738
 6801SOL    HW121302   0.736   5.919   5.745
 6801SOL    HW221303   0.638   5.795   5.785
 6802SOL     OW21304   2.881   5.068   1.979
 6802SOL    HW121305   2.868   4.982   1.930
 6802SOL    HW221306   2.930   5.133   1.920
 6803SOL     OW21307   5.254   4.865   6.080
 6803SOL    HW121308   5.254   4.960   6.110
 6803SOL    HW221309   5.210   4.858   5.991
 6804SOL     OW21310   3.306   5.041   3.004
 6804SOL    HW121311   3.342   5.131   2.980
 6804SOL    HW221312   3.347   4.972   2.943
 6805SOL     OW21313   6.901   4.217   5.558
 6805SOL    HW121314   6.900   4.312   5.526
 6805SOL    HW221315   6.989   4.175   5.535
 6806SOL     OW21316   7.013   1.685   2.395
 6806SOL    HW121317   0.046   1.757   2.348
 6806SOL    HW221318   0.058   1.617   2.432
 6807SOL     OW21319   3.271   4.027   1.921
 6807SOL    HW121320   3.324   4.083   1.985
 6807SOL    HW221321   3.326   4.008   1.840
 6808SOL     OW21322   3.408   0.826   4.669
 6808SOL    HW121323   3.437   0.848   4.576
 6808SOL    HW221324   3.470   0.870   4.734
 6809SOL     OW21325   5.208   3.197   1.767
 6809SOL    HW121326   5.281   3.263   1.744
 6809SOL    HW221327   5.246   3.124   1.824
 6810SOL     OW21328   2.646   0.521   3.796
 6810SOL    HW121329   2.631   0.616   3.821
 6810SOL    HW221330   2.745   0.503   3.790
 6811SOL     OW21331   6.672   1.622   1.035
 6811SOL    HW121332   6.645   1.537   1.081
 6811SOL    HW221333   6.640   1.619   0.940
 6812SOL     OW21334   3.625   4.175   5.315
 6812SOL    HW121335   3.537   4.189   5.362
 6812SOL    HW221336   3.695   4.153   5.382
 6813SOL     OW21337   6.218   4.016   1.588
 6813SOL    HW121338   6.230   3.964   1.672
 6813SOL    HW221339   6.122   4.011   1.559
 6814SOL     OW21340   5.049   1.331   6.803
 6814SOL    HW121341   4.971   1.350   6.744
 6814SOL    HW221342   5.104   1.415   6.813
 6815SOL     OW21343   1.801   4.742   6.042
 6815SOL    HW121344   1.713   4.700   6.016
 6815SOL    HW221345   1.862   4.742   5.963
 6816SOL     OW21346   0.779   1.227   3.157
 6816SOL    HW121347   0.856   1.203   3.098
 6816SOL    HW221348   0.705   1.266   3.102
 6817SOL     OW21349   3.724   2.090   2.342
 6817SOL    HW121350   3.658   2.115   2.271
 6817SOL    HW221351   3.760   1.999   2.324
 6818SOL     OW21352   1.813   6.785   5.359
 6818SOL    HW121353   1.836   6.727   5.437
 6818SOL    HW221354   1.831   6.735   5.274
 6819SOL     OW21355   4.679   4.641   1.901
 6819SOL    HW121356   4.769   4.671   1.931
 6819SOL    HW221357   4.617   4.636   1.979
 6820SOL     OW21358   2.661   5.904   1.432
 6820SOL    HW121359   2.639   5.919   1.528
 6820SOL    HW221360   2.761   5.905   1.421
 6821SOL     OW21361   3.995   2.686   5.388
 6821SOL    HW121362   4.035   2.642   5.308
 6821SOL    HW221363   4.064   2.742   5.433
 6822SOL     OW21364   6.767   2.867   6.745
 6822SOL    HW121365   6.757   2.963   6.773
 6822SOL    HW221366   6.810   2.862   6.655
 6823SOL     OW21367   6.178   3.756   6.460
 6823SOL    HW121368   6.241   3.827   6.491
 6823SOL    HW221369   6.218   3.707   6.383
 6824SOL     OW21370   0.224   1.694   5.498
 6824SOL    HW121371   0.232   1.705   5.597
 6824SOL    HW221372   0.310   1.718   5.455
 6825SOL     OW21373   5.570   4.789   1.350
 6825SOL    HW121374   5.475   4.815   1.368
 6825SOL    HW221375   5.592   4.706   1.402
 6826SOL     OW21376   0.037   3.754   3.081
 6826SOL    HW121377   0.000   3.691   3.149
 6826SOL    HW221378   0.059   3.704   2.998
 6827SOL     OW21379   4.437   5.697   4.733
 6827SOL    HW121380   4.358   5.736   4.782
 6827SOL    HW221381   4.414   5.687   4.636
 6828SOL     OW21382   3.012   1.683   2.313
 6828SOL    HW121383   2.961   1.632   2.382
 6828SOL    HW221384   2.999   1.781   2.327
 6829SOL     OW21385   4.475   6.642   4.517
 6829SOL    HW121386   4.474   6.542   4.515
 6829SOL    HW221387   4.384   6.676   4.494
 6830SOL     OW21388   5.059   0.215   2.991
 6830SOL    HW121389   4.975   0.255   3.027
 6830SOL    HW221390   5.038   0.131   2.941
 6831SOL     OW21391   1.291   1.703   6.434
 6831SOL    HW121392   1.323   1.650   6.355
 6831SOL    HW221393   1.368   1.723   6.494
 6832SOL     OW21394   3.036   2.733   0.184
 6832SOL    HW121395   3.121   2.736   0.237
 6832SOL    HW221396   3.005   2.826   0.165
 6833SOL     OW21397   3.059   4.862   5.987
 6833SOL    HW121398   2.964   4.849   5.960
 6833SOL    HW221399   3.084   4.792   6.054
 6834SOL     OW21400   5.333   0.190   0.733
 6834SOL    HW121401   5.289   0.276   0.706
 6834SOL    HW221402   5.390   0.205   0.813
 6835SOL     OW21403   2.520   1.748   4.571
 6835SOL    HW121404   2.562   1.698   4.495
 6835SOL    HW221405   2.485   1.683   4.638
 6836SOL     OW21406   1.972   4.326   6.090
 6836SOL    HW121407   1.927   4.318   6.001
 6836SOL    HW221408   1.942   4.410   6.134
 6837SOL     OW21409   0.433   0.098   1.435
 6837SOL    HW121410   0.521   0.135   1.405
 6837SOL    HW221411   0.381   0.068   1.356
 6838SOL     OW21412   2.856   4.098   5.285
 6838SOL    HW121413   2.921   4.058   5.350
 6838SOL    HW221414   2.906   4.142   5.211
 6839SOL     OW21415   5.630   2.738   3.744
 6839SOL    HW121416   5.703   2.761   3.681
 6839SOL    HW221417   5.666   2.684   3.820
 6840SOL     OW21418   2.522   0.050   5.566
 6840SOL    HW121419   2.587   6.994   5.547
 6840SOL    HW221420   2.443   0.041   5.505
 6841SOL     OW21421   4.081   5.514   1.463
 6841SOL    HW121422   4.163   5.481   1.416
 6841SOL    HW221423   4.038   5.586   1.409
 6842SOL     OW21424   0.192   3.952   6.341
 6842SOL    HW121425   0.142   4.037   6.324
 6842SOL    HW221426   0.287   3.963   6.313
 6843SOL     OW21427   3.340   2.106   2.360
 6843SOL    HW121428   3.403   2.107   2.282
 6843SOL    HW221429   3.303   2.014   2.372
 6844SOL     OW21430   4.864   4.730   4.007
 6844SOL    HW121431   4.849   4.731   3.908
 6844SOL    HW221432   4.786   4.686   4.052
 6845SOL     OW21433   5.150   4.513   2.080
 6845SOL    HW121434   5.116   4.420   2.062
 6845SOL    HW221435   5.215   4.510   2.156
 6846SOL     OW21436   3.622   2.830   2.545
 6846SOL    HW121437   3.720   2.808   2.543
 6846SOL    HW221438   3.581   2.805   2.457
 6847SOL     OW21439   6.498   3.255   1.771
 6847SOL    HW121440   6.565   3.272   1.698
 6847SOL    HW221441   6.469   3.342   1.811
 6848SOL     OW21442   1.146   6.347   3.623
 6848SOL    HW121443   1.055   6.324   3.657
 6848SOL    HW221444   1.191   6.408   3.688
 6849SOL     OW21445   3.801   6.269   3.814
 6849SOL    HW121446   3.853   6.259   3.899
 6849SOL    HW221447   3.779   6.179   3.778
 6850SOL     OW21448   5.156   3.002   3.189
 6850SOL    HW121449   5.109   2.975   3.273
 6850SOL    HW221450   5.252   3.019   3.208
 6851SOL     OW21451   1.414   5.153   5.641
 6851SOL    HW121452   1.451   5.114   5.725
 6851SOL    HW221453   1.488   5.197   5.589
 6852SOL     OW21454   0.909   4.184   1.756
 6852SOL    HW121455   0.895   4.280   1.736
 6852SOL    HW221456   0.821   4.141   1.776
 6853SOL     OW21457   0.495   4.273   5.147
 6853SOL    HW121458   0.553   4.192   5.160
 6853SOL    HW221459   0.400   4.244   5.136
 6854SOL     OW21460   6.723   3.115   6.855
 6854SOL    HW121461   6.759   3.184   6.918
 6854SOL    HW221462   6.625   3.105   6.870
 6855SOL     OW21463   3.038   6.624   2.368
 6855SOL    HW121464   3.097   6.702   2.346
 6855SOL    HW221465   3.074   6.542   2.325
 6856SOL     OW21466   5.749   4.024   4.870
 6856SOL    HW121467   5.823   4.048   4.808
 6856SOL    HW221468   5.786   4.000   4.960
 6857SOL     OW21469   3.318   2.081   6.198
 6857SOL    HW121470   3.402   2.033   6.173
 6857SOL    HW221471   3.341   2.170   6.237
 6858SOL     OW21472   3.930   2.932   5.204
 6858SOL    HW121473   3.834   2.956   5.196
 6858SOL    HW221474   3.939   2.839   5.240
 6859SOL     OW21475   3.333   0.309   0.482
 6859SOL    HW121476   3.404   0.348   0.541
 6859SOL    HW221477   3.248   0.299   0.534
 6860SOL     OW21478   5.574   4.020   0.753
 6860SOL    HW121479   5.555   3.926   0.781
 6860SOL    HW221480   5.488   4.064   0.725
 6861SOL     OW21481   5.774   5.111   0.373
 6861SOL    HW121482   5.710   5.182   0.402
 6861SOL    HW221483   5.734   5.021   0.390
 6862SOL     OW21484   3.084   5.482   4.402
 6862SOL    HW121485   3.119   5.465   4.310
 6862SOL    HW221486   3.020   5.409   4.427
 6863SOL     OW21487   5.652   2.201   4.222
 6863SOL    HW121488   5.656   2.242   4.313
 6863SOL    HW221489   5.611   2.266   4.158
 6864SOL     OW21490   3.171   6.408   4.273
 6864SOL    HW121491   3.235   6.392   4.198
 6864SOL    HW221492   3.117   6.325   4.289
 6865SOL     OW21493   6.806   3.985   4.220
 6865SOL    HW121494   6.757   4.016   4.138
 6865SOL    HW221495   6.763   4.025   4.301
 6866SOL     OW21496   6.602   3.464   2.003
 6866SOL    HW121497   6.595   3.538   2.070
 6866SOL    HW221498   6.529   3.474   1.935
 6867SOL     OW21499   2.312   4.104   2.024
 6867SOL    HW121500   2.213   4.089   2.032
 6867SOL    HW221501   2.342   4.170   2.093
 6868SOL     OW21502   1.935   5.550   4.304
 6868SOL    HW121503   1.942   5.484   4.229
 6868SOL    HW221504   2.014   5.542   4.364
 6869SOL     OW21505   5.319   2.240   5.387
 6869SOL    HW121506   5.227   2.277   5.401
 6869SOL    HW221507   5.378   2.269   5.462
 6870SOL     OW21508   5.834   3.763   2.815
 6870SOL    HW121509   5.909   3.769   2.880
 6870SOL    HW221510   5.755   3.721   2.859
 6871SOL     OW21511   5.482   5.328   1.287
 6871SOL    HW121512   5.520   5.243   1.251
 6871SOL    HW221513   5.393   5.310   1.330
 6872SOL     OW21514   2.325   3.369   0.115
 6872SOL    HW121515   2.296   3.367   0.211
 6872SOL    HW221516   2.407   3.425   0.107
 6873SOL     OW21517   6.309   3.922   6.672
 6873SOL    HW121518   6.366   3.894   6.749
 6873SOL    HW221519   6.214   3.902   6.692
 6874SOL     OW21520   0.537   2.742   4.571
 6874SOL    HW121521   0.554   2.736   4.473
 6874SOL    HW221522   0.614   2.789   4.615
 6875SOL     OW21523   2.158   1.049   3.016
 6875SOL    HW121524   2.193   1.133   2.975
 6875SOL    HW221525   2.069   1.027   2.977
 6876SOL     OW21526   3.905   5.872   0.188
 6876SOL    HW121527   3.993   5.915   0.207
 6876SOL    HW221528   3.916   5.772   0.186
 6877SOL     OW21529   2.269   3.882   0.037
 6877SOL    HW121530   2.272   3.806   6.991
 6877SOL    HW221531   2.346   3.944   0.018
 6878SOL     OW21532   1.911   1.672   5.652
 6878SOL    HW121533   1.917   1.601   5.582
 6878SOL    HW221534   1.928   1.761   5.610
 6879SOL     OW21535   0.944   2.474   6.585
 6879SOL    HW121536   0.929   2.433   6.675
 6879SOL    HW221537   0.924   2.572   6.590
 6880SOL     OW21538   2.194   4.176   4.788
 6880SOL    HW121539   2.231   4.123   4.864
 6880SOL    HW221540   2.104   4.141   4.764
 6881SOL     OW21541   0.332   3.830   1.642
 6881SOL    HW121542   0.417   3.824   1.590
 6881SOL    HW221543   0.325   3.751   1.704
 6882SOL     OW21544   2.080   0.714   5.117
 6882SOL    HW121545   2.124   0.650   5.054
 6882SOL    HW221546   2.059   0.668   5.203
 6883SOL     OW21547   4.095   0.811   1.617
 6883SOL    HW121548   4.023   0.829   1.550
 6883SOL    HW221549   4.142   0.725   1.594
 6884SOL     OW21550   1.946   5.194   4.327
 6884SOL    HW121551   2.035   5.150   4.337
 6884SOL    HW221552   1.940   5.237   4.237
 6885SOL     OW21553   2.832   5.969   4.331
 6885SOL    HW121554   2.902   5.906   4.297
 6885SOL    HW221555   2.788   5.930   4.412
 6886SOL     OW21556   5.711   0.993   2.712
 6886SOL    HW121557   5.779   0.945   2.768
 6886SOL    HW221558   5.739   1.088   2.701
 6887SOL     OW21559   5.835   1.148   4.472
 6887SOL    HW121560   5.875   1.131   4.562
 6887SOL    HW221561   5.768   1.222   4.479
 6888SOL     OW21562   5.754   0.707   4.573
 6888SOL    HW121563   5.745   0.608   4.567
 6888SOL    HW221564   5.678   0.751   4.526
 6889SOL     OW21565   1.373   4.510   5.974
 6889SOL    HW121566   1.401   4.522   6.069
 6889SOL    HW221567   1.289   4.456   5.970
 6890SOL     OW21568   2.233   6.713   1.339
 6890SOL    HW121569   2.244   6.659   1.422
 6890SOL    HW221570   2.217   6.809   1.362
 6891SOL     OW21571   2.076   3.735   3.357
 6891SOL    HW121572   2.070   3.768   3.263
 6891SOL    HW221573   2.002   3.773   3.411
 6892SOL     OW21574   3.321   0.396   4.180
 6892SOL    HW121575   3.324   0.301   4.150
 6892SOL    HW221576   3.340   0.456   4.103
 6893SOL     OW21577   4.886   5.901   2.863
 6893SOL    HW121578   4.873   5.863   2.955
 6893SOL    HW221579   4.974   5.947   2.858
 6894SOL     OW21580   5.906   5.051   6.810
 6894SOL    HW121581   5.871   5.114   6.741
 6894SOL    HW221582   5.924   4.962   6.768
 6895SOL     OW21583   2.748   4.506   0.073
 6895SOL    HW121584   2.687   4.427   0.072
 6895SOL    HW221585   2.765   4.534   0.167
 6896SOL     OW21586   3.781   0.434   2.874
 6896SOL    HW121587   3.822   0.508   2.927
 6896SOL    HW221588   3.722   0.473   2.802
 6897SOL     OW21589   3.679   4.104   0.526
 6897SOL    HW121590   3.764   4.070   0.486
 6897SOL    HW221591   3.678   4.086   0.624
 6898SOL     OW21592   4.355   1.889   2.320
 6898SOL    HW121593   4.271   1.918   2.275
 6898SOL    HW221594   4.431   1.895   2.255
 6899SOL     OW21595   4.513   6.380   6.824
 6899SOL    HW121596   4.568   6.429   6.757
 6899SOL    HW221597   4.446   6.443   6.864
 6900SOL     OW21598   5.105   0.353   6.153
 6900SOL    HW121599   5.203   0.335   6.147
 6900SOL    HW221600   5.067   0.309   6.234
 6901SOL     OW21601   1.862   0.352   6.458
 6901SOL    HW121602   1.866   0.339   6.557
 6901SOL    HW221603   1.808   0.434   6.438
 6902SOL     OW21604   0.019   6.259   0.047
 6902SOL    HW121605   0.073   6.266   0.130
 6902SOL    HW221606   0.066   6.306   6.991
 6903SOL     OW21607   4.219   4.804   0.549
 6903SOL    HW121608   4.192   4.883   0.494
 6903SOL    HW221609   4.143   4.739   0.553
 6904SOL     OW21610   6.405   1.425   3.834
 6904SOL    HW121611   6.326   1.419   3.773
 6904SOL    HW221612   6.380   1.392   3.925
 6905SOL     OW21613   5.884   6.743   0.948
 6905SOL    HW121614   5.912   6.745   1.044
 6905SOL    HW221615   5.876   6.649   0.918
 6906SOL     OW21616   3.904   0.624   2.996
 6906SOL    HW121617   3.873   0.713   3.030
 6906SOL    HW221618   3.999   0.631   2.965
 6907SOL     OW21619   3.652   1.218   1.627
 6907SOL    HW121620   3.583   1.267   1.575
 6907SOL    HW221621   3.614   1.188   1.714
 6908SOL     OW21622   1.256   6.428   5.244
 6908SOL    HW121623   1.346   6.472   5.244
 6908SOL    HW221624   1.258   6.348   5.304
 6909SOL     OW21625   4.571   4.266   0.657
 6909SOL    HW121626   4.664   4.232   0.675
 6909SOL    HW221627   4.504   4.197   0.685
 6910SOL     OW21628   6.125   1.461   1.717
 6910SOL    HW121629   6.035   1.442   1.678
 6910SOL    HW221630   6.123   1.446   1.816
 6911SOL     OW21631   4.048   0.880   4.622
 6911SOL    HW121632   4.104   0.958   4.649
 6911SOL    HW221633   3.970   0.913   4.569
 6912SOL     OW21634   5.058   4.908   0.831
 6912SOL    HW121635   4.965   4.922   0.796
 6912SOL    HW221636   5.086   4.989   0.883
 6913SOL     OW21637   5.303   4.851   4.896
 6913SOL    HW121638   5.289   4.947   4.918
 6913SOL    HW221639   5.286   4.836   4.798
 6914SOL     OW21640   6.020   5.441   0.481
 6914SOL    HW121641   6.091   5.411   0.546
 6914SOL    HW221642   5.932   5.444   0.528
 6915SOL     OW21643   0.638   4.932   3.095
 6915SOL    HW121644   0.618   4.993   3.018
 6915SOL    HW221645   0.737   4.915   3.099
 6916SOL     OW21646   6.238   3.386   6.848
 6916SOL    HW121647   6.256   3.364   6.752
 6916SOL    HW221648   6.270   3.311   6.906
 6917SOL     OW21649   4.713   6.550   6.029
 6917SOL    HW121650   4.812   6.558   6.023
 6917SOL    HW221651   4.677   6.506   5.947
 6918SOL     OW21652   6.838   3.535   3.937
 6918SOL    HW121653   6.801   3.445   3.913
 6918SOL    HW221654   6.823   3.598   3.861
 6919SOL     OW21655   1.944   6.126   2.501
 6919SOL    HW121656   1.893   6.040   2.502
 6919SOL    HW221657   2.023   6.118   2.562
 6920SOL     OW21658   5.141   5.838   4.803
 6920SOL    HW121659   5.168   5.834   4.899
 6920SOL    HW221660   5.154   5.748   4.761
 6921SOL     OW21661   6.986   0.315   3.322
 6921SOL    HW121662   6.990   0.396   3.264
 6921SOL    HW221663   6.895   0.308   3.363
 6922SOL     OW21664   2.504   6.380   0.796
 6922SOL    HW121665   2.535   6.439   0.870
 6922SOL    HW221666   2.539   6.287   0.810
 6923SOL     OW21667   4.548   0.282   3.987
 6923SOL    HW121668   4.646   0.270   3.970
 6923SOL    HW221669   4.535   0.327   4.076
 6924SOL     OW21670   0.211   5.357   1.628
 6924SOL    HW121671   0.251   5.352   1.720
 6924SOL    HW221672   0.241   5.277   1.575
 6925SOL     OW21673   4.615   6.338   2.948
 6925SOL    HW121674   4.609   6.328   3.047
 6925SOL    HW221675   4.542   6.399   2.916
 6926SOL     OW21676   2.990   3.925   4.247
 6926SOL    HW121677   2.910   3.913   4.305
 6926SOL    HW221678   3.002   3.844   4.189
 6927SOL     OW21679   5.047   3.905   6.226
 6927SOL    HW121680   5.101   3.907   6.310
 6927SOL    HW221681   5.046   3.996   6.185
 6928SOL     OW21682   4.820   0.805   6.536
 6928SOL    HW121683   4.741   0.767   6.489
 6928SOL    HW221684   4.891   0.829   6.469
 6929SOL     OW21685   4.475   6.099   0.250
 6929SOL    HW121686   4.433   6.055   0.330
 6929SOL    HW221687   4.478   6.198   0.265
 6930SOL     OW21688   0.777   0.028   2.273
 6930SOL    HW121689   0.833   6.983   2.220
 6930SOL    HW221690   0.692   7.001   2.300
 6931SOL     OW21691   1.738   0.731   1.538
 6931SOL    HW121692   1.685   0.783   1.605
 6931SOL    HW221693   1.740   0.635   1.566
 6932SOL     OW21694   2.716   1.704   0.176
 6932SOL    HW121695   2.667   1.682   0.259
 6932SOL    HW221696   2.808   1.738   0.199
 6933SOL     OW21697   4.158   5.390   5.722
 6933SOL    HW121698   4.118   5.481   5.738
 6933SOL    HW221699   4.098   5.337   5.664
 6934SOL     OW21700   5.153   3.030   0.288
 6934SOL    HW121701   5.085   3.037   0.215
 6934SOL    HW221702   5.228   3.094   0.269
 6935SOL     OW21703   4.305   6.451   3.600
 6935SOL    HW121704   4.255   6.370   3.631
 6935SOL    HW221705   4.400   6.444   3.630
 6936SOL     OW21706   1.166   2.652   1.005
 6936SOL    HW121707   1.259   2.688   0.998
 6936SOL    HW221708   1.101   2.728   1.006
 6937SOL     OW21709   4.688   6.750   6.250
 6937SOL    HW121710   4.670   6.717   6.157
 6937SOL    HW221711   4.684   6.849   6.252
 6938SOL     OW21712   5.008   3.364   5.425
 6938SOL    HW121713   4.941   3.381   5.353
 6938SOL    HW221714   4.968   3.388   5.514
 6939SOL     OW21715   0.374   4.467   2.529
 6939SOL    HW121716   0.318   4.394   2.567
 6939SOL    HW221717   0.464   4.432   2.505
 6940SOL     OW21718   4.923   0.853   5.761
 6940SOL    HW121719   4.940   0.856   5.860
 6940SOL    HW221720   4.921   0.758   5.731
 6941SOL     OW21721   4.010   3.385   3.948
 6941SOL    HW121722   4.024   3.299   3.996
 6941SOL    HW221723   3.987   3.367   3.852
 6942SOL     OW21724   6.913   2.974   0.741
 6942SOL    HW121725   7.007   2.941   0.736
 6942SOL    HW221726   6.854   2.902   0.779
 6943SOL     OW21727   5.224   6.196   6.154
 6943SOL    HW121728   5.179   6.126   6.210
 6943SOL    HW221729   5.306   6.157   6.112
 6944SOL     OW21730   1.240   5.318   6.451
 6944SOL    HW121731   1.317   5.298   6.512
 6944SOL    HW221732   1.204   5.232   6.414
 6945SOL     OW21733   6.171   2.734   6.371
 6945SOL    HW121734   6.243   2.797   6.398
 6945SOL    HW221735   6.198   2.640   6.392
 6946SOL     OW21736   5.988   4.188   2.596
 6946SOL    HW121737   6.037   4.257   2.650
 6946SOL    HW221738   6.030   4.181   2.506
 6947SOL     OW21739   3.468   6.738   2.818
 6947SOL    HW121740   3.375   6.726   2.784
 6947SOL    HW221741   3.531   6.749   2.741
 6948SOL     OW21742   4.730   0.721   6.790
 6948SOL    HW121743   4.637   0.747   6.816
 6948SOL    HW221744   4.742   0.734   6.691
 6949SOL     OW21745   5.257   6.599   3.347
 6949SOL    HW121746   5.287   6.683   3.302
 6949SOL    HW221747   5.332   6.534   3.350
 6950SOL     OW21748   2.339   1.518   3.075
 6950SOL    HW121749   2.401   1.458   3.125
 6950SOL    HW221750   2.280   1.463   3.016
 6951SOL     OW21751   6.154   5.698   5.916
 6951SOL    HW121752   6.214   5.680   5.994
 6951SOL    HW221753   6.182   5.642   5.838
 6952SOL     OW21754   0.433   4.938   4.604
 6952SOL    HW121755   0.367   5.005   4.570
 6952SOL    HW221756   0.450   4.870   4.533
 6953SOL     OW21757   4.532   1.106   5.995
 6953SOL    HW121758   4.559   1.156   5.913
 6953SOL    HW221759   4.603   1.114   6.064
 6954SOL     OW21760   6.524   3.356   4.341
 6954SOL    HW121761   6.429   3.370   4.368
 6954SOL    HW221762   6.545   3.258   4.344
 6955SOL     OW21763   6.979   6.263   1.643
 6955SOL    HW121764   6.989   6.358   1.613
 6955SOL    HW221765   6.899   6.223   1.600
 6956SOL     OW21766   4.750   5.435   1.771
 6956SOL    HW121767   4.683   5.428   1.845
 6956SOL    HW221768   4.702   5.437   1.683
 6957SOL     OW21769   0.142   4.825   2.012
 6957SOL    HW121770   0.136   4.925   2.000
 6957SOL    HW221771   0.153   4.805   2.110
 6958SOL     OW21772   2.502   2.831   6.002
 6958SOL    HW121773   2.446   2.846   6.083
 6958SOL    HW221774   2.503   2.733   5.980
 6959SOL     OW21775   3.781   1.629   4.879
 6959SOL    HW121776   3.822   1.715   4.910
 6959SOL    HW221777   3.811   1.610   4.785
 6960SOL     OW21778   0.144   4.617   0.073
 6960SOL    HW121779   0.170   4.558   0.149
 6960SOL    HW221780   0.164   4.713   0.095
 6961SOL     OW21781   1.378   1.495   3.123
 6961SOL    HW121782   1.339   1.582   3.093
 6961SOL    HW221783   1.438   1.511   3.202
 6962SOL     OW21784   4.998   4.654   1.914
 6962SOL    HW121785   5.074   4.608   1.960
 6962SOL    HW221786   5.010   4.753   1.922
 6963SOL     OW21787   0.640   4.841   2.178
 6963SOL    HW121788   0.575   4.832   2.102
 6963SOL    HW221789   0.719   4.781   2.161
 6964SOL     OW21790   4.607   5.140   5.145
 6964SOL    HW121791   4.560   5.083   5.078
 6964SOL    HW221792   4.602   5.236   5.117
 6965SOL     OW21793   6.619   2.999   6.391
 6965SOL    HW121794   6.561   3.076   6.417
 6965SOL    HW221795   6.640   3.005   6.293
 6966SOL     OW21796   4.906   2.472   2.702
 6966SOL    HW121797   4.845   2.394   2.686
 6966SOL    HW221798   4.930   2.514   2.615
 6967SOL     OW21799   1.187   1.946   6.069
 6967SOL    HW121800   1.193   1.993   5.981
 6967SOL    HW221801   1.096   1.906   6.079
 6968SOL     OW21802   3.985   5.905   1.552
 6968SOL    HW121803   4.059   5.838   1.548
 6968SOL    HW221804   4.015   5.990   1.509
 6969SOL     OW21805   3.502   1.649   0.464
 6969SOL    HW121806   3.431   1.580   0.453
 6969SOL    HW221807   3.491   1.720   0.394
 6970SOL     OW21808   3.994   4.611   0.514
 6970SOL    HW121809   3.982   4.524   0.562
 6970SOL    HW221810   3.920   4.624   0.449
 6971SOL     OW21811   6.521   2.569   1.536
 6971SOL    HW121812   6.513   2.651   1.592
 6971SOL    HW221813   6.432   2.523   1.531
 6972SOL     OW21814   5.431   4.552   4.652
 6972SOL    HW121815   5.486   4.635   4.665
 6972SOL    HW221816   5.435   4.496   4.735
 6973SOL     OW21817   2.200   5.088   4.119
 6973SOL    HW121818   2.243   5.012   4.168
 6973SOL    HW221819   2.269   5.154   4.092
 6974SOL     OW21820   3.185   4.117   3.736
 6974SOL    HW121821   3.189   4.216   3.722
 6974SOL    HW221822   3.201   4.096   3.833
 6975SOL     OW21823   3.649   0.659   6.008
 6975SOL    HW121824   3.634   0.758   6.001
 6975SOL    HW221825   3.639   0.618   5.917
 6976SOL     OW21826   2.559   5.199   6.558
 6976SOL    HW121827   2.487   5.228   6.621
 6976SOL    HW221828   2.561   5.099   6.553
 6977SOL     OW21829   3.436   1.389   2.421
 6977SOL    HW121830   3.524   1.431   2.398
 6977SOL    HW221831   3.392   1.355   2.338
 6978SOL     OW21832   0.351   0.609   1.855
 6978SOL    HW121833   0.351   0.627   1.757
 6978SOL    HW221834   0.290   0.532   1.875
 6979SOL     OW21835   0.768   4.139   2.421
 6979SOL    HW121836   0.729   4.089   2.499
 6979SOL    HW221837   0.793   4.074   2.349
 6980SOL     OW21838   2.512   1.206   3.797
 6980SOL    HW121839   2.606   1.236   3.813
 6980SOL    HW221840   2.490   1.214   3.699
 6981SOL     OW21841   2.081   4.627   0.362
 6981SOL    HW121842   2.008   4.695   0.358
 6981SOL    HW221843   2.166   4.670   0.390
 6982SOL     OW21844   1.529   0.474   4.346
 6982SOL    HW121845   1.544   0.381   4.378
 6982SOL    HW221846   1.432   0.497   4.353
 6983SOL     OW21847   6.796   0.272   4.851
 6983SOL    HW121848   6.701   0.249   4.875
 6983SOL    HW221849   6.850   0.188   4.847
 6984SOL     OW21850   1.921   2.243   5.906
 6984SOL    HW121851   1.955   2.169   5.850
 6984SOL    HW221852   1.943   2.331   5.863
 6985SOL     OW21853   4.329   5.757   2.481
 6985SOL    HW121854   4.232   5.746   2.500
 6985SOL    HW221855   4.366   5.671   2.446
 6986SOL     OW21856   1.812   6.048   5.654
 6986SOL    HW121857   1.721   6.048   5.611
 6986SOL    HW221858   1.876   5.997   5.597
 6987SOL     OW21859   0.208   2.775   6.492
 6987SOL    HW121860   0.183   2.702   6.429
 6987SOL    HW221861   0.149   2.854   6.476
 6988SOL     OW21862   5.130   1.545   3.837
 6988SOL    HW121863   5.118   1.456   3.793
 6988SOL    HW221864   5.050   1.564   3.894
 6989SOL     OW21865   1.498   1.634   3.669
 6989SOL    HW121866   1.469   1.601   3.580
 6989SOL    HW221867   1.457   1.578   3.741
 6990SOL     OW21868   4.568   3.015   7.011
 6990SOL    HW121869   4.556   3.018   0.092
 6990SOL    HW221870   4.487   2.977   6.968
 6991SOL     OW21871   2.389   4.858   5.378
 6991SOL    HW121872   2.415   4.784   5.440
 6991SOL    HW221873   2.466   4.921   5.368
 6992SOL     OW21874   6.024   6.586   4.183
 6992SOL    HW121875   6.024   6.486   4.178
 6992SOL    HW221876   6.074   6.624   4.106
 6993SOL     OW21877   0.225   0.321   3.102
 6993SOL    HW121878   0.154   0.257   3.071
 6993SOL    HW221879   0.258   0.293   3.192
 6994SOL     OW21880   1.593   3.387   6.119
 6994SOL    HW121881   1.606   3.408   6.216
 6994SOL    HW221882   1.540   3.303   6.110
 6995SOL     OW21883   5.562   5.689   4.250
 6995SOL    HW121884   5.656   5.657   4.247
 6995SOL    HW221885   5.534   5.720   4.160
 6996SOL     OW21886   2.546   0.706   5.303
 6996SOL    HW121887   2.485   0.752   5.367
 6996SOL    HW221888   2.622   0.664   5.353
 6997SOL     OW21889   4.675   5.723   4.833
 6997SOL    HW121890   4.590   5.696   4.787
 6997SOL    HW221891   4.746   5.655   4.815
 6998SOL     OW21892   1.908   3.260   2.239
 6998SOL    HW121893   1.983   3.327   2.249
 6998SOL    HW221894   1.946   3.168   2.243
 6999SOL     OW21895   2.431   2.071   5.997
 6999SOL    HW121896   2.517   2.023   5.982
 6999SOL    HW221897   2.392   2.043   6.085
 7000SOL     OW21898   0.446   5.999   2.747
 7000SOL    HW121899   0.417   6.049   2.829
 7000SOL    HW221900   0.443   5.901   2.765
 7001SOL     OW21901   2.263   3.297   5.698
 7001SOL    HW121902   2.177   3.331   5.662
 7001SOL    HW221903   2.247   3.244   5.782
 7002SOL     OW21904   1.316   5.068   3.828
 7002SOL    HW121905   1.349   5.126   3.754
 7002SOL    HW221906   1.293   5.125   3.907
 7003SOL     OW21907   3.065   6.967   0.682
 7003SOL    HW121908   3.067   6.868   0.699
 7003SOL    HW221909   3.153   6.996   0.645
 7004SOL     OW21910   1.524   4.359   1.378
 7004SOL    HW121911   1.580   4.277   1.367
 7004SOL    HW221912   1.430   4.339   1.350
 7005SOL     OW21913   5.759   6.604   6.716
 7005SOL    HW121914   5.766   6.542   6.637
 7005SOL    HW221915   5.841   6.595   6.772
 7006SOL     OW21916   4.801   4.292   4.816
 7006SOL    HW121917   4.837   4.232   4.888
 7006SOL    HW221918   4.875   4.318   4.754
 7007SOL     OW21919   4.811   6.506   3.031
 7007SOL    HW121920   4.721   6.489   3.072
 7007SOL    HW221921   4.879   6.446   3.074
 7008SOL     OW21922   2.300   5.189   4.780
 7008SOL    HW121923   2.283   5.287   4.779
 7008SOL    HW221924   2.214   5.141   4.798
 7009SOL     OW21925   6.444   5.814   2.234
 7009SOL    HW121926   6.496   5.796   2.317
 7009SOL    HW221927   6.349   5.786   2.247
 7010SOL     OW21928   3.525   4.855   6.147
 7010SOL    HW121929   3.556   4.868   6.053
 7010SOL    HW221930   3.584   4.788   6.193
 7011SOL     OW21931   1.871   6.627   5.561
 7011SOL    HW121932   1.959   6.616   5.608
 7011SOL    HW221933   1.799   6.642   5.629
 7012SOL     OW21934   1.128   0.206   1.752
 7012SOL    HW121935   1.111   0.300   1.721
 7012SOL    HW221936   1.198   0.164   1.694
 7013SOL     OW21937   1.087   6.813   1.183
 7013SOL    HW121938   0.990   6.828   1.161
 7013SOL    HW221939   1.144   6.872   1.126
 7014SOL     OW21940   3.235   4.161   1.052
 7014SOL    HW121941   3.163   4.176   1.120
 7014SOL    HW221942   3.251   4.246   1.001
 7015SOL     OW21943   4.761   2.753   2.576
 7015SOL    HW121944   4.839   2.745   2.513
 7015SOL    HW221945   4.680   2.714   2.534
 7016SOL     OW21946   4.499   4.752   1.543
 7016SOL    HW121947   4.424   4.796   1.493
 7016SOL    HW221948   4.513   4.800   1.630
 7017SOL     OW21949   3.037   1.713   3.386
 7017SOL    HW121950   3.030   1.774   3.465
 7017SOL    HW221951   2.945   1.697   3.349
 7018SOL     OW21952   0.208   3.763   4.483
 7018SOL    HW121953   0.155   3.810   4.412
 7018SOL    HW221954   0.154   3.758   4.566
 7019SOL     OW21955   2.817   5.162   6.650
 7019SOL    HW121956   2.718   5.170   6.643
 7019SOL    HW221957   2.854   5.244   6.695
 7020SOL     OW21958   5.626   0.500   6.883
 7020SOL    HW121959   5.702   0.456   6.930
 7020SOL    HW221960   5.554   0.523   6.949
 7021SOL     OW21961   2.522   1.201   5.139
 7021SOL    HW121962   2.467   1.177   5.219
 7021SOL    HW221963   2.469   1.259   5.078
 7022SOL     OW21964   5.466   3.570   0.606
 7022SOL    HW121965   5.426   3.561   0.515
 7022SOL    HW221966   5.491   3.479   0.640
 7023SOL     OW21967   5.964   2.137   2.146
 7023SOL    HW121968   5.992   2.152   2.051
 7023SOL    HW221969   5.943   2.224   2.189
 7024SOL     OW21970   1.851   6.129   6.568
 7024SOL    HW121971   1.790   6.079   6.629
 7024SOL    HW221972   1.815   6.126   6.474
 7025SOL     OW21973   3.153   2.089   6.544
 7025SOL    HW121974   3.235   2.145   6.560
 7025SOL    HW221975   3.100   2.128   6.469
 7026SOL     OW21976   3.452   1.985   1.658
 7026SOL    HW121977   3.491   1.911   1.604
 7026SOL    HW221978   3.395   1.948   1.731
 7027SOL     OW21979   4.216   5.636   3.852
 7027SOL    HW121980   4.158   5.595   3.782
 7027SOL    HW221981   4.211   5.735   3.846
 7028SOL     OW21982   4.743   6.616   3.333
 7028SOL    HW121983   4.803   6.657   3.264
 7028SOL    HW221984   4.675   6.683   3.361
 7029SOL     OW21985   3.520   6.482   0.061
 7029SOL    HW121986   3.549   6.569   0.100
 7029SOL    HW221987   3.445   6.444   0.115
 7030SOL     OW21988   6.969   3.264   5.697
 7030SOL    HW121989   6.913   3.345   5.681
 7030SOL    HW221990   6.982   3.214   5.612
 7031SOL     OW21991   2.250   5.427   4.624
 7031SOL    HW121992   2.271   5.351   4.561
 7031SOL    HW221993   2.191   5.493   4.577
 7032SOL     OW21994   5.291   6.886   2.705
 7032SOL    HW121995   5.235   6.810   2.672
 7032SOL    HW221996   5.380   6.884   2.659
 7033SOL     OW21997   0.165   1.470   3.778
 7033SOL    HW121998   0.107   1.438   3.703
 7033SOL    HW221999   0.124   1.445   3.865
 7034SOL     OW22000   5.062   0.001   2.814
 7034SOL    HW122001   5.157   6.991   2.807
 7034SOL    HW222002   5.015   7.001   2.728
 7035SOL     OW22003   0.297   6.449   2.868
 7035SOL    HW122004   0.359   6.467   2.792
 7035SOL    HW222005   0.351   6.432   2.951
 7036SOL     OW22006   6.781   5.741   1.873
 7036SOL    HW122007   6.813   5.697   1.957
 7036SOL    HW222008   6.855   5.741   1.805
 7037SOL     OW22009   1.006   5.995   5.418
 7037SOL    HW122010   0.987   6.075   5.360
 7037SOL    HW222011   1.101   5.966   5.405
 7038SOL     OW22012   1.297   4.300   3.311
 7038SOL    HW122013   1.270   4.204   3.302
 7038SOL    HW222014   1.394   4.309   3.290
 7039SOL     OW22015   3.505   0.419   6.666
 7039SOL    HW122016   3.429   0.479   6.690
 7039SOL    HW222017   3.591   0.470   6.676
 7040SOL     OW22018   4.571   2.741   6.483
 7040SOL    HW122019   4.596   2.791   6.565
 7040SOL    HW222020   4.472   2.743   6.471
 7041SOL     OW22021   1.036   1.567   2.875
 7041SOL    HW122022   0.991   1.525   2.796
 7041SOL    HW222023   0.981   1.550   2.957
 7042SOL     OW22024   4.363   5.259   6.512
 7042SOL    HW122025   4.455   5.297   6.516
 7042SOL    HW222026   4.341   5.232   6.418
 7043SOL     OW22027   1.491   1.885   3.533
 7043SOL    HW122028   1.461   1.832   3.612
 7043SOL    HW222029   1.591   1.888   3.530
 7044SOL     OW22030   4.855   4.517   2.813
 7044SOL    HW122031   4.875   4.552   2.905
 7044SOL    HW222032   4.776   4.455   2.818
 7045SOL     OW22033   5.026   6.492   1.439
 7045SOL    HW122034   5.018   6.538   1.351
 7045SOL    HW222035   5.084   6.545   1.500
 7046SOL     OW22036   4.133   0.556   4.889
 7046SOL    HW122037   4.059   0.578   4.825
 7046SOL    HW222038   4.095   0.517   4.973
 7047SOL     OW22039   0.623   1.451   3.807
 7047SOL    HW122040   0.653   1.466   3.712
 7047SOL    HW222041   0.544   1.509   3.826
 7048SOL     OW22042   6.627   6.062   0.896
 7048SOL    HW122043   6.721   6.094   0.904
 7048SOL    HW222044   6.564   6.139   0.907
 7049SOL     OW22045   2.073   0.838   0.639
 7049SOL    HW122046   2.121   0.864   0.723
 7049SOL    HW222047   2.128   0.863   0.560
 7050SOL     OW22048   3.556   3.982   4.653
 7050SOL    HW122049   3.555   3.911   4.723
 7050SOL    HW222050   3.634   4.043   4.668
 7051SOL     OW22051   6.861   0.268   1.048
 7051SOL    HW122052   6.840   0.351   0.997
 7051SOL    HW222053   6.939   0.222   1.006
 7052SOL     OW22054   0.150   2.140   4.247
 7052SOL    HW122055   0.105   2.051   4.237
 7052SOL    HW222056   0.158   2.184   4.158
 7053SOL     OW22057   0.515   3.911   6.668
 7053SOL    HW122058   0.514   3.884   6.765
 7053SOL    HW222059   0.451   3.987   6.654
 7054SOL     OW22060   6.266   6.871   1.662
 7054SOL    HW122061   6.362   6.877   1.633
 7054SOL    HW222062   6.233   6.961   1.688
 7055SOL     OW22063   4.455   0.433   5.588
 7055SOL    HW122064   4.520   0.360   5.610
 7055SOL    HW222065   4.505   0.518   5.571
 7056SOL     OW22066   5.686   4.882   3.248
 7056SOL    HW122067   5.748   4.827   3.191
 7056SOL    HW222068   5.680   4.974   3.211
 7057SOL     OW22069   0.189   4.308   3.564
 7057SOL    HW122070   0.198   4.219   3.609
 7057SOL    HW222071   0.266   4.365   3.589
 7058SOL     OW22072   0.653   5.502   5.035
 7058SOL    HW122073   0.692   5.593   5.019
 7058SOL    HW222074   0.554   5.505   5.022
 7059SOL     OW22075   0.469   0.153   2.125
 7059SOL    HW122076   0.551   0.170   2.070
 7059SOL    HW222077   0.411   0.234   2.124
 7060SOL     OW22078   3.325   6.995   1.282
 7060SOL    HW122079   3.297   6.919   1.223
 7060SOL    HW222080   3.259   0.051   1.273
 7061SOL     OW22081   0.354   1.855   2.980
 7061SOL    HW122082   0.357   1.768   2.931
 7061SOL    HW222083   0.343   1.837   3.078
 7062SOL     OW22084   6.040   1.668   5.330
 7062SOL    HW122085   5.974   1.672   5.405
 7062SOL    HW222086   6.032   1.750   5.274
 7063SOL     OW22087   1.949   6.378   1.485
 7063SOL    HW122088   2.032   6.327   1.462
 7063SOL    HW222089   1.972   6.450   1.551
 7064SOL     OW22090   4.482   2.422   2.085
 7064SOL    HW122091   4.556   2.482   2.111
 7064SOL    HW222092   4.508   2.327   2.102
 7065SOL     OW22093   4.481   4.257   1.263
 7065SOL    HW122094   4.443   4.327   1.323
 7065SOL    HW222095   4.575   4.280   1.240
 7066SOL     OW22096   3.878   0.315   0.515
 7066SOL    HW122097   3.863   0.238   0.577
 7066SOL    HW222098   3.906   0.280   0.425
 7067SOL     OW22099   0.911   3.976   5.632
 7067SOL    HW122100   0.857   4.022   5.561
 7067SOL    HW222101   0.936   3.885   5.601
 7068SOL     OW22102   0.924   2.263   2.963
 7068SOL    HW122103   0.841   2.212   2.987
 7068SOL    HW222104   0.916   2.357   2.997
 7069SOL     OW22105   6.271   3.832   5.525
 7069SOL    HW122106   6.267   3.785   5.436
 7069SOL    HW222107   6.318   3.920   5.513
 7070SOL     OW22108   6.382   4.538   5.130
 7070SOL    HW122109   6.341   4.535   5.221
 7070SOL    HW222110   6.399   4.445   5.099
 7071SOL     OW22111   1.222   5.717   5.292
 7071SOL    HW122112   1.199   5.668   5.376
 7071SOL    HW222113   1.270   5.655   5.229
 7072SOL     OW22114   6.654   6.254   5.775
 7072SOL    HW122115   6.585   6.281   5.708
 7072SOL    HW222116   6.678   6.332   5.832
 7073SOL     OW22117   0.192   0.637   5.587
 7073SOL    HW122118   0.138   0.582   5.524
 7073SOL    HW222119   0.152   0.633   5.678
 7074SOL     OW22120   3.308   2.615   1.441
 7074SOL    HW122121   3.329   2.588   1.535
 7074SOL    HW222122   3.209   2.626   1.431
 7075SOL     OW22123   1.857   5.833   4.265
 7075SOL    HW122124   1.809   5.846   4.352
 7075SOL    HW222125   1.898   5.742   4.262
 7076SOL     OW22126   3.696   2.317   6.781
 7076SOL    HW122127   3.759   2.258   6.831
 7076SOL    HW222128   3.704   2.411   6.813
 7077SOL     OW22129   2.011   6.011   5.208
 7077SOL    HW122130   1.929   6.068   5.202
 7077SOL    HW222131   2.000   5.943   5.279
 7078SOL     OW22132   6.187   6.742   2.966
 7078SOL    HW122133   6.285   6.748   2.987
 7078SOL    HW222134   6.169   6.655   2.919
 7079SOL     OW22135   6.421   5.928   5.890
 7079SOL    HW122136   6.371   5.923   5.977
 7079SOL    HW222137   6.506   5.979   5.904
 7080SOL     OW22138   4.135   2.225   3.670
 7080SOL    HW122139   4.035   2.226   3.676
 7080SOL    HW222140   4.165   2.300   3.611
 7081SOL     OW22141   2.937   1.240   4.949
 7081SOL    HW122142   3.006   1.296   4.994
 7081SOL    HW222143   2.852   1.292   4.942
 7082SOL     OW22144   5.780   1.555   6.814
 7082SOL    HW122145   5.787   1.654   6.823
 7082SOL    HW222146   5.865   1.518   6.775
 7083SOL     OW22147   2.952   1.150   6.209
 7083SOL    HW122148   2.975   1.065   6.162
 7083SOL    HW222149   2.968   1.139   6.307
 7084SOL     OW22150   6.728   6.820   5.410
 7084SOL    HW122151   6.779   6.860   5.486
 7084SOL    HW222152   6.642   6.781   5.444
 7085SOL     OW22153   2.319   2.017   3.508
 7085SOL    HW122154   2.406   1.997   3.463
 7085SOL    HW222155   2.328   2.002   3.606
 7086SOL     OW22156   4.994   0.912   6.747
 7086SOL    HW122157   4.918   0.939   6.806
 7086SOL    HW222158   4.959   0.856   6.672
 7087SOL     OW22159   1.163   3.556   4.649
 7087SOL    HW122160   1.235   3.623   4.628
 7087SOL    HW222161   1.096   3.556   4.575
 7088SOL     OW22162   5.168   3.262   4.460
 7088SOL    HW122163   5.091   3.205   4.434
 7088SOL    HW222164   5.227   3.278   4.381
 7089SOL     OW22165   3.268   2.482   5.941
 7089SOL    HW122166   3.311   2.409   5.887
 7089SOL    HW222167   3.231   2.552   5.880
 7090SOL     OW22168   1.588   1.851   5.746
 7090SOL    HW122169   1.634   1.917   5.805
 7090SOL    HW222170   1.558   1.773   5.800
 7091SOL     OW22171   0.522   0.812   0.177
 7091SOL    HW122172   0.491   0.892   0.125
 7091SOL    HW222173   0.552   0.841   0.267
 7092SOL     OW22174   3.793   4.022   0.163
 7092SOL    HW122175   3.777   3.935   0.115
 7092SOL    HW222176   3.769   4.098   0.103
 7093SOL     OW22177   3.564   4.010   4.392
 7093SOL    HW122178   3.550   3.994   4.490
 7093SOL    HW222179   3.570   4.108   4.375
 7094SOL     OW22180   0.627   6.438   5.934
 7094SOL    HW122181   0.669   6.347   5.932
 7094SOL    HW222182   0.656   6.489   5.853
 7095SOL     OW22183   1.922   3.070   6.677
 7095SOL    HW122184   1.885   3.047   6.767
 7095SOL    HW222185   1.931   3.170   6.669
 7096SOL     OW22186   5.275   2.128   3.768
 7096SOL    HW122187   5.237   2.218   3.746
 7096SOL    HW222188   5.203   2.059   3.759
 7097SOL     OW22189   0.097   0.694   2.024
 7097SOL    HW122190   0.170   0.760   2.010
 7097SOL    HW222191   0.107   0.618   1.960
 7098SOL     OW22192   1.264   6.063   5.685
 7098SOL    HW122193   1.216   6.149   5.668
 7098SOL    HW222194   1.267   6.009   5.601
 7099SOL     OW22195   1.283   1.364   5.105
 7099SOL    HW122196   1.312   1.368   5.201
 7099SOL    HW222197   1.355   1.403   5.047
 7100SOL     OW22198   4.798   3.929   0.887
 7100SOL    HW122199   4.793   3.855   0.820
 7100SOL    HW222200   4.720   3.923   0.949
 7101SOL     OW22201   2.936   0.288   4.450
 7101SOL    HW122202   2.972   0.376   4.480
 7101SOL    HW222203   2.995   0.214   4.485
 7102SOL     OW22204   4.067   0.821   1.058
 7102SOL    HW122205   4.053   0.771   1.143
 7102SOL    HW222206   3.991   0.884   1.043
 7103SOL     OW22207   3.612   6.084   6.557
 7103SOL    HW122208   3.709   6.086   6.533
 7103SOL    HW222209   3.601   6.083   6.656
 7104SOL     OW22210   1.474   2.952   3.275
 7104SOL    HW122211   1.566   2.981   3.249
 7104SOL    HW222212   1.436   3.017   3.342
 7105SOL     OW22213   3.238   3.390   4.841
 7105SOL    HW122214   3.222   3.339   4.925
 7105SOL    HW222215   3.280   3.329   4.773
 7106SOL     OW22216   3.493   2.908   4.772
 7106SOL    HW122217   3.437   2.890   4.854
 7106SOL    HW222218   3.452   2.862   4.693
 7107SOL     OW22219   2.907   1.207   0.506
 7107SOL    HW122220   2.986   1.147   0.493
 7107SOL    HW222221   2.828   1.152   0.536
 7108SOL     OW22222   4.758   6.165   1.381
 7108SOL    HW122223   4.665   6.201   1.373
 7108SOL    HW222224   4.763   6.105   1.460
 7109SOL     OW22225   3.432   0.107   6.123
 7109SOL    HW122226   3.370   0.176   6.161
 7109SOL    HW222227   3.491   0.150   6.055
 7110SOL     OW22228   5.316   5.303   4.044
 7110SOL    HW122229   5.362   5.219   4.015
 7110SOL    HW222230   5.359   5.382   4.000
 7111SOL     OW22231   1.579   3.536   3.986
 7111SOL    HW122232   1.533   3.450   4.010
 7111SOL    HW222233   1.675   3.518   3.965
 7112SOL     OW22234   1.635   5.849   4.031
 7112SOL    HW122235   1.734   5.838   4.025
 7112SOL    HW222236   1.609   5.858   4.127
 7113SOL     OW22237   3.959   3.929   4.775
 7113SOL    HW122238   3.988   3.856   4.837
 7113SOL    HW222239   3.993   3.909   4.682
 7114SOL     OW22240   3.689   0.783   1.551
 7114SOL    HW122241   3.607   0.831   1.519
 7114SOL    HW222242   3.664   0.724   1.628
 7115SOL     OW22243   5.364   2.222   1.473
 7115SOL    HW122244   5.456   2.224   1.512
 7115SOL    HW222245   5.297   2.224   1.547
 7116SOL     OW22246   5.690   4.211   3.562
 7116SOL    HW122247   5.645   4.128   3.597
 7116SOL    HW222248   5.766   4.235   3.622
 7117SOL     OW22249   6.835   6.068   3.432
 7117SOL    HW122250   6.789   6.021   3.507
 7117SOL    HW222251   6.922   6.022   3.412
 7118SOL     OW22252   5.358   3.694   1.638
 7118SOL    HW122253   5.269   3.649   1.624
 7118SOL    HW222254   5.420   3.669   1.563
 7119SOL     OW22255   5.895   1.268   2.857
 7119SOL    HW122256   5.863   1.358   2.888
 7119SOL    HW222257   5.888   1.264   2.757
 7120SOL     OW22258   4.822   1.315   3.121
 7120SOL    HW122259   4.856   1.404   3.150
 7120SOL    HW222260   4.801   1.259   3.201
 7121SOL     OW22261   2.413   6.562   3.706
 7121SOL    HW122262   2.436   6.492   3.773
 7121SOL    HW222263   2.448   6.534   3.616
 7122SOL     OW22264   6.646   1.167   0.276
 7122SOL    HW122265   6.618   1.106   0.351
 7122SOL    HW222266   6.741   1.146   0.250
 7123SOL     OW22267   2.685   5.691   1.851
 7123SOL    HW122268   2.636   5.765   1.899
 7123SOL    HW222269   2.686   5.610   1.908
 7124SOL     OW22270   0.659   4.972   0.905
 7124SOL    HW122271   0.744   4.933   0.869
 7124SOL    HW222272   0.679   5.054   0.958
 7125SOL     OW22273   6.274   6.504   1.664
 7125SOL    HW122274   6.213   6.514   1.743
 7125SOL    HW222275   6.356   6.559   1.679
 7126SOL     OW22276   2.602   3.658   0.441
 7126SOL    HW122277   2.594   3.753   0.411
 7126SOL    HW222278   2.695   3.626   0.426
 7127SOL     OW22279   3.419   5.246   3.965
 7127SOL    HW122280   3.515   5.228   3.988
 7127SOL    HW222281   3.364   5.166   3.990
 7128SOL     OW22282   3.148   4.788   0.973
 7128SOL    HW122283   3.230   4.787   1.029
 7128SOL    HW222284   3.152   4.713   0.907
 7129SOL     OW22285   3.059   0.544   1.282
 7129SOL    HW122286   3.006   0.583   1.358
 7129SOL    HW222287   3.111   0.617   1.238
 7130SOL     OW22288   3.250   5.035   4.001
 7130SOL    HW122289   3.212   4.954   3.956
 7130SOL    HW222290   3.175   5.093   4.034
 7131SOL     OW22291   3.054   1.379   1.914
 7131SOL    HW122292   2.980   1.331   1.867
 7131SOL    HW222293   3.121   1.412   1.848
 7132SOL     OW22294   4.149   3.547   3.092
 7132SOL    HW122295   4.168   3.636   3.050
 7132SOL    HW222296   4.081   3.498   3.037
 7133SOL     OW22297   4.783   5.357   2.927
 7133SOL    HW122298   4.867   5.404   2.954
 7133SOL    HW222299   4.742   5.313   3.006
 7134SOL     OW22300   6.559   5.938   4.003
 7134SOL    HW122301   6.635   5.881   3.973
 7134SOL    HW222302   6.594   6.018   4.051
 7135SOL     OW22303   1.280   0.513   4.377
 7135SOL    HW122304   1.235   0.428   4.404
 7135SOL    HW222305   1.271   0.581   4.449
 7136SOL     OW22306   1.991   1.555   0.866
 7136SOL    HW122307   2.020   1.469   0.909
 7136SOL    HW222308   1.923   1.536   0.795
 7137SOL     OW22309   4.278   1.097   4.697
 7137SOL    HW122310   4.352   1.029   4.699
 7137SOL    HW222311   4.303   1.172   4.636
 7138SOL     OW22312   3.392   2.743   1.178
 7138SOL    HW122313   3.379   2.645   1.190
 7138SOL    HW222314   3.408   2.786   1.267
 7139SOL     OW22315   4.931   3.146   1.775
 7139SOL    HW122316   4.894   3.133   1.867
 7139SOL    HW222317   5.031   3.146   1.779
 7140SOL     OW22318   5.854   3.588   4.955
 7140SOL    HW122319   5.943   3.547   4.935
 7140SOL    HW222320   5.782   3.520   4.939
 7141SOL     OW22321   3.211   0.285   1.002
 7141SOL    HW122322   3.220   0.281   1.101
 7141SOL    HW222323   3.119   0.315   0.977
 7142SOL     OW22324   4.476   6.683   3.913
 7142SOL    HW122325   4.457   6.781   3.921
 7142SOL    HW222326   4.479   6.641   4.004
 7143SOL     OW22327   2.166   4.205   6.500
 7143SOL    HW122328   2.145   4.196   6.403
 7143SOL    HW222329   2.164   4.302   6.526
 7144SOL     OW22330   0.429   1.321   2.736
 7144SOL    HW122331   0.343   1.303   2.687
 7144SOL    HW222332   0.484   1.238   2.738
 7145SOL     OW22333   4.158   6.494   6.781
 7145SOL    HW122334   4.079   6.552   6.759
 7145SOL    HW222335   4.217   6.542   6.846
 7146SOL     OW22336   3.066   6.552   1.031
 7146SOL    HW122337   2.992   6.581   1.092
 7146SOL    HW222338   3.089   6.456   1.050
 7147SOL     OW22339   6.802   6.934   3.452
 7147SOL    HW122340   6.888   6.984   3.443
 7147SOL    HW222341   6.822   6.836   3.461
 7148SOL     OW22342   0.887   6.244   1.540
 7148SOL    HW122343   0.806   6.187   1.526
 7148SOL    HW222344   0.969   6.188   1.531
 7149SOL     OW22345   6.602   1.086   3.728
 7149SOL    HW122346   6.512   1.072   3.770
 7149SOL    HW222347   6.609   1.180   3.695
 7150SOL     OW22348   5.224   2.808   1.167
 7150SOL    HW122349   5.163   2.734   1.138
 7150SOL    HW222350   5.176   2.868   1.231
 7151SOL     OW22351   1.616   6.042   0.988
 7151SOL    HW122352   1.593   5.949   1.018
 7151SOL    HW222353   1.599   6.051   0.890
 7152SOL     OW22354   0.711   3.527   4.802
 7152SOL    HW122355   0.798   3.478   4.813
 7152SOL    HW222356   0.717   3.588   4.723
 7153SOL     OW22357   4.050   6.896   5.400
 7153SOL    HW122358   4.105   6.856   5.327
 7153SOL    HW222359   4.076   6.991   5.413
 7154SOL     OW22360   3.941   5.652   4.261
 7154SOL    HW122361   4.039   5.655   4.239
 7154SOL    HW222362   3.919   5.562   4.299
 7155SOL     OW22363   0.976   6.341   2.000
 7155SOL    HW122364   1.037   6.266   1.974
 7155SOL    HW222365   0.898   6.343   1.937
 7156SOL     OW22366   6.712   4.866   5.368
 7156SOL    HW122367   6.800   4.837   5.404
 7156SOL    HW222368   6.721   4.956   5.325
 7157SOL     OW22369   6.177   5.371   7.007
 7157SOL    HW122370   6.168   5.470   6.998
 7157SOL    HW222371   6.206   5.349   0.082
 7158SOL     OW22372   6.794   6.715   3.140
 7158SOL    HW122373   6.887   6.685   3.161
 7158SOL    HW222374   6.736   6.702   3.220
 7159SOL     OW22375   0.219   4.902   1.319
 7159SOL    HW122376   0.273   4.910   1.235
 7159SOL    HW222377   0.208   4.805   1.342
 7160SOL     OW22378   6.688   0.222   1.638
 7160SOL    HW122379   6.591   0.214   1.615
 7160SOL    HW222380   6.712   0.151   1.705
 7161SOL     OW22381   3.309   3.397   3.633
 7161SOL    HW122382   3.282   3.326   3.568
 7161SOL    HW222383   3.331   3.481   3.583
 7162SOL     OW22384   3.751   4.956   4.645
 7162SOL    HW122385   3.675   4.957   4.580
 7162SOL    HW222386   3.835   4.932   4.597
 7163SOL     OW22387   3.880   0.101   3.311
 7163SOL    HW122388   3.978   0.116   3.302
 7163SOL    HW222389   3.848   0.040   3.238
 7164SOL     OW22390   1.962   1.572   3.207
 7164SOL    HW122391   2.007   1.513   3.140
 7164SOL    HW222392   1.988   1.544   3.299
 7165SOL     OW22393   6.241   1.215   0.387
 7165SOL    HW122394   6.213   1.274   0.312
 7165SOL    HW222395   6.323   1.164   0.361
 7166SOL     OW22396   4.762   4.447   1.505
 7166SOL    HW122397   4.858   4.417   1.512
 7166SOL    HW222398   4.719   4.442   1.595
 7167SOL     OW22399   4.890   3.890   5.165
 7167SOL    HW122400   4.877   3.799   5.125
 7167SOL    HW222401   4.804   3.922   5.204
 7168SOL     OW22402   1.416   1.561   3.918
 7168SOL    HW122403   1.325   1.600   3.903
 7168SOL    HW222404   1.407   1.467   3.953
 7169SOL     OW22405   1.653   3.308   5.856
 7169SOL    HW122406   1.628   3.212   5.848
 7169SOL    HW222407   1.640   3.338   5.951
 7170SOL     OW22408   4.846   5.213   2.723
 7170SOL    HW122409   4.886   5.271   2.652
 7170SOL    HW222410   4.826   5.269   2.804
 7171SOL     OW22411   4.450   3.269   5.475
 7171SOL    HW122412   4.435   3.183   5.427
 7171SOL    HW222413   4.526   3.259   5.540
 7172SOL     OW22414   1.294   6.624   0.319
 7172SOL    HW122415   1.239   6.700   0.285
 7172SOL    HW222416   1.316   6.639   0.416
 7173SOL     OW22417   6.388   4.888   4.256
 7173SOL    HW122418   6.342   4.962   4.306
 7173SOL    HW222419   6.328   4.855   4.184
 7174SOL     OW22420   1.983   5.138   6.888
 7174SOL    HW122421   2.076   5.153   6.854
 7174SOL    HW222422   1.919   5.148   6.812
 7175SOL     OW22423   5.509   3.772   1.019
 7175SOL    HW122424   5.470   3.818   0.940
 7175SOL    HW222425   5.477   3.816   1.103
 7176SOL     OW22426   6.925   4.716   2.408
 7176SOL    HW122427   6.843   4.660   2.417
 7176SOL    HW222428   6.928   4.783   2.482
 7177SOL     OW22429   1.645   6.030   3.838
 7177SOL    HW122430   1.655   5.958   3.907
 7177SOL    HW222431   1.699   6.110   3.864
 7178SOL     OW22432   1.658   2.825   5.750
 7178SOL    HW122433   1.732   2.857   5.690
 7178SOL    HW222434   1.606   2.904   5.782
 7179SOL     OW22435   2.759   3.493   5.784
 7179SOL    HW122436   2.759   3.399   5.751
 7179SOL    HW222437   2.679   3.541   5.747
 7180SOL     OW22438   0.952   5.357   6.548
 7180SOL    HW122439   0.888   5.281   6.561
 7180SOL    HW222440   1.045   5.324   6.561
 7181SOL     OW22441   4.199   0.614   0.941
 7181SOL    HW122442   4.133   0.545   0.911
 7181SOL    HW222443   4.153   0.681   0.999
 7182SOL     OW22444   1.929   4.244   5.500
 7182SOL    HW122445   1.856   4.307   5.477
 7182SOL    HW222446   2.014   4.273   5.456
 7183SOL     OW22447   2.087   5.312   2.565
 7183SOL    HW122448   2.095   5.342   2.660
 7183SOL    HW222449   2.018   5.367   2.518
 7184SOL     OW22450   1.353   6.638   4.280
 7184SOL    HW122451   1.374   6.574   4.206
 7184SOL    HW222452   1.266   6.685   4.260
 7185SOL     OW22453   5.439   3.093   6.735
 7185SOL    HW122454   5.492   3.084   6.651
 7185SOL    HW222455   5.375   3.016   6.742
 7186SOL     OW22456   6.990   6.875   5.561
 7186SOL    HW122457   6.984   6.953   5.499
 7186SOL    HW222458   0.010   6.904   5.649
 7187SOL     OW22459   1.574   4.557   1.568
 7187SOL    HW122460   1.547   4.493   1.496
 7187SOL    HW222461   1.622   4.635   1.528
 7188SOL     OW22462   5.591   0.043   2.222
 7188SOL    HW122463   5.677   0.012   2.182
 7188SOL    HW222464   5.531   0.079   2.151
 7189SOL     OW22465   6.244   1.006   6.297
 7189SOL    HW122466   6.157   0.990   6.249
 7189SOL    HW222467   6.225   1.052   6.383
 7190SOL     OW22468   5.415   4.298   3.505
 7190SOL    HW122469   5.515   4.303   3.510
 7190SOL    HW222470   5.387   4.206   3.480
 7191SOL     OW22471   0.988   3.740   2.809
 7191SOL    HW122472   0.945   3.650   2.807
 7191SOL    HW222473   0.936   3.800   2.870
 7192SOL     OW22474   2.281   5.428   5.773
 7192SOL    HW122475   2.373   5.423   5.735
 7192SOL    HW222476   2.231   5.344   5.750
 7193SOL     OW22477   3.093   1.985   4.737
 7193SOL    HW122478   3.147   1.938   4.667
 7193SOL    HW222479   3.154   2.039   4.796
 7194SOL     OW22480   2.282   1.544   1.278
 7194SOL    HW122481   2.325   1.478   1.218
 7194SOL    HW222482   2.243   1.618   1.223
 7195SOL     OW22483   0.157   5.256   0.804
 7195SOL    HW122484   0.087   5.272   0.734
 7195SOL    HW222485   0.246   5.243   0.760
 7196SOL     OW22486   2.894   3.383   3.116
 7196SOL    HW122487   2.799   3.386   3.088
 7196SOL    HW222488   2.911   3.455   3.184
 7197SOL     OW22489   6.762   1.805   4.854
 7197SOL    HW122490   6.838   1.741   4.848
 7197SOL    HW222491   6.713   1.791   4.941
 7198SOL     OW22492   1.483   6.757   5.865
 7198SOL    HW122493   1.549   6.684   5.847
 7198SOL    HW222494   1.392   6.717   5.879
 7199SOL     OW22495   0.181   0.623   2.749
 7199SOL    HW122496   0.194   0.594   2.843
 7199SOL    HW222497   0.083   0.638   2.732
 7200SOL     OW22498   2.240   0.876   0.442
 7200SOL    HW122499   2.189   0.795   0.412
 7200SOL    HW222500   2.287   0.917   0.364
 7201SOL     OW22501   1.875   4.773   3.054
 7201SOL    HW122502   1.831   4.705   2.996
 7201SOL    HW222503   1.883   4.860   3.005
 7202SOL     OW22504   3.953   0.167   6.320
 7202SOL    HW122505   3.947   0.201   6.226
 7202SOL    HW222506   3.867   0.122   6.345
 7203SOL     OW22507   6.235   0.573   0.559
 7203SOL    HW122508   6.194   0.519   0.632
 7203SOL    HW222509   6.318   0.616   0.592
 7204SOL     OW22510   6.537   0.357   3.708
 7204SOL    HW122511   6.512   0.426   3.640
 7204SOL    HW222512   6.488   0.374   3.793
 7205SOL     OW22513   1.518   5.403   3.125
 7205SOL    HW122514   1.601   5.367   3.083
 7205SOL    HW222515   1.543   5.475   3.191
 7206SOL     OW22516   0.283   1.204   1.249
 7206SOL    HW122517   0.257   1.196   1.153
 7206SOL    HW222518   0.320   1.117   1.281
 7207SOL     OW22519   3.545   6.667   1.188
 7207SOL    HW122520   3.460   6.615   1.196
 7207SOL    HW222521   3.597   6.659   1.273
 7208SOL     OW22522   3.924   6.749   4.726
 7208SOL    HW122523   3.894   6.824   4.785
 7208SOL    HW222524   3.981   6.686   4.779
 7209SOL     OW22525   4.044   3.153   4.075
 7209SOL    HW122526   4.143   3.140   4.072
 7209SOL    HW222527   4.014   3.161   4.170
 7210SOL     OW22528   4.719   1.154   3.619
 7210SOL    HW122529   4.642   1.117   3.669
 7210SOL    HW222530   4.693   1.167   3.523
 7211SOL     OW22531   1.262   6.242   4.359
 7211SOL    HW122532   1.168   6.269   4.378
 7211SOL    HW222533   1.307   6.314   4.307
 7212SOL     OW22534   0.092   5.972   4.765
 7212SOL    HW122535   0.091   5.909   4.842
 7212SOL    HW222536   0.063   5.923   4.682
 7213SOL     OW22537   5.554   0.173   5.500
 7213SOL    HW122538   5.574   0.215   5.588
 7213SOL    HW222539   5.557   0.073   5.508
 7214SOL     OW22540   2.249   5.323   4.331
 7214SOL    HW122541   2.229   5.235   4.374
 7214SOL    HW222542   2.281   5.307   4.237
 7215SOL     OW22543   1.533   3.219   4.379
 7215SOL    HW122544   1.611   3.275   4.352
 7215SOL    HW222545   1.562   3.124   4.389
 7216SOL     OW22546   2.600   5.997   6.951
 7216SOL    HW122547   2.592   5.908   6.996
 7216SOL    HW222548   2.681   6.045   6.985
 7217SOL     OW22549   1.848   4.591   2.282
 7217SOL    HW122550   1.794   4.673   2.261
 7217SOL    HW222551   1.878   4.595   2.378
 7218SOL     OW22552   4.855   2.169   5.654
 7218SOL    HW122553   4.878   2.092   5.593
 7218SOL    HW222554   4.896   2.153   5.744
 7219SOL     OW22555   4.556   6.775   3.427
 7219SOL    HW122556   4.525   6.759   3.521
 7219SOL    HW222557   4.482   6.815   3.374
 7220SOL     OW22558   6.439   0.832   2.803
 7220SOL    HW122559   6.379   0.876   2.870
 7220SOL    HW222560   6.473   0.901   2.739
 7221SOL     OW22561   6.004   4.557   5.230
 7221SOL    HW122562   5.915   4.544   5.275
 7221SOL    HW222563   6.014   4.489   5.157
 7222SOL     OW22564   6.291   6.791   0.846
 7222SOL    HW122565   6.354   6.867   0.831
 7222SOL    HW222566   6.247   6.767   0.759
 7223SOL     OW22567   3.158   1.541   6.889
 7223SOL    HW122568   3.135   1.553   6.985
 7223SOL    HW222569   3.076   1.555   6.833
 7224SOL     OW22570   5.827   0.997   4.831
 7224SOL    HW122571   5.864   1.002   4.924
 7224SOL    HW222572   5.872   0.922   4.781
 7225SOL     OW22573   1.726   5.568   0.418
 7225SOL    HW122574   1.789   5.641   0.391
 7225SOL    HW222575   1.752   5.483   0.372
 7226SOL     OW22576   0.388   6.950   0.191
 7226SOL    HW122577   0.440   6.940   0.107
 7226SOL    HW222578   0.386   6.863   0.240
 7227SOL     OW22579   0.731   1.641   0.022
 7227SOL    HW122580   0.800   1.636   6.968
 7227SOL    HW222581   0.640   1.642   7.000
 7228SOL     OW22582   6.982   6.662   1.781
 7228SOL    HW122583   6.990   6.757   1.749
 7228SOL    HW222584   6.949   6.661   1.875
 7229SOL     OW22585   1.185   0.260   4.442
 7229SOL    HW122586   1.089   0.251   4.468
 7229SOL    HW222587   1.237   0.183   4.478
 7230SOL     OW22588   4.594   5.550   3.832
 7230SOL    HW122589   4.505   5.581   3.800
 7230SOL    HW222590   4.666   5.590   3.775
 7231SOL     OW22591   5.841   1.980   6.305
 7231SOL    HW122592   5.838   2.055   6.371
 7231SOL    HW222593   5.918   1.920   6.326
 7232SOL     OW22594   4.255   4.684   2.638
 7232SOL    HW122595   4.344   4.719   2.609
 7232SOL    HW222596   4.201   4.658   2.557
 7233SOL     OW22597   0.065   2.713   5.281
 7233SOL    HW122598   0.147   2.662   5.307
 7233SOL    HW222599   0.066   2.729   5.183
 7234SOL     OW22600   5.999   1.942   1.640
 7234SOL    HW122601   6.045   2.031   1.635
 7234SOL    HW222602   6.068   1.869   1.640
 7235SOL     OW22603   5.071   3.980   4.739
 7235SOL    HW122604   5.012   3.901   4.753
 7235SOL    HW222605   5.160   3.950   4.704
 7236SOL     OW22606   3.998   1.539   2.755
 7236SOL    HW122607   3.900   1.541   2.774
 7236SOL    HW222608   4.028   1.629   2.722
 7237SOL     OW22609   6.152   6.062   5.531
 7237SOL    HW122610   6.161   6.106   5.442
 7237SOL    HW222611   6.226   6.094   5.591
 7238SOL     OW22612   2.659   1.593   2.275
 7238SOL    HW122613   2.671   1.590   2.176
 7238SOL    HW222614   2.570   1.634   2.297
 7239SOL     OW22615   1.721   1.603   2.671
 7239SOL    HW122616   1.670   1.525   2.707
 7239SOL    HW222617   1.819   1.583   2.672
 7240SOL     OW22618   2.951   3.722   1.085
 7240SOL    HW122619   3.021   3.790   1.110
 7240SOL    HW222620   2.979   3.632   1.118
 7241SOL     OW22621   3.647   0.323   5.467
 7241SOL    HW122622   3.592   0.243   5.490
 7241SOL    HW222623   3.588   0.397   5.437
 7242SOL     OW22624   5.553   4.139   6.663
 7242SOL    HW122625   5.496   4.130   6.744
 7242SOL    HW222626   5.647   4.161   6.690
 7243SOL     OW22627   0.915   4.955   6.989
 7243SOL    HW122628   0.870   4.914   6.910
 7243SOL    HW222629   0.969   4.886   0.018
 7244SOL     OW22630   5.781   1.602   1.291
 7244SOL    HW122631   5.830   1.681   1.255
 7244SOL    HW222632   5.834   1.561   1.366
 7245SOL     OW22633   0.170   1.986   4.715
 7245SOL    HW122634   0.072   2.003   4.704
 7245SOL    HW222635   0.218   2.074   4.713
 7246SOL     OW22636   5.963   6.927   4.825
 7246SOL    HW122637   5.911   6.983   4.889
 7246SOL    HW222638   6.059   6.955   4.826
 7247SOL     OW22639   2.680   6.167   1.834
 7247SOL    HW122640   2.765   6.127   1.799
 7247SOL    HW222641   2.700   6.254   1.879
 7248SOL     OW22642   4.092   1.026   4.108
 7248SOL    HW122643   4.053   0.941   4.142
 7248SOL    HW222644   4.135   1.010   4.019
 7249SOL     OW22645   5.489   4.339   0.592
 7249SOL    HW122646   5.551   4.416   0.577
 7249SOL    HW222647   5.530   4.255   0.556
 7250SOL     OW22648   2.654   5.035   6.042
 7250SOL    HW122649   2.675   5.132   6.031
 7250SOL    HW222650   2.675   4.986   5.958
 7251SOL     OW22651   0.010   6.799   4.825
 7251SOL    HW122652   6.955   6.777   4.761
 7251SOL    HW222653   0.097   6.765   4.789
 7252SOL     OW22654   2.949   3.429   4.963
 7252SOL    HW122655   2.960   3.388   5.053
 7252SOL    HW222656   2.938   3.357   4.894
 7253SOL     OW22657   3.064   6.143   0.722
 7253SOL    HW122658   3.041   6.166   0.816
 7253SOL    HW222659   3.162   6.124   0.715
 7254SOL     OW22660   3.872   5.548   4.006
 7254SOL    HW122661   3.891   5.610   4.082
 7254SOL    HW222662   3.840   5.599   3.927
 7255SOL     OW22663   2.926   3.715   2.192
 7255SOL    HW122664   2.847   3.662   2.161
 7255SOL    HW222665   3.000   3.708   2.125
 7256SOL     OW22666   4.217   4.789   4.046
 7256SOL    HW122667   4.221   4.810   3.948
 7256SOL    HW222668   4.244   4.869   4.099
 7257SOL     OW22669   5.561   2.298   3.092
 7257SOL    HW122670   5.587   2.392   3.115
 7257SOL    HW222671   5.635   2.255   3.041
 7258SOL     OW22672   3.651   0.316   4.939
 7258SOL    HW122673   3.555   0.294   4.953
 7258SOL    HW222674   3.703   0.296   5.022
 7259SOL     OW22675   2.481   4.057   0.020
 7259SOL    HW122676   2.578   4.035   0.019
 7259SOL    HW222677   2.469   4.155   0.036
 7260SOL     OW22678   3.335   2.080   2.628
 7260SOL    HW122679   3.318   2.105   2.533
 7260SOL    HW222680   3.422   2.119   2.658
 7261SOL     OW22681   2.154   3.163   2.053
 7261SOL    HW122682   2.195   3.104   1.983
 7261SOL    HW222683   2.175   3.258   2.033
 7262SOL     OW22684   5.430   2.040   4.974
 7262SOL    HW122685   5.406   2.117   5.032
 7262SOL    HW222686   5.448   2.073   4.881
 7263SOL     OW22687   1.390   6.096   1.190
 7263SOL    HW122688   1.372   6.107   1.092
 7263SOL    HW222689   1.486   6.117   1.208
 7264SOL     OW22690   6.465   0.871   6.528
 7264SOL    HW122691   6.396   0.803   6.553
 7264SOL    HW222692   6.541   0.868   6.593
 7265SOL     OW22693   5.112   5.101   5.571
 7265SOL    HW122694   5.127   5.010   5.532
 7265SOL    HW222695   5.051   5.154   5.511
 7266SOL     OW22696   4.733   0.620   1.910
 7266SOL    HW122697   4.769   0.689   1.973
 7266SOL    HW222698   4.633   0.623   1.913
 7267SOL     OW22699   0.426   3.604   4.419
 7267SOL    HW122700   0.407   3.522   4.475
 7267SOL    HW222701   0.348   3.666   4.425
 7268SOL     OW22702   3.838   6.314   1.482
 7268SOL    HW122703   3.768   6.243   1.489
 7268SOL    HW222704   3.855   6.335   1.386
 7269SOL     OW22705   0.971   5.925   2.056
 7269SOL    HW122706   1.064   5.892   2.070
 7269SOL    HW222707   0.910   5.849   2.034
 7270SOL     OW22708   2.357   1.486   2.556
 7270SOL    HW122709   2.319   1.578   2.565
 7270SOL    HW222710   2.310   1.438   2.482
 7271SOL     OW22711   6.861   3.988   3.043
 7271SOL    HW122712   6.925   3.924   3.086
 7271SOL    HW222713   6.799   4.025   3.112
 7272SOL     OW22714   4.634   2.692   2.824
 7272SOL    HW122715   4.631   2.776   2.877
 7272SOL    HW222716   4.672   2.711   2.733
 7273SOL     OW22717   5.385   4.576   1.057
 7273SOL    HW122718   5.469   4.523   1.067
 7273SOL    HW222719   5.326   4.560   1.136
 7274SOL     OW22720   6.907   5.039   5.676
 7274SOL    HW122721   6.958   5.104   5.621
 7274SOL    HW222722   6.971   4.976   5.721
 7275SOL     OW22723   6.771   0.394   0.486
 7275SOL    HW122724   6.800   0.431   0.398
 7275SOL    HW222725   6.843   0.335   0.523
 7276SOL     OW22726   2.325   2.403   4.125
 7276SOL    HW122727   2.316   2.350   4.041
 7276SOL    HW222728   2.236   2.411   4.170
 7277SOL     OW22729   4.658   1.712   4.458
 7277SOL    HW122730   4.737   1.765   4.428
 7277SOL    HW222731   4.670   1.616   4.431
 7278SOL     OW22732   3.256   1.425   3.572
 7278SOL    HW122733   3.271   1.469   3.483
 7278SOL    HW222734   3.285   1.486   3.645
 7279SOL     OW22735   4.976   4.935   0.190
 7279SOL    HW122736   5.076   4.935   0.188
 7279SOL    HW222737   4.944   4.995   0.264
 7280SOL     OW22738   5.357   2.258   5.106
 7280SOL    HW122739   5.259   2.259   5.089
 7280SOL    HW222740   5.374   2.261   5.204
 7281SOL     OW22741   3.631   6.909   1.910
 7281SOL    HW122742   3.619   6.967   1.829
 7281SOL    HW222743   3.555   6.924   1.974
 7282SOL     OW22744   6.891   5.450   1.988
 7282SOL    HW122745   6.890   5.524   2.055
 7282SOL    HW222746   6.944   5.478   1.908
 7283SOL     OW22747   3.957   5.370   2.754
 7283SOL    HW122748   3.906   5.358   2.669
 7283SOL    HW222749   3.944   5.289   2.812
 7284SOL     OW22750   6.896   1.786   3.606
 7284SOL    HW122751   6.950   1.842   3.543
 7284SOL    HW222752   6.869   1.701   3.560
 7285SOL     OW22753   4.753   2.863   2.228
 7285SOL    HW122754   4.661   2.857   2.265
 7285SOL    HW222755   4.754   2.927   2.151
 7286SOL     OW22756   0.439   0.673   0.532
 7286SOL    HW122757   0.401   0.650   0.442
 7286SOL    HW222758   0.485   0.761   0.527
 7287SOL     OW22759   1.535   2.728   4.109
 7287SOL    HW122760   1.611   2.736   4.043
 7287SOL    HW222761   1.468   2.800   4.091
 7288SOL     OW22762   3.218   2.144   3.278
 7288SOL    HW122763   3.253   2.196   3.201
 7288SOL    HW222764   3.228   2.046   3.260
 7289SOL     OW22765   6.291   2.499   1.307
 7289SOL    HW122766   6.308   2.593   1.276
 7289SOL    HW222767   6.251   2.446   1.233
 7290SOL     OW22768   3.546   1.269   4.956
 7290SOL    HW122769   3.506   1.343   4.900
 7290SOL    HW222770   3.474   1.202   4.978
 7291SOL     OW22771   3.986   1.103   0.101
 7291SOL    HW122772   3.989   1.169   0.026
 7291SOL    HW222773   4.074   1.105   0.149
 7292SOL     OW22774   2.150   6.726   3.216
 7292SOL    HW122775   2.129   6.823   3.227
 7292SOL    HW222776   2.235   6.716   3.165
 7293SOL     OW22777   1.720   0.587   5.041
 7293SOL    HW122778   1.766   0.675   5.054
 7293SOL    HW222779   1.676   0.559   5.126
 7294SOL     OW22780   2.322   5.345   1.386
 7294SOL    HW122781   2.357   5.392   1.467
 7294SOL    HW222782   2.382   5.268   1.364
 7295SOL     OW22783   6.544   5.057   2.217
 7295SOL    HW122784   6.625   5.017   2.174
 7295SOL    HW222785   6.474   4.987   2.229
 7296SOL     OW22786   4.371   5.179   1.980
 7296SOL    HW122787   4.340   5.159   2.073
 7296SOL    HW222788   4.436   5.109   1.951
 7297SOL     OW22789   3.846   6.259   1.210
 7297SOL    HW122790   3.919   6.271   1.142
 7297SOL    HW222791   3.809   6.166   1.202
 7298SOL     OW22792   4.729   5.920   6.476
 7298SOL    HW122793   4.754   5.870   6.393
 7298SOL    HW222794   4.773   6.010   6.475
 7299SOL     OW22795   1.309   3.041   0.111
 7299SOL    HW122796   1.305   2.994   0.022
 7299SOL    HW222797   1.225   3.021   0.162
 7300SOL     OW22798   1.013   5.138   1.796
 7300SOL    HW122799   0.998   5.188   1.711
 7300SOL    HW222800   0.936   5.156   1.858
 7301SOL     OW22801   5.503   6.710   5.601
 7301SOL    HW122802   5.405   6.709   5.618
 7301SOL    HW222803   5.551   6.749   5.679
 7302SOL     OW22804   4.989   2.417   6.053
 7302SOL    HW122805   4.967   2.465   6.138
 7302SOL    HW222806   5.082   2.381   6.058
 7303SOL     OW22807   2.394   1.060   0.925
 7303SOL    HW122808   2.486   1.051   0.962
 7303SOL    HW222809   2.395   1.123   0.848
 7304SOL     OW22810   2.607   5.433   2.001
 7304SOL    HW122811   2.651   5.421   2.090
 7304SOL    HW222812   2.608   5.347   1.950
 7305SOL     OW22813   5.989   2.225   0.638
 7305SOL    HW122814   5.985   2.258   0.544
 7305SOL    HW222815   5.967   2.300   0.701
 7306SOL     OW22816   2.126   1.759   1.211
 7306SOL    HW122817   2.059   1.739   1.282
 7306SOL    HW222818   2.194   1.823   1.246
 7307SOL     OW22819   1.661   6.591   1.504
 7307SOL    HW122820   1.700   6.546   1.424
 7307SOL    HW222821   1.570   6.627   1.482
 7308SOL     OW22822   4.871   1.028   2.598
 7308SOL    HW122823   4.787   1.018   2.651
 7308SOL    HW222824   4.949   1.024   2.660
 7309SOL     OW22825   1.813   5.345   3.322
 7309SOL    HW122826   1.833   5.255   3.282
 7309SOL    HW222827   1.874   5.413   3.282
 7310SOL     OW22828   1.971   3.168   0.316
 7310SOL    HW122829   1.890   3.114   0.293
 7310SOL    HW222830   2.052   3.109   0.317
 7311SOL     OW22831   6.771   6.675   6.364
 7311SOL    HW122832   6.753   6.602   6.298
 7311SOL    HW222833   6.841   6.737   6.326
 7312SOL     OW22834   0.243   2.544   5.036
 7312SOL    HW122835   0.203   2.632   5.011
 7312SOL    HW222836   0.340   2.543   5.013
 7313SOL     OW22837   2.809   1.009   2.325
 7313SOL    HW122838   2.896   1.020   2.375
 7313SOL    HW222839   2.789   1.092   2.274
 7314SOL     OW22840   0.224   4.481   0.302
 7314SOL    HW122841   0.324   4.474   0.298
 7314SOL    HW222842   0.190   4.421   0.374
 7315SOL     OW22843   1.245   4.930   2.506
 7315SOL    HW122844   1.229   4.881   2.421
 7315SOL    HW222845   1.211   4.876   2.583
 7316SOL     OW22846   3.776   2.281   0.545
 7316SOL    HW122847   3.843   2.355   0.536
 7316SOL    HW222848   3.814   2.207   0.600
 7317SOL     OW22849   3.574   1.755   1.871
 7317SOL    HW122850   3.618   1.797   1.950
 7317SOL    HW222851   3.612   1.664   1.856
 7318SOL     OW22852   3.867   6.742   0.726
 7318SOL    HW122853   3.897   6.832   0.760
 7318SOL    HW222854   3.893   6.672   0.792
 7319SOL     OW22855   6.771   4.817   0.366
 7319SOL    HW122856   6.721   4.854   0.445
 7319SOL    HW222857   6.863   4.792   0.395
 7320SOL     OW22858   6.840   3.048   1.057
 7320SOL    HW122859   6.934   3.018   1.076
 7320SOL    HW222860   6.799   2.987   0.990
 7321SOL     OW22861   1.691   6.701   0.191
 7321SOL    HW122862   1.651   6.790   0.214
 7321SOL    HW222863   1.765   6.713   0.125
 7322SOL     OW22864   0.295   2.830   2.352
 7322SOL    HW122865   0.306   2.929   2.348
 7322SOL    HW222866   0.335   2.788   2.271
 7323SOL     OW22867   1.046   1.624   1.568
 7323SOL    HW122868   0.994   1.626   1.654
 7323SOL    HW222869   1.054   1.716   1.531
 7324SOL     OW22870   5.856   4.719   3.100
 7324SOL    HW122871   5.883   4.669   3.182
 7324SOL    HW222872   5.810   4.657   3.037
 7325SOL     OW22873   4.283   1.053   6.517
 7325SOL    HW122874   4.301   0.977   6.455
 7325SOL    HW222875   4.338   1.132   6.491
 7326SOL     OW22876   2.526   0.726   0.390
 7326SOL    HW122877   2.533   0.817   0.431
 7326SOL    HW222878   2.429   0.702   0.379
 7327SOL     OW22879   6.552   3.733   2.754
 7327SOL    HW122880   6.589   3.647   2.789
 7327SOL    HW222881   6.532   3.722   2.656
 7328SOL     OW22882   4.234   4.790   5.044
 7328SOL    HW122883   4.299   4.722   5.007
 7328SOL    HW222884   4.197   4.757   5.130
 7329SOL     OW22885   2.867   3.264   0.634
 7329SOL    HW122886   2.798   3.236   0.701
 7329SOL    HW222887   2.895   3.185   0.580
 7330SOL     OW22888   3.687   2.861   1.169
 7330SOL    HW122889   3.662   2.829   1.077
 7330SOL    HW222890   3.772   2.817   1.197
 7331SOL     OW22891   4.739   0.836   2.427
 7331SOL    HW122892   4.639   0.847   2.421
 7331SOL    HW222893   4.781   0.924   2.451
 7332SOL     OW22894   2.888   4.011   6.847
 7332SOL    HW122895   2.839   3.999   6.760
 7332SOL    HW222896   2.892   3.924   6.895
 7333SOL     OW22897   6.785   2.283   1.335
 7333SOL    HW122898   6.794   2.253   1.431
 7333SOL    HW222899   6.688   2.293   1.312
 7334SOL     OW22900   3.056   0.395   5.500
 7334SOL    HW122901   2.980   0.347   5.457
 7334SOL    HW222902   3.126   0.416   5.431
 7335SOL     OW22903   6.961   2.788   2.309
 7335SOL    HW122904   0.001   2.825   2.237
 7335SOL    HW222905   6.891   2.855   2.332
 7336SOL     OW22906   1.327   6.137   0.902
 7336SOL    HW122907   1.404   6.132   0.839
 7336SOL    HW222908   1.248   6.090   0.863
 7337SOL     OW22909   2.114   2.047   2.761
 7337SOL    HW122910   2.081   1.962   2.802
 7337SOL    HW222911   2.070   2.125   2.805
 7338SOL     OW22912   5.801   3.038   2.118
 7338SOL    HW122913   5.723   3.091   2.151
 7338SOL    HW222914   5.886   3.074   2.157
 7339SOL     OW22915   6.480   5.240   4.759
 7339SOL    HW122916   6.470   5.169   4.688
 7339SOL    HW222917   6.403   5.235   4.822
 7340SOL     OW22918   3.066   0.168   0.371
 7340SOL    HW122919   3.160   0.139   0.352
 7340SOL    HW222920   3.068   0.256   0.420
 7341SOL     OW22921   6.409   4.829   3.936
 7341SOL    HW122922   6.341   4.775   3.986
 7341SOL    HW222923   6.372   4.919   3.917
 7342SOL     OW22924   6.771   0.067   0.356
 7342SOL    HW122925   6.800   6.992   0.333
 7342SOL    HW222926   6.765   0.076   0.455
 7343SOL     OW22927   6.417   4.371   2.289
 7343SOL    HW122928   6.451   4.465   2.286
 7343SOL    HW222929   6.368   4.356   2.375
 7344SOL     OW22930   1.829   6.247   6.995
 7344SOL    HW122931   1.874   6.271   0.063
 7344SOL    HW222932   1.897   6.223   6.927
 7345SOL     OW22933   4.258   5.211   6.265
 7345SOL    HW122934   4.194   5.146   6.224
 7345SOL    HW222935   4.330   5.234   6.199
 7346SOL     OW22936   3.792   4.815   1.583
 7346SOL    HW122937   3.886   4.846   1.597
 7346SOL    HW222938   3.790   4.747   1.510
 7347SOL     OW22939   6.064   1.508   2.003
 7347SOL    HW122940   6.005   1.584   2.030
 7347SOL    HW222941   6.158   1.539   1.996
 7348SOL     OW22942   1.416   1.854   3.795
 7348SOL    HW122943   1.456   1.773   3.752
 7348SOL    HW222944   1.482   1.892   3.860
 7349SOL     OW22945   3.889   1.546   0.457
 7349SOL    HW122946   3.851   1.486   0.527
 7349SOL    HW222947   3.916   1.491   0.378
 7350SOL     OW22948   1.179   2.290   3.063
 7350SOL    HW122949   1.204   2.353   2.990
 7350SOL    HW222950   1.102   2.234   3.034
 7351SOL     OW22951   4.357   4.847   0.063
 7351SOL    HW122952   4.411   4.837   6.998
 7351SOL    HW222953   4.263   4.871   0.039
 7352SOL     OW22954   0.788   1.965   2.399
 7352SOL    HW122955   0.831   1.938   2.312
 7352SOL    HW222956   0.715   1.900   2.420
 7353SOL     OW22957   5.552   1.780   4.478
 7353SOL    HW122958   5.602   1.708   4.430
 7353SOL    HW222959   5.606   1.812   4.555
 7354SOL     OW22960   6.082   5.916   5.811
 7354SOL    HW122961   6.102   5.825   5.849
 7354SOL    HW222962   6.052   5.906   5.716
 7355SOL     OW22963   1.122   5.517   2.096
 7355SOL    HW122964   1.069   5.440   2.061
 7355SOL    HW222965   1.156   5.495   2.187
 7356SOL     OW22966   6.378   1.876   6.384
 7356SOL    HW122967   6.404   1.875   6.481
 7356SOL    HW222968   6.432   1.945   6.336
 7357SOL     OW22969   5.852   2.243   6.873
 7357SOL    HW122970   5.844   2.341   6.895
 7357SOL    HW222971   5.943   2.225   6.835
 7358SOL     OW22972   3.275   1.609   4.207
 7358SOL    HW122973   3.218   1.536   4.169
 7358SOL    HW222974   3.320   1.575   4.290
 7359SOL     OW22975   4.064   3.222   3.312
 7359SOL    HW122976   4.144   3.265   3.270
 7359SOL    HW222977   4.010   3.291   3.360
 7360SOL     OW22978   1.264   2.579   5.325
 7360SOL    HW122979   1.355   2.609   5.294
 7360SOL    HW222980   1.267   2.482   5.349
 7361SOL     OW22981   5.133   5.873   2.110
 7361SOL    HW122982   5.094   5.946   2.166
 7361SOL    HW222983   5.181   5.913   2.031
 7362SOL     OW22984   2.133   5.683   5.355
 7362SOL    HW122985   2.140   5.677   5.255
 7362SOL    HW222986   2.133   5.591   5.394
 7363SOL     OW22987   5.035   3.064   0.020
 7363SOL    HW122988   5.115   3.053   6.981
 7363SOL    HW222989   4.964   2.999   7.012
 7364SOL     OW22990   4.067   6.092   1.382
 7364SOL    HW122991   4.119   6.145   1.450
 7364SOL    HW222992   4.004   6.153   1.335
 7365SOL     OW22993   2.535   0.218   2.440
 7365SOL    HW122994   2.520   0.280   2.362
 7365SOL    HW222995   2.528   0.123   2.409
 7366SOL     OW22996   0.115   5.072   6.937
 7366SOL    HW122997   0.130   5.018   0.002
 7366SOL    HW222998   0.148   5.165   6.951
 7367SOL     OW22999   4.926   3.687   1.924
 7367SOL    HW123000   4.998   3.746   1.963
 7367SOL    HW223001   4.932   3.596   1.964
 7368SOL     OW23002   2.907   3.714   4.899
 7368SOL    HW123003   2.807   3.723   4.895
 7368SOL    HW223004   2.949   3.804   4.910
 7369SOL     OW23005   5.055   3.928   1.002
 7369SOL    HW123006   5.092   3.857   0.942
 7369SOL    HW223007   4.958   3.941   0.983
 7370SOL     OW23008   2.439   7.008   1.075
 7370SOL    HW123009   2.411   0.034   1.160
 7370SOL    HW223010   2.450   6.910   1.092
 7371SOL     OW23011   2.754   4.880   4.152
 7371SOL    HW123012   2.852   4.859   4.155
 7371SOL    HW223013   2.706   4.804   4.108
 7372SOL     OW23014   3.311   0.177   5.697
 7372SOL    HW123015   3.299   0.164   5.598
 7372SOL    HW223016   3.269   0.264   5.724
 7373SOL     OW23017   3.531   0.503   2.586
 7373SOL    HW123018   3.491   0.565   2.518
 7373SOL    HW223019   3.630   0.498   2.572
 7374SOL     OW23020   1.368   3.248   6.441
 7374SOL    HW123021   1.303   3.261   6.516
 7374SOL    HW223022   1.456   3.288   6.466
 7375SOL     OW23023   1.246   0.896   4.221
 7375SOL    HW123024   1.247   0.957   4.300
 7375SOL    HW223025   1.335   0.850   4.214
 7376SOL     OW23026   2.698   2.766   0.046
 7376SOL    HW123027   2.644   2.844   0.014
 7376SOL    HW223028   2.721   2.707   6.988
 7377SOL     OW23029   4.865   4.476   2.099
 7377SOL    HW123030   4.912   4.521   2.023
 7377SOL    HW223031   4.792   4.418   2.064
 7378SOL     OW23032   0.512   1.368   4.898
 7378SOL    HW123033   0.604   1.387   4.865
 7378SOL    HW223034   0.445   1.412   4.837
 7379SOL     OW23035   3.856   1.399   2.218
 7379SOL    HW123036   3.784   1.460   2.249
 7379SOL    HW223037   3.942   1.449   2.211
 7380SOL     OW23038   0.190   3.142   6.128
 7380SOL    HW123039   0.283   3.121   6.099
 7380SOL    HW223040   0.147   3.203   6.061
 7381SOL     OW23041   4.634   1.947   2.239
 7381SOL    HW123042   4.699   1.879   2.205
 7381SOL    HW223043   4.635   1.947   2.339
 7382SOL     OW23044   0.298   4.837   4.313
 7382SOL    HW123045   0.223   4.798   4.259
 7382SOL    HW223046   0.351   4.764   4.356
 7383SOL     OW23047   0.051   6.420   3.381
 7383SOL    HW123048   7.002   6.406   3.453
 7383SOL    HW223049   0.140   6.384   3.412
 7384SOL     OW23050   5.192   6.749   2.254
 7384SOL    HW123051   5.194   6.650   2.242
 7384SOL    HW223052   5.216   6.794   2.168
 7385SOL     OW23053   4.613   5.848   1.725
 7385SOL    HW123054   4.645   5.943   1.721
 7385SOL    HW223055   4.643   5.799   1.644
 7386SOL     OW23056   0.881   2.470   5.493
 7386SOL    HW123057   0.843   2.558   5.522
 7386SOL    HW223058   0.903   2.416   5.574
 7387SOL     OW23059   4.627   4.886   3.914
 7387SOL    HW123060   4.604   4.883   4.011
 7387SOL    HW223061   4.544   4.906   3.861
 7388SOL     OW23062   6.508   4.445   4.372
 7388SOL    HW123063   6.474   4.378   4.306
 7388SOL    HW223064   6.550   4.521   4.322
 7389SOL     OW23065   1.719   4.316   0.031
 7389SOL    HW123066   1.765   4.374   0.099
 7389SOL    HW223067   1.746   4.345   6.958
 7390SOL     OW23068   0.578   1.316   5.903
 7390SOL    HW123069   0.597   1.227   5.864
 7390SOL    HW223070   0.602   1.388   5.837
 7391SOL     OW23071   6.101   3.590   6.056
 7391SOL    HW123072   6.162   3.668   6.042
 7391SOL    HW223073   6.094   3.538   5.971
 7392SOL     OW23074   1.514   5.031   4.400
 7392SOL    HW123075   1.569   5.113   4.385
 7392SOL    HW223076   1.417   5.055   4.397
 7393SOL     OW23077   6.672   5.374   2.311
 7393SOL    HW123078   6.689   5.471   2.330
 7393SOL    HW223079   6.601   5.366   2.241
 7394SOL     OW23080   4.021   3.566   6.513
 7394SOL    HW123081   4.002   3.469   6.494
 7394SOL    HW223082   3.937   3.618   6.502
 7395SOL     OW23083   0.663   0.167   6.774
 7395SOL    HW123084   0.759   0.187   6.792
 7395SOL    HW223085   0.616   0.251   6.748
 7396SOL     OW23086   0.980   0.532   6.350
 7396SOL    HW123087   1.004   0.628   6.333
 7396SOL    HW223088   1.054   0.488   6.400
 7397SOL     OW23089   6.886   4.419   4.857
 7397SOL    HW123090   6.834   4.476   4.794
 7397SOL    HW223091   6.913   4.474   4.936
 7398SOL     OW23092   4.765   4.661   4.257
 7398SOL    HW123093   4.850   4.678   4.306
 7398SOL    HW223094   4.714   4.588   4.304
 7399SOL     OW23095   5.595   3.945   5.866
 7399SOL    HW123096   5.680   3.893   5.878
 7399SOL    HW223097   5.572   3.948   5.769
 7400SOL     OW23098   2.926   4.916   6.762
 7400SOL    HW123099   2.861   4.867   6.820
 7400SOL    HW223100   2.877   4.986   6.710
 7401SOL     OW23101   0.167   1.986   3.870
 7401SOL    HW123102   0.131   1.928   3.942
 7401SOL    HW223103   0.261   1.961   3.850
 7402SOL     OW23104   2.324   6.988   3.539
 7402SOL    HW123105   2.400   6.942   3.494
 7402SOL    HW223106   2.315   6.953   3.632
 7403SOL     OW23107   2.053   3.181   2.997
 7403SOL    HW123108   2.103   3.133   2.924
 7403SOL    HW223109   2.029   3.115   3.069
 7404SOL     OW23110   1.058   0.434   1.135
 7404SOL    HW123111   0.980   0.392   1.089
 7404SOL    HW223112   1.131   0.452   1.069
 7405SOL     OW23113   2.722   5.250   5.258
 7405SOL    HW123114   2.660   5.184   5.300
 7405SOL    HW223115   2.776   5.204   5.187
 7406SOL     OW23116   1.555   3.908   2.086
 7406SOL    HW123117   1.596   3.872   2.170
 7406SOL    HW223118   1.532   3.832   2.025
 7407SOL     OW23119   1.013   6.334   5.446
 7407SOL    HW123120   0.993   6.272   5.369
 7407SOL    HW223121   0.961   6.418   5.434
 7408SOL     OW23122   1.624   4.481   5.657
 7408SOL    HW123123   1.548   4.541   5.681
 7408SOL    HW223124   1.597   4.386   5.672
 7409SOL     OW23125   1.414   0.660   5.053
 7409SOL    HW123126   1.331   0.606   5.062
 7409SOL    HW223127   1.491   0.601   5.028
 7410SOL     OW23128   0.072   5.426   1.013
 7410SOL    HW123129   0.059   5.386   0.923
 7410SOL    HW223130   0.043   5.521   1.012
 7411SOL     OW23131   2.983   6.368   4.774
 7411SOL    HW123132   2.964   6.367   4.872
 7411SOL    HW223133   2.996   6.274   4.741
 7412SOL     OW23134   1.988   0.926   1.043
 7412SOL    HW123135   1.926   0.870   0.989
 7412SOL    HW223136   2.082   0.914   1.010
 7413SOL     OW23137   5.917   3.875   4.519
 7413SOL    HW123138   5.960   3.796   4.563
 7413SOL    HW223139   5.966   3.898   4.435
 7414SOL     OW23140   6.616   6.606   2.000
 7414SOL    HW123141   6.593   6.511   1.977
 7414SOL    HW223142   6.554   6.668   1.952
 7415SOL     OW23143   2.124   3.049   2.770
 7415SOL    HW123144   2.053   3.047   2.701
 7415SOL    HW223145   2.154   2.956   2.791
 7416SOL     OW23146   3.760   1.206   4.318
 7416SOL    HW123147   3.841   1.173   4.366
 7416SOL    HW223148   3.726   1.135   4.257
 7417SOL     OW23149   1.249   0.000   6.722
 7417SOL    HW123150   1.179   6.959   6.760
 7417SOL    HW223151   1.258   0.082   6.779
 7418SOL     OW23152   2.795   3.926   1.356
 7418SOL    HW123153   2.802   3.996   1.427
 7418SOL    HW223154   2.863   3.855   1.374
 7419SOL     OW23155   5.522   1.771   4.904
 7419SOL    HW123156   5.622   1.774   4.899
 7419SOL    HW223157   5.488   1.857   4.944
 7420SOL     OW23158   6.238   6.256   1.879
 7420SOL    HW123159   6.215   6.247   1.782
 7420SOL    HW223160   6.254   6.165   1.918
 7421SOL     OW23161   3.902   3.998   1.568
 7421SOL    HW123162   3.860   4.034   1.652
 7421SOL    HW223163   3.837   4.006   1.493
 7422SOL     OW23164   0.456   3.439   0.528
 7422SOL    HW123165   0.502   3.448   0.616
 7422SOL    HW223166   0.401   3.356   0.527
 7423SOL     OW23167   2.177   4.851   5.982
 7423SOL    HW123168   2.153   4.935   6.030
 7423SOL    HW223169   2.244   4.800   6.035
 7424SOL     OW23170   5.572   1.034   4.446
 7424SOL    HW123171   5.668   1.061   4.448
 7424SOL    HW223172   5.516   1.113   4.420
 7425SOL     OW23173   3.689   4.410   6.260
 7425SOL    HW123174   3.708   4.369   6.171
 7425SOL    HW223175   3.638   4.345   6.317
 7426SOL     OW23176   0.756   1.796   5.667
 7426SOL    HW123177   0.692   1.833   5.599
 7426SOL    HW223178   0.790   1.708   5.636
 7427SOL     OW23179   3.002   5.942   4.920
 7427SOL    HW123180   3.073   5.871   4.918
 7427SOL    HW223181   2.974   5.958   5.014
 7428SOL     OW23182   3.678   2.564   5.998
 7428SOL    HW123183   3.678   2.598   5.904
 7428SOL    HW223184   3.750   2.496   6.009
 7429SOL     OW23185   0.350   0.508   2.494
 7429SOL    HW123186   0.266   0.454   2.507
 7429SOL    HW223187   0.410   0.495   2.572
 7430SOL     OW23188   6.508   3.738   5.255
 7430SOL    HW123189   6.498   3.769   5.160
 7430SOL    HW223190   6.418   3.731   5.297
 7431SOL     OW23191   0.704   3.454   2.106
 7431SOL    HW123192   0.749   3.538   2.136
 7431SOL    HW223193   0.690   3.394   2.185
 7432SOL     OW23194   0.244   6.605   4.041
 7432SOL    HW123195   0.283   6.551   3.966
 7432SOL    HW223196   0.147   6.582   4.051
 7433SOL     OW23197   5.780   5.287   0.732
 7433SOL    HW123198   5.706   5.298   0.798
 7433SOL    HW223199   5.810   5.377   0.700
 7434SOL     OW23200   2.596   1.933   6.776
 7434SOL    HW123201   2.562   2.025   6.794
 7434SOL    HW223202   2.668   1.911   6.841
 7435SOL     OW23203   3.064   6.296   6.304
 7435SOL    HW123204   3.147   6.331   6.349
 7435SOL    HW223205   3.088   6.216   6.248
 7436SOL     OW23206   5.422   3.381   6.867
 7436SOL    HW123207   5.462   3.290   6.866
 7436SOL    HW223208   5.474   3.440   6.929
 7437SOL     OW23209   0.438   5.309   6.113
 7437SOL    HW123210   0.471   5.309   6.207
 7437SOL    HW223211   0.475   5.231   6.064
 7438SOL     OW23212   0.674   4.479   1.983
 7438SOL    HW123213   0.627   4.399   2.021
 7438SOL    HW223214   0.737   4.516   2.051
 7439SOL     OW23215   2.116   6.897   3.851
 7439SOL    HW123216   2.196   6.882   3.792
 7439SOL    HW223217   2.082   6.808   3.883
 7440SOL     OW23218   1.225   2.847   4.446
 7440SOL    HW123219   1.182   2.763   4.479
 7440SOL    HW223220   1.182   2.926   4.490
 7441SOL     OW23221   5.595   0.879   3.984
 7441SOL    HW123222   5.507   0.847   3.949
 7441SOL    HW223223   5.611   0.974   3.955
 7442SOL     OW23224   1.000   1.671   6.470
 7442SOL    HW123225   1.094   1.696   6.450
 7442SOL    HW223226   0.996   1.578   6.506
 7443SOL     OW23227   0.941   1.343   6.218
 7443SOL    HW123228   0.857   1.316   6.171
 7443SOL    HW223229   0.936   1.315   6.314
 7444SOL     OW23230   0.060   3.316   5.963
 7444SOL    HW123231   0.077   3.413   5.978
 7444SOL    HW223232   0.024   3.303   5.870
 7445SOL     OW23233   5.361   1.346   1.127
 7445SOL    HW123234   5.390   1.273   1.189
 7445SOL    HW223235   5.402   1.433   1.156
 7446SOL     OW23236   6.313   3.827   1.097
 7446SOL    HW123237   6.254   3.886   1.152
 7446SOL    HW223238   6.402   3.871   1.085
 7447SOL     OW23239   1.554   4.284   0.495
 7447SOL    HW123240   1.476   4.282   0.433
 7447SOL    HW223241   1.615   4.358   0.469
 7448SOL     OW23242   5.467   0.328   5.297
 7448SOL    HW123243   5.518   0.281   5.369
 7448SOL    HW223244   5.372   0.298   5.298
 7449SOL     OW23245   5.033   1.935   2.289
 7449SOL    HW123246   5.048   1.869   2.363
 7449SOL    HW223247   4.946   1.915   2.244
 7450SOL     OW23248   4.304   2.260   2.957
 7450SOL    HW123249   4.357   2.333   2.915
 7450SOL    HW223250   4.246   2.216   2.888
 7451SOL     OW23251   1.570   1.155   5.078
 7451SOL    HW123252   1.542   1.200   4.993
 7451SOL    HW223253   1.532   1.063   5.081
 7452SOL     OW23254   2.491   0.224   4.768
 7452SOL    HW123255   2.483   0.209   4.867
 7452SOL    HW223256   2.578   0.269   4.748
 7453SOL     OW23257   5.835   6.784   5.091
 7453SOL    HW123258   5.825   6.691   5.057
 7453SOL    HW223259   5.754   6.837   5.067
 7454SOL     OW23260   1.002   3.673   1.932
 7454SOL    HW123261   0.916   3.720   1.911
 7454SOL    HW223262   1.075   3.712   1.877
 7455SOL     OW23263   5.112   2.646   0.835
 7455SOL    HW123264   5.032   2.704   0.845
 7455SOL    HW223265   5.195   2.699   0.855
 7456SOL     OW23266   1.419   3.344   4.866
 7456SOL    HW123267   1.388   3.438   4.874
 7456SOL    HW223268   1.488   3.337   4.794
 7457SOL     OW23269   5.734   1.272   5.093
 7457SOL    HW123270   5.780   1.341   5.149
 7457SOL    HW223271   5.643   1.255   5.131
 7458SOL     OW23272   2.883   0.252   0.193
 7458SOL    HW123273   2.962   0.214   0.241
 7458SOL    HW223274   2.913   0.323   0.129
 7459SOL     OW23275   4.918   6.828   5.979
 7459SOL    HW123276   4.891   6.896   6.047
 7459SOL    HW223277   4.882   6.853   5.890
 7460SOL     OW23278   1.260   4.537   0.668
 7460SOL    HW123279   1.258   4.601   0.591
 7460SOL    HW223280   1.166   4.518   0.698
 7461SOL     OW23281   5.604   0.869   5.499
 7461SOL    HW123282   5.614   0.935   5.573
 7461SOL    HW223283   5.599   0.918   5.412
 7462SOL     OW23284   2.234   2.023   2.140
 7462SOL    HW123285   2.269   1.931   2.127
 7462SOL    HW223286   2.138   2.018   2.168
 7463SOL     OW23287   4.330   3.306   1.466
 7463SOL    HW123288   4.258   3.237   1.469
 7463SOL    HW223289   4.300   3.388   1.513
 7464SOL     OW23290   4.334   6.027   1.051
 7464SOL    HW123291   4.255   5.997   1.103
 7464SOL    HW223292   4.417   5.986   1.090
 7465SOL     OW23293   2.463   0.012   1.851
 7465SOL    HW123294   2.524   6.989   1.919
 7465SOL    HW223295   2.374   0.030   1.893
 7466SOL     OW23296   0.210   0.385   6.673
 7466SOL    HW123297   0.212   0.460   6.606
 7466SOL    HW223298   0.252   0.304   6.633
 7467SOL     OW23299   0.228   1.960   0.933
 7467SOL    HW123300   0.247   1.934   1.028
 7467SOL    HW223301   0.278   1.899   0.872
 7468SOL     OW23302   5.629   1.839   2.975
 7468SOL    HW123303   5.706   1.809   3.030
 7468SOL    HW223304   5.591   1.923   3.014
 7469SOL     OW23305   0.995   0.442   6.926
 7469SOL    HW123306   0.960   0.455   0.000
 7469SOL    HW223307   0.986   0.346   6.899
 7470SOL     OW23308   0.302   2.112   2.260
 7470SOL    HW123309   0.394   2.086   2.230
 7470SOL    HW223310   0.299   2.114   2.360
 7471SOL     OW23311   6.492   6.506   5.308
 7471SOL    HW123312   6.481   6.435   5.238
 7471SOL    HW223313   6.416   6.570   5.302
 7472SOL     OW23314   3.933   0.016   4.573
 7472SOL    HW123315   3.995   6.961   4.546
 7472SOL    HW223316   3.840   6.998   4.584
 7473SOL     OW23317   6.746   3.454   4.227
 7473SOL    HW123318   6.815   3.413   4.286
 7473SOL    HW223319   6.657   3.413   4.247
 7474SOL     OW23320   3.602   1.076   4.095
 7474SOL    HW123321   3.668   1.093   4.022
 7474SOL    HW223322   3.555   0.989   4.078
 7475SOL     OW23323   3.922   0.278   1.678
 7475SOL    HW123324   3.963   0.367   1.701
 7475SOL    HW223325   3.950   0.211   1.747
 7476SOL     OW23326   4.409   5.597   4.423
 7476SOL    HW123327   4.429   5.610   4.326
 7476SOL    HW223328   4.329   5.652   4.448
 7477SOL     OW23329   4.187   0.930   3.862
 7477SOL    HW123330   4.226   0.838   3.853
 7477SOL    HW223331   4.185   0.973   3.772
 7478SOL     OW23332   2.798   3.683   6.725
 7478SOL    HW123333   2.755   3.766   6.690
 7478SOL    HW223334   2.896   3.684   6.702
 7479SOL     OW23335   4.454   0.363   0.535
 7479SOL    HW123336   4.486   0.274   0.568
 7479SOL    HW223337   4.461   0.430   0.608
 7480SOL     OW23338   5.619   5.755   1.249
 7480SOL    HW123339   5.658   5.664   1.261
 7480SOL    HW223340   5.553   5.754   1.174
 7481SOL     OW23341   5.717   4.864   0.509
 7481SOL    HW123342   5.720   4.912   0.597
 7481SOL    HW223343   5.623   4.860   0.476
 7482SOL     OW23344   4.598   1.063   2.672
 7482SOL    HW123345   4.541   0.981   2.674
 7482SOL    HW223346   4.540   1.144   2.680
 7483SOL     OW23347   3.627   2.018   4.605
 7483SOL    HW123348   3.641   2.068   4.519
 7483SOL    HW223349   3.637   1.920   4.588
 7484SOL     OW23350   1.883   6.734   1.523
 7484SOL    HW123351   1.969   6.683   1.529
 7484SOL    HW223352   1.806   6.672   1.541
 7485SOL     OW23353   3.095   5.783   5.322
 7485SOL    HW123354   3.012   5.790   5.376
 7485SOL    HW223355   3.087   5.838   5.239
 7486SOL     OW23356   3.244   6.263   5.157
 7486SOL    HW123357   3.154   6.305   5.157
 7486SOL    HW223358   3.308   6.321   5.207
 7487SOL     OW23359   3.051   6.413   3.415
 7487SOL    HW123360   3.100   6.415   3.503
 7487SOL    HW223361   3.064   6.323   3.373
 7488SOL     OW23362   2.964   6.820   5.632
 7488SOL    HW123363   2.962   6.897   5.694
 7488SOL    HW223364   3.050   6.821   5.580
 7489SOL     OW23365   4.524   1.923   3.769
 7489SOL    HW123366   4.560   1.831   3.782
 7489SOL    HW223367   4.589   1.991   3.803
 7490SOL     OW23368   0.135   1.005   0.752
 7490SOL    HW123369   0.158   0.920   0.798
 7490SOL    HW223370   0.055   0.990   0.693
 7491SOL     OW23371   6.997   5.489   6.642
 7491SOL    HW123372   0.069   5.456   6.613
 7491SOL    HW223373   6.933   5.482   6.566
 7492SOL     OW23374   2.022   2.734   5.312
 7492SOL    HW123375   2.059   2.712   5.222
 7492SOL    HW223376   2.008   2.833   5.319
 7493SOL     OW23377   5.977   4.117   6.154
 7493SOL    HW123378   5.905   4.182   6.132
 7493SOL    HW223379   5.941   4.045   6.213
 7494SOL     OW23380   5.724   0.611   1.826
 7494SOL    HW123381   5.761   0.536   1.881
 7494SOL    HW223382   5.641   0.646   1.871
 7495SOL     OW23383   2.421   1.745   0.272
 7495SOL    HW123384   2.327   1.734   0.238
 7495SOL    HW223385   2.418   1.787   0.363
 7496SOL     OW23386   0.879   5.088   6.253
 7496SOL    HW123387   0.872   5.059   6.158
 7496SOL    HW223388   0.845   5.016   6.313
 7497SOL     OW23389   2.679   5.055   2.502
 7497SOL    HW123390   2.764   5.003   2.503
 7497SOL    HW223391   2.640   5.053   2.410
 7498SOL     OW23392   2.543   1.282   4.584
 7498SOL    HW123393   2.447   1.256   4.600
 7498SOL    HW223394   2.602   1.203   4.598
 7499SOL     OW23395   5.069   6.789   4.707
 7499SOL    HW123396   5.136   6.830   4.769
 7499SOL    HW223397   5.091   6.693   4.692
 7500SOL     OW23398   4.642   5.819   2.274
 7500SOL    HW123399   4.546   5.846   2.268
 7500SOL    HW223400   4.699   5.892   2.237
 7501SOL     OW23401   1.183   3.383   3.879
 7501SOL    HW123402   1.134   3.299   3.856
 7501SOL    HW223403   1.179   3.398   3.977
 7502SOL     OW23404   2.011   0.982   5.068
 7502SOL    HW123405   2.044   0.890   5.089
 7502SOL    HW223406   1.997   1.033   5.153
 7503SOL     OW23407   2.797   0.448   6.807
 7503SOL    HW123408   2.854   0.434   6.888
 7503SOL    HW223409   2.710   0.401   6.819
 7504SOL     OW23410   4.022   6.607   3.400
 7504SOL    HW123411   3.966   6.530   3.370
 7504SOL    HW223412   4.019   6.613   3.500
 7505SOL     OW23413   1.982   1.101   5.312
 7505SOL    HW123414   2.041   1.161   5.366
 7505SOL    HW223415   1.900   1.151   5.284
 7506SOL     OW23416   3.540   0.935   2.352
 7506SOL    HW123417   3.495   0.935   2.442
 7506SOL    HW223418   3.594   1.018   2.342
 7507SOL     OW23419   0.130   6.122   5.941
 7507SOL    HW123420   0.183   6.100   5.859
 7507SOL    HW223421   0.060   6.190   5.920
 7508SOL     OW23422   5.688   6.382   3.523
 7508SOL    HW123423   5.615   6.400   3.589
 7508SOL    HW223424   5.649   6.365   3.433
 7509SOL     OW23425   5.205   4.016   6.768
 7509SOL    HW123426   5.206   4.056   6.676
 7509SOL    HW223427   5.295   4.026   6.810
 7510SOL     OW23428   3.234   4.009   4.951
 7510SOL    HW123429   3.247   4.048   4.860
 7510SOL    HW223430   3.295   3.931   4.964
 7511SOL     OW23431   1.510   0.295   2.570
 7511SOL    HW123432   1.581   0.285   2.500
 7511SOL    HW223433   1.451   0.372   2.545
 7512SOL     OW23434   2.444   2.858   1.664
 7512SOL    HW123435   2.482   2.948   1.641
 7512SOL    HW223436   2.503   2.813   1.731
 7513SOL     OW23437   1.034   2.779   5.887
 7513SOL    HW123438   1.047   2.718   5.809
 7513SOL    HW223439   1.124   2.803   5.925
 7514SOL     OW23440   2.863   5.935   1.792
 7514SOL    HW123441   2.831   5.842   1.806
 7514SOL    HW223442   2.952   5.948   1.837
 7515SOL     OW23443   0.691   6.953   2.925
 7515SOL    HW123444   0.778   6.990   2.892
 7515SOL    HW223445   0.616   7.007   2.887
 7516SOL     OW23446   7.014   0.138   4.085
 7516SOL    HW123447   6.939   0.179   4.137
 7516SOL    HW223448   6.981   0.055   4.039
 7517SOL     OW23449   0.328   3.754   1.125
 7517SOL    HW123450   0.253   3.711   1.073
 7517SOL    HW223451   0.297   3.840   1.163
 7518SOL     OW23452   4.202   5.556   3.387
 7518SOL    HW123453   4.283   5.590   3.340
 7518SOL    HW223454   4.229   5.518   3.475
 7519SOL     OW23455   1.322   6.912   4.952
 7519SOL    HW123456   1.321   6.841   5.023
 7519SOL    HW223457   1.413   6.953   4.947
 7520SOL     OW23458   1.888   6.713   3.022
 7520SOL    HW123459   1.794   6.748   3.022
 7520SOL    HW223460   1.949   6.781   3.063
 7521SOL     OW23461   4.412   4.487   5.364
 7521SOL    HW123462   4.356   4.533   5.434
 7521SOL    HW223463   4.355   4.467   5.284
 7522SOL     OW23464   2.252   1.130   6.979
 7522SOL    HW123465   2.250   1.171   6.888
 7522SOL    HW223466   2.327   1.064   6.984
 7523SOL     OW23467   5.547   0.378   5.720
 7523SOL    HW123468   5.532   0.463   5.671
 7523SOL    HW223469   5.626   0.387   5.780
 7524SOL     OW23470   0.321   1.676   5.763
 7524SOL    HW123471   0.280   1.585   5.755
 7524SOL    HW223472   0.280   1.723   5.842
 7525SOL     OW23473   1.924   0.410   0.388
 7525SOL    HW123474   1.848   0.369   0.337
 7525SOL    HW223475   2.006   0.355   0.373
 7526SOL     OW23476   3.474   3.163   4.674
 7526SOL    HW123477   3.483   3.178   4.576
 7526SOL    HW223478   3.436   3.072   4.691
 7527SOL     OW23479   5.334   4.295   2.783
 7527SOL    HW123480   5.250   4.348   2.774
 7527SOL    HW223481   5.407   4.340   2.732
 7528SOL     OW23482   4.386   3.069   0.809
 7528SOL    HW123483   4.316   3.139   0.792
 7528SOL    HW223484   4.343   2.979   0.806
 7529SOL     OW23485   4.328   1.195   3.758
 7529SOL    HW123486   4.285   1.253   3.827
 7529SOL    HW223487   4.366   1.252   3.685
 7530SOL     OW23488   6.730   3.817   2.378
 7530SOL    HW123489   6.670   3.886   2.419
 7530SOL    HW223490   6.822   3.855   2.367
 7531SOL     OW23491   4.125   1.857   3.723
 7531SOL    HW123492   4.167   1.930   3.669
 7531SOL    HW223493   4.193   1.820   3.786
 7532SOL     OW23494   5.701   6.138   2.352
 7532SOL    HW123495   5.634   6.203   2.316
 7532SOL    HW223496   5.753   6.180   2.426
 7533SOL     OW23497   3.279   1.291   3.905
 7533SOL    HW123498   3.319   1.343   3.830
 7533SOL    HW223499   3.347   1.277   3.977
 7534SOL     OW23500   4.196   6.274   5.839
 7534SOL    HW123501   4.109   6.273   5.790
 7534SOL    HW223502   4.179   6.264   5.937
 7535SOL     OW23503   2.540   2.112   5.577
 7535SOL    HW123504   2.639   2.112   5.590
 7535SOL    HW223505   2.518   2.153   5.489
 7536SOL     OW23506   4.614   5.222   4.697
 7536SOL    HW123507   4.656   5.139   4.735
 7536SOL    HW223508   4.617   5.218   4.598
 7537SOL     OW23509   1.823   4.324   4.644
 7537SOL    HW123510   1.759   4.326   4.567
 7537SOL    HW223511   1.876   4.240   4.640
 7538SOL     OW23512   3.456   3.216   2.969
 7538SOL    HW123513   3.370   3.240   2.924
 7538SOL    HW223514   3.453   3.120   2.999
 7539SOL     OW23515   1.812   3.149   5.283
 7539SOL    HW123516   1.749   3.103   5.346
 7539SOL    HW223517   1.899   3.099   5.281
 7540SOL     OW23518   2.421   0.881   0.027
 7540SOL    HW123519   2.349   0.837   6.992
 7540SOL    HW223520   2.510   0.848   7.017
 7541SOL     OW23521   6.158   2.503   5.515
 7541SOL    HW123522   6.146   2.562   5.595
 7541SOL    HW223523   6.226   2.433   5.535
 7542SOL     OW23524   1.307   6.977   5.948
 7542SOL    HW123525   1.266   0.039   5.990
 7542SOL    HW223526   1.261   6.894   5.980
 7543SOL     OW23527   4.096   3.009   0.606
 7543SOL    HW123528   4.000   3.036   0.592
 7543SOL    HW223529   4.099   2.919   0.649
 7544SOL     OW23530   1.250   2.009   2.842
 7544SOL    HW123531   1.223   1.946   2.769
 7544SOL    HW223532   1.199   2.094   2.833
 7545SOL     OW23533   4.684   6.908   2.651
 7545SOL    HW123534   4.675   6.868   2.743
 7545SOL    HW223535   4.617   6.980   2.639
 7546SOL     OW23536   5.237   0.833   0.306
 7546SOL    HW123537   5.137   0.831   0.305
 7546SOL    HW223538   5.269   0.892   0.381
 7547SOL     OW23539   3.974   0.566   0.432
 7547SOL    HW123540   3.938   0.477   0.462
 7547SOL    HW223541   4.072   0.558   0.414
 7548SOL     OW23542   2.309   1.926   1.315
 7548SOL    HW123543   2.396   1.929   1.364
 7548SOL    HW223544   2.284   2.019   1.286
 7549SOL     OW23545   5.403   1.458   2.455
 7549SOL    HW123546   5.480   1.489   2.397
 7549SOL    HW223547   5.405   1.509   2.541
 7550SOL     OW23548   1.849   5.505   2.481
 7550SOL    HW123549   1.830   5.437   2.551
 7550SOL    HW223550   1.764   5.549   2.453
 7551SOL     OW23551   4.737   3.659   0.002
 7551SOL    HW123552   4.784   3.652   6.933
 7551SOL    HW223553   4.690   3.573   0.022
 7552SOL     OW23554   2.314   5.935   4.237
 7552SOL    HW123555   2.370   5.881   4.301
 7552SOL    HW223556   2.369   5.960   4.157
 7553SOL     OW23557   4.000   4.656   5.707
 7553SOL    HW123558   4.080   4.670   5.766
 7553SOL    HW223559   3.922   4.628   5.763
 7554SOL     OW23560   5.043   1.410   0.783
 7554SOL    HW123561   4.979   1.422   0.706
 7554SOL    HW223562   5.129   1.456   0.762
 7555SOL     OW23563   0.541   5.429   5.448
 7555SOL    HW123564   0.449   5.402   5.474
 7555SOL    HW223565   0.537   5.505   5.382
 7556SOL     OW23566   0.977   3.422   4.847
 7556SOL    HW123567   0.987   3.515   4.881
 7556SOL    HW223568   1.062   3.393   4.804
 7557SOL     OW23569   5.142   4.182   6.193
 7557SOL    HW123570   5.095   4.270   6.199
 7557SOL    HW223571   5.225   4.192   6.138
 7558SOL     OW23572   2.092   2.529   4.225
 7558SOL    HW123573   2.111   2.512   4.322
 7558SOL    HW223574   2.099   2.627   4.207
 7559SOL     OW23575   6.182   5.225   0.896
 7559SOL    HW123576   6.148   5.135   0.867
 7559SOL    HW223577   6.279   5.217   0.921
 7560SOL     OW23578   4.870   6.849   1.070
 7560SOL    HW123579   4.842   6.945   1.075
 7560SOL    HW223580   4.819   6.796   1.138
 7561SOL     OW23581   0.544   3.387   0.778
 7561SOL    HW123582   0.602   3.398   0.859
 7561SOL    HW223583   0.450   3.409   0.802
 7562SOL     OW23584   5.717   6.540   5.215
 7562SOL    HW123585   5.688   6.606   5.285
 7562SOL    HW223586   5.645   6.472   5.203
 7563SOL     OW23587   2.745   0.579   2.044
 7563SOL    HW123588   2.810   0.650   2.069
 7563SOL    HW223589   2.680   0.615   1.976
 7564SOL     OW23590   5.156   6.524   2.884
 7564SOL    HW123591   5.091   6.600   2.887
 7564SOL    HW223592   5.249   6.560   2.879
 7565SOL     OW23593   4.969   5.185   6.572
 7565SOL    HW123594   5.065   5.162   6.557
 7565SOL    HW223595   4.941   5.255   6.507
 7566SOL     OW23596   6.792   5.463   4.086
 7566SOL    HW123597   6.816   5.375   4.127
 7566SOL    HW223598   6.747   5.447   3.998
 7567SOL     OW23599   2.347   4.248   5.728
 7567SOL    HW123600   2.353   4.346   5.747
 7567SOL    HW223601   2.342   4.198   5.814
 7568SOL     OW23602   5.587   5.797   3.453
 7568SOL    HW123603   5.549   5.708   3.427
 7568SOL    HW223604   5.527   5.870   3.419
 7569SOL     OW23605   4.216   5.865   6.521
 7569SOL    HW123606   4.169   5.778   6.537
 7569SOL    HW223607   4.179   5.935   6.582
 7570SOL     OW23608   5.771   4.456   4.471
 7570SOL    HW123609   5.705   4.381   4.469
 7570SOL    HW223610   5.751   4.519   4.397
 7571SOL     OW23611   5.581   3.894   2.171
 7571SOL    HW123612   5.509   3.953   2.208
 7571SOL    HW223613   5.593   3.815   2.231
 7572SOL     OW23614   4.900   0.829   4.201
 7572SOL    HW123615   4.939   0.889   4.272
 7572SOL    HW223616   4.888   0.737   4.239
 7573SOL     OW23617   6.952   5.675   4.667
 7573SOL    HW123618   0.029   5.650   4.684
 7573SOL    HW223619   6.948   5.741   4.592
 7574SOL     OW23620   6.321   1.104   3.537
 7574SOL    HW123621   6.255   1.030   3.523
 7574SOL    HW223622   6.406   1.082   3.489
 7575SOL     OW23623   4.267   1.503   5.983
 7575SOL    HW123624   4.224   1.535   5.899
 7575SOL    HW223625   4.339   1.567   6.009
 7576SOL     OW23626   5.893   4.702   0.390
 7576SOL    HW123627   5.912   4.727   0.295
 7576SOL    HW223628   5.817   4.758   0.424
 7577SOL     OW23629   6.192   0.864   4.468
 7577SOL    HW123630   6.221   0.815   4.550
 7577SOL    HW223631   6.250   0.945   4.456
 7578SOL     OW23632   2.160   6.370   4.563
 7578SOL    HW123633   2.236   6.403   4.507
 7578SOL    HW223634   2.087   6.438   4.563
 7579SOL     OW23635   3.919   2.200   2.519
 7579SOL    HW123636   3.875   2.227   2.605
 7579SOL    HW223637   3.849   2.176   2.452
 7580SOL     OW23638   1.621   3.612   2.901
 7580SOL    HW123639   1.565   3.561   2.967
 7580SOL    HW223640   1.645   3.701   2.940
 7581SOL     OW23641   5.320   1.321   0.398
 7581SOL    HW123642   5.341   1.288   0.306
 7581SOL    HW223643   5.242   1.384   0.393
 7582SOL     OW23644   3.684   1.666   0.703
 7582SOL    HW123645   3.778   1.631   0.696
 7582SOL    HW223646   3.635   1.647   0.619
 7583SOL     OW23647   5.902   4.060   1.875
 7583SOL    HW123648   5.815   4.037   1.917
 7583SOL    HW223649   5.958   3.978   1.866
 7584SOL     OW23650   2.860   6.557   1.213
 7584SOL    HW123651   2.852   6.646   1.258
 7584SOL    HW223652   2.869   6.486   1.283
 7585SOL     OW23653   1.806   4.316   6.756
 7585SOL    HW123654   1.827   4.225   6.719
 7585SOL    HW223655   1.735   4.359   6.701
 7586SOL     OW23656   2.857   0.093   2.562
 7586SOL    HW123657   2.901   0.008   2.593
 7586SOL    HW223658   2.800   0.130   2.635
 7587SOL     OW23659   1.912   1.910   7.017
 7587SOL    HW123660   1.963   1.826   0.019
 7587SOL    HW223661   1.881   1.907   6.922
 7588SOL     OW23662   0.485   5.030   2.314
 7588SOL    HW123663   0.550   4.960   2.285
 7588SOL    HW223664   0.524   5.121   2.300
 7589SOL     OW23665   5.885   5.998   0.294
 7589SOL    HW123666   5.856   6.037   0.206
 7589SOL    HW223667   5.905   6.071   0.358
 7590SOL     OW23668   2.658   1.909   5.260
 7590SOL    HW123669   2.567   1.931   5.296
 7590SOL    HW223670   2.650   1.879   5.165
 7591SOL     OW23671   0.282   4.869   0.436
 7591SOL    HW123672   0.350   4.836   0.370
 7591SOL    HW223673   0.306   4.962   0.465
 7592SOL     OW23674   6.289   4.947   0.051
 7592SOL    HW123675   6.249   4.856   0.059
 7592SOL    HW223676   6.254   4.991   6.987
 7593SOL     OW23677   5.725   2.582   0.018
 7593SOL    HW123678   5.698   2.593   0.114
 7593SOL    HW223679   5.648   2.544   6.984
 7594SOL     OW23680   0.869   5.392   3.298
 7594SOL    HW123681   0.898   5.464   3.361
 7594SOL    HW223682   0.771   5.401   3.280
 7595SOL     OW23683   0.154   3.674   6.319
 7595SOL    HW123684   0.153   3.774   6.314
 7595SOL    HW223685   0.220   3.638   6.254
 7596SOL     OW23686   5.318   4.868   2.740
 7596SOL    HW123687   5.287   4.784   2.695
 7596SOL    HW223688   5.410   4.854   2.778
 7597SOL     OW23689   3.239   5.448   2.041
 7597SOL    HW123690   3.218   5.437   1.944
 7597SOL    HW223691   3.154   5.447   2.094
 7598SOL     OW23692   6.893   0.381   2.846
 7598SOL    HW123693   6.801   0.349   2.824
 7598SOL    HW223694   6.912   0.466   2.797
 7599SOL     OW23695   5.779   1.525   2.971
 7599SOL    HW123696   5.784   1.594   3.044
 7599SOL    HW223697   5.813   1.564   2.886
 7600SOL     OW23698   1.467   0.028   2.683
 7600SOL    HW123699   1.459   0.105   2.619
 7600SOL    HW223700   1.564   0.008   2.698
 7601SOL     OW23701   1.866   5.805   3.694
 7601SOL    HW123702   1.827   5.839   3.780
 7601SOL    HW223703   1.847   5.872   3.621
 7602SOL     OW23704   2.275   4.438   4.745
 7602SOL    HW123705   2.247   4.343   4.761
 7602SOL    HW223706   2.333   4.469   4.821
 7603SOL     OW23707   1.147   6.211   6.865
 7603SOL    HW123708   1.186   6.129   6.906
 7603SOL    HW223709   1.074   6.186   6.802
 7604SOL     OW23710   3.525   5.885   4.200
 7604SOL    HW123711   3.527   5.949   4.124
 7604SOL    HW223712   3.450   5.909   4.262
 7605SOL     OW23713   1.642   5.113   0.100
 7605SOL    HW123714   1.651   5.116   0.200
 7605SOL    HW223715   1.545   5.120   0.076
 7606SOL     OW23716   0.341   2.895   2.038
 7606SOL    HW123717   0.374   2.881   1.945
 7606SOL    HW223718   0.358   2.990   2.066
 7607SOL     OW23719   4.819   6.999   0.354
 7607SOL    HW123720   4.854   0.058   0.407
 7607SOL    HW223721   4.807   6.920   0.414
 7608SOL     OW23722   2.981   3.808   3.161
 7608SOL    HW123723   3.014   3.815   3.067
 7608SOL    HW223724   3.059   3.817   3.223
 7609SOL     OW23725   0.048   3.614   3.568
 7609SOL    HW123726   0.071   3.710   3.589
 7609SOL    HW223727   0.133   3.563   3.555
 7610SOL     OW23728   5.902   0.617   1.162
 7610SOL    HW123729   5.876   0.619   1.065
 7610SOL    HW223730   5.938   0.706   1.189
 7611SOL     OW23731   1.409   1.762   7.002
 7611SOL    HW123732   1.446   1.855   6.997
 7611SOL    HW223733   1.484   1.697   7.005
 7612SOL     OW23734   3.773   1.361   4.100
 7612SOL    HW123735   3.772   1.288   4.168
 7612SOL    HW223736   3.745   1.324   4.011
 7613SOL     OW23737   4.748   1.314   1.359
 7613SOL    HW123738   4.715   1.335   1.267
 7613SOL    HW223739   4.678   1.265   1.410
 7614SOL     OW23740   3.965   2.154   2.072
 7614SOL    HW123741   4.015   2.180   1.989
 7614SOL    HW223742   3.870   2.183   2.065
 7615SOL     OW23743   4.389   5.081   6.738
 7615SOL    HW123744   4.483   5.114   6.743
 7615SOL    HW223745   4.332   5.148   6.691
 7616SOL     OW23746   0.691   3.793   4.241
 7616SOL    HW123747   0.698   3.763   4.146
 7616SOL    HW223748   0.621   3.865   4.248
 7617SOL     OW23749   2.809   5.946   3.530
 7617SOL    HW123750   2.804   5.897   3.443
 7617SOL    HW223751   2.894   5.921   3.578
 7618SOL     OW23752   1.318   2.275   6.681
 7618SOL    HW123753   1.280   2.308   6.595
 7618SOL    HW223754   1.350   2.353   6.736
 7619SOL     OW23755   5.714   2.942   5.375
 7619SOL    HW123756   5.622   2.976   5.395
 7619SOL    HW223757   5.721   2.846   5.404
 7620SOL     OW23758   3.812   0.110   0.691
 7620SOL    HW123759   3.748   0.156   0.754
 7620SOL    HW223760   3.875   0.053   0.744
 7621SOL     OW23761   1.052   0.628   0.444
 7621SOL    HW123762   0.958   0.610   0.416
 7621SOL    HW223763   1.089   0.704   0.391
 7622SOL     OW23764   4.853   2.444   1.864
 7622SOL    HW123765   4.823   2.539   1.853
 7622SOL    HW223766   4.810   2.387   1.794
 7623SOL     OW23767   4.420   5.894   6.331
 7623SOL    HW123768   4.401   5.972   6.271
 7623SOL    HW223769   4.349   5.889   6.402
 7624SOL     OW23770   0.329   2.532   3.422
 7624SOL    HW123771   0.381   2.573   3.347
 7624SOL    HW223772   0.273   2.457   3.387
 7625SOL     OW23773   5.716   1.209   0.738
 7625SOL    HW123774   5.761   1.151   0.670
 7625SOL    HW223775   5.785   1.261   0.788
 7626SOL     OW23776   0.226   6.688   5.146
 7626SOL    HW123777   0.157   6.628   5.104
 7626SOL    HW223778   0.236   6.771   5.091
 7627SOL     OW23779   6.395   2.986   0.783
 7627SOL    HW123780   6.332   3.063   0.796
 7627SOL    HW223781   6.370   2.912   0.845
 7628SOL     OW23782   2.611   0.543   1.568
 7628SOL    HW123783   2.576   0.463   1.616
 7628SOL    HW223784   2.535   0.601   1.539
 7629SOL     OW23785   6.341   6.282   2.205
 7629SOL    HW123786   6.371   6.257   2.297
 7629SOL    HW223787   6.243   6.265   2.195
 7630SOL     OW23788   6.521   6.769   2.224
 7630SOL    HW123789   6.475   6.690   2.265
 7630SOL    HW223790   6.578   6.739   2.147
 7631SOL     OW23791   1.095   1.904   5.370
 7631SOL    HW123792   1.148   1.819   5.363
 7631SOL    HW223793   1.065   1.932   5.278
 7632SOL     OW23794   4.291   2.175   1.159
 7632SOL    HW123795   4.261   2.186   1.254
 7632SOL    HW223796   4.214   2.142   1.104
 7633SOL     OW23797   5.322   3.284   0.103
 7633SOL    HW123798   5.400   3.272   0.164
 7633SOL    HW223799   5.352   3.321   0.016
 7634SOL     OW23800   1.108   1.041   2.682
 7634SOL    HW123801   1.084   1.043   2.585
 7634SOL    HW223802   1.054   0.971   2.728
 7635SOL     OW23803   2.714   5.699   5.620
 7635SOL    HW123804   2.711   5.606   5.655
 7635SOL    HW223805   2.712   5.764   5.696
 7636SOL     OW23806   1.398   1.273   3.943
 7636SOL    HW123807   1.308   1.283   3.902
 7636SOL    HW223808   1.443   1.193   3.905
 7637SOL     OW23809   1.702   6.731   3.974
 7637SOL    HW123810   1.648   6.771   4.047
 7637SOL    HW223811   1.694   6.787   3.891
 7638SOL     OW23812   5.804   5.700   1.732
 7638SOL    HW123813   5.904   5.712   1.730
 7638SOL    HW223814   5.766   5.752   1.808
 7639SOL     OW23815   0.744   1.791   6.487
 7639SOL    HW123816   0.843   1.780   6.474
 7639SOL    HW223817   0.715   1.878   6.448
 7640SOL     OW23818   2.690   2.588   0.648
 7640SOL    HW123819   2.764   2.579   0.582
 7640SOL    HW223820   2.683   2.504   0.703
 7641SOL     OW23821   0.522   4.714   1.858
 7641SOL    HW123822   0.542   4.623   1.895
 7641SOL    HW223823   0.446   4.707   1.793
 7642SOL     OW23824   2.644   1.843   2.676
 7642SOL    HW123825   2.606   1.902   2.605
 7642SOL    HW223826   2.699   1.897   2.739
 7643SOL     OW23827   4.611   2.405   3.583
 7643SOL    HW123828   4.562   2.398   3.670
 7643SOL    HW223829   4.577   2.335   3.520
 7644SOL     OW23830   6.487   2.520   2.399
 7644SOL    HW123831   6.455   2.605   2.442
 7644SOL    HW223832   6.409   2.462   2.378
 7645SOL     OW23833   4.647   5.192   6.738
 7645SOL    HW123834   4.727   5.144   6.702
 7645SOL    HW223835   4.676   5.280   6.777
 7646SOL     OW23836   1.787   2.309   2.487
 7646SOL    HW123837   1.791   2.409   2.484
 7646SOL    HW223838   1.729   2.280   2.563
 7647SOL     OW23839   1.584   3.263   1.588
 7647SOL    HW123840   1.514   3.300   1.528
 7647SOL    HW223841   1.605   3.330   1.660
 7648SOL     OW23842   4.326   1.615   3.380
 7648SOL    HW123843   4.276   1.567   3.308
 7648SOL    HW223844   4.262   1.643   3.451
 7649SOL     OW23845   0.945   0.618   2.229
 7649SOL    HW123846   1.004   0.597   2.307
 7649SOL    HW223847   0.856   0.573   2.241
 7650SOL     OW23848   6.475   3.115   2.039
 7650SOL    HW123849   6.475   3.131   1.941
 7650SOL    HW223850   6.472   3.202   2.087
 7651SOL     OW23851   2.447   0.342   0.321
 7651SOL    HW123852   2.536   0.296   0.318
 7651SOL    HW223853   2.434   0.395   0.237
 7652SOL     OW23854   5.838   3.569   3.955
 7652SOL    HW123855   5.807   3.628   4.030
 7652SOL    HW223856   5.912   3.510   3.989
 7653SOL     OW23857   2.356   1.374   1.084
 7653SOL    HW123858   2.280   1.328   1.037
 7653SOL    HW223859   2.418   1.414   1.017
 7654SOL     OW23860   4.761   2.436   3.317
 7654SOL    HW123861   4.696   2.503   3.353
 7654SOL    HW223862   4.732   2.406   3.226
 7655SOL     OW23863   4.059   6.936   4.294
 7655SOL    HW123864   3.976   6.906   4.246
 7655SOL    HW223865   4.092   0.002   4.252
 7656SOL     OW23866   0.279   5.640   5.766
 7656SOL    HW123867   0.366   5.599   5.738
 7656SOL    HW223868   0.271   5.637   5.865
 7657SOL     OW23869   3.136   2.050   2.946
 7657SOL    HW123870   3.055   2.003   2.982
 7657SOL    HW223871   3.110   2.100   2.863
 7658SOL     OW23872   4.521   0.677   6.531
 7658SOL    HW123873   4.554   0.586   6.505
 7658SOL    HW223874   4.450   0.707   6.467
 7659SOL     OW23875   5.798   0.033   0.903
 7659SOL    HW123876   5.885   7.007   0.923
 7659SOL    HW223877   5.813   0.106   0.837
 7660SOL     OW23878   5.280   5.897   3.776
 7660SOL    HW123879   5.285   5.822   3.709
 7660SOL    HW223880   5.369   5.942   3.780
 7661SOL     OW23881   5.902   2.119   4.657
 7661SOL    HW123882   5.923   2.102   4.753
 7661SOL    HW223883   5.984   2.108   4.602
 7662SOL     OW23884   1.570   2.646   2.071
 7662SOL    HW123885   1.534   2.642   2.164
 7662SOL    HW223886   1.659   2.601   2.067
 7663SOL     OW23887   6.865   5.049   6.828
 7663SOL    HW123888   6.855   4.962   6.780
 7663SOL    HW223889   6.954   5.052   6.873
 7664SOL     OW23890   3.056   6.038   2.357
 7664SOL    HW123891   3.011   6.053   2.444
 7664SOL    HW223892   3.036   5.946   2.324
 7665SOL     OW23893   3.161   0.331   3.793
 7665SOL    HW123894   3.158   0.334   3.693
 7665SOL    HW223895   3.212   0.250   3.822
 7666SOL     OW23896   0.132   6.813   1.404
 7666SOL    HW123897   0.203   6.749   1.373
 7666SOL    HW223898   0.155   6.846   1.495
 7667SOL     OW23899   4.640   6.134   6.863
 7667SOL    HW123900   4.678   6.119   6.772
 7667SOL    HW223901   4.634   6.232   6.882
 7668SOL     OW23902   3.460   3.990   1.652
 7668SOL    HW123903   3.461   3.999   1.553
 7668SOL    HW223904   3.523   3.917   1.680
 7669SOL     OW23905   5.469   0.784   4.411
 7669SOL    HW123906   5.370   0.770   4.417
 7669SOL    HW223907   5.489   0.882   4.410
 7670SOL     OW23908   1.423   5.675   6.728
 7670SOL    HW123909   1.455   5.734   6.654
 7670SOL    HW223910   1.324   5.661   6.718
 7671SOL     OW23911   4.538   1.449   4.455
 7671SOL    HW123912   4.475   1.488   4.388
 7671SOL    HW223913   4.613   1.402   4.408
 7672SOL     OW23914   5.991   0.225   3.791
 7672SOL    HW123915   6.045   0.303   3.759
 7672SOL    HW223916   6.013   0.145   3.735
 7673SOL     OW23917   1.314   4.766   0.854
 7673SOL    HW123918   1.412   4.761   0.834
 7673SOL    HW223919   1.265   4.701   0.796
 7674SOL     OW23920   6.632   2.047   4.866
 7674SOL    HW123921   6.682   2.134   4.860
 7674SOL    HW223922   6.698   1.971   4.867
 7675SOL     OW23923   4.995   0.449   1.996
 7675SOL    HW123924   4.962   0.428   2.088
 7675SOL    HW223925   4.919   0.478   1.939
 7676SOL     OW23926   0.732   1.481   6.508
 7676SOL    HW123927   0.738   1.578   6.484
 7676SOL    HW223928   0.674   1.434   6.441
 7677SOL     OW23929   1.563   3.203   2.071
 7677SOL    HW123930   1.600   3.283   2.119
 7677SOL    HW223931   1.623   3.181   1.993
 7678SOL     OW23932   1.135   0.768   6.298
 7678SOL    HW123933   1.226   0.731   6.313
 7678SOL    HW223934   1.106   0.748   6.205
 7679SOL     OW23935   1.171   5.192   4.949
 7679SOL    HW123936   1.194   5.278   4.996
 7679SOL    HW223937   1.085   5.157   4.987
 7680SOL     OW23938   3.007   3.283   6.837
 7680SOL    HW123939   3.036   3.340   6.914
 7680SOL    HW223940   2.925   3.323   6.795
 7681SOL     OW23941   2.924   0.863   0.498
 7681SOL    HW123942   2.868   0.912   0.564
 7681SOL    HW223943   2.873   0.786   0.460
 7682SOL     OW23944   2.543   6.537   1.951
 7682SOL    HW123945   2.453   6.561   1.989
 7682SOL    HW223946   2.530   6.498   1.860
 7683SOL     OW23947   6.748   2.714   2.917
 7683SOL    HW123948   6.700   2.647   2.974
 7683SOL    HW223949   6.711   2.805   2.933
 7684SOL     OW23950   5.524   2.732   6.641
 7684SOL    HW123951   5.454   2.710   6.709
 7684SOL    HW223952   5.488   2.714   6.549
 7685SOL     OW23953   3.895   2.677   0.285
 7685SOL    HW123954   3.990   2.690   0.259
 7685SOL    HW223955   3.846   2.632   0.211
 7686SOL     OW23956   4.503   0.108   2.655
 7686SOL    HW123957   4.510   0.105   2.755
 7686SOL    HW223958   4.538   0.196   2.622
 7687SOL     OW23959   5.346   5.896   5.805
 7687SOL    HW123960   5.250   5.924   5.801
 7687SOL    HW223961   5.351   5.798   5.827
 7688SOL     OW23962   6.869   6.771   5.902
 7688SOL    HW123963   6.949   6.715   5.879
 7688SOL    HW223964   6.793   6.745   5.842
 7689SOL     OW23965   4.836   6.020   4.227
 7689SOL    HW123966   4.808   5.927   4.203
 7689SOL    HW223967   4.859   6.024   4.324
 7690SOL     OW23968   5.600   5.121   3.203
 7690SOL    HW123969   5.524   5.133   3.138
 7690SOL    HW223970   5.579   5.170   3.287
 7691SOL     OW23971   4.858   2.905   4.047
 7691SOL    HW123972   4.870   2.988   3.992
 7691SOL    HW223973   4.879   2.824   3.991
 7692SOL     OW23974   1.201   6.375   0.929
 7692SOL    HW123975   1.258   6.297   0.903
 7692SOL    HW223976   1.200   6.384   1.029
 7693SOL     OW23977   4.019   1.095   6.499
 7693SOL    HW123978   4.011   0.997   6.520
 7693SOL    HW223979   4.116   1.119   6.491
 7694SOL     OW23980   0.657   4.530   3.796
 7694SOL    HW123981   0.656   4.549   3.894
 7694SOL    HW223982   0.746   4.493   3.770
 7695SOL     OW23983   4.169   0.735   0.657
 7695SOL    HW123984   4.094   0.672   0.679
 7695SOL    HW223985   4.134   0.811   0.601
 7696SOL     OW23986   6.860   2.283   4.215
 7696SOL    HW123987   6.950   2.243   4.234
 7696SOL    HW223988   6.865   2.382   4.227
 7697SOL     OW23989   1.841   1.890   3.254
 7697SOL    HW123990   1.885   1.811   3.210
 7697SOL    HW223991   1.911   1.947   3.297
 7698SOL     OW23992   6.797   3.088   4.587
 7698SOL    HW123993   6.865   3.149   4.627
 7698SOL    HW223994   6.812   2.995   4.621
 7699SOL     OW23995   2.265   5.826   6.984
 7699SOL    HW123996   2.274   5.855   6.889
 7699SOL    HW223997   2.317   5.741   6.998
 7700SOL     OW23998   4.705   0.015   5.375
 7700SOL    HW123999   4.726   0.040   5.281
 7700SOL    HW224000   4.780   6.979   5.412
 7701SOL     OW24001   6.423   0.910   5.980
 7701SOL    HW124002   6.354   0.976   5.950
 7701SOL    HW224003   6.380   0.844   6.042
 7702SOL     OW24004   3.625   6.455   5.971
 7702SOL    HW124005   3.627   6.373   6.029
 7702SOL    HW224006   3.584   6.531   6.022
 7703SOL     OW24007   6.522   1.437   5.346
 7703SOL    HW124008   6.422   1.441   5.337
 7703SOL    HW224009   6.546   1.362   5.407
 7704SOL     OW24010   4.177   4.790   6.462
 7704SOL    HW124011   4.082   4.811   6.486
 7704SOL    HW224012   4.208   4.711   6.516
 7705SOL     OW24013   3.555   4.900   5.121
 7705SOL    HW124014   3.503   4.982   5.096
 7705SOL    HW224015   3.641   4.898   5.069
 7706SOL     OW24016   5.886   0.217   5.281
 7706SOL    HW124017   5.954   0.238   5.211
 7706SOL    HW224018   5.890   0.119   5.303
 7707SOL     OW24019   0.139   5.307   6.185
 7707SOL    HW124020   0.202   5.337   6.114
 7707SOL    HW224021   0.190   5.261   6.257
 7708SOL     OW24022   5.309   5.867   5.070
 7708SOL    HW124023   5.372   5.802   5.029
 7708SOL    HW224024   5.248   5.819   5.133
 7709SOL     OW24025   4.657   2.353   2.370
 7709SOL    HW124026   4.668   2.271   2.314
 7709SOL    HW224027   4.691   2.334   2.463
 7710SOL     OW24028   2.478   6.741   0.628
 7710SOL    HW124029   2.445   6.701   0.542
 7710SOL    HW224030   2.568   6.705   0.649
 7711SOL     OW24031   6.103   6.503   5.793
 7711SOL    HW124032   6.170   6.452   5.740
 7711SOL    HW224033   6.061   6.442   5.861
 7712SOL     OW24034   6.263   4.952   1.508
 7712SOL    HW124035   6.299   4.893   1.436
 7712SOL    HW224036   6.207   5.024   1.468
 7713SOL     OW24037   2.068   4.251   0.358
 7713SOL    HW124038   2.053   4.238   0.456
 7713SOL    HW224039   2.063   4.162   0.312
 7714SOL     OW24040   6.369   4.282   4.138
 7714SOL    HW124041   6.294   4.323   4.086
 7714SOL    HW224042   6.334   4.246   4.225
 7715SOL     OW24043   5.019   0.945   0.975
 7715SOL    HW124044   5.034   0.969   1.071
 7715SOL    HW224045   5.082   0.996   0.917
 7716SOL     OW24046   4.549   2.619   2.461
 7716SOL    HW124047   4.480   2.627   2.389
 7716SOL    HW224048   4.576   2.523   2.470
 7717SOL     OW24049   2.775   1.455   4.697
 7717SOL    HW124050   2.688   1.427   4.655
 7717SOL    HW224051   2.767   1.448   4.796
 7718SOL     OW24052   1.949   1.887   2.937
 7718SOL    HW124053   1.946   1.969   2.994
 7718SOL    HW224054   1.856   1.865   2.905
 7719SOL     OW24055   0.257   3.174   4.446
 7719SOL    HW124056   0.172   3.121   4.452
 7719SOL    HW224057   0.293   3.168   4.353
 7720SOL     OW24058   6.425   6.598   0.591
 7720SOL    HW124059   6.478   6.516   0.613
 7720SOL    HW224060   6.329   6.574   0.583
 7721SOL     OW24061   1.947   4.280   2.890
 7721SOL    HW124062   1.987   4.241   2.808
 7721SOL    HW224063   2.020   4.304   2.955
 7722SOL     OW24064   6.705   5.365   3.084
 7722SOL    HW124065   6.632   5.430   3.062
 7722SOL    HW224066   6.664   5.281   3.120
 7723SOL     OW24067   0.028   3.106   0.496
 7723SOL    HW124068   6.991   3.139   0.419
 7723SOL    HW224069   6.989   3.097   0.577
 7724SOL     OW24070   1.760   4.434   1.745
 7724SOL    HW124071   1.842   4.398   1.699
 7724SOL    HW224072   1.697   4.470   1.677
 7725SOL     OW24073   5.285   2.352   3.059
 7725SOL    HW124074   5.287   2.337   2.960
 7725SOL    HW224075   5.369   2.316   3.100
 7726SOL     OW24076   0.284   4.693   3.220
 7726SOL    HW124077   0.265   4.628   3.293
 7726SOL    HW224078   0.362   4.661   3.166
 7727SOL     OW24079   5.924   2.102   3.791
 7727SOL    HW124080   5.946   2.195   3.820
 7727SOL    HW224081   5.953   2.038   3.862
 7728SOL     OW24082   1.704   3.136   2.850
 7728SOL    HW124083   1.764   3.101   2.778
 7728SOL    HW224084   1.726   3.231   2.868
 7729SOL     OW24085   5.779   1.971   1.059
 7729SOL    HW124086   5.715   2.021   1.002
 7729SOL    HW224087   5.738   1.953   1.148
 7730SOL     OW24088   5.273   6.146   3.048
 7730SOL    HW124089   5.189   6.095   3.027
 7730SOL    HW224090   5.350   6.105   2.999
 7731SOL     OW24091   6.511   1.015   0.508
 7731SOL    HW124092   6.507   0.994   0.606
 7731SOL    HW224093   6.448   0.954   0.459
 7732SOL     OW24094   5.026   6.026   0.563
 7732SOL    HW124095   5.070   6.038   0.653
 7732SOL    HW224096   5.048   6.105   0.505
 7733SOL     OW24097   3.817   6.895   1.228
 7733SOL    HW124098   3.746   6.921   1.162
 7733SOL    HW224099   3.889   6.964   1.228
 7734SOL     OW24100   1.520   3.347   3.361
 7734SOL    HW124101   1.543   3.320   3.267
 7734SOL    HW224102   1.591   3.408   3.397
 7735SOL     OW24103   4.541   4.586   6.685
 7735SOL    HW124104   4.590   4.537   6.757
 7735SOL    HW224105   4.604   4.645   6.635
 7736SOL     OW24106   5.294   4.416   0.387
 7736SOL    HW124107   5.335   4.404   0.477
 7736SOL    HW224108   5.198   4.387   0.389
 7737SOL     OW24109   4.882   2.229   1.069
 7737SOL    HW124110   4.790   2.190   1.078
 7737SOL    HW224111   4.881   2.299   0.998
 7738SOL     OW24112   2.240   6.091   0.768
 7738SOL    HW124113   2.193   6.029   0.704
 7738SOL    HW224114   2.209   6.184   0.752
 7739SOL     OW24115   0.881   2.606   0.708
 7739SOL    HW124116   0.840   2.605   0.800
 7739SOL    HW224117   0.828   2.666   0.648
 7740SOL     OW24118   0.118   6.853   2.425
 7740SOL    HW124119   0.181   6.807   2.364
 7740SOL    HW224120   0.167   6.884   2.507
 7741SOL     OW24121   1.903   5.363   4.105
 7741SOL    HW124122   1.826   5.424   4.085
 7741SOL    HW224123   1.913   5.298   4.029
 7742SOL     OW24124   6.211   2.208   2.887
 7742SOL    HW124125   6.297   2.237   2.844
 7742SOL    HW224126   6.198   2.258   2.972
 7743SOL     OW24127   4.287   3.450   5.603
 7743SOL    HW124128   4.335   3.381   5.548
 7743SOL    HW224129   4.213   3.490   5.550
 7744SOL     OW24130   6.698   6.417   4.035
 7744SOL    HW124131   6.610   6.413   3.989
 7744SOL    HW224132   6.755   6.340   4.005
 7745SOL     OW24133   4.011   2.668   6.012
 7745SOL    HW124134   4.003   2.737   6.084
 7745SOL    HW224135   3.920   2.632   5.990
 7746SOL     OW24136   1.816   0.024   0.700
 7746SOL    HW124137   1.803   6.958   0.648
 7746SOL    HW224138   1.891   0.076   0.661
 7747SOL     OW24139   4.975   6.522   1.171
 7747SOL    HW124140   4.955   6.437   1.123
 7747SOL    HW224141   4.978   6.598   1.107
 7748SOL     OW24142   2.842   3.483   6.283
 7748SOL    HW124143   2.789   3.554   6.329
 7748SOL    HW224144   2.851   3.504   6.186
 7749SOL     OW24145   4.617   3.317   5.859
 7749SOL    HW124146   4.657   3.241   5.911
 7749SOL    HW224147   4.619   3.296   5.762
 7750SOL     OW24148   0.544   6.323   1.460
 7750SOL    HW124149   0.602   6.247   1.492
 7750SOL    HW224150   0.536   6.392   1.532
 7751SOL     OW24151   0.871   1.917   1.946
 7751SOL    HW124152   0.845   1.939   1.852
 7751SOL    HW224153   0.969   1.899   1.951
 7752SOL     OW24154   5.221   0.878   4.179
 7752SOL    HW124155   5.157   0.930   4.122
 7752SOL    HW224156   5.195   0.889   4.275
 7753SOL     OW24157   1.825   1.481   4.689
 7753SOL    HW124158   1.832   1.538   4.771
 7753SOL    HW224159   1.860   1.390   4.709
 7754SOL     OW24160   4.059   6.086   1.742
 7754SOL    HW124161   4.014   6.008   1.699
 7754SOL    HW224162   3.993   6.160   1.755
 7755SOL     OW24163   2.470   4.228   6.517
 7755SOL    HW124164   2.515   4.141   6.500
 7755SOL    HW224165   2.479   4.252   6.614
 7756SOL     OW24166   2.281   5.745   1.428
 7756SOL    HW124167   2.353   5.752   1.359
 7756SOL    HW224168   2.322   5.739   1.519
 7757SOL     OW24169   0.194   4.599   2.900
 7757SOL    HW124170   0.205   4.673   2.833
 7757SOL    HW224171   0.099   4.596   2.931
 7758SOL     OW24172   1.492   0.761   5.651
 7758SOL    HW124173   1.530   0.788   5.562
 7758SOL    HW224174   1.407   0.711   5.637
 7759SOL     OW24175   2.832   2.388   6.348
 7759SOL    HW124176   2.751   2.395   6.289
 7759SOL    HW224177   2.852   2.478   6.387
 7760SOL     OW24178   4.593   2.213   1.510
 7760SOL    HW124179   4.615   2.160   1.428
 7760SOL    HW224180   4.504   2.256   1.499
 7761SOL     OW24181   4.879   5.568   4.736
 7761SOL    HW124182   4.884   5.475   4.771
 7761SOL    HW224183   4.948   5.580   4.663
 7762SOL     OW24184   0.039   0.642   3.927
 7762SOL    HW124185   0.060   0.728   3.880
 7762SOL    HW224186   0.039   0.656   4.026
 7763SOL     OW24187   2.755   0.328   4.722
 7763SOL    HW124188   2.715   0.417   4.743
 7763SOL    HW224189   2.819   0.336   4.645
 7764SOL     OW24190   3.263   3.835   5.553
 7764SOL    HW124191   3.245   3.899   5.628
 7764SOL    HW224192   3.284   3.745   5.590
 7765SOL     OW24193   6.643   3.311   4.595
 7765SOL    HW124194   6.640   3.366   4.512
 7765SOL    HW224195   6.671   3.218   4.572
 7766SOL     OW24196   0.568   4.705   0.561
 7766SOL    HW124197   0.659   4.748   0.568
 7766SOL    HW224198   0.550   4.651   0.643
 7767SOL     OW24199   2.961   0.708   2.953
 7767SOL    HW124200   3.046   0.750   2.987
 7767SOL    HW224201   2.928   0.760   2.874
 7768SOL     OW24202   4.272   4.734   2.933
 7768SOL    HW124203   4.263   4.699   2.840
 7768SOL    HW224204   4.355   4.697   2.975
 7769SOL     OW24205   3.306   2.477   5.471
 7769SOL    HW124206   3.274   2.469   5.376
 7769SOL    HW224207   3.333   2.387   5.504
 7770SOL     OW24208   1.182   3.621   4.937
 7770SOL    HW124209   1.176   3.720   4.950
 7770SOL    HW224210   1.168   3.598   4.841
 7771SOL     OW24211   3.201   2.966   6.057
 7771SOL    HW124212   3.209   2.918   6.144
 7771SOL    HW224213   3.252   3.052   6.061
 7772SOL     OW24214   4.948   0.873   1.438
 7772SOL    HW124215   4.897   0.827   1.365
 7772SOL    HW224216   4.932   0.825   1.524
 7773SOL     OW24217   2.863   6.035   0.293
 7773SOL    HW124218   2.925   6.008   0.218
 7773SOL    HW224219   2.851   5.958   0.355
 7774SOL     OW24220   4.644   1.440   2.798
 7774SOL    HW124221   4.625   1.394   2.885
 7774SOL    HW224222   4.743   1.450   2.787
 7775SOL     OW24223   3.184   0.647   0.456
 7775SOL    HW124224   3.120   0.713   0.416
 7775SOL    HW224225   3.264   0.637   0.396
 7776SOL     OW24226   0.645   6.770   5.484
 7776SOL    HW124227   0.627   6.791   5.580
 7776SOL    HW224228   0.563   6.730   5.443
 7777SOL     OW24229   5.183   5.358   3.176
 7777SOL    HW124230   5.212   5.447   3.142
 7777SOL    HW224231   5.184   5.359   3.276
 7778SOL     OW24232   6.120   4.101   2.896
 7778SOL    HW124233   6.213   4.073   2.919
 7778SOL    HW224234   6.103   4.193   2.933
 7779SOL     OW24235   3.142   5.900   1.904
 7779SOL    HW124236   3.155   5.978   1.964
 7779SOL    HW224237   3.131   5.817   1.959
 7780SOL     OW24238   6.641   6.106   5.336
 7780SOL    HW124239   6.661   6.045   5.260
 7780SOL    HW224240   6.698   6.081   5.415
 7781SOL     OW24241   1.444   2.953   0.471
 7781SOL    HW124242   1.531   3.003   0.472
 7781SOL    HW224243   1.452   2.871   0.528
 7782SOL     OW24244   6.172   4.737   3.608
 7782SOL    HW124245   6.158   4.644   3.642
 7782SOL    HW224246   6.214   4.734   3.517
 7783SOL     OW24247   1.256   0.605   5.335
 7783SOL    HW124248   1.284   0.520   5.381
 7783SOL    HW224249   1.170   0.637   5.374
 7784SOL     OW24250   2.419   2.556   2.207
 7784SOL    HW124251   2.361   2.478   2.231
 7784SOL    HW224252   2.501   2.524   2.159
 7785SOL     OW24253   0.871   6.424   2.266
 7785SOL    HW124254   0.925   6.407   2.183
 7785SOL    HW224255   0.924   6.397   2.346
 7786SOL     OW24256   4.233   0.312   6.193
 7786SOL    HW124257   4.224   0.304   6.292
 7786SOL    HW224258   4.300   0.382   6.170
 7787SOL     OW24259   3.034   2.831   1.285
 7787SOL    HW124260   3.086   2.916   1.276
 7787SOL    HW224261   2.937   2.850   1.271
 7788SOL     OW24262   0.825   4.663   1.348
 7788SOL    HW124263   0.745   4.605   1.339
 7788SOL    HW224264   0.822   4.736   1.280
 7789SOL     OW24265   3.272   0.918   6.664
 7789SOL    HW124266   3.176   0.925   6.689
 7789SOL    HW224267   3.311   1.010   6.658
 7790SOL     OW24268   5.434   4.912   1.847
 7790SOL    HW124269   5.430   4.965   1.932
 7790SOL    HW224270   5.418   4.816   1.867
 7791SOL     OW24271   2.211   5.406   2.056
 7791SOL    HW124272   2.299   5.371   2.088
 7791SOL    HW224273   2.137   5.355   2.101
 7792SOL     OW24274   1.270   1.795   2.145
 7792SOL    HW124275   1.207   1.788   2.068
 7792SOL    HW224276   1.225   1.844   2.220
 7793SOL     OW24277   4.469   1.473   0.157
 7793SOL    HW124278   4.442   1.567   0.136
 7793SOL    HW224279   4.549   1.448   0.103
 7794SOL     OW24280   0.884   5.609   2.895
 7794SOL    HW124281   0.907   5.703   2.920
 7794SOL    HW224282   0.887   5.600   2.795
 7795SOL     OW24283   3.332   5.221   6.114
 7795SOL    HW124284   3.360   5.127   6.097
 7795SOL    HW224285   3.250   5.241   6.061
 7796SOL     OW24286   3.529   3.127   6.450
 7796SOL    HW124287   3.475   3.211   6.463
 7796SOL    HW224288   3.467   3.052   6.427
 7797SOL     OW24289   1.046   6.030   3.321
 7797SOL    HW124290   1.085   5.972   3.392
 7797SOL    HW224291   1.093   6.117   3.319
 7798SOL     OW24292   0.543   2.270   0.800
 7798SOL    HW124293   0.591   2.182   0.792
 7798SOL    HW224294   0.489   2.286   0.718
 7799SOL     OW24295   2.224   6.076   3.517
 7799SOL    HW124296   2.300   6.012   3.525
 7799SOL    HW224297   2.225   6.118   3.426
 7800SOL     OW24298   6.925   6.414   1.137
 7800SOL    HW124299   0.001   6.420   1.168
 7800SOL    HW224300   6.919   6.440   1.041
 7801SOL     OW24301   2.059   2.595   2.576
 7801SOL    HW124302   2.145   2.643   2.594
 7801SOL    HW224303   1.986   2.634   2.632
 7802SOL     OW24304   6.898   3.875   5.510
 7802SOL    HW124305   6.929   3.922   5.427
 7802SOL    HW224306   6.846   3.939   5.567
 7803SOL     OW24307   4.543   2.069   5.492
 7803SOL    HW124308   4.584   2.114   5.413
 7803SOL    HW224309   4.490   1.990   5.462
 7804SOL     OW24310   2.463   2.022   5.023
 7804SOL    HW124311   2.451   2.033   4.925
 7804SOL    HW224312   2.539   2.080   5.054
 7805SOL     OW24313   5.486   2.834   1.331
 7805SOL    HW124314   5.419   2.793   1.269
 7805SOL    HW224315   5.458   2.819   1.425
 7806SOL     OW24316   6.767   2.005   5.561
 7806SOL    HW124317   6.803   2.034   5.650
 7806SOL    HW224318   6.823   1.930   5.526
 7807SOL     OW24319   2.042   5.212   5.895
 7807SOL    HW124320   2.115   5.192   5.829
 7807SOL    HW224321   2.037   5.310   5.911
 7808SOL     OW24322   5.824   4.169   2.819
 7808SOL    HW124323   5.811   4.257   2.863
 7808SOL    HW224324   5.874   4.182   2.733
 7809SOL     OW24325   4.781   5.336   3.289
 7809SOL    HW124326   4.862   5.278   3.279
 7809SOL    HW224327   4.793   5.397   3.367
 7810SOL     OW24328   4.158   6.219   5.496
 7810SOL    HW124329   4.100   6.199   5.575
 7810SOL    HW224330   4.166   6.137   5.439
 7811SOL     OW24331   1.158   5.700   2.546
 7811SOL    HW124332   1.088   5.677   2.614
 7811SOL    HW224333   1.247   5.709   2.591
 7812SOL     OW24334   2.521   3.093   5.566
 7812SOL    HW124335   2.517   3.144   5.652
 7812SOL    HW224336   2.428   3.073   5.535
 7813SOL     OW24337   5.818   1.566   0.991
 7813SOL    HW124338   5.846   1.487   1.046
 7813SOL    HW224339   5.889   1.636   0.995
 7814SOL     OW24340   6.883   3.121   2.165
 7814SOL    HW124341   6.951   3.062   2.121
 7814SOL    HW224342   6.842   3.182   2.098
 7815SOL     OW24343   6.033   2.833   5.536
 7815SOL    HW124344   6.094   2.884   5.475
 7815SOL    HW224345   5.954   2.800   5.484
 7816SOL     OW24346   0.258   1.489   5.119
 7816SOL    HW124347   0.215   1.473   5.208
 7816SOL    HW224348   0.222   1.573   5.080
 7817SOL     OW24349   2.801   2.915   6.474
 7817SOL    HW124350   2.844   2.970   6.546
 7817SOL    HW224351   2.703   2.932   6.474
 7818SOL     OW24352   5.572   1.177   2.199
 7818SOL    HW124353   5.500   1.244   2.180
 7818SOL    HW224354   5.546   1.122   2.278
 7819SOL     OW24355   1.062   3.703   3.997
 7819SOL    HW124356   1.146   3.737   3.956
 7819SOL    HW224357   1.080   3.619   4.048
 7820SOL     OW24358   1.700   0.341   5.794
 7820SOL    HW124359   1.692   0.328   5.893
 7820SOL    HW224360   1.614   0.313   5.750
 7821SOL     OW24361   6.406   5.653   6.870
 7821SOL    HW124362   6.484   5.606   6.913
 7821SOL    HW224363   6.433   5.746   6.846
 7822SOL     OW24364   1.024   0.934   4.808
 7822SOL    HW124365   0.930   0.911   4.784
 7822SOL    HW224366   1.023   1.000   4.884
 7823SOL     OW24367   1.463   4.224   0.022
 7823SOL    HW124368   1.545   4.281   0.011
 7823SOL    HW224369   1.478   4.158   0.095
 7824SOL     OW24370   4.960   2.549   2.389
 7824SOL    HW124371   4.944   2.457   2.354
 7824SOL    HW224372   4.906   2.614   2.336
 7825SOL     OW24373   3.312   3.047   1.529
 7825SOL    HW124374   3.384   3.113   1.547
 7825SOL    HW224375   3.353   2.959   1.503
 7826SOL     OW24376   6.594   0.654   0.340
 7826SOL    HW124377   6.518   0.697   0.291
 7826SOL    HW224378   6.680   0.698   0.314
 7827SOL     OW24379   5.220   5.349   1.354
 7827SOL    HW124380   5.171   5.414   1.296
 7827SOL    HW224381   5.158   5.275   1.380
 7828SOL     OW24382   0.532   6.275   1.012
 7828SOL    HW124383   0.617   6.273   0.959
 7828SOL    HW224384   0.528   6.195   1.072
 7829SOL     OW24385   3.484   2.840   1.457
 7829SOL    HW124386   3.465   2.744   1.439
 7829SOL    HW224387   3.581   2.851   1.481
 7830SOL     OW24388   5.999   3.254   0.101
 7830SOL    HW124389   5.916   3.270   0.048
 7830SOL    HW224390   6.002   3.319   0.177
 7831SOL     OW24391   1.428   3.288   0.533
 7831SOL    HW124392   1.354   3.241   0.485
 7831SOL    HW224393   1.439   3.248   0.624
 7832SOL     OW24394   2.334   2.325   5.512
 7832SOL    HW124395   2.247   2.281   5.533
 7832SOL    HW224396   2.344   2.333   5.412
 7833SOL     OW24397   0.800   6.747   0.453
 7833SOL    HW124398   0.829   6.676   0.389
 7833SOL    HW224399   0.747   6.816   0.404
 7834SOL     OW24400   1.028   0.833   1.318
 7834SOL    HW124401   0.976   0.897   1.260
 7834SOL    HW224402   1.008   0.852   1.414
 7835SOL     OW24403   2.173   3.106   4.846
 7835SOL    HW124404   2.144   3.172   4.916
 7835SOL    HW224405   2.243   3.045   4.885
 7836SOL     OW24406   2.778   6.502   6.981
 7836SOL    HW124407   2.738   6.593   6.990
 7836SOL    HW224408   2.856   6.493   0.025
 7837SOL     OW24409   6.158   6.464   2.847
 7837SOL    HW124410   6.078   6.408   2.870
 7837SOL    HW224411   6.232   6.445   2.911
 7838SOL     OW24412   4.158   6.589   4.881
 7838SOL    HW124413   4.209   6.666   4.842
 7838SOL    HW224414   4.223   6.520   4.914
 7839SOL     OW24415   5.927   5.060   4.684
 7839SOL    HW124416   6.004   5.123   4.682
 7839SOL    HW224417   5.913   5.027   4.778
 7840SOL     OW24418   5.149   2.929   4.199
 7840SOL    HW124419   5.087   2.850   4.196
 7840SOL    HW224420   5.106   3.006   4.152
 7841SOL     OW24421   0.237   1.533   6.269
 7841SOL    HW124422   0.150   1.494   6.240
 7841SOL    HW224423   0.307   1.513   6.200
 7842SOL     OW24424   1.993   1.574   2.674
 7842SOL    HW124425   2.010   1.537   2.582
 7842SOL    HW224426   2.063   1.643   2.694
 7843SOL     OW24427   5.734   3.754   1.200
 7843SOL    HW124428   5.669   3.719   1.133
 7843SOL    HW224429   5.688   3.820   1.260
 7844SOL     OW24430   3.837   0.679   3.323
 7844SOL    HW124431   3.774   0.688   3.247
 7844SOL    HW224432   3.891   0.596   3.312
 7845SOL     OW24433   6.642   1.376   4.321
 7845SOL    HW124434   6.716   1.331   4.272
 7845SOL    HW224435   6.624   1.466   4.279
 7846SOL     OW24436   2.789   0.085   1.956
 7846SOL    HW124437   2.780   0.107   1.859
 7846SOL    HW224438   2.750   7.013   1.974
 7847SOL     OW24439   6.503   0.369   0.470
 7847SOL    HW124440   6.472   0.461   0.494
 7847SOL    HW224441   6.600   0.371   0.448
 7848SOL     OW24442   4.443   3.746   1.679
 7848SOL    HW124443   4.408   3.840   1.683
 7848SOL    HW224444   4.543   3.748   1.681
 7849SOL     OW24445   5.702   3.023   4.557
 7849SOL    HW124446   5.623   3.084   4.561
 7849SOL    HW224447   5.710   2.984   4.466
 7850SOL     OW24448   0.313   0.815   5.421
 7850SOL    HW124449   0.275   0.905   5.399
 7850SOL    HW224450   0.265   0.778   5.501
 7851SOL     OW24451   5.826   0.184   0.202
 7851SOL    HW124452   5.831   0.085   0.218
 7851SOL    HW224453   5.879   0.232   0.272
 7852SOL     OW24454   2.797   6.168   0.068
 7852SOL    HW124455   2.837   6.256   0.092
 7852SOL    HW224456   2.781   6.115   0.152
 7853SOL     OW24457   2.693   2.652   0.286
 7853SOL    HW124458   2.704   2.712   0.206
 7853SOL    HW224459   2.614   2.593   0.273
 7854SOL     OW24460   3.548   3.618   2.187
 7854SOL    HW124461   3.646   3.602   2.181
 7854SOL    HW224462   3.530   3.717   2.186
 7855SOL     OW24463   4.701   5.392   6.938
 7855SOL    HW124464   4.703   5.475   6.993
 7855SOL    HW224465   4.693   5.312   6.999
 7856SOL     OW24466   5.725   3.462   5.185
 7856SOL    HW124467   5.681   3.381   5.225
 7856SOL    HW224468   5.819   3.440   5.162
 7857SOL     OW24469   6.061   1.583   5.963
 7857SOL    HW124470   6.007   1.559   5.883
 7857SOL    HW224471   6.026   1.667   6.004
 7858SOL     OW24472   6.064   4.049   3.212
 7858SOL    HW124473   6.021   4.126   3.261
 7858SOL    HW224474   6.001   4.016   3.142
 7859SOL     OW24475   0.900   4.687   5.836
 7859SOL    HW124476   0.951   4.739   5.904
 7859SOL    HW224477   0.804   4.678   5.865
 7860SOL     OW24478   3.872   6.933   1.619
 7860SOL    HW124479   3.844   7.017   1.573
 7860SOL    HW224480   3.817   6.856   1.584
 7861SOL     OW24481   4.349   5.110   1.008
 7861SOL    HW124482   4.257   5.102   1.047
 7861SOL    HW224483   4.343   5.145   0.915
 7862SOL     OW24484   2.986   4.099   1.632
 7862SOL    HW124485   3.025   4.181   1.673
 7862SOL    HW224486   2.886   4.106   1.635
 7863SOL     OW24487   6.326   5.963   1.893
 7863SOL    HW124488   6.374   5.888   1.939
 7863SOL    HW224489   6.367   5.979   1.804
 7864SOL     OW24490   0.562   5.553   4.484
 7864SOL    HW124491   0.646   5.608   4.492
 7864SOL    HW224492   0.586   5.460   4.457
 7865SOL     OW24493   3.603   6.434   3.452
 7865SOL    HW124494   3.518   6.465   3.409
 7865SOL    HW224495   3.649   6.511   3.495
 7866SOL     OW24496   2.615   2.001   3.535
 7866SOL    HW124497   2.622   2.040   3.627
 7866SOL    HW224498   2.682   2.045   3.475
 7867SOL     OW24499   6.583   5.030   1.908
 7867SOL    HW124500   6.661   5.093   1.901
 7867SOL    HW224501   6.557   4.998   1.817
 7868SOL     OW24502   5.362   6.411   1.025
 7868SOL    HW124503   5.393   6.323   1.061
 7868SOL    HW224504   5.328   6.467   1.101
 7869SOL     OW24505   0.561   2.813   1.762
 7869SOL    HW124506   0.530   2.776   1.674
 7869SOL    HW224507   0.661   2.815   1.764
 7870SOL     OW24508   6.561   4.974   3.595
 7870SOL    HW124509   6.547   4.883   3.634
 7870SOL    HW224510   6.528   5.043   3.659
 7871SOL     OW24511   5.881   3.040   3.320
 7871SOL    HW124512   5.829   3.109   3.270
 7871SOL    HW224513   5.978   3.050   3.299
 7872SOL     OW24514   7.016   3.396   2.646
 7872SOL    HW124515   6.978   3.453   2.573
 7872SOL    HW224516   6.961   3.313   2.656
 7873SOL     OW24517   0.161   5.858   5.685
 7873SOL    HW124518   0.095   5.835   5.613
 7873SOL    HW224519   0.205   5.775   5.718
 7874SOL     OW24520   5.963   1.904   0.093
 7874SOL    HW124521   5.995   1.909   0.187
 7874SOL    HW224522   5.875   1.950   0.085
 7875SOL     OW24523   4.527   3.600   6.178
 7875SOL    HW124524   4.525   3.700   6.186
 7875SOL    HW224525   4.585   3.574   6.100
 7876SOL     OW24526   6.693   0.263   3.493
 7876SOL    HW124527   6.629   0.199   3.450
 7876SOL    HW224528   6.656   0.293   3.581
 7877SOL     OW24529   6.985   2.520   2.895
 7877SOL    HW124530   6.913   2.585   2.919
 7877SOL    HW224531   0.045   2.535   2.955
 7878SOL     OW24532   4.613   4.364   2.490
 7878SOL    HW124533   4.657   4.275   2.494
 7878SOL    HW224534   4.545   4.364   2.416
 7879SOL     OW24535   4.953   6.718   3.534
 7879SOL    HW124536   4.956   6.639   3.473
 7879SOL    HW224537   4.860   6.729   3.569
 7880SOL     OW24538   0.203   6.712   6.453
 7880SOL    HW124539   0.266   6.636   6.435
 7880SOL    HW224540   0.251   6.799   6.437
 7881SOL     OW24541   0.038   3.841   5.038
 7881SOL    HW124542   7.014   3.752   5.027
 7881SOL    HW224543   0.015   3.879   5.127
 7882SOL     OW24544   0.208   3.128   2.873
 7882SOL    HW124545   0.301   3.123   2.909
 7882SOL    HW224546   0.148   3.074   2.931
 7883SOL     OW24547   2.504   1.144   2.900
 7883SOL    HW124548   2.515   1.182   2.992
 7883SOL    HW224549   2.491   1.219   2.834
 7884SOL     OW24550   1.722   4.081   3.532
 7884SOL    HW124551   1.763   4.172   3.538
 7884SOL    HW224552   1.746   4.028   3.614
 7885SOL     OW24553   5.995   5.606   2.999
 7885SOL    HW124554   5.957   5.567   3.083
 7885SOL    HW224555   6.045   5.690   3.021
 7886SOL     OW24556   4.715   2.688   1.948
 7886SOL    HW124557   4.720   2.645   2.038
 7886SOL    HW224558   4.677   2.780   1.957
 7887SOL     OW24559   3.937   3.352   0.489
 7887SOL    HW124560   3.995   3.326   0.412
 7887SOL    HW224561   3.860   3.406   0.455
 7888SOL     OW24562   5.989   1.469   4.217
 7888SOL    HW124563   6.060   1.446   4.283
 7888SOL    HW224564   5.981   1.568   4.210
 7889SOL     OW24565   5.786   5.016   0.738
 7889SOL    HW124566   5.774   5.113   0.721
 7889SOL    HW224567   5.831   5.002   0.826
 7890SOL     OW24568   1.303   2.829   4.185
 7890SOL    HW124569   1.300   2.831   4.285
 7890SOL    HW224570   1.214   2.800   4.150
 7891SOL     OW24571   0.125   2.240   3.961
 7891SOL    HW124572   0.143   2.161   3.903
 7891SOL    HW224573   0.191   2.312   3.941
 7892SOL     OW24574   1.470   3.625   6.081
 7892SOL    HW124575   1.541   3.556   6.071
 7892SOL    HW224576   1.491   3.683   6.160
 7893SOL     OW24577   5.947   0.711   2.196
 7893SOL    HW124578   5.941   0.791   2.254
 7893SOL    HW224579   5.861   0.698   2.147
 7894SOL     OW24580   2.389   1.007   5.819
 7894SOL    HW124581   2.489   1.005   5.818
 7894SOL    HW224582   2.358   1.077   5.883
 7895SOL     OW24583   3.562   5.734   3.464
 7895SOL    HW124584   3.555   5.718   3.365
 7895SOL    HW224585   3.622   5.812   3.481
 7896SOL     OW24586   4.288   2.600   1.450
 7896SOL    HW124587   4.370   2.650   1.424
 7896SOL    HW224588   4.209   2.661   1.445
 7897SOL     OW24589   3.919   4.333   6.782
 7897SOL    HW124590   3.885   4.423   6.756
 7897SOL    HW224591   4.015   4.340   6.809
 7898SOL     OW24592   5.035   0.268   4.189
 7898SOL    HW124593   5.112   0.249   4.250
 7898SOL    HW224594   5.020   0.189   4.128
 7899SOL     OW24595   5.081   4.744   1.454
 7899SOL    HW124596   5.128   4.832   1.445
 7899SOL    HW224597   4.984   4.760   1.470
 7900SOL     OW24598   0.568   3.677   0.476
 7900SOL    HW124599   0.567   3.579   0.499
 7900SOL    HW224600   0.476   3.705   0.450
 7901SOL     OW24601   5.401   1.196   6.110
 7901SOL    HW124602   5.336   1.255   6.158
 7901SOL    HW224603   5.364   1.173   6.020
 7902SOL     OW24604   0.373   6.094   2.515
 7902SOL    HW124605   0.377   6.061   2.609
 7902SOL    HW224606   0.278   6.114   2.491
 7903SOL     OW24607   2.090   1.677   4.724
 7903SOL    HW124608   2.033   1.737   4.781
 7903SOL    HW224609   2.031   1.623   4.663
 7904SOL     OW24610   6.234   0.637   2.392
 7904SOL    HW124611   6.162   0.678   2.449
 7904SOL    HW224612   6.257   0.699   2.317
 7905SOL     OW24613   5.610   0.709   0.194
 7905SOL    HW124614   5.646   0.734   0.104
 7905SOL    HW224615   5.556   0.624   0.186
 7906SOL     OW24616   1.501   5.112   1.026
 7906SOL    HW124617   1.482   5.053   1.104
 7906SOL    HW224618   1.471   5.067   0.942
 7907SOL     OW24619   6.124   0.189   3.030
 7907SOL    HW124620   6.083   0.098   3.038
 7907SOL    HW224621   6.213   0.190   3.074
 7908SOL     OW24622   0.706   0.626   6.766
 7908SOL    HW124623   0.705   0.634   6.865
 7908SOL    HW224624   0.618   0.655   6.728
 7909SOL     OW24625   5.627   3.786   2.486
 7909SOL    HW124626   5.689   3.858   2.519
 7909SOL    HW224627   5.533   3.809   2.512
 7910SOL     OW24628   1.854   3.765   0.783
 7910SOL    HW124629   1.938   3.721   0.814
 7910SOL    HW224630   1.871   3.817   0.700
 7911SOL     OW24631   1.001   3.941   0.687
 7911SOL    HW124632   0.960   3.912   0.601
 7911SOL    HW224633   1.096   3.968   0.672
 7912SOL     OW24634   5.634   5.537   0.109
 7912SOL    HW124635   5.601   5.509   0.199
 7912SOL    HW224636   5.734   5.530   0.106
 7913SOL     OW24637   0.441   3.684   0.809
 7913SOL    HW124638   0.397   3.602   0.846
 7913SOL    HW224639   0.371   3.749   0.780
 7914SOL     OW24640   6.246   5.457   5.081
 7914SOL    HW124641   6.323   5.452   5.144
 7914SOL    HW224642   6.249   5.544   5.031
 7915SOL     OW24643   3.454   6.987   2.627
 7915SOL    HW124644   3.475   0.049   2.571
 7915SOL    HW224645   3.450   7.014   2.724
 7916SOL     OW24646   1.222   0.408   4.765
 7916SOL    HW124647   1.227   0.496   4.719
 7916SOL    HW224648   1.220   0.423   4.864
 7917SOL     OW24649   4.025   3.058   7.001
 7917SOL    HW124650   4.055   3.091   0.071
 7917SOL    HW224651   3.970   2.975   7.014
 7918SOL     OW24652   1.965   0.733   4.813
 7918SOL    HW124653   1.910   0.770   4.887
 7918SOL    HW224654   2.040   0.679   4.851
 7919SOL     OW24655   0.983   5.086   2.842
 7919SOL    HW124656   1.026   5.018   2.781
 7919SOL    HW224657   1.009   5.066   2.936
 7920SOL     OW24658   4.434   0.554   1.046
 7920SOL    HW124659   4.457   0.609   1.126
 7920SOL    HW224660   4.347   0.586   1.007
 7921SOL     OW24661   5.211   1.249   1.469
 7921SOL    HW124662   5.218   1.201   1.382
 7921SOL    HW224663   5.126   1.223   1.515
 7922SOL     OW24664   0.700   5.994   0.135
 7922SOL    HW124665   0.800   5.999   0.138
 7922SOL    HW224666   0.672   5.912   0.086
 7923SOL     OW24667   3.560   1.425   6.792
 7923SOL    HW124668   3.622   1.372   6.733
 7923SOL    HW224669   3.571   1.395   6.886
 7924SOL     OW24670   6.013   6.848   1.513
 7924SOL    HW124671   5.965   6.926   1.553
 7924SOL    HW224672   6.107   6.845   1.546
 7925SOL     OW24673   2.622   6.473   1.036
 7925SOL    HW124674   2.705   6.519   1.068
 7925SOL    HW224675   2.624   6.377   1.065
 7926SOL     OW24676   5.270   0.110   6.496
 7926SOL    HW124677   5.197   0.125   6.563
 7926SOL    HW224678   5.229   0.103   6.404
 7927SOL     OW24679   4.993   6.988   2.552
 7927SOL    HW124680   4.901   6.978   2.514
 7927SOL    HW224681   5.040   6.900   2.549
 7928SOL     OW24682   6.525   1.057   3.335
 7928SOL    HW124683   6.529   0.957   3.344
 7928SOL    HW224684   6.496   1.081   3.243
 7929SOL     OW24685   4.358   3.686   5.905
 7929SOL    HW124686   4.418   3.664   5.828
 7929SOL    HW224687   4.343   3.604   5.959
 7930SOL     OW24688   4.049   5.984   5.679
 7930SOL    HW124689   3.985   5.953   5.609
 7930SOL    HW224690   4.013   6.068   5.722
 7931SOL     OW24691   2.982   2.456   0.513
 7931SOL    HW124692   2.991   2.356   0.509
 7931SOL    HW224693   2.958   2.492   0.423
 7932SOL     OW24694   0.101   5.336   1.275
 7932SOL    HW124695   0.089   5.332   1.176
 7932SOL    HW224696   0.105   5.432   1.304
 7933SOL     OW24697   6.652   1.358   5.943
 7933SOL    HW124698   6.594   1.377   6.022
 7933SOL    HW224699   6.605   1.293   5.883
 7934SOL     OW24700   1.318   4.414   0.980
 7934SOL    HW124701   1.290   4.321   1.005
 7934SOL    HW224702   1.312   4.425   0.881
 7935SOL     OW24703   5.870   3.913   2.598
 7935SOL    HW124704   5.856   4.008   2.624
 7935SOL    HW224705   5.842   3.854   2.674
 7936SOL     OW24706   3.447   6.421   4.141
 7936SOL    HW124707   3.545   6.403   4.144
 7936SOL    HW224708   3.399   6.337   4.115
 7937SOL     OW24709   2.615   5.825   5.885
 7937SOL    HW124710   2.676   5.904   5.885
 7937SOL    HW224711   2.541   5.841   5.820
 7938SOL     OW24712   4.294   6.824   4.764
 7938SOL    HW124713   4.394   6.821   4.765
 7938SOL    HW224714   4.261   6.821   4.670
 7939SOL     OW24715   0.629   1.813   4.827
 7939SOL    HW124716   0.671   1.747   4.764
 7939SOL    HW224717   0.530   1.812   4.815
 7940SOL     OW24718   4.887   1.465   2.865
 7940SOL    HW124719   4.927   1.478   2.956
 7940SOL    HW224720   4.952   1.416   2.807
 7941SOL     OW24721   4.112   6.697   1.793
 7941SOL    HW124722   4.094   6.601   1.814
 7941SOL    HW224723   4.036   6.753   1.827
 7942SOL     OW24724   0.821   3.195   1.659
 7942SOL    HW124725   0.760   3.179   1.736
 7942SOL    HW224726   0.887   3.267   1.683
 7943SOL     OW24727   2.465   5.467   6.103
 7943SOL    HW124728   2.488   5.390   6.163
 7943SOL    HW224729   2.532   5.474   6.029
 7944SOL     OW24730   0.625   2.707   1.355
 7944SOL    HW124731   0.574   2.667   1.431
 7944SOL    HW224732   0.561   2.755   1.294
 7945SOL     OW24733   6.056   5.313   2.483
 7945SOL    HW124734   6.086   5.231   2.532
 7945SOL    HW224735   5.962   5.335   2.509
 7946SOL     OW24736   3.876   0.997   5.876
 7946SOL    HW124737   3.955   0.985   5.936
 7946SOL    HW224738   3.854   1.094   5.866
 7947SOL     OW24739   1.196   2.985   5.082
 7947SOL    HW124740   1.167   2.935   5.164
 7947SOL    HW224741   1.294   2.971   5.067
 7948SOL     OW24742   1.570   4.811   2.486
 7948SOL    HW124743   1.576   4.842   2.581
 7948SOL    HW224744   1.600   4.716   2.481
 7949SOL     OW24745   4.299   4.883   6.219
 7949SOL    HW124746   4.243   4.930   6.152
 7949SOL    HW224747   4.248   4.873   6.305
 7950SOL     OW24748   6.163   5.485   5.711
 7950SOL    HW124749   6.132   5.452   5.622
 7950SOL    HW224750   6.258   5.456   5.725
 7951SOL     OW24751   2.981   5.422   2.600
 7951SOL    HW124752   2.912   5.440   2.670
 7951SOL    HW224753   2.938   5.378   2.521
 7952SOL     OW24754   5.626   3.357   0.167
 7952SOL    HW124755   5.665   3.297   0.097
 7952SOL    HW224756   5.664   3.449   0.156
 7953SOL     OW24757   3.836   2.011   0.537
 7953SOL    HW124758   3.762   2.001   0.604
 7953SOL    HW224759   3.848   1.925   0.487
 7954SOL     OW24760   3.526   2.937   0.069
 7954SOL    HW124761   3.583   2.901   0.143
 7954SOL    HW224762   3.472   2.862   0.030
 7955SOL     OW24763   1.587   1.675   6.562
 7955SOL    HW124764   1.625   1.583   6.560
 7955SOL    HW224765   1.561   1.698   6.656
 7956SOL     OW24766   6.538   0.668   1.834
 7956SOL    HW124767   6.514   0.627   1.921
 7956SOL    HW224768   6.630   0.639   1.807
 7957SOL     OW24769   4.653   0.610   5.487
 7957SOL    HW124770   4.701   0.697   5.477
 7957SOL    HW224771   4.652   0.562   5.399
 7958SOL     OW24772   5.631   3.689   6.686
 7958SOL    HW124773   5.654   3.627   6.611
 7958SOL    HW224774   5.713   3.712   6.738
 7959SOL     OW24775   4.718   1.232   6.188
 7959SOL    HW124776   4.794   1.231   6.123
 7959SOL    HW224777   4.671   1.321   6.183
 7960SOL     OW24778   6.687   0.915   6.735
 7960SOL    HW124779   6.746   0.903   6.815
 7960SOL    HW224780   6.742   0.908   6.652
 7961SOL     OW24781   6.512   6.949   6.840
 7961SOL    HW124782   6.524   6.850   6.842
 7961SOL    HW224783   6.414   6.971   6.843
 7962SOL     OW24784   6.688   6.984   5.644
 7962SOL    HW124785   6.617   6.942   5.700
 7962SOL    HW224786   6.776   6.977   5.691
 7963SOL     OW24787   6.307   4.686   4.454
 7963SOL    HW124788   6.247   4.730   4.387
 7963SOL    HW224789   6.365   4.619   4.408
 7964SOL     OW24790   6.413   3.524   1.832
 7964SOL    HW124791   6.393   3.609   1.784
 7964SOL    HW224792   6.345   3.509   1.903
 7965SOL     OW24793   4.151   1.923   6.972
 7965SOL    HW124794   4.077   1.902   0.018
 7965SOL    HW224795   4.121   1.902   6.879
 7966SOL     OW24796   4.135   4.271   5.328
 7966SOL    HW124797   4.054   4.239   5.278
 7966SOL    HW224798   4.194   4.322   5.265
 7967SOL     OW24799   1.815   5.198   1.966
 7967SOL    HW124800   1.721   5.230   1.973
 7967SOL    HW224801   1.872   5.245   2.033
 7968SOL     OW24802   6.738   1.867   4.384
 7968SOL    HW124803   6.736   1.845   4.287
 7968SOL    HW224804   6.723   1.965   4.397
 7969SOL     OW24805   4.552   5.935   0.040
 7969SOL    HW124806   4.613   6.000   7.013
 7969SOL    HW224807   4.521   5.974   0.127
 7970SOL     OW24808   6.309   2.997   2.628
 7970SOL    HW124809   6.302   3.093   2.657
 7970SOL    HW224810   6.289   2.938   2.706
 7971SOL     OW24811   3.147   1.431   1.288
 7971SOL    HW124812   3.156   1.498   1.362
 7971SOL    HW224813   3.226   1.370   1.289
 7972SOL     OW24814   3.849   3.052   2.822
 7972SOL    HW124815   3.876   3.099   2.906
 7972SOL    HW224816   3.774   2.989   2.841
 7973SOL     OW24817   6.350   3.613   2.957
 7973SOL    HW124818   6.307   3.557   3.028
 7973SOL    HW224819   6.439   3.645   2.989
 7974SOL     OW24820   6.112   1.346   5.568
 7974SOL    HW124821   6.023   1.378   5.601
 7974SOL    HW224822   6.183   1.369   5.636
 7975SOL     OW24823   5.183   1.728   0.666
 7975SOL    HW124824   5.276   1.760   0.646
 7975SOL    HW224825   5.147   1.776   0.746
 7976SOL     OW24826   1.449   6.857   0.050
 7976SOL    HW124827   1.511   6.885   6.996
 7976SOL    HW224828   1.462   6.759   0.069
 7977SOL     OW24829   5.573   6.033   3.284
 7977SOL    HW124830   5.492   6.076   3.322
 7977SOL    HW224831   5.641   6.102   3.263
 7978SOL     OW24832   0.285   4.233   1.276
 7978SOL    HW124833   0.230   4.310   1.242
 7978SOL    HW224834   0.381   4.260   1.282
 7979SOL     OW24835   1.795   3.866   4.747
 7979SOL    HW124836   1.698   3.842   4.748
 7979SOL    HW224837   1.842   3.818   4.821
 7980SOL     OW24838   3.495   4.527   5.798
 7980SOL    HW124839   3.474   4.457   5.730
 7980SOL    HW224840   3.520   4.612   5.751
 7981SOL     OW24841   1.891   5.095   3.185
 7981SOL    HW124842   1.859   5.055   3.271
 7981SOL    HW224843   1.983   5.060   3.164
 7982SOL     OW24844   1.282   1.949   6.324
 7982SOL    HW124845   1.218   1.945   6.247
 7982SOL    HW224846   1.276   1.865   6.377
 7983SOL     OW24847   5.127   1.115   0.798
 7983SOL    HW124848   5.128   1.215   0.798
 7983SOL    HW224849   5.181   1.081   0.721
 7984SOL     OW24850   0.949   1.604   1.833
 7984SOL    HW124851   0.976   1.514   1.867
 7984SOL    HW224852   0.851   1.616   1.847
 7985SOL     OW24853   2.034   2.294   5.495
 7985SOL    HW124854   1.965   2.265   5.428
 7985SOL    HW224855   2.036   2.394   5.498
 7986SOL     OW24856   3.393   1.254   4.162
 7986SOL    HW124857   3.377   1.305   4.246
 7986SOL    HW224858   3.470   1.192   4.175
 7987SOL     OW24859   1.393   3.477   0.719
 7987SOL    HW124860   1.407   3.415   0.642
 7987SOL    HW224861   1.367   3.425   0.800
 7988SOL     OW24862   7.002   1.414   1.827
 7988SOL    HW124863   6.910   1.383   1.852
 7988SOL    HW224864   0.050   1.345   1.854
 7989SOL     OW24865   1.141   4.036   0.374
 7989SOL    HW124866   1.227   3.984   0.382
 7989SOL    HW224867   1.148   4.120   0.428
 7990SOL     OW24868   2.767   6.387   4.938
 7990SOL    HW124869   2.764   6.384   4.838
 7990SOL    HW224870   2.677   6.411   4.973
 7991SOL     OW24871   5.221   1.366   4.988
 7991SOL    HW124872   5.299   1.375   4.926
 7991SOL    HW224873   5.158   1.442   4.973
 7992SOL     OW24874   2.350   0.521   0.530
 7992SOL    HW124875   2.384   0.494   0.440
 7992SOL    HW224876   2.251   0.537   0.525
 7993SOL     OW24877   6.702   6.746   1.475
 7993SOL    HW124878   6.770   6.771   1.544
 7993SOL    HW224879   6.744   6.689   1.405
 7994SOL     OW24880   5.070   0.689   2.983
 7994SOL    HW124881   5.033   0.780   2.967
 7994SOL    HW224882   5.170   0.692   2.977
 7995SOL     OW24883   0.292   4.438   1.862
 7995SOL    HW124884   0.278   4.535   1.841
 7995SOL    HW224885   0.336   4.393   1.784
 7996SOL     OW24886   3.759   6.911   3.130
 7996SOL    HW124887   3.753   6.932   3.032
 7996SOL    HW224888   3.827   6.839   3.145
 7997SOL     OW24889   0.819   2.047   6.895
 7997SOL    HW124890   0.795   1.967   6.839
 7997SOL    HW224891   0.866   2.017   6.978
 7998SOL     OW24892   2.774   0.641   0.409
 7998SOL    HW124893   2.786   0.557   0.461
 7998SOL    HW224894   2.677   0.663   0.403
 7999SOL     OW24895   1.331   1.717   5.417
 7999SOL    HW124896   1.276   1.674   5.488
 7999SOL    HW224897   1.358   1.808   5.447
 8000SOL     OW24898   5.723   6.105   6.316
 8000SOL    HW124899   5.638   6.052   6.311
 8000SOL    HW224900   5.702   6.199   6.343
 8001SOL     OW24901   4.925   0.385   1.371
 8001SOL    HW124902   4.828   0.395   1.349
 8001SOL    HW224903   4.979   0.427   1.298
 8002SOL     OW24904   0.617   0.710   5.790
 8002SOL    HW124905   0.561   0.772   5.844
 8002SOL    HW224906   0.622   0.744   5.696
 8003SOL     OW24907   2.337   6.655   2.616
 8003SOL    HW124908   2.426   6.673   2.657
 8003SOL    HW224909   2.310   6.732   2.559
 8004SOL     OW24910   1.088   2.668   3.922
 8004SOL    HW124911   1.154   2.595   3.910
 8004SOL    HW224912   1.055   2.668   4.017
 8005SOL     OW24913   2.439   0.077   3.257
 8005SOL    HW124914   2.348   0.061   3.218
 8005SOL    HW224915   2.500   0.003   3.228
 8006SOL     OW24916   3.709   5.241   4.736
 8006SOL    HW124917   3.753   5.154   4.712
 8006SOL    HW224918   3.760   5.317   4.695
 8007SOL     OW24919   6.260   1.311   6.337
 8007SOL    HW124920   6.234   1.240   6.402
 8007SOL    HW224921   6.242   1.279   6.244
 8008SOL     OW24922   4.109   6.239   0.212
 8008SOL    HW124923   4.098   6.337   0.227
 8008SOL    HW224924   4.027   6.192   0.245
 8009SOL     OW24925   4.782   1.126   0.786
 8009SOL    HW124926   4.827   1.038   0.774
 8009SOL    HW224927   4.850   1.198   0.800
 8010SOL     OW24928   2.622   2.602   5.246
 8010SOL    HW124929   2.683   2.677   5.274
 8010SOL    HW224930   2.573   2.568   5.325
 8011SOL     OW24931   3.467   2.043   2.151
 8011SOL    HW124932   3.552   2.077   2.110
 8011SOL    HW224933   3.409   2.004   2.080
 8012SOL     OW24934   0.873   3.390   5.654
 8012SOL    HW124935   0.904   3.315   5.596
 8012SOL    HW224936   0.950   3.449   5.677
 8013SOL     OW24937   1.574   2.116   3.868
 8013SOL    HW124938   1.521   2.125   3.783
 8013SOL    HW224939   1.575   2.205   3.915
 8014SOL     OW24940   2.199   0.870   3.219
 8014SOL    HW124941   2.176   0.914   3.306
 8014SOL    HW224942   2.175   0.931   3.144
 8015SOL     OW24943   2.173   0.164   5.679
 8015SOL    HW124944   2.147   0.069   5.660
 8015SOL    HW224945   2.235   0.196   5.607
 8016SOL     OW24946   4.180   1.588   5.735
 8016SOL    HW124947   4.203   1.673   5.688
 8016SOL    HW224948   4.082   1.588   5.758
 8017SOL     OW24949   6.819   0.217   0.121
 8017SOL    HW124950   6.808   0.181   0.213
 8017SOL    HW224951   6.777   0.154   0.055
 8018SOL     OW24952   4.185   1.579   0.365
 8018SOL    HW124953   4.113   1.524   0.323
 8018SOL    HW224954   4.224   1.530   0.443
 8019SOL     OW24955   3.323   3.639   1.128
 8019SOL    HW124956   3.263   3.693   1.187
 8019SOL    HW224957   3.275   3.559   1.094
 8020SOL     OW24958   6.408   0.352   5.003
 8020SOL    HW124959   6.424   0.316   5.095
 8020SOL    HW224960   6.351   0.289   4.951
 8021SOL     OW24961   1.671   2.603   2.442
 8021SOL    HW124962   1.734   2.663   2.393
 8021SOL    HW224963   1.585   2.596   2.391
 8022SOL     OW24964   5.638   1.184   1.932
 8022SOL    HW124965   5.562   1.236   1.891
 8022SOL    HW224966   5.619   1.168   2.029
 8023SOL     OW24967   5.067   6.203   3.619
 8023SOL    HW124968   5.051   6.222   3.716
 8023SOL    HW224969   5.107   6.284   3.576
 8024SOL     OW24970   1.751   6.184   6.309
 8024SOL    HW124971   1.725   6.170   6.213
 8024SOL    HW224972   1.810   6.264   6.316
 8025SOL     OW24973   1.976   4.779   1.771
 8025SOL    HW124974   1.962   4.813   1.679
 8025SOL    HW224975   1.887   4.758   1.813
 8026SOL     OW24976   0.436   4.985   0.129
 8026SOL    HW124977   0.478   4.932   0.202
 8026SOL    HW224978   0.489   4.976   0.045
 8027SOL     OW24979   4.005   5.903   6.018
 8027SOL    HW124980   4.010   5.908   6.117
 8027SOL    HW224981   3.967   5.815   5.990
 8028SOL     OW24982   3.209   5.446   4.149
 8028SOL    HW124983   3.188   5.537   4.114
 8028SOL    HW224984   3.299   5.417   4.116
 8029SOL     OW24985   6.068   1.321   1.281
 8029SOL    HW124986   6.128   1.264   1.338
 8029SOL    HW224987   6.085   1.299   1.185
 8030SOL     OW24988   6.005   4.739   1.035
 8030SOL    HW124989   5.911   4.768   1.055
 8030SOL    HW224990   6.004   4.645   1.001
 8031SOL     OW24991   5.841   0.675   3.037
 8031SOL    HW124992   5.935   0.644   3.028
 8031SOL    HW224993   5.779   0.597   3.027
 8032SOL     OW24994   5.675   3.007   1.438
 8032SOL    HW124995   5.656   3.105   1.444
 8032SOL    HW224996   5.596   2.960   1.400
 8033SOL     OW24997   3.435   4.395   0.564
 8033SOL    HW124998   3.527   4.427   0.539
 8033SOL    HW224999   3.390   4.356   0.484
 8034SOL     OW25000   5.908   0.187   4.942
 8034SOL    HW125001   5.906   0.260   4.874
 8034SOL    HW225002   5.824   0.189   4.997
 8035SOL     OW25003   4.500   1.289   3.005
 8035SOL    HW125004   4.456   1.203   3.028
 8035SOL    HW225005   4.537   1.331   3.088
 8036SOL     OW25006   6.537   2.843   4.139
 8036SOL    HW125007   6.610   2.903   4.171
 8036SOL    HW225008   6.498   2.879   4.055
 8037SOL     OW25009   1.507   3.025   6.419
 8037SOL    HW125010   1.460   2.945   6.458
 8037SOL    HW225011   1.446   3.104   6.422
 8038SOL     OW25012   5.962   6.040   2.268
 8038SOL    HW125013   5.862   6.036   2.270
 8038SOL    HW225014   5.991   6.130   2.237
 8039SOL     OW25015   0.951   2.323   5.692
 8039SOL    HW125016   0.869   2.301   5.744
 8039SOL    HW225017   1.017   2.370   5.751
 8040SOL     OW25018   1.629   5.890   5.843
 8040SOL    HW125019   1.716   5.903   5.797
 8040SOL    HW225020   1.596   5.797   5.827
 8041SOL     OW25021   3.241   1.881   3.249
 8041SOL    HW125022   3.282   1.844   3.166
 8041SOL    HW225023   3.184   1.811   3.293
 8042SOL     OW25024   4.592   4.343   6.328
 8042SOL    HW125025   4.654   4.416   6.356
 8042SOL    HW225026   4.571   4.285   6.407
 8043SOL     OW25027   4.831   4.784   1.252
 8043SOL    HW125028   4.783   4.713   1.201
 8043SOL    HW225029   4.818   4.769   1.350
 8044SOL     OW25030   3.694   3.366   1.212
 8044SOL    HW125031   3.665   3.274   1.185
 8044SOL    HW225032   3.691   3.427   1.132
 8045SOL     OW25033   0.573   1.063   2.835
 8045SOL    HW125034   0.552   1.133   2.903
 8045SOL    HW225035   0.668   1.072   2.807
 8046SOL     OW25036   0.454   5.292   2.086
 8046SOL    HW125037   0.439   5.347   2.169
 8046SOL    HW225038   0.434   5.196   2.106
 8047SOL     OW25039   3.913   7.014   5.996
 8047SOL    HW125040   3.987   6.951   6.017
 8047SOL    HW225041   3.940   0.089   6.021
 8048SOL     OW25042   3.528   3.619   0.332
 8048SOL    HW125043   3.601   3.633   0.264
 8048SOL    HW225044   3.466   3.698   0.331
 8049SOL     OW25045   1.673   0.003   0.944
 8049SOL    HW125046   1.716   0.019   0.856
 8049SOL    HW225047   1.728   0.045   1.016
 8050SOL     OW25048   1.662   4.171   4.023
 8050SOL    HW125049   1.598   4.248   4.026
 8050SOL    HW225050   1.610   4.086   4.014
 8051SOL     OW25051   4.381   5.887   4.344
 8051SOL    HW125052   4.325   5.849   4.417
 8051SOL    HW225053   4.471   5.843   4.346
 8052SOL     OW25054   1.994   1.689   2.226
 8052SOL    HW125055   1.903   1.707   2.187
 8052SOL    HW225056   1.995   1.596   2.264
 8053SOL     OW25057   3.078   3.156   6.403
 8053SOL    HW125058   3.011   3.177   6.332
 8053SOL    HW225059   3.140   3.233   6.416
 8054SOL     OW25060   5.322   4.143   5.074
 8054SOL    HW125061   5.379   4.140   4.992
 8054SOL    HW225062   5.301   4.049   5.103
 8055SOL     OW25063   0.454   0.656   5.220
 8055SOL    HW125064   0.488   0.587   5.284
 8055SOL    HW225065   0.388   0.715   5.266
 8056SOL     OW25066   2.648   0.191   3.501
 8056SOL    HW125067   2.712   0.146   3.438
 8056SOL    HW225068   2.699   0.241   3.571
 8057SOL     OW25069   2.090   2.352   1.594
 8057SOL    HW125070   2.149   2.271   1.599
 8057SOL    HW225071   2.019   2.345   1.664
 8058SOL     OW25072   3.168   6.805   3.670
 8058SOL    HW125073   3.202   6.767   3.584
 8058SOL    HW225074   3.081   6.852   3.652
 8059SOL     OW25075   2.617   2.289   5.971
 8059SOL    HW125076   2.697   2.269   5.914
 8059SOL    HW225077   2.554   2.212   5.966
 8060SOL     OW25078   6.710   0.437   6.427
 8060SOL    HW125079   6.743   0.365   6.488
 8060SOL    HW225080   6.762   0.521   6.443
 8061SOL     OW25081   0.521   0.929   1.817
 8061SOL    HW125082   0.438   0.954   1.767
 8061SOL    HW225083   0.501   0.853   1.879
 8062SOL     OW25084   4.025   5.513   5.070
 8062SOL    HW125085   4.093   5.439   5.068
 8062SOL    HW225086   3.957   5.497   4.998
 8063SOL     OW25087   3.518   0.611   3.160
 8063SOL    HW125088   3.565   0.522   3.167
 8063SOL    HW225089   3.488   0.625   3.066
 8064SOL     OW25090   6.247   3.450   0.171
 8064SOL    HW125091   6.320   3.502   0.215
 8064SOL    HW225092   6.286   3.370   0.126
 8065SOL     OW25093   3.521   0.127   4.670
 8065SOL    HW125094   3.506   0.201   4.735
 8065SOL    HW225095   3.458   0.136   4.593
 8066SOL     OW25096   6.699   1.311   4.833
 8066SOL    HW125097   6.640   1.385   4.802
 8066SOL    HW225098   6.697   1.237   4.765
 8067SOL     OW25099   5.139   3.250   3.844
 8067SOL    HW125100   5.151   3.349   3.857
 8067SOL    HW225101   5.229   3.206   3.843
 8068SOL     OW25102   0.380   4.325   1.592
 8068SOL    HW125103   0.291   4.368   1.575
 8068SOL    HW225104   0.365   4.232   1.625
 8069SOL     OW25105   2.976   5.063   2.503
 8069SOL    HW125106   2.952   5.049   2.599
 8069SOL    HW225107   3.017   4.979   2.467
 8070SOL     OW25108   4.503   4.819   0.625
 8070SOL    HW125109   4.523   4.740   0.567
 8070SOL    HW225110   4.404   4.838   0.622
 8071SOL     OW25111   4.113   6.778   5.693
 8071SOL    HW125112   4.047   6.745   5.626
 8071SOL    HW225113   4.128   6.876   5.679
 8072SOL     OW25114   2.408   3.087   0.138
 8072SOL    HW125115   2.482   3.070   0.072
 8072SOL    HW225116   2.399   3.186   0.153
 8073SOL     OW25117   2.576   0.152   6.651
 8073SOL    HW125118   2.597   0.088   6.577
 8073SOL    HW225119   2.657   0.168   6.707
 8074SOL     OW25120   1.765   2.050   0.614
 8074SOL    HW125121   1.764   2.115   0.538
 8074SOL    HW225122   1.810   1.966   0.585
 8075SOL     OW25123   0.079   6.347   6.820
 8075SOL    HW125124   0.147   6.398   6.767
 8075SOL    HW225125   0.006   6.317   6.759
 8076SOL     OW25126   0.058   0.059   6.619
 8076SOL    HW125127   0.084   0.108   6.536
 8076SOL    HW225128   0.031   6.985   6.596
 8077SOL     OW25129   4.031   5.797   1.995
 8077SOL    HW125130   3.941   5.811   1.954
 8077SOL    HW225131   4.049   5.869   2.062
 8078SOL     OW25132   1.018   1.386   0.870
 8078SOL    HW125133   1.005   1.358   0.775
 8078SOL    HW225134   0.948   1.453   0.894
 8079SOL     OW25135   0.665   1.522   4.416
 8079SOL    HW125136   0.758   1.530   4.381
 8079SOL    HW225137   0.618   1.446   4.370
 8080SOL     OW25138   1.030   3.170   2.479
 8080SOL    HW125139   0.954   3.226   2.447
 8080SOL    HW225140   0.997   3.106   2.549
 8081SOL     OW25141   5.723   4.529   4.950
 8081SOL    HW125142   5.756   4.489   4.864
 8081SOL    HW225143   5.794   4.588   4.989
 8082SOL     OW25144   2.493   1.047   2.347
 8082SOL    HW125145   2.518   1.143   2.339
 8082SOL    HW225146   2.476   1.009   2.256
 8083SOL     OW25147   5.293   2.306   4.407
 8083SOL    HW125148   5.291   2.221   4.460
 8083SOL    HW225149   5.237   2.296   4.325
 8084SOL     OW25150   1.978   0.355   6.060
 8084SOL    HW125151   2.049   0.415   6.023
 8084SOL    HW225152   1.993   0.262   6.027
 8085SOL     OW25153   0.448   5.850   3.330
 8085SOL    HW125154   0.404   5.853   3.240
 8085SOL    HW225155   0.536   5.896   3.325
 8086SOL     OW25156   0.469   1.034   1.526
 8086SOL    HW125157   0.506   1.118   1.565
 8086SOL    HW225158   0.378   1.018   1.564
 8087SOL     OW25159   0.965   0.619   6.679
 8087SOL    HW125160   1.006   0.569   6.755
 8087SOL    HW225161   0.866   0.626   6.693
 8088SOL     OW25162   5.600   6.343   6.311
 8088SOL    HW125163   5.557   6.421   6.265
 8088SOL    HW225164   5.542   6.312   6.386
 8089SOL     OW25165   5.934   2.882   6.298
 8089SOL    HW125166   6.010   2.817   6.298
 8089SOL    HW225167   5.863   2.850   6.361
 8090SOL     OW25168   4.000   1.859   6.762
 8090SOL    HW125169   4.002   1.760   6.753
 8090SOL    HW225170   3.910   1.893   6.735
 8091SOL     OW25171   1.687   4.322   4.372
 8091SOL    HW125172   1.601   4.285   4.337
 8091SOL    HW225173   1.720   4.393   4.309
 8092SOL     OW25174   4.484   1.798   5.390
 8092SOL    HW125175   4.524   1.807   5.299
 8092SOL    HW225176   4.522   1.717   5.436
 8093SOL     OW25177   3.057   5.942   3.113
 8093SOL    HW125178   3.066   5.985   3.023
 8093SOL    HW225179   2.960   5.932   3.136
 8094SOL     OW25180   1.555   3.781   4.833
 8094SOL    HW125181   1.480   3.823   4.885
 8094SOL    HW225182   1.587   3.699   4.881
 8095SOL     OW25183   1.293   4.491   5.326
 8095SOL    HW125184   1.284   4.529   5.234
 8095SOL    HW225185   1.204   4.488   5.370
 8096SOL     OW25186   1.390   0.047   2.093
 8096SOL    HW125187   1.351   0.103   2.166
 8096SOL    HW225188   1.469   0.094   2.054
 8097SOL     OW25189   3.528   0.072   5.356
 8097SOL    HW125190   3.558   0.056   5.262
 8097SOL    HW225191   3.440   0.120   5.355
 8098SOL     OW25192   0.447   6.236   4.022
 8098SOL    HW125193   0.502   6.153   4.016
 8098SOL    HW225194   0.483   6.295   4.094
 8099SOL     OW25195   4.315   5.264   3.882
 8099SOL    HW125196   4.239   5.312   3.925
 8099SOL    HW225197   4.370   5.218   3.952
 8100SOL     OW25198   5.904   1.199   6.152
 8100SOL    HW125199   5.846   1.260   6.206
 8100SOL    HW225200   5.855   1.113   6.137
 8101SOL     OW25201   2.620   5.648   0.414
 8101SOL    HW125202   2.567   5.720   0.370
 8101SOL    HW225203   2.563   5.567   0.425
 8102SOL     OW25204   1.250   3.261   4.396
 8102SOL    HW125205   1.231   3.359   4.390
 8102SOL    HW225206   1.349   3.247   4.399
 8103SOL     OW25207   3.693   0.746   2.110
 8103SOL    HW125208   3.704   0.834   2.063
 8103SOL    HW225209   3.715   0.757   2.206
 8104SOL     OW25210   1.710   6.584   5.800
 8104SOL    HW125211   1.791   6.554   5.852
 8104SOL    HW225212   1.700   6.525   5.719
 8105SOL     OW25213   0.006   2.151   2.849
 8105SOL    HW125214   6.974   2.166   2.764
 8105SOL    HW225215   0.046   2.059   2.847
 8106SOL     OW25216   2.792   6.596   4.076
 8106SOL    HW125217   2.861   6.645   4.023
 8106SOL    HW225218   2.836   6.551   4.154
 8107SOL     OW25219   1.725   5.872   4.501
 8107SOL    HW125220   1.729   5.827   4.591
 8107SOL    HW225221   1.761   5.965   4.509
 8108SOL     OW25222   6.619   1.354   6.583
 8108SOL    HW125223   6.633   1.420   6.510
 8108SOL    HW225224   6.708   1.331   6.624
 8109SOL     OW25225   6.807   3.553   6.387
 8109SOL    HW125226   6.891   3.569   6.439
 8109SOL    HW225227   6.730   3.543   6.450
 8110SOL     OW25228   4.032   4.646   1.185
 8110SOL    HW125229   4.093   4.689   1.253
 8110SOL    HW225230   4.066   4.665   1.093
 8111SOL     OW25231   5.820   1.101   3.523
 8111SOL    HW125232   5.874   1.184   3.516
 8111SOL    HW225233   5.737   1.110   3.467
 8112SOL     OW25234   0.464   3.014   4.790
 8112SOL    HW125235   0.546   2.965   4.821
 8112SOL    HW225236   0.382   2.962   4.818
 8113SOL     OW25237   6.558   3.050   1.450
 8113SOL    HW125238   6.506   3.111   1.391
 8113SOL    HW225239   6.589   2.971   1.397
 8114SOL     OW25240   1.078   4.527   2.369
 8114SOL    HW125241   1.078   4.529   2.469
 8114SOL    HW225242   1.036   4.441   2.338
 8115SOL     OW25243   2.861   6.873   6.315
 8115SOL    HW125244   2.925   6.834   6.249
 8115SOL    HW225245   2.769   6.874   6.276
 8116SOL     OW25246   3.810   5.437   0.597
 8116SOL    HW125247   3.822   5.375   0.520
 8116SOL    HW225248   3.729   5.411   0.650
 8117SOL     OW25249   2.359   6.642   3.051
 8117SOL    HW125250   2.331   6.547   3.037
 8117SOL    HW225251   2.392   6.680   2.964
 8118SOL     OW25252   6.429   4.344   6.490
 8118SOL    HW125253   6.395   4.324   6.398
 8118SOL    HW225254   6.365   4.308   6.557
 8119SOL     OW25255   4.997   6.355   6.222
 8119SOL    HW125256   4.959   6.403   6.143
 8119SOL    HW225257   5.064   6.287   6.191
 8120SOL     OW25258   2.297   5.242   0.582
 8120SOL    HW125259   2.269   5.152   0.549
 8120SOL    HW225260   2.220   5.305   0.577
 8121SOL     OW25261   1.068   4.170   2.970
 8121SOL    HW125262   1.109   4.080   2.985
 8121SOL    HW225263   1.139   4.234   2.938
 8122SOL     OW25264   1.017   4.355   2.718
 8122SOL    HW125265   0.921   4.339   2.743
 8122SOL    HW225266   1.060   4.267   2.697
 8123SOL     OW25267   0.945   1.665   6.879
 8123SOL    HW125268   1.015   1.646   6.947
 8123SOL    HW225269   0.936   1.586   6.817
 8124SOL     OW25270   5.653   6.254   4.189
 8124SOL    HW125271   5.583   6.298   4.133
 8124SOL    HW225272   5.680   6.168   4.146
 8125SOL     OW25273   1.072   0.850   3.180
 8125SOL    HW125274   0.986   0.866   3.228
 8125SOL    HW225275   1.126   0.783   3.231
 8126SOL     OW25276   4.763   5.159   3.594
 8126SOL    HW125277   4.691   5.105   3.552
 8126SOL    HW225278   4.775   5.131   3.690
 8127SOL     OW25279   2.794   2.495   6.996
 8127SOL    HW125280   2.854   2.496   0.057
 8127SOL    HW225281   2.823   2.423   6.933
 8128SOL     OW25282   3.297   2.392   1.302
 8128SOL    HW125283   3.285   2.469   1.364
 8128SOL    HW225284   3.250   2.410   1.216
 8129SOL     OW25285   1.680   1.899   0.131
 8129SOL    HW125286   1.630   1.949   0.060
 8129SOL    HW225287   1.776   1.891   0.105
 8130SOL     OW25288   1.681   5.828   0.009
 8130SOL    HW125289   1.602   5.766   0.003
 8130SOL    HW225290   1.756   5.792   6.972
 8131SOL     OW25291   2.975   2.618   1.089
 8131SOL    HW125292   2.987   2.682   1.013
 8131SOL    HW225293   3.000   2.662   1.175
 8132SOL     OW25294   6.257   6.907   4.143
 8132SOL    HW125295   6.206   6.976   4.194
 8132SOL    HW225296   6.258   6.822   4.194
 8133SOL     OW25297   4.112   5.492   2.317
 8133SOL    HW125298   4.095   5.545   2.399
 8133SOL    HW225299   4.143   5.400   2.342
 8134SOL     OW25300   6.200   1.055   5.933
 8134SOL    HW125301   6.183   1.145   5.971
 8134SOL    HW225302   6.132   0.990   5.967
 8135SOL     OW25303   1.841   0.833   1.970
 8135SOL    HW125304   1.743   0.844   1.987
 8135SOL    HW225305   1.862   0.736   1.959
 8136SOL     OW25306   5.652   5.253   2.755
 8136SOL    HW125307   5.561   5.224   2.726
 8136SOL    HW225308   5.673   5.214   2.844
 8137SOL     OW25309   3.023   1.052   5.214
 8137SOL    HW125310   2.925   1.034   5.216
 8137SOL    HW225311   3.057   1.042   5.120
 8138SOL     OW25312   5.489   1.152   1.300
 8138SOL    HW125313   5.537   1.154   1.387
 8138SOL    HW225314   5.553   1.171   1.226
 8139SOL     OW25315   0.208   1.548   2.496
 8139SOL    HW125316   0.285   1.496   2.458
 8139SOL    HW225317   0.204   1.535   2.595
 8140SOL     OW25318   4.318   1.326   4.542
 8140SOL    HW125319   4.401   1.381   4.532
 8140SOL    HW225320   4.296   1.282   4.454
 8141SOL     OW25321   3.892   5.350   5.565
 8141SOL    HW125322   3.846   5.316   5.648
 8141SOL    HW225323   3.829   5.410   5.515
 8142SOL     OW25324   6.004   4.670   0.653
 8142SOL    HW125325   6.001   4.725   0.569
 8142SOL    HW225326   6.046   4.724   0.726
 8143SOL     OW25327   6.165   4.352   6.039
 8143SOL    HW125328   6.096   4.408   5.993
 8143SOL    HW225329   6.128   4.316   6.125
 8144SOL     OW25330   5.470   0.120   6.921
 8144SOL    HW125331   5.482   0.148   7.016
 8144SOL    HW225332   5.559   0.098   6.881
 8145SOL     OW25333   6.244   5.973   2.570
 8145SOL    HW125334   6.258   5.875   2.557
 8145SOL    HW225335   6.146   5.992   2.574
 8146SOL     OW25336   3.419   1.085   5.876
 8146SOL    HW125337   3.439   1.177   5.843
 8146SOL    HW225338   3.378   1.031   5.803
 8147SOL     OW25339   5.266   1.708   3.410
 8147SOL    HW125340   5.339   1.772   3.388
 8147SOL    HW225341   5.239   1.720   3.506
 8148SOL     OW25342   5.359   3.186   2.854
 8148SOL    HW125343   5.308   3.230   2.928
 8148SOL    HW225344   5.305   3.187   2.770
 8149SOL     OW25345   3.214   5.539   2.485
 8149SOL    HW125346   3.275   5.521   2.563
 8149SOL    HW225347   3.130   5.486   2.497
 8150SOL     OW25348   0.126   4.963   0.896
 8150SOL    HW125349   0.069   5.029   0.846
 8150SOL    HW225350   0.200   4.930   0.837
 8151SOL     OW25351   0.902   2.255   3.411
 8151SOL    HW125352   0.934   2.229   3.502
 8151SOL    HW225353   0.806   2.285   3.418
 8152SOL     OW25354   2.051   1.447   2.935
 8152SOL    HW125355   2.110   1.371   2.907
 8152SOL    HW225356   2.022   1.498   2.854
 8153SOL     OW25357   2.892   0.412   2.220
 8153SOL    HW125358   2.842   0.359   2.288
 8153SOL    HW225359   2.827   0.460   2.161
 8154SOL     OW25360   2.374   6.443   4.151
 8154SOL    HW125361   2.460   6.392   4.152
 8154SOL    HW225362   2.350   6.471   4.244
 8155SOL     OW25363   3.007   3.124   2.103
 8155SOL    HW125364   2.911   3.150   2.111
 8155SOL    HW225365   3.014   3.038   2.053
 8156SOL     OW25366   5.412   0.529   4.971
 8156SOL    HW125367   5.462   0.584   4.904
 8156SOL    HW225368   5.466   0.521   5.055
 8157SOL     OW25369   5.778   4.446   6.701
 8157SOL    HW125370   5.876   4.458   6.713
 8157SOL    HW225371   5.745   4.376   6.765
 8158SOL     OW25372   1.361   5.732   1.484
 8158SOL    HW125373   1.326   5.755   1.575
 8158SOL    HW225374   1.324   5.644   1.455
 8159SOL     OW25375   1.964   5.297   2.214
 8159SOL    HW125376   2.027   5.224   2.238
 8159SOL    HW225377   1.926   5.338   2.297
 8160SOL     OW25378   5.024   2.074   1.246
 8160SOL    HW125379   4.959   2.000   1.263
 8160SOL    HW225380   4.983   2.141   1.183
 8161SOL     OW25381   4.520   0.763   0.370
 8161SOL    HW125382   4.588   0.727   0.433
 8161SOL    HW225383   4.540   0.859   0.350
 8162SOL     OW25384   5.980   0.292   1.009
 8162SOL    HW125385   5.993   0.233   0.929
 8162SOL    HW225386   5.885   0.284   1.041
 8163SOL     OW25387   2.428   4.326   5.375
 8163SOL    HW125388   2.329   4.326   5.359
 8163SOL    HW225389   2.468   4.244   5.333
 8164SOL     OW25390   5.462   2.800   1.613
 8164SOL    HW125391   5.395   2.732   1.643
 8164SOL    HW225392   5.549   2.755   1.594
 8165SOL     OW25393   2.102   4.358   1.212
 8165SOL    HW125394   2.004   4.372   1.228
 8165SOL    HW225395   2.133   4.280   1.266
 8166SOL     OW25396   2.227   0.645   2.189
 8166SOL    HW125397   2.215   0.744   2.191
 8166SOL    HW225398   2.266   0.614   2.276
 8167SOL     OW25399   6.043   2.500   3.466
 8167SOL    HW125400   6.131   2.509   3.512
 8167SOL    HW225401   5.974   2.473   3.532
 8168SOL     OW25402   3.540   1.425   3.150
 8168SOL    HW125403   3.506   1.331   3.138
 8168SOL    HW225404   3.544   1.447   3.247
 8169SOL     OW25405   4.241   3.948   0.513
 8169SOL    HW125406   4.277   3.893   0.588
 8169SOL    HW225407   4.214   4.038   0.548
 8170SOL     OW25408   1.092   6.023   3.953
 8170SOL    HW125409   1.168   5.962   3.929
 8170SOL    HW225410   1.023   6.019   3.881
 8171SOL     OW25411   0.391   1.709   6.386
 8171SOL    HW125412   0.422   1.779   6.322
 8171SOL    HW225413   0.314   1.659   6.345
 8172SOL     OW25414   0.202   0.083   0.415
 8172SOL    HW125415   0.295   0.047   0.407
 8172SOL    HW225416   0.140   0.009   0.443
 8173SOL     OW25417   3.795   2.615   6.804
 8173SOL    HW125418   3.874   2.632   6.746
 8173SOL    HW225419   3.714   2.656   6.763
 8174SOL     OW25420   5.698   1.760   0.828
 8174SOL    HW125421   5.730   1.683   0.883
 8174SOL    HW225422   5.753   1.841   0.849
 8175SOL     OW25423   6.956   2.446   6.207
 8175SOL    HW125424   6.985   2.477   6.116
 8175SOL    HW225425   6.916   2.354   6.200
 8176SOL     OW25426   2.599   5.940   1.945
 8176SOL    HW125427   2.588   5.944   2.044
 8176SOL    HW225428   2.603   6.033   1.908
 8177SOL     OW25429   0.799   6.545   4.275
 8177SOL    HW125430   0.805   6.501   4.186
 8177SOL    HW225431   0.733   6.497   4.332
 8178SOL     OW25432   2.046   6.881   6.058
 8178SOL    HW125433   1.963   6.860   6.006
 8178SOL    HW225434   2.023   6.939   6.135
 8179SOL     OW25435   3.279   2.816   0.303
 8179SOL    HW125436   3.355   2.751   0.300
 8179SOL    HW225437   3.312   2.907   0.279
 8180SOL     OW25438   0.628   6.976   4.371
 8180SOL    HW125439   0.586   6.930   4.292
 8180SOL    HW225440   0.697   6.916   4.411
 8181SOL     OW25441   2.810   2.194   2.852
 8181SOL    HW125442   2.727   2.207   2.798
 8181SOL    HW225443   2.890   2.220   2.798
 8182SOL     OW25444   3.059   2.077   6.088
 8182SOL    HW125445   3.052   2.066   5.989
 8182SOL    HW225446   3.155   2.073   6.115
 8183SOL     OW25447   1.008   3.733   5.208
 8183SOL    HW125448   0.946   3.675   5.155
 8183SOL    HW225449   1.049   3.679   5.281
 8184SOL     OW25450   0.086   0.624   5.226
 8184SOL    HW125451   0.149   0.638   5.150
 8184SOL    HW225452   0.074   0.710   5.276
 8185SOL     OW25453   3.037   1.230   2.126
 8185SOL    HW125454   2.944   1.222   2.162
 8185SOL    HW225455   3.033   1.267   2.033
 8186SOL     OW25456   3.135   6.002   5.631
 8186SOL    HW125457   3.096   6.052   5.552
 8186SOL    HW225458   3.136   5.904   5.611
 8187SOL     OW25459   1.422   2.153   5.447
 8187SOL    HW125460   1.367   2.079   5.486
 8187SOL    HW225461   1.498   2.175   5.508
 8188SOL     OW25462   5.676   2.075   2.706
 8188SOL    HW125463   5.657   1.978   2.696
 8188SOL    HW225464   5.597   2.128   2.674
 8189SOL     OW25465   5.519   4.561   2.358
 8189SOL    HW125466   5.543   4.472   2.318
 8189SOL    HW225467   5.564   4.634   2.307
 8190SOL     OW25468   5.084   3.469   3.617
 8190SOL    HW125469   5.087   3.459   3.717
 8190SOL    HW225470   4.991   3.449   3.585
 8191SOL     OW25471   0.745   5.557   3.826
 8191SOL    HW125472   0.821   5.618   3.848
 8191SOL    HW225473   0.695   5.593   3.748
 8192SOL     OW25474   2.381   5.599   1.924
 8192SOL    HW125475   2.475   5.582   1.951
 8192SOL    HW225476   2.320   5.538   1.974
 8193SOL     OW25477   4.925   6.719   5.099
 8193SOL    HW125478   4.957   6.803   5.144
 8193SOL    HW225479   4.885   6.658   5.168
 8194SOL     OW25480   6.439   1.112   6.889
 8194SOL    HW125481   6.425   1.162   6.804
 8194SOL    HW225482   6.536   1.094   6.903
 8195SOL     OW25483   6.726   0.045   6.953
 8195SOL    HW125484   6.627   0.034   6.942
 8195SOL    HW225485   6.770   6.975   6.948
 8196SOL     OW25486   3.566   6.474   6.481
 8196SOL    HW125487   3.566   6.495   6.579
 8196SOL    HW225488   3.601   6.552   6.429
 8197SOL     OW25489   6.554   0.761   6.315
 8197SOL    HW125490   6.527   0.812   6.397
 8197SOL    HW225491   6.475   0.751   6.254
 8198SOL     OW25492   2.614   6.578   3.159
 8198SOL    HW125493   2.521   6.576   3.121
 8198SOL    HW225494   2.674   6.629   3.097
 8199SOL     OW25495   0.330   3.689   0.045
 8199SOL    HW125496   0.350   3.687   0.143
 8199SOL    HW225497   0.281   3.774   0.022
 8200SOL     OW25498   4.705   4.046   1.699
 8200SOL    HW125499   4.634   4.092   1.752
 8200SOL    HW225500   4.794   4.087   1.721
 8201SOL     OW25501   5.647   0.174   3.740
 8201SOL    HW125502   5.684   0.267   3.732
 8201SOL    HW225503   5.720   0.112   3.769
 8202SOL     OW25504   1.341   4.767   3.176
 8202SOL    HW125505   1.436   4.751   3.202
 8202SOL    HW225506   1.293   4.813   3.250
 8203SOL     OW25507   5.068   3.962   1.623
 8203SOL    HW125508   5.130   3.919   1.689
 8203SOL    HW225509   5.042   3.895   1.553
 8204SOL     OW25510   3.315   6.762   2.516
 8204SOL    HW125511   3.243   6.754   2.584
 8204SOL    HW225512   3.353   6.854   2.517
 8205SOL     OW25513   5.667   5.354   1.845
 8205SOL    HW125514   5.693   5.376   1.751
 8205SOL    HW225515   5.735   5.292   1.884
 8206SOL     OW25516   4.164   2.276   5.419
 8206SOL    HW125517   4.247   2.254   5.470
 8206SOL    HW225518   4.109   2.342   5.470
 8207SOL     OW25519   3.314   4.953   5.996
 8207SOL    HW125520   3.357   4.888   6.059
 8207SOL    HW225521   3.216   4.934   5.990
 8208SOL     OW25522   1.920   4.913   1.558
 8208SOL    HW125523   1.971   4.938   1.475
 8208SOL    HW225524   1.902   4.996   1.612
 8209SOL     OW25525   1.378   0.872   5.332
 8209SOL    HW125526   1.475   0.852   5.339
 8209SOL    HW225527   1.328   0.789   5.306
 8210SOL     OW25528   2.054   1.267   0.384
 8210SOL    HW125529   2.149   1.297   0.388
 8210SOL    HW225530   2.050   1.170   0.359
 8211SOL     OW25531   3.053   3.372   4.530
 8211SOL    HW125532   3.017   3.463   4.550
 8211SOL    HW225533   3.034   3.311   4.606
 8212SOL     OW25534   2.207   6.980   1.365
 8212SOL    HW125535   2.273   0.034   1.350
 8212SOL    HW225536   2.160   6.995   1.452
 8213SOL     OW25537   4.359   4.409   1.692
 8213SOL    HW125538   4.332   4.485   1.752
 8213SOL    HW225539   4.411   4.342   1.745
 8214SOL     OW25540   3.119   5.728   4.111
 8214SOL    HW125541   3.059   5.723   4.191
 8214SOL    HW225542   3.149   5.822   4.098
 8215SOL     OW25543   3.971   6.258   6.996
 8215SOL    HW125544   4.041   6.231   0.044
 8215SOL    HW225545   4.012   6.265   6.905
 8216SOL     OW25546   4.539   6.027   1.967
 8216SOL    HW125547   4.637   6.046   1.970
 8216SOL    HW225548   4.516   5.981   1.881
 8217SOL     OW25549   2.754   5.482   3.613
 8217SOL    HW125550   2.732   5.490   3.711
 8217SOL    HW225551   2.696   5.411   3.572
 8218SOL     OW25552   1.687   0.292   4.841
 8218SOL    HW125553   1.709   0.388   4.825
 8218SOL    HW225554   1.764   0.235   4.815
 8219SOL     OW25555   3.894   3.981   0.426
 8219SOL    HW125556   3.912   3.883   0.416
 8219SOL    HW225557   3.853   4.016   0.342
 8220SOL     OW25558   3.753   3.660   4.685
 8220SOL    HW125559   3.787   3.638   4.776
 8220SOL    HW225560   3.674   3.722   4.692
 8221SOL     OW25561   6.529   3.277   3.557
 8221SOL    HW125562   6.617   3.229   3.551
 8221SOL    HW225563   6.456   3.210   3.570
 8222SOL     OW25564   6.334   2.835   1.464
 8222SOL    HW125565   6.402   2.840   1.537
 8222SOL    HW225566   6.379   2.839   1.375
 8223SOL     OW25567   0.318   5.905   5.175
 8223SOL    HW125568   0.313   5.840   5.100
 8223SOL    HW225569   0.374   5.984   5.148
 8224SOL     OW25570   5.323   2.331   0.151
 8224SOL    HW125571   5.378   2.248   0.159
 8224SOL    HW225572   5.245   2.326   0.214
 8225SOL     OW25573   4.922   1.783   0.441
 8225SOL    HW125574   4.950   1.764   0.535
 8225SOL    HW225575   4.826   1.812   0.439
 8226SOL     OW25576   3.590   0.428   0.531
 8226SOL    HW125577   3.678   0.389   0.560
 8226SOL    HW225578   3.597   0.459   0.436
 8227SOL     OW25579   5.036   2.234   2.814
 8227SOL    HW125580   4.984   2.320   2.817
 8227SOL    HW225581   5.015   2.179   2.895
 8228SOL     OW25582   1.251   1.084   5.423
 8228SOL    HW125583   1.299   1.001   5.393
 8228SOL    HW225584   1.181   1.059   5.489
 8229SOL     OW25585   4.132   4.743   0.938
 8229SOL    HW125586   4.222   4.715   0.905
 8229SOL    HW225587   4.061   4.711   0.875
 8230SOL     OW25588   4.232   1.170   5.872
 8230SOL    HW125589   4.275   1.254   5.839
 8230SOL    HW225590   4.237   1.100   5.801
 8231SOL     OW25591   2.721   1.361   2.654
 8231SOL    HW125592   2.769   1.275   2.637
 8231SOL    HW225593   2.786   1.429   2.688
 8232SOL     OW25594   4.113   6.544   2.377
 8232SOL    HW125595   4.119   6.450   2.411
 8232SOL    HW225596   4.165   6.552   2.292
 8233SOL     OW25597   0.718   0.674   5.178
 8233SOL    HW125598   0.619   0.677   5.189
 8233SOL    HW225599   0.741   0.644   5.086
 8234SOL     OW25600   2.278   2.171   0.223
 8234SOL    HW125601   2.280   2.253   0.166
 8234SOL    HW225602   2.315   2.094   0.171
 8235SOL     OW25603   6.893   5.885   0.562
 8235SOL    HW125604   6.820   5.871   0.629
 8235SOL    HW225605   6.874   5.831   0.480
 8236SOL     OW25606   0.821   6.410   6.729
 8236SOL    HW125607   0.822   6.320   6.685
 8236SOL    HW225608   0.890   6.413   6.801
 8237SOL     OW25609   4.615   5.374   6.464
 8237SOL    HW125610   4.577   5.465   6.447
 8237SOL    HW225611   4.695   5.382   6.523
 8238SOL     OW25612   1.719   4.567   0.795
 8238SOL    HW125613   1.677   4.546   0.884
 8238SOL    HW225614   1.789   4.498   0.775
 8239SOL     OW25615   0.431   2.011   5.103
 8239SOL    HW125616   0.401   1.974   5.191
 8239SOL    HW225617   0.371   1.977   5.031
 8240SOL     OW25618   3.488   3.787   4.849
 8240SOL    HW125619   3.478   3.832   4.938
 8240SOL    HW225620   3.516   3.692   4.863
 8241SOL     OW25621   2.158   4.125   6.759
 8241SOL    HW125622   2.125   4.149   6.668
 8241SOL    HW225623   2.233   4.059   6.750
 8242SOL     OW25624   0.458   3.305   4.289
 8242SOL    HW125625   0.439   3.213   4.255
 8242SOL    HW225626   0.372   3.352   4.309
 8243SOL     OW25627   0.869   4.970   4.746
 8243SOL    HW125628   0.952   5.022   4.728
 8243SOL    HW225629   0.860   4.956   4.845
 8244SOL     OW25630   1.605   0.332   3.607
 8244SOL    HW125631   1.548   0.388   3.547
 8244SOL    HW225632   1.690   0.308   3.559
 8245SOL     OW25633   5.626   1.464   3.867
 8245SOL    HW125634   5.682   1.484   3.787
 8245SOL    HW225635   5.685   1.441   3.944
 8246SOL     OW25636   1.373   4.522   6.703
 8246SOL    HW125637   1.377   4.613   6.663
 8246SOL    HW225638   1.455   4.470   6.676
 8247SOL     OW25639   3.301   5.525   3.181
 8247SOL    HW125640   3.335   5.433   3.198
 8247SOL    HW225641   3.228   5.522   3.113
 8248SOL     OW25642   0.978   5.382   3.041
 8248SOL    HW125643   0.977   5.410   3.137
 8248SOL    HW225644   0.933   5.453   2.986
 8249SOL     OW25645   2.645   1.909   6.007
 8249SOL    HW125646   2.700   1.943   6.082
 8249SOL    HW225647   2.660   1.810   5.996
 8250SOL     OW25648   1.953   1.560   6.315
 8250SOL    HW125649   1.917   1.493   6.250
 8250SOL    HW225650   1.884   1.631   6.331
 8251SOL     OW25651   6.971   2.230   4.545
 8251SOL    HW125652   6.920   2.174   4.610
 8251SOL    HW225653   6.916   2.310   4.520
 8252SOL     OW25654   1.793   2.256   6.785
 8252SOL    HW125655   1.769   2.317   6.710
 8252SOL    HW225656   1.754   2.291   6.870
 8253SOL     OW25657   3.991   5.865   0.518
 8253SOL    HW125658   3.922   5.938   0.515
 8253SOL    HW225659   4.067   5.889   0.457
 8254SOL     OW25660   5.431   5.312   6.938
 8254SOL    HW125661   5.348   5.260   6.916
 8254SOL    HW225662   5.482   5.265   7.010
 8255SOL     OW25663   0.585   6.111   6.293
 8255SOL    HW125664   0.512   6.079   6.233
 8255SOL    HW225665   0.674   6.084   6.255
 8256SOL     OW25666   1.972   5.801   3.229
 8256SOL    HW125667   1.972   5.782   3.328
 8256SOL    HW225668   1.883   5.776   3.191
 8257SOL     OW25669   4.791   3.925   3.482
 8257SOL    HW125670   4.833   3.839   3.512
 8257SOL    HW225671   4.692   3.917   3.487
 8258SOL     OW25672   6.790   3.246   1.940
 8258SOL    HW125673   6.724   3.320   1.956
 8258SOL    HW225674   6.839   3.263   1.855
 8259SOL     OW25675   4.417   1.410   3.582
 8259SOL    HW125676   4.391   1.468   3.505
 8259SOL    HW225677   4.422   1.465   3.665
 8260SOL     OW25678   3.571   0.749   1.190
 8260SOL    HW125679   3.643   0.679   1.186
 8260SOL    HW225680   3.609   0.837   1.160
 8261SOL     OW25681   5.439   6.975   2.999
 8261SOL    HW125682   5.402   6.984   2.906
 8261SOL    HW225683   5.394   0.022   3.059
 8262SOL     OW25684   6.623   3.926   1.921
 8262SOL    HW125685   6.678   3.936   2.004
 8262SOL    HW225686   6.527   3.912   1.946
 8263SOL     OW25687   0.421   2.269   6.125
 8263SOL    HW125688   0.440   2.355   6.173
 8263SOL    HW225689   0.502   2.211   6.127
 8264SOL     OW25690   2.307   6.398   2.678
 8264SOL    HW125691   2.279   6.416   2.773
 8264SOL    HW225692   2.316   6.486   2.630
 8265SOL     OW25693   5.628   0.898   0.398
 8265SOL    HW125694   5.580   0.826   0.347
 8265SOL    HW225695   5.634   0.980   0.341
 8266SOL     OW25696   2.458   0.420   3.388
 8266SOL    HW125697   2.436   0.454   3.296
 8266SOL    HW225698   2.469   0.498   3.450
 8267SOL     OW25699   1.499   3.840   3.187
 8267SOL    HW125700   1.563   3.867   3.115
 8267SOL    HW225701   1.452   3.756   3.158
 8268SOL     OW25702   2.965   4.720   6.514
 8268SOL    HW125703   2.944   4.816   6.491
 8268SOL    HW225704   2.885   4.664   6.499
 8269SOL     OW25705   4.792   2.180   3.433
 8269SOL    HW125706   4.813   2.110   3.365
 8269SOL    HW225707   4.774   2.267   3.386
 8270SOL     OW25708   3.076   0.491   6.283
 8270SOL    HW125709   3.129   0.532   6.357
 8270SOL    HW225710   3.036   0.563   6.226
 8271SOL     OW25711   4.183   6.532   5.572
 8271SOL    HW125712   4.260   6.469   5.580
 8271SOL    HW225713   4.202   6.614   5.625
 8272SOL     OW25714   0.803   6.832   1.543
 8272SOL    HW125715   0.852   6.874   1.620
 8272SOL    HW225716   0.807   6.894   1.464
 8273SOL     OW25717   2.873   6.960   6.996
 8273SOL    HW125718   2.835   6.885   6.943
 8273SOL    HW225719   2.966   6.980   6.965
 8274SOL     OW25720   4.860   6.478   6.455
 8274SOL    HW125721   4.882   6.576   6.450
 8274SOL    HW225722   4.910   6.430   6.382
 8275SOL     OW25723   5.872   0.965   4.251
 8275SOL    HW125724   5.855   1.032   4.323
 8275SOL    HW225725   5.851   1.007   4.162
 8276SOL     OW25726   6.815   2.668   6.272
 8276SOL    HW125727   6.727   2.693   6.232
 8276SOL    HW225728   6.844   2.580   6.234
 8277SOL     OW25729   1.278   5.752   6.284
 8277SOL    HW125730   1.209   5.686   6.315
 8277SOL    HW225731   1.347   5.705   6.229
 8278SOL     OW25732   3.712   1.199   0.603
 8278SOL    HW125733   3.620   1.216   0.637
 8278SOL    HW225734   3.773   1.272   0.632
 8279SOL     OW25735   4.964   5.406   5.868
 8279SOL    HW125736   5.013   5.319   5.879
 8279SOL    HW225737   4.883   5.391   5.812
 8280SOL     OW25738   5.675   3.024   0.033
 8280SOL    HW125739   5.593   2.989   0.080
 8280SOL    HW225740   5.750   3.030   0.098
 8281SOL     OW25741   2.305   4.805   6.653
 8281SOL    HW125742   2.399   4.823   6.682
 8281SOL    HW225743   2.246   4.801   6.733
 8282SOL     OW25744   3.190   2.499   0.704
 8282SOL    HW125745   3.177   2.462   0.612
 8282SOL    HW225746   3.229   2.591   0.697
 8283SOL     OW25747   0.316   5.104   2.861
 8283SOL    HW125748   0.304   5.170   2.787
 8283SOL    HW225749   0.413   5.097   2.884
 8284SOL     OW25750   2.557   2.020   2.466
 8284SOL    HW125751   2.476   2.039   2.522
 8284SOL    HW225752   2.540   2.052   2.372
 8285SOL     OW25753   3.464   4.102   6.329
 8285SOL    HW125754   3.383   4.160   6.337
 8285SOL    HW225755   3.531   4.126   6.399
 8286SOL     OW25756   5.063   1.035   5.285
 8286SOL    HW125757   5.144   1.019   5.341
 8286SOL    HW225758   5.078   0.998   5.193
 8287SOL     OW25759   1.944   0.449   3.084
 8287SOL    HW125760   1.954   0.449   3.184
 8287SOL    HW225761   2.007   0.515   3.044
 8288SOL     OW25762   1.441   1.420   2.853
 8288SOL    HW125763   1.452   1.511   2.812
 8288SOL    HW225764   1.389   1.427   2.938
 8289SOL     OW25765   6.117   1.102   5.455
 8289SOL    HW125766   6.113   1.192   5.500
 8289SOL    HW225767   6.205   1.059   5.473
 8290SOL     OW25768   4.124   2.211   1.856
 8290SOL    HW125769   4.184   2.287   1.881
 8290SOL    HW225770   4.088   2.226   1.764
 8291SOL     OW25771   5.559   5.592   6.125
 8291SOL    HW125772   5.609   5.675   6.149
 8291SOL    HW225773   5.611   5.542   6.055
 8292SOL     OW25774   0.973   3.580   4.441
 8292SOL    HW125775   0.944   3.499   4.391
 8292SOL    HW225776   0.893   3.628   4.477
 8293SOL     OW25777   2.988   5.483   3.489
 8293SOL    HW125778   3.035   5.569   3.466
 8293SOL    HW225779   2.898   5.503   3.526
 8294SOL     OW25780   5.807   3.757   5.854
 8294SOL    HW125781   5.769   3.717   5.771
 8294SOL    HW225782   5.907   3.761   5.846
 8295SOL     OW25783   4.505   4.573   2.110
 8295SOL    HW125784   4.407   4.569   2.092
 8295SOL    HW225785   4.542   4.480   2.116
 8296SOL     OW25786   3.891   6.627   1.305
 8296SOL    HW125787   3.876   6.725   1.308
 8296SOL    HW225788   3.817   6.580   1.353
 8297SOL     OW25789   6.108   4.403   2.712
 8297SOL    HW125790   6.022   4.436   2.674
 8297SOL    HW225791   6.130   4.455   2.795
 8298SOL     OW25792   6.057   0.286   6.165
 8298SOL    HW125793   6.077   0.383   6.152
 8298SOL    HW225794   6.036   0.269   6.261
 8299SOL     OW25795   0.975   3.437   1.060
 8299SOL    HW125796   1.009   3.343   1.058
 8299SOL    HW225797   0.941   3.463   0.970
 8300SOL     OW25798   5.923   5.258   3.097
 8300SOL    HW125799   6.001   5.226   3.151
 8300SOL    HW225800   5.859   5.306   3.156
 8301SOL     OW25801   4.330   6.335   0.395
 8301SOL    HW125802   4.242   6.365   0.358
 8301SOL    HW225803   4.339   6.368   0.489
 8302SOL     OW25804   3.929   6.626   5.365
 8302SOL    HW125805   3.945   6.696   5.295
 8302SOL    HW225806   3.864   6.660   5.433
 8303SOL     OW25807   6.982   6.094   2.983
 8303SOL    HW125808   0.026   6.047   3.045
 8303SOL    HW225809   6.977   6.191   3.008
 8304SOL     OW25810   5.653   3.798   3.438
 8304SOL    HW125811   5.695   3.799   3.347
 8304SOL    HW225812   5.618   3.706   3.457
 8305SOL     OW25813   5.296   5.617   4.725
 8305SOL    HW125814   5.254   5.528   4.704
 8305SOL    HW225815   5.380   5.627   4.671
 8306SOL     OW25816   6.696   0.679   2.264
 8306SOL    HW125817   6.637   0.667   2.344
 8306SOL    HW225818   6.645   0.655   2.181
 8307SOL     OW25819   2.242   4.754   2.960
 8307SOL    HW125820   2.262   4.678   2.898
 8307SOL    HW225821   2.328   4.793   2.993
 8308SOL     OW25822   1.382   5.109   0.024
 8308SOL    HW125823   1.359   5.016   7.014
 8308SOL    HW225824   1.300   5.165   0.028
 8309SOL     OW25825   6.022   4.346   4.183
 8309SOL    HW125826   5.969   4.419   4.140
 8309SOL    HW225827   6.047   4.374   4.276
 8310SOL     OW25828   0.982   6.667   6.981
 8310SOL    HW125829   0.996   6.568   6.977
 8310SOL    HW225830   0.889   6.689   6.952
 8311SOL     OW25831   5.274   0.327   3.290
 8311SOL    HW125832   5.347   0.292   3.349
 8311SOL    HW225833   5.302   0.416   3.253
 8312SOL     OW25834   5.274   1.722   6.622
 8312SOL    HW125835   5.186   1.763   6.599
 8312SOL    HW225836   5.347   1.786   6.602
 8313SOL     OW25837   4.606   1.847   4.760
 8313SOL    HW125838   4.687   1.810   4.715
 8313SOL    HW225839   4.533   1.779   4.759
 8314SOL     OW25840   4.809   6.019   5.591
 8314SOL    HW125841   4.731   5.987   5.537
 8314SOL    HW225842   4.893   5.977   5.556
 8315SOL     OW25843   4.013   3.705   4.952
 8315SOL    HW125844   3.916   3.683   4.945
 8315SOL    HW225845   4.068   3.625   4.928
 8316SOL     OW25846   1.624   2.385   6.567
 8316SOL    HW125847   1.633   2.467   6.623
 8316SOL    HW225848   1.536   2.388   6.519
 8317SOL     OW25849   2.065   1.460   3.442
 8317SOL    HW125850   2.125   1.380   3.447
 8317SOL    HW225851   1.997   1.455   3.515
 8318SOL     OW25852   4.158   0.037   6.446
 8318SOL    HW125853   4.204   0.124   6.456
 8318SOL    HW225854   4.070   0.050   6.400
 8319SOL     OW25855   1.560   6.737   6.496
 8319SOL    HW125856   1.529   6.736   6.401
 8319SOL    HW225857   1.482   6.753   6.557
 8320SOL     OW25858   3.033   3.886   4.629
 8320SOL    HW125859   3.077   3.969   4.596
 8320SOL    HW225860   3.002   3.901   4.723
 8321SOL     OW25861   6.391   6.578   0.226
 8321SOL    HW125862   6.371   6.561   0.323
 8321SOL    HW225863   6.333   6.652   0.193
 8322SOL     OW25864   0.264   0.885   7.001
 8322SOL    HW125865   0.341   0.940   0.015
 8322SOL    HW225866   0.181   0.912   0.032
 8323SOL     OW25867   4.569   4.934   0.868
 8323SOL    HW125868   4.539   4.902   0.779
 8323SOL    HW225869   4.492   4.974   0.917
 8324SOL     OW25870   5.269   6.877   6.596
 8324SOL    HW125871   5.257   6.964   6.548
 8324SOL    HW225872   5.312   6.894   6.685
 8325SOL     OW25873   1.117   5.724   5.746
 8325SOL    HW125874   1.158   5.696   5.833
 8325SOL    HW225875   1.178   5.698   5.671
 8326SOL     OW25876   1.623   4.058   1.843
 8326SOL    HW125877   1.596   4.010   1.927
 8326SOL    HW225878   1.591   4.153   1.847
 8327SOL     OW25879   1.147   6.826   4.564
 8327SOL    HW125880   1.197   6.745   4.534
 8327SOL    HW225881   1.209   6.904   4.571
 8328SOL     OW25882   1.847   0.288   6.721
 8328SOL    HW125883   1.929   0.240   6.691
 8328SOL    HW225884   1.863   0.330   6.810
 8329SOL     OW25885   1.461   2.852   5.165
 8329SOL    HW125886   1.452   2.861   5.264
 8329SOL    HW225887   1.489   2.759   5.142
 8330SOL     OW25888   3.006   1.452   6.602
 8330SOL    HW125889   3.057   1.515   6.544
 8330SOL    HW225890   3.068   1.412   6.670
 8331SOL     OW25891   1.872   2.356   0.047
 8331SOL    HW125892   1.809   2.401   0.112
 8331SOL    HW225893   1.922   2.284   0.094
 8332SOL     OW25894   6.276   5.409   1.982
 8332SOL    HW125895   6.320   5.469   1.915
 8332SOL    HW225896   6.178   5.426   1.983
 8333SOL     OW25897   2.481   5.116   1.306
 8333SOL    HW125898   2.467   5.157   1.216
 8333SOL    HW225899   2.426   5.033   1.313
 8334SOL     OW25900   3.939   2.051   6.187
 8334SOL    HW125901   3.877   1.973   6.191
 8334SOL    HW225902   4.031   2.019   6.162
 8335SOL     OW25903   5.081   3.666   6.066
 8335SOL    HW125904   5.006   3.602   6.083
 8335SOL    HW225905   5.081   3.737   6.137
 8336SOL     OW25906   1.125   3.516   3.315
 8336SOL    HW125907   1.136   3.493   3.411
 8336SOL    HW225908   1.033   3.554   3.300
 8337SOL     OW25909   0.387   1.417   4.168
 8337SOL    HW125910   0.463   1.353   4.157
 8337SOL    HW225911   0.367   1.429   4.265
 8338SOL     OW25912   4.476   5.412   2.704
 8338SOL    HW125913   4.570   5.437   2.684
 8338SOL    HW225914   4.426   5.492   2.738
 8339SOL     OW25915   6.159   0.175   0.745
 8339SOL    HW125916   6.156   0.097   0.807
 8339SOL    HW225917   6.223   0.157   0.671
 8340SOL     OW25918   5.877   2.657   0.310
 8340SOL    HW125919   5.777   2.645   0.304
 8340SOL    HW225920   5.922   2.584   0.259
 8341SOL     OW25921   3.401   1.593   0.736
 8341SOL    HW125922   3.399   1.681   0.783
 8341SOL    HW225923   3.426   1.607   0.640
 8342SOL     OW25924   4.529   0.172   0.190
 8342SOL    HW125925   4.443   0.188   0.142
 8342SOL    HW225926   4.601   0.229   0.151
 8343SOL     OW25927   5.994   3.910   3.762
 8343SOL    HW125928   6.064   3.865   3.818
 8343SOL    HW225929   5.920   3.942   3.821
 8344SOL     OW25930   1.348   4.894   5.241
 8344SOL    HW125931   1.386   4.878   5.150
 8344SOL    HW225932   1.422   4.895   5.308
 8345SOL     OW25933   4.418   0.881   2.729
 8345SOL    HW125934   4.447   0.806   2.788
 8345SOL    HW225935   4.319   0.878   2.717
 8346SOL     OW25936   5.151   3.129   5.490
 8346SOL    HW125937   5.202   3.150   5.574
 8346SOL    HW225938   5.102   3.211   5.460
 8347SOL     OW25939   2.577   0.358   6.407
 8347SOL    HW125940   2.622   0.270   6.395
 8347SOL    HW225941   2.562   0.375   6.504
 8348SOL     OW25942   3.525   7.015   1.688
 8348SOL    HW125943   3.505   0.086   1.648
 8348SOL    HW225944   3.571   6.958   1.620
 8349SOL     OW25945   0.808   6.353   1.786
 8349SOL    HW125946   0.834   6.321   1.695
 8349SOL    HW225947   0.771   6.445   1.779
 8350SOL     OW25948   2.430   0.001   7.005
 8350SOL    HW125949   2.440   6.969   0.072
 8350SOL    HW225950   2.507   0.064   6.994
 8351SOL     OW25951   6.728   3.854   3.410
 8351SOL    HW125952   6.631   3.844   3.430
 8351SOL    HW225953   6.746   3.947   3.377
 8352SOL     OW25954   2.435   5.489   1.606
 8352SOL    HW125955   2.372   5.560   1.637
 8352SOL    HW225956   2.513   5.530   1.561
 8353SOL     OW25957   1.768   3.895   2.304
 8353SOL    HW125958   1.780   3.799   2.279
 8353SOL    HW225959   1.836   3.919   2.374
 8354SOL     OW25960   3.671   0.415   3.930
 8354SOL    HW125961   3.697   0.442   4.023
 8354SOL    HW225962   3.572   0.427   3.919
 8355SOL     OW25963   2.074   5.816   5.948
 8355SOL    HW125964   2.142   5.743   5.952
 8355SOL    HW225965   2.114   5.897   5.905
 8356SOL     OW25966   1.868   5.699   1.237
 8356SOL    HW125967   1.930   5.628   1.273
 8356SOL    HW225968   1.776   5.683   1.272
 8357SOL     OW25969   4.497   6.008   5.875
 8357SOL    HW125970   4.408   5.977   5.842
 8357SOL    HW225971   4.563   5.932   5.870
 8358SOL     OW25972   1.102   2.247   4.980
 8358SOL    HW125973   1.157   2.219   4.902
 8358SOL    HW225974   1.137   2.333   5.017
 8359SOL     OW25975   3.104   1.975   5.296
 8359SOL    HW125976   3.089   2.045   5.227
 8359SOL    HW225977   3.155   1.899   5.256
 8360SOL     OW25978   5.051   0.524   1.161
 8360SOL    HW125979   5.142   0.566   1.161
 8360SOL    HW225980   4.995   0.566   1.089
 8361SOL     OW25981   3.330   0.127   0.288
 8361SOL    HW125982   3.425   0.102   0.267
 8361SOL    HW225983   3.329   0.218   0.329
 8362SOL     OW25984   6.932   3.965   1.986
 8362SOL    HW125985   0.003   4.006   1.968
 8362SOL    HW225986   6.933   3.869   1.959
 8363SOL     OW25987   2.407   2.752   6.844
 8363SOL    HW125988   2.329   2.766   6.906
 8363SOL    HW225989   2.456   2.670   6.872
 8364SOL     OW25990   0.128   2.654   4.492
 8364SOL    HW125991   0.184   2.617   4.566
 8364SOL    HW225992   0.175   2.637   4.405
 8365SOL     OW25993   2.233   2.825   2.954
 8365SOL    HW125994   2.153   2.774   2.987
 8365SOL    HW225995   2.312   2.804   3.011
 8366SOL     OW25996   5.252   5.977   1.834
 8366SOL    HW125997   5.349   5.951   1.839
 8366SOL    HW225998   5.202   5.908   1.782
 8367SOL     OW25999   4.002   4.921   4.511
 8367SOL    HW126000   4.080   4.900   4.570
 8367SOL    HW226001   4.013   4.876   4.423
 8368SOL     OW26002   6.997   6.287   0.433
 8368SOL    HW126003   6.907   6.278   0.390
 8368SOL    HW226004   0.015   6.196   0.454
 8369SOL     OW26005   1.777   0.819   0.432
 8369SOL    HW126006   1.691   0.870   0.441
 8369SOL    HW226007   1.776   0.767   0.346
 8370SOL     OW26008   2.617   2.902   0.400
 8370SOL    HW126009   2.660   2.818   0.368
 8370SOL    HW226010   2.622   2.972   0.329
 8371SOL     OW26011   2.203   4.569   6.067
 8371SOL    HW126012   2.254   4.567   6.153
 8371SOL    HW226013   2.106   4.574   6.086
 8372SOL     OW26014   2.044   5.714   2.487
 8372SOL    HW126015   1.991   5.629   2.487
 8372SOL    HW226016   2.069   5.737   2.581
 8373SOL     OW26017   0.195   0.947   4.307
 8373SOL    HW126018   0.206   1.035   4.353
 8373SOL    HW226019   0.259   0.939   4.231
 8374SOL     OW26020   1.663   0.581   4.784
 8374SOL    HW126021   1.574   0.627   4.783
 8374SOL    HW226022   1.704   0.591   4.875
 8375SOL     OW26023   3.997   1.203   4.515
 8375SOL    HW126024   4.036   1.265   4.583
 8375SOL    HW226025   3.928   1.145   4.559
 8376SOL     OW26026   1.902   0.733   3.230
 8376SOL    HW126027   1.952   0.786   3.299
 8376SOL    HW226028   1.962   0.664   3.190
 8377SOL     OW26029   4.927   5.914   6.780
 8377SOL    HW126030   4.955   5.959   6.864
 8377SOL    HW226031   4.841   5.866   6.795
 8378SOL     OW26032   6.321   5.846   3.925
 8378SOL    HW126033   6.280   5.796   4.001
 8378SOL    HW226034   6.404   5.893   3.956
 8379SOL     OW26035   5.860   1.077   1.775
 8379SOL    HW126036   5.914   1.041   1.851
 8379SOL    HW226037   5.777   1.118   1.811
 8380SOL     OW26038   6.640   5.553   0.493
 8380SOL    HW126039   6.695   5.508   0.563
 8380SOL    HW226040   6.593   5.484   0.438
 8381SOL     OW26041   6.846   1.328   2.449
 8381SOL    HW126042   6.927   1.270   2.441
 8381SOL    HW226043   6.822   1.366   2.360
 8382SOL     OW26044   2.405   0.223   0.639
 8382SOL    HW126045   2.416   0.278   0.556
 8382SOL    HW226046   2.407   0.126   0.615
 8383SOL     OW26047   2.531   6.061   5.687
 8383SOL    HW126048   2.618   6.081   5.644
 8383SOL    HW226049   2.493   6.144   5.727
 8384SOL     OW26050   0.733   2.736   0.490
 8384SOL    HW126051   0.636   2.717   0.476
 8384SOL    HW226052   0.785   2.704   0.411
 8385SOL     OW26053   4.000   3.947   0.850
 8385SOL    HW126054   4.040   3.869   0.803
 8385SOL    HW226055   3.994   4.024   0.786
 8386SOL     OW26056   1.416   5.601   1.872
 8386SOL    HW126057   1.448   5.521   1.821
 8386SOL    HW226058   1.495   5.656   1.899
 8387SOL     OW26059   1.653   1.113   2.310
 8387SOL    HW126060   1.568   1.060   2.310
 8387SOL    HW226061   1.631   1.211   2.308
 8388SOL     OW26062   3.313   6.921   0.924
 8388SOL    HW126063   3.291   7.008   0.879
 8388SOL    HW226064   3.277   6.845   0.870
 8389SOL     OW26065   1.060   2.506   4.358
 8389SOL    HW126066   0.969   2.466   4.348
 8389SOL    HW226067   1.116   2.448   4.416
 8390SOL     OW26068   2.257   0.680   5.480
 8390SOL    HW126069   2.214   0.762   5.443
 8390SOL    HW226070   2.282   0.696   5.576
 8391SOL     OW26071   4.935   5.387   1.522
 8391SOL    HW126072   4.950   5.301   1.473
 8391SOL    HW226073   4.947   5.373   1.620
 8392SOL     OW26074   5.885   6.589   5.507
 8392SOL    HW126075   5.933   6.659   5.454
 8392SOL    HW226076   5.825   6.634   5.574
 8393SOL     OW26077   0.367   6.280   3.101
 8393SOL    HW126078   0.466   6.283   3.111
 8393SOL    HW226079   0.325   6.333   3.174
 8394SOL     OW26080   0.613   1.850   3.088
 8394SOL    HW126081   0.524   1.868   3.047
 8394SOL    HW226082   0.684   1.853   3.018
 8395SOL     OW26083   6.949   6.326   5.041
 8395SOL    HW126084   0.023   6.348   5.012
 8395SOL    HW226085   6.952   6.285   5.132
 8396SOL     OW26086   4.787   3.902   2.500
 8396SOL    HW126087   4.805   3.814   2.458
 8396SOL    HW226088   4.795   3.974   2.432
 8397SOL     OW26089   2.090   6.000   3.074
 8397SOL    HW126090   2.029   5.935   3.118
 8397SOL    HW226091   2.055   6.022   2.983
 8398SOL     OW26092   4.454   1.356   0.403
 8398SOL    HW126093   4.364   1.368   0.446
 8398SOL    HW226094   4.451   1.390   0.310
 8399SOL     OW26095   5.380   6.248   0.066
 8399SOL    HW126096   5.327   6.329   0.042
 8399SOL    HW226097   5.318   6.169   0.076
 8400SOL     OW26098   0.214   6.993   2.636
 8400SOL    HW126099   0.181   0.038   2.566
 8400SOL    HW226100   0.281   0.021   2.694
 8401SOL     OW26101   3.673   3.843   6.204
 8401SOL    HW126102   3.763   3.883   6.220
 8401SOL    HW226103   3.680   3.773   6.132
 8402SOL     OW26104   4.323   2.082   6.404
 8402SOL    HW126105   4.287   2.008   6.461
 8402SOL    HW226106   4.298   2.170   6.444
 8403SOL     OW26107   1.388   1.369   4.471
 8403SOL    HW126108   1.487   1.357   4.470
 8403SOL    HW226109   1.365   1.462   4.440
 8404SOL     OW26110   4.840   5.638   5.978
 8404SOL    HW126111   4.808   5.624   6.072
 8404SOL    HW226112   4.897   5.561   5.950
 8405SOL     OW26113   0.156   2.222   6.199
 8405SOL    HW126114   0.147   2.269   6.287
 8405SOL    HW226115   0.253   2.211   6.178
 8406SOL     OW26116   4.919   2.631   1.520
 8406SOL    HW126117   4.922   2.720   1.564
 8406SOL    HW226118   4.917   2.559   1.589
 8407SOL     OW26119   5.129   4.012   3.766
 8407SOL    HW126120   5.067   4.059   3.704
 8407SOL    HW226121   5.223   4.044   3.751
 8408SOL     OW26122   5.046   1.960   3.781
 8408SOL    HW126123   5.029   1.932   3.875
 8408SOL    HW226124   4.959   1.969   3.733
 8409SOL     OW26125   1.813   1.530   4.201
 8409SOL    HW126126   1.744   1.459   4.189
 8409SOL    HW226127   1.841   1.565   4.111
 8410SOL     OW26128   4.152   6.498   1.409
 8410SOL    HW126129   4.068   6.517   1.358
 8410SOL    HW226130   4.130   6.443   1.490
 8411SOL     OW26131   2.045   4.367   4.344
 8411SOL    HW126132   2.071   4.382   4.439
 8411SOL    HW226133   1.984   4.441   4.314
 8412SOL     OW26134   4.581   2.168   2.108
 8412SOL    HW126135   4.670   2.212   2.092
 8412SOL    HW226136   4.594   2.080   2.154
 8413SOL     OW26137   3.415   5.105   0.458
 8413SOL    HW126138   3.349   5.180   0.463
 8413SOL    HW226139   3.409   5.063   0.367
 8414SOL     OW26140   4.263   6.294   3.053
 8414SOL    HW126141   4.292   6.376   3.101
 8414SOL    HW226142   4.164   6.284   3.061
 8415SOL     OW26143   6.455   3.926   3.160
 8415SOL    HW126144   6.432   3.942   3.064
 8415SOL    HW226145   6.504   3.839   3.169
 8416SOL     OW26146   5.126   3.843   2.804
 8416SOL    HW126147   5.213   3.801   2.777
 8416SOL    HW226148   5.144   3.923   2.861
 8417SOL     OW26149   2.112   6.203   6.298
 8417SOL    HW126150   2.159   6.187   6.384
 8417SOL    HW226151   2.063   6.120   6.271
 8418SOL     OW26152   6.557   5.826   2.550
 8418SOL    HW126153   6.579   5.853   2.643
 8418SOL    HW226154   6.458   5.814   2.541
 8419SOL     OW26155   4.462   0.593   2.307
 8419SOL    HW126156   4.475   0.574   2.404
 8419SOL    HW226157   4.494   0.515   2.253
 8420SOL     OW26158   3.732   0.611   6.309
 8420SOL    HW126159   3.825   0.585   6.285
 8420SOL    HW226160   3.689   0.659   6.232
 8421SOL     OW26161   1.828   6.568   2.291
 8421SOL    HW126162   1.804   6.487   2.236
 8421SOL    HW226163   1.901   6.543   2.355
 8422SOL     OW26164   4.521   6.865   0.296
 8422SOL    HW126165   4.582   6.830   0.368
 8422SOL    HW226166   4.557   6.951   0.262
 8423SOL     OW26167   3.379   4.759   0.408
 8423SOL    HW126168   3.373   4.843   0.353
 8423SOL    HW226169   3.399   4.682   0.348
 8424SOL     OW26170   3.472   1.797   2.886
 8424SOL    HW126171   3.435   1.879   2.928
 8424SOL    HW226172   3.410   1.720   2.902
 8425SOL     OW26173   5.865   4.937   1.525
 8425SOL    HW126174   5.803   4.867   1.559
 8425SOL    HW226175   5.927   4.965   1.599
 8426SOL     OW26176   3.882   3.272   3.709
 8426SOL    HW126177   3.798   3.324   3.719
 8426SOL    HW226178   3.864   3.187   3.660
 8427SOL     OW26179   2.767   4.258   6.385
 8427SOL    HW126180   2.761   4.265   6.285
 8427SOL    HW226181   2.787   4.163   6.410
 8428SOL     OW26182   0.577   4.199   1.998
 8428SOL    HW126183   0.592   4.163   2.090
 8428SOL    HW226184   0.610   4.132   1.931
 8429SOL     OW26185   1.991   5.618   3.846
 8429SOL    HW126186   1.956   5.693   3.790
 8429SOL    HW226187   2.075   5.647   3.892
 8430SOL     OW26188   4.490   4.595   3.018
 8430SOL    HW126189   4.527   4.508   3.051
 8430SOL    HW226190   4.565   4.661   3.006
 8431SOL     OW26191   3.352   4.800   1.158
 8431SOL    HW126192   3.402   4.743   1.224
 8431SOL    HW226193   3.333   4.890   1.199
 8432SOL     OW26194   3.863   5.727   6.352
 8432SOL    HW126195   3.884   5.645   6.299
 8432SOL    HW226196   3.932   5.739   6.423
 8433SOL     OW26197   1.279   2.937   5.890
 8433SOL    HW126198   1.205   3.001   5.868
 8433SOL    HW226199   1.288   2.930   5.990
 8434SOL     OW26200   4.829   6.120   5.856
 8434SOL    HW126201   4.794   6.212   5.868
 8434SOL    HW226202   4.768   6.068   5.796
 8435SOL     OW26203   4.631   2.051   1.303
 8435SOL    HW126204   4.593   2.082   1.216
 8435SOL    HW226205   4.694   1.975   1.286
 8436SOL     OW26206   4.427   4.846   2.079
 8436SOL    HW126207   4.346   4.884   2.124
 8436SOL    HW226208   4.445   4.754   2.115
 8437SOL     OW26209   0.543   1.205   0.728
 8437SOL    HW126210   0.500   1.120   0.758
 8437SOL    HW226211   0.560   1.202   0.630
 8438SOL     OW26212   2.790   4.766   2.466
 8438SOL    HW126213   2.887   4.779   2.448
 8438SOL    HW226214   2.745   4.732   2.384
 8439SOL     OW26215   0.224   5.624   2.219
 8439SOL    HW126216   0.217   5.720   2.246
 8439SOL    HW226217   0.151   5.572   2.262
 8440SOL     OW26218   0.375   0.616   1.553
 8440SOL    HW126219   0.437   0.631   1.476
 8440SOL    HW226220   0.292   0.670   1.540
 8441SOL     OW26221   5.122   5.614   6.299
 8441SOL    HW126222   5.206   5.611   6.245
 8441SOL    HW226223   5.075   5.701   6.282
 8442SOL     OW26224   2.408   4.297   0.083
 8442SOL    HW126225   2.380   4.327   0.175
 8442SOL    HW226226   2.358   4.349   0.014
 8443SOL     OW26227   0.944   0.495   2.846
 8443SOL    HW126228   0.855   0.539   2.860
 8443SOL    HW226229   1.002   0.511   2.926
 8444SOL     OW26230   4.032   6.259   3.657
 8444SOL    HW126231   3.944   6.253   3.704
 8444SOL    HW226232   4.017   6.276   3.560
 8445SOL     OW26233   3.764   4.905   2.746
 8445SOL    HW126234   3.861   4.885   2.760
 8445SOL    HW226235   3.755   4.997   2.706
 8446SOL     OW26236   5.528   4.827   2.901
 8446SOL    HW126237   5.570   4.914   2.873
 8446SOL    HW226238   5.505   4.831   2.998
 8447SOL     OW26239   5.238   1.952   2.109
 8447SOL    HW126240   5.160   1.948   2.172
 8447SOL    HW226241   5.286   2.039   2.121
 8448SOL     OW26242   0.311   3.573   6.583
 8448SOL    HW126243   0.371   3.571   6.663
 8448SOL    HW226244   0.353   3.523   6.508
 8449SOL     OW26245   0.839   3.570   5.083
 8449SOL    HW126246   0.802   3.565   4.990
 8449SOL    HW226247   0.840   3.479   5.123
 8450SOL     OW26248   1.959   6.024   2.828
 8450SOL    HW126249   2.003   6.104   2.787
 8450SOL    HW226250   1.877   6.052   2.876
 8451SOL     OW26251   4.184   3.073   1.226
 8451SOL    HW126252   4.249   3.132   1.179
 8451SOL    HW226253   4.198   2.978   1.196
 8452SOL     OW26254   6.591   0.451   1.229
 8452SOL    HW126255   6.509   0.394   1.239
 8452SOL    HW226256   6.663   0.415   1.288
 8453SOL     OW26257   6.619   4.325   6.279
 8453SOL    HW126258   6.558   4.272   6.220
 8453SOL    HW226259   6.587   4.320   6.373
 8454SOL     OW26260   1.392   6.983   3.376
 8454SOL    HW126261   1.355   6.983   3.469
 8454SOL    HW226262   1.414   0.058   3.349
 8455SOL     OW26263   4.910   1.633   0.973
 8455SOL    HW126264   4.822   1.606   1.012
 8455SOL    HW226265   4.940   1.564   0.908
 8456SOL     OW26266   5.431   5.570   3.395
 8456SOL    HW126267   5.411   5.567   3.297
 8456SOL    HW226268   5.386   5.494   3.440
 8457SOL     OW26269   0.199   0.277   5.449
 8457SOL    HW126270   0.189   0.295   5.547
 8457SOL    HW226271   0.163   0.354   5.397
 8458SOL     OW26272   1.783   2.133   0.321
 8458SOL    HW126273   1.771   2.034   0.309
 8458SOL    HW226274   1.864   2.163   0.271
 8459SOL     OW26275   3.527   5.375   1.998
 8459SOL    HW126276   3.551   5.472   2.004
 8459SOL    HW226277   3.431   5.363   2.024
 8460SOL     OW26278   4.581   2.053   0.034
 8460SOL    HW126279   4.629   2.037   0.120
 8460SOL    HW226280   4.559   2.151   0.026
 8461SOL     OW26281   0.586   3.857   1.532
 8461SOL    HW126282   0.573   3.905   1.445
 8461SOL    HW226283   0.667   3.798   1.526
 8462SOL     OW26284   3.319   4.069   6.653
 8462SOL    HW126285   3.417   4.054   6.665
 8462SOL    HW226286   3.274   4.071   6.742
 8463SOL     OW26287   0.218   2.054   0.184
 8463SOL    HW126288   0.283   2.078   0.112
 8463SOL    HW226289   0.128   2.092   0.162
 8464SOL     OW26290   0.058   3.226   6.840
 8464SOL    HW126291   0.130   3.254   6.904
 8464SOL    HW226292   0.099   3.184   6.760
 8465SOL     OW26293   3.864   2.313   1.241
 8465SOL    HW126294   3.852   2.269   1.330
 8465SOL    HW226295   3.776   2.321   1.195
 8466SOL     OW26296   5.325   0.775   5.156
 8466SOL    HW126297   5.264   0.806   5.083
 8466SOL    HW226298   5.383   0.701   5.122
 8467SOL     OW26299   3.146   0.894   0.711
 8467SOL    HW126300   3.132   0.857   0.620
 8467SOL    HW226301   3.111   0.987   0.716
 8468SOL     OW26302   6.060   3.829   6.760
 8468SOL    HW126303   6.047   3.731   6.752
 8468SOL    HW226304   6.081   3.852   6.855
 8469SOL     OW26305   4.201   2.794   5.528
 8469SOL    HW126306   4.239   2.877   5.488
 8469SOL    HW226307   4.274   2.728   5.544
 8470SOL     OW26308   0.768   4.854   1.141
 8470SOL    HW126309   0.673   4.852   1.110
 8470SOL    HW226310   0.789   4.945   1.177
 8471SOL     OW26311   2.814   0.817   5.048
 8471SOL    HW126312   2.767   0.881   5.109
 8471SOL    HW226313   2.812   0.725   5.089
 8472SOL     OW26314   5.425   1.505   6.354
 8472SOL    HW126315   5.400   1.538   6.445
 8472SOL    HW226316   5.348   1.454   6.315
 8473SOL     OW26317   4.859   4.953   6.681
 8473SOL    HW126318   4.905   5.037   6.653
 8473SOL    HW226319   4.886   4.929   6.774
 8474SOL     OW26320   2.961   3.292   2.452
 8474SOL    HW126321   2.995   3.279   2.359
 8474SOL    HW226322   2.862   3.279   2.453
 8475SOL     OW26323   0.008   3.340   1.391
 8475SOL    HW126324   0.068   3.304   1.320
 8475SOL    HW226325   6.933   3.309   1.376
 8476SOL     OW26326   6.224   0.114   1.719
 8476SOL    HW126327   6.167   0.172   1.661
 8476SOL    HW226328   6.276   0.171   1.782
 8477SOL     OW26329   4.851   6.898   1.377
 8477SOL    HW126330   4.880   6.951   1.297
 8477SOL    HW226331   4.769   6.846   1.353
 8478SOL     OW26332   0.435   0.124   5.408
 8478SOL    HW126333   0.348   0.166   5.433
 8478SOL    HW226334   0.488   0.106   5.491
 8479SOL     OW26335   1.704   2.140   1.549
 8479SOL    HW126336   1.737   2.173   1.460
 8479SOL    HW226337   1.675   2.045   1.541
 8480SOL     OW26338   4.599   3.450   0.476
 8480SOL    HW126339   4.681   3.409   0.435
 8480SOL    HW226340   4.554   3.381   0.533
 8481SOL     OW26341   3.674   2.132   4.337
 8481SOL    HW126342   3.611   2.206   4.360
 8481SOL    HW226343   3.677   2.121   4.238
 8482SOL     OW26344   4.521   1.070   0.299
 8482SOL    HW126345   4.619   1.049   0.297
 8482SOL    HW226346   4.506   1.155   0.350
 8483SOL     OW26347   3.448   6.071   3.913
 8483SOL    HW126348   3.388   6.068   3.833
 8483SOL    HW226349   3.537   6.032   3.889
 8484SOL     OW26350   6.391   6.252   4.769
 8484SOL    HW126351   6.304   6.235   4.722
 8484SOL    HW226352   6.410   6.350   4.769
 8485SOL     OW26353   3.742   2.559   0.096
 8485SOL    HW126354   3.720   2.467   0.130
 8485SOL    HW226355   3.734   2.560   7.015
 8486SOL     OW26356   1.229   1.313   2.316
 8486SOL    HW126357   1.296   1.261   2.370
 8486SOL    HW226358   1.149   1.332   2.373
 8487SOL     OW26359   5.479   2.131   5.804
 8487SOL    HW126360   5.560   2.170   5.849
 8487SOL    HW226361   5.448   2.193   5.732
 8488SOL     OW26362   5.880   5.696   2.540
 8488SOL    HW126363   5.860   5.612   2.489
 8488SOL    HW226364   5.846   5.688   2.634
 8489SOL     OW26365   5.853   1.110   1.132
 8489SOL    HW126366   5.873   1.120   1.229
 8489SOL    HW226367   5.780   1.174   1.106
 8490SOL     OW26368   2.341   6.838   6.497
 8490SOL    HW126369   2.419   6.900   6.500
 8490SOL    HW226370   2.257   6.890   6.510
 8491SOL     OW26371   1.978   5.862   2.241
 8491SOL    HW126372   1.982   5.785   2.178
 8491SOL    HW226373   2.023   5.837   2.327
 8492SOL     OW26374   6.213   4.177   4.716
 8492SOL    HW126375   6.213   4.277   4.724
 8492SOL    HW226376   6.291   4.147   4.661
 8493SOL     OW26377   3.492   1.317   0.744
 8493SOL    HW126378   3.566   1.375   0.778
 8493SOL    HW226379   3.407   1.370   0.742
 8494SOL     OW26380   5.857   4.996   2.025
 8494SOL    HW126381   5.843   4.922   2.091
 8494SOL    HW226382   5.916   4.964   1.951
 8495SOL     OW26383   6.194   5.259   0.622
 8495SOL    HW126384   6.183   5.245   0.721
 8495SOL    HW226385   6.146   5.186   0.573
 8496SOL     OW26386   5.456   1.382   1.820
 8496SOL    HW126387   5.550   1.367   1.789
 8496SOL    HW226388   5.400   1.412   1.743
 8497SOL     OW26389   6.865   0.465   3.659
 8497SOL    HW126390   6.944   0.404   3.647
 8497SOL    HW226391   6.788   0.412   3.693
 8498SOL     OW26392   5.161   6.940   4.346
 8498SOL    HW126393   5.169   0.017   4.374
 8498SOL    HW226394   5.075   6.902   4.380
 8499SOL     OW26395   6.839   5.884   6.970
 8499SOL    HW126396   6.867   5.929   6.885
 8499SOL    HW226397   6.903   5.908   0.024
 8500SOL     OW26398   1.598   1.043   5.709
 8500SOL    HW126399   1.607   1.020   5.806
 8500SOL    HW226400   1.545   0.972   5.663
 8501SOL     OW26401   0.477   1.619   6.941
 8501SOL    HW126402   0.470   1.632   6.842
 8501SOL    HW226403   0.385   1.614   6.981
 8502SOL     OW26404   0.466   2.921   6.413
 8502SOL    HW126405   0.464   3.004   6.470
 8502SOL    HW226406   0.395   2.858   6.444
 8503SOL     OW26407   6.529   6.255   4.315
 8503SOL    HW126408   6.483   6.183   4.367
 8503SOL    HW226409   6.462   6.324   4.288
 8504SOL     OW26410   2.325   5.591   2.390
 8504SOL    HW126411   2.230   5.616   2.406
 8504SOL    HW226412   2.359   5.641   2.310
 8505SOL     OW26413   5.343   3.698   3.108
 8505SOL    HW126414   5.298   3.653   3.031
 8505SOL    HW226415   5.389   3.629   3.164
 8506SOL     OW26416   2.079   0.549   0.585
 8506SOL    HW126417   2.061   0.647   0.575
 8506SOL    HW226418   2.013   0.498   0.529
 8507SOL     OW26419   4.662   0.253   5.571
 8507SOL    HW126420   4.693   0.172   5.523
 8507SOL    HW226421   4.721   0.270   5.650
 8508SOL     OW26422   4.328   2.322   6.568
 8508SOL    HW126423   4.384   2.340   6.649
 8508SOL    HW226424   4.231   2.336   6.591
 8509SOL     OW26425   5.863   0.430   3.533
 8509SOL    HW126426   5.797   0.421   3.459
 8509SOL    HW226427   5.919   0.347   3.538
 8510SOL     OW26428   5.501   2.708   4.191
 8510SOL    HW126429   5.542   2.633   4.141
 8510SOL    HW226430   5.464   2.776   4.127
 8511SOL     OW26431   5.642   2.859   1.976
 8511SOL    HW126432   5.643   2.862   1.876
 8511SOL    HW226433   5.713   2.919   2.012
 8512SOL     OW26434   1.987   0.115   3.819
 8512SOL    HW126435   2.013   0.147   3.728
 8512SOL    HW226436   2.034   0.029   3.838
 8513SOL     OW26437   6.065   6.278   0.070
 8513SOL    HW126438   6.022   6.364   0.096
 8513SOL    HW226439   5.996   6.217   0.031
 8514SOL     OW26440   3.141   6.431   3.676
 8514SOL    HW126441   3.198   6.512   3.661
 8514SOL    HW226442   3.144   6.406   3.773
 8515SOL     OW26443   5.829   1.998   0.760
 8515SOL    HW126444   5.843   1.913   0.710
 8515SOL    HW226445   5.888   2.069   0.721
 8516SOL     OW26446   6.326   2.450   2.132
 8516SOL    HW126447   6.269   2.474   2.210
 8516SOL    HW226448   6.280   2.478   2.047
 8517SOL     OW26449   1.330   2.945   6.155
 8517SOL    HW126450   1.261   2.877   6.180
 8517SOL    HW226451   1.416   2.899   6.134
 8518SOL     OW26452   3.284   5.593   6.932
 8518SOL    HW126453   3.267   5.500   6.966
 8518SOL    HW226454   3.355   5.636   6.987
 8519SOL     OW26455   1.495   5.436   2.268
 8519SOL    HW126456   1.514   5.408   2.174
 8519SOL    HW226457   1.397   5.432   2.285
 8520SOL     OW26458   4.223   0.857   0.385
 8520SOL    HW126459   4.186   0.826   0.297
 8520SOL    HW226460   4.316   0.822   0.397
 8521SOL     OW26461   1.193   6.441   5.938
 8521SOL    HW126462   1.210   6.378   5.862
 8521SOL    HW226463   1.162   6.389   6.018
 8522SOL     OW26464   1.259   6.007   4.561
 8522SOL    HW126465   1.339   6.065   4.552
 8522SOL    HW226466   1.246   5.982   4.657
 8523SOL     OW26467   1.961   6.641   6.392
 8523SOL    HW126468   2.045   6.684   6.423
 8523SOL    HW226469   1.884   6.674   6.446
 8524SOL     OW26470   1.489   3.848   5.862
 8524SOL    HW126471   1.404   3.835   5.913
 8524SOL    HW226472   1.567   3.821   5.920
 8525SOL     OW26473   5.811   3.509   2.538
 8525SOL    HW126474   5.758   3.427   2.557
 8525SOL    HW226475   5.751   3.579   2.498
 8526SOL     OW26476   2.572   2.356   2.085
 8526SOL    HW126477   2.486   2.336   2.038
 8526SOL    HW226478   2.648   2.344   2.021
 8527SOL     OW26479   4.825   0.589   4.279
 8527SOL    HW126480   4.755   0.569   4.348
 8527SOL    HW226481   4.810   0.532   4.199
 8528SOL     OW26482   4.741   3.147   6.034
 8528SOL    HW126483   4.672   3.142   6.106
 8528SOL    HW226484   4.830   3.165   6.074
 8529SOL     OW26485   1.444   4.745   6.552
 8529SOL    HW126486   1.391   4.829   6.566
 8529SOL    HW226487   1.536   4.770   6.521
 8530SOL     OW26488   1.479   4.046   5.268
 8530SOL    HW126489   1.555   3.990   5.299
 8530SOL    HW226490   1.514   4.123   5.215
 8531SOL     OW26491   5.342   5.172   2.724
 8531SOL    HW126492   5.295   5.184   2.811
 8531SOL    HW226493   5.325   5.079   2.690
 8532SOL     OW26494   3.219   4.509   5.443
 8532SOL    HW126495   3.211   4.608   5.455
 8532SOL    HW226496   3.310   4.486   5.410
 8533SOL     OW26497   3.131   1.228   4.588
 8533SOL    HW126498   3.129   1.158   4.660
 8533SOL    HW226499   3.144   1.184   4.499
 8534SOL     OW26500   1.277   3.311   2.815
 8534SOL    HW126501   1.341   3.361   2.757
 8534SOL    HW226502   1.320   3.292   2.903
 8535SOL     OW26503   0.510   1.936   4.500
 8535SOL    HW126504   0.543   2.030   4.488
 8535SOL    HW226505   0.458   1.909   4.419
 8536SOL     OW26506   6.564   1.641   5.505
 8536SOL    HW126507   6.547   1.716   5.441
 8536SOL    HW226508   6.571   1.555   5.454
 8537SOL     OW26509   5.349   0.289   1.354
 8537SOL    HW126510   5.296   0.277   1.270
 8537SOL    HW226511   5.331   0.380   1.392
 8538SOL     OW26512   6.943   0.497   4.753
 8538SOL    HW126513   6.917   0.511   4.657
 8538SOL    HW226514   6.883   0.429   4.794
 8539SOL     OW26515   0.421   2.592   1.868
 8539SOL    HW126516   0.480   2.659   1.823
 8539SOL    HW226517   0.342   2.572   1.810
 8540SOL     OW26518   3.528   0.616   0.730
 8540SOL    HW126519   3.529   0.553   0.652
 8540SOL    HW226520   3.490   0.704   0.702
 8541SOL     OW26521   2.824   1.374   4.434
 8541SOL    HW126522   2.895   1.441   4.411
 8541SOL    HW226523   2.818   1.364   4.533
 8542SOL     OW26524   2.099   4.762   6.473
 8542SOL    HW126525   2.167   4.776   6.546
 8542SOL    HW226526   2.057   4.672   6.484
 8543SOL     OW26527   1.661   2.219   5.592
 8543SOL    HW126528   1.731   2.160   5.552
 8543SOL    HW226529   1.699   2.310   5.609
 8544SOL     OW26530   5.106   4.017   5.533
 8544SOL    HW126531   5.106   3.934   5.588
 8544SOL    HW226532   5.058   4.089   5.582
 8545SOL     OW26533   3.480   6.817   5.942
 8545SOL    HW126534   3.533   6.896   5.911
 8545SOL    HW226535   3.428   6.842   6.024
 8546SOL     OW26536   5.338   0.480   1.671
 8546SOL    HW126537   5.244   0.486   1.637
 8546SOL    HW226538   5.399   0.523   1.605
 8547SOL     OW26539   6.295   6.361   5.677
 8547SOL    HW126540   6.292   6.282   5.738
 8547SOL    HW226541   6.380   6.361   5.625
 8548SOL     OW26542   0.470   3.324   5.909
 8548SOL    HW126543   0.436   3.242   5.955
 8548SOL    HW226544   0.570   3.329   5.920
 8549SOL     OW26545   2.221   1.206   3.415
 8549SOL    HW126546   2.321   1.196   3.417
 8549SOL    HW226547   2.178   1.116   3.412
 8550SOL     OW26548   0.884   4.402   6.840
 8550SOL    HW126549   0.854   4.310   6.815
 8550SOL    HW226550   0.928   4.445   6.762
 8551SOL     OW26551   1.990   2.146   6.145
 8551SOL    HW126552   1.937   2.190   6.218
 8551SOL    HW226553   1.966   2.187   6.057
 8552SOL     OW26554   2.473   1.355   2.755
 8552SOL    HW126555   2.406   1.399   2.695
 8552SOL    HW226556   2.565   1.374   2.721
 8553SOL     OW26557   5.220   3.221   0.908
 8553SOL    HW126558   5.317   3.244   0.919
 8553SOL    HW226559   5.166   3.305   0.901
 8554SOL     OW26560   0.826   6.568   0.227
 8554SOL    HW126561   0.903   6.628   0.207
 8554SOL    HW226562   0.851   6.474   0.205
 8555SOL     OW26563   4.920   1.008   3.735
 8555SOL    HW126564   4.962   0.974   3.652
 8555SOL    HW226565   4.846   1.071   3.711
 8556SOL     OW26566   1.861   6.086   0.329
 8556SOL    HW126567   1.846   6.002   0.277
 8556SOL    HW226568   1.905   6.154   0.270
 8557SOL     OW26569   0.236   0.910   0.303
 8557SOL    HW126570   0.241   0.813   0.280
 8557SOL    HW226571   0.159   0.952   0.254
 8558SOL     OW26572   3.078   5.067   3.383
 8558SOL    HW126573   3.113   5.010   3.308
 8558SOL    HW226574   3.138   5.145   3.397
 8559SOL     OW26575   0.997   5.102   2.454
 8559SOL    HW126576   1.076   5.056   2.495
 8559SOL    HW226577   0.986   5.192   2.495
 8560SOL     OW26578   2.336   4.314   1.820
 8560SOL    HW126579   2.294   4.279   1.736
 8560SOL    HW226580   2.348   4.239   1.885
 8561SOL     OW26581   4.561   6.977   2.205
 8561SOL    HW126582   4.486   6.930   2.252
 8561SOL    HW226583   4.565   6.945   2.110
 8562SOL     OW26584   3.929   1.300   6.644
 8562SOL    HW126585   3.829   1.294   6.643
 8562SOL    HW226586   3.967   1.235   6.579
 8563SOL     OW26587   1.882   5.666   3.021
 8563SOL    HW126588   1.948   5.625   2.959
 8563SOL    HW226589   1.795   5.681   2.973
 8564SOL     OW26590   3.919   0.758   6.894
 8564SOL    HW126591   3.901   0.815   6.974
 8564SOL    HW226592   4.015   0.765   6.868
 8565SOL     OW26593   2.727   5.390   1.256
 8565SOL    HW126594   2.724   5.315   1.190
 8565SOL    HW226595   2.674   5.365   1.337
 8566SOL     OW26596   3.426   1.187   3.114
 8566SOL    HW126597   3.506   1.157   3.167
 8566SOL    HW226598   3.342   1.156   3.159
 8567SOL     OW26599   1.555   1.905   1.841
 8567SOL    HW126600   1.645   1.861   1.834
 8567SOL    HW226601   1.535   1.926   1.937
 8568SOL     OW26602   6.975   1.686   6.698
 8568SOL    HW126603   6.963   1.754   6.625
 8568SOL    HW226604   6.915   1.710   6.774
 8569SOL     OW26605   5.250   2.439   6.347
 8569SOL    HW126606   5.236   2.390   6.261
 8569SOL    HW226607   5.165   2.484   6.374
 8570SOL     OW26608   1.322   3.085   4.041
 8570SOL    HW126609   1.292   3.055   3.950
 8570SOL    HW226610   1.317   3.008   4.105
 8571SOL     OW26611   1.928   0.497   3.654
 8571SOL    HW126612   1.844   0.450   3.680
 8571SOL    HW226613   1.982   0.517   3.736
 8572SOL     OW26614   2.967   4.063   5.565
 8572SOL    HW126615   3.029   4.115   5.623
 8572SOL    HW226616   2.880   4.112   5.557
 8573SOL     OW26617   3.435   6.346   0.626
 8573SOL    HW126618   3.342   6.315   0.643
 8573SOL    HW226619   3.480   6.285   0.562
 8574SOL     OW26620   6.521   6.312   5.506
 8574SOL    HW126621   6.560   6.232   5.462
 8574SOL    HW226622   6.513   6.386   5.439
 8575SOL     OW26623   3.352   6.107   2.699
 8575SOL    HW126624   3.435   6.163   2.695
 8575SOL    HW226625   3.285   6.150   2.759
 8576SOL     OW26626   0.839   3.963   3.223
 8576SOL    HW126627   0.750   3.919   3.242
 8576SOL    HW226628   0.858   4.031   3.293
 8577SOL     OW26629   2.083   1.444   6.552
 8577SOL    HW126630   2.175   1.481   6.539
 8577SOL    HW226631   2.022   1.482   6.483
 8578SOL     OW26632   6.232   0.014   5.202
 8578SOL    HW126633   6.330   0.004   5.184
 8578SOL    HW226634   6.202   0.105   5.173
 8579SOL     OW26635   3.293   5.848   2.607
 8579SOL    HW126636   3.327   5.939   2.630
 8579SOL    HW226637   3.198   5.854   2.578
 8580SOL     OW26638   1.178   6.855   1.435
 8580SOL    HW126639   1.146   6.838   1.342
 8580SOL    HW226640   1.269   6.896   1.432
 8581SOL     OW26641   3.630   4.789   1.091
 8581SOL    HW126642   3.537   4.826   1.087
 8581SOL    HW226643   3.674   4.797   1.002
 8582SOL     OW26644   3.860   4.355   5.512
 8582SOL    HW126645   3.858   4.256   5.526
 8582SOL    HW226646   3.881   4.374   5.416
 8583SOL     OW26647   4.156   0.913   2.731
 8583SOL    HW126648   4.112   0.959   2.654
 8583SOL    HW226649   4.169   0.979   2.805
 8584SOL     OW26650   6.638   1.102   4.655
 8584SOL    HW126651   6.542   1.077   4.641
 8584SOL    HW226652   6.696   1.049   4.592
 8585SOL     OW26653   5.519   2.063   1.794
 8585SOL    HW126654   5.575   2.053   1.876
 8585SOL    HW226655   5.423   2.044   1.816
 8586SOL     OW26656   5.574   6.071   0.938
 8586SOL    HW126657   5.588   6.112   1.027
 8586SOL    HW226658   5.656   6.018   0.913
 8587SOL     OW26659   1.432   1.420   5.804
 8587SOL    HW126660   1.367   1.364   5.752
 8587SOL    HW226661   1.512   1.440   5.746
 8588SOL     OW26662   2.912   1.694   6.844
 8588SOL    HW126663   2.940   1.748   6.765
 8588SOL    HW226664   2.856   1.751   6.905
 8589SOL     OW26665   0.656   3.100   5.640
 8589SOL    HW126666   0.724   3.032   5.665
 8589SOL    HW226667   0.590   3.112   5.714
 8590SOL     OW26668   0.810   1.856   2.892
 8590SOL    HW126669   0.830   1.911   2.810
 8590SOL    HW226670   0.895   1.839   2.942
 8591SOL     OW26671   6.814   5.079   0.262
 8591SOL    HW126672   6.759   5.107   0.183
 8591SOL    HW226673   6.807   4.980   0.274
 8592SOL     OW26674   1.154   2.343   6.462
 8592SOL    HW126675   1.114   2.252   6.454
 8592SOL    HW226676   1.084   2.407   6.498
 8593SOL     OW26677   2.934   0.460   0.017
 8593SOL    HW126678   3.030   0.486   0.021
 8593SOL    HW226679   2.881   0.518   0.079
 8594SOL     OW26680   6.449   2.701   6.041
 8594SOL    HW126681   6.432   2.787   6.090
 8594SOL    HW226682   6.362   2.662   6.012
 8595SOL     OW26683   5.088   6.744   2.515
 8595SOL    HW126684   5.030   6.668   2.545
 8595SOL    HW226685   5.113   6.733   2.419
 8596SOL     OW26686   0.900   2.644   3.312
 8596SOL    HW126687   0.850   2.587   3.247
 8596SOL    HW226688   0.974   2.590   3.353
 8597SOL     OW26689   5.619   3.543   1.506
 8597SOL    HW126690   5.654   3.620   1.452
 8597SOL    HW226691   5.695   3.483   1.532
 8598SOL     OW26692   5.290   0.222   4.322
 8598SOL    HW126693   5.372   0.164   4.317
 8598SOL    HW226694   5.295   0.294   4.253
 8599SOL     OW26695   1.721   2.800   3.909
 8599SOL    HW126696   1.799   2.738   3.909
 8599SOL    HW226697   1.751   2.892   3.882
 8600SOL     OW26698   4.562   2.985   1.234
 8600SOL    HW126699   4.550   2.948   1.326
 8600SOL    HW226700   4.581   3.083   1.240
 8601SOL     OW26701   0.859   0.700   3.606
 8601SOL    HW126702   0.789   0.648   3.654
 8601SOL    HW226703   0.860   0.794   3.641
 8602SOL     OW26704   2.771   6.879   4.452
 8602SOL    HW126705   2.718   6.818   4.393
 8602SOL    HW226706   2.866   6.880   4.420
 8603SOL     OW26707   6.969   0.909   0.579
 8603SOL    HW126708   6.988   0.813   0.556
 8603SOL    HW226709   6.880   0.935   0.544
 8604SOL     OW26710   1.239   3.964   5.951
 8604SOL    HW126711   1.239   3.972   6.051
 8604SOL    HW226712   1.146   3.976   5.917
 8605SOL     OW26713   6.847   4.758   4.317
 8605SOL    HW126714   6.762   4.728   4.274
 8605SOL    HW226715   6.919   4.763   4.249
 8606SOL     OW26716   2.141   2.289   6.603
 8606SOL    HW126717   2.107   2.283   6.697
 8606SOL    HW226718   2.066   2.272   6.539
 8607SOL     OW26719   2.324   4.899   1.361
 8607SOL    HW126720   2.380   4.872   1.440
 8607SOL    HW226721   2.279   4.819   1.323
 8608SOL     OW26722   2.560   5.019   3.404
 8608SOL    HW126723   2.499   4.949   3.367
 8608SOL    HW226724   2.653   5.004   3.370
 8609SOL     OW26725   5.062   1.327   3.679
 8609SOL    HW126726   5.121   1.310   3.601
 8609SOL    HW226727   4.983   1.265   3.676
 8610SOL     OW26728   0.502   6.511   3.343
 8610SOL    HW126729   0.595   6.493   3.374
 8610SOL    HW226730   0.440   6.444   3.383
 8611SOL     OW26731   3.296   1.913   3.701
 8611SOL    HW126732   3.270   1.973   3.776
 8611SOL    HW226733   3.390   1.882   3.714
 8612SOL     OW26734   3.900   3.401   3.463
 8612SOL    HW126735   3.948   3.412   3.550
 8612SOL    HW226736   3.806   3.434   3.473
 8613SOL     OW26737   3.244   2.477   1.024
 8613SOL    HW126738   3.165   2.530   1.055
 8613SOL    HW226739   3.230   2.448   0.929
 8614SOL     OW26740   1.187   2.579   1.553
 8614SOL    HW126741   1.253   2.522   1.504
 8614SOL    HW226742   1.105   2.591   1.497
 8615SOL     OW26743   4.370   1.209   3.384
 8615SOL    HW126744   4.349   1.275   3.456
 8615SOL    HW226745   4.323   1.236   3.300
 8616SOL     OW26746   4.224   5.045   2.529
 8616SOL    HW126747   4.191   5.028   2.622
 8616SOL    HW226748   4.317   5.009   2.519
 8617SOL     OW26749   4.787   0.013   4.127
 8617SOL    HW126750   4.779   0.112   4.140
 8617SOL    HW226751   4.803   7.012   4.030
 8618SOL     OW26752   5.656   3.984   1.585
 8618SOL    HW126753   5.651   3.964   1.683
 8618SOL    HW226754   5.716   4.062   1.570
 8619SOL     OW26755   5.676   4.736   1.879
 8619SOL    HW126756   5.636   4.826   1.893
 8619SOL    HW226757   5.770   4.735   1.914
 8620SOL     OW26758   2.077   1.048   4.711
 8620SOL    HW126759   2.108   0.953   4.713
 8620SOL    HW226760   2.081   1.086   4.804
 8621SOL     OW26761   5.128   2.289   2.102
 8621SOL    HW126762   5.078   2.212   2.063
 8621SOL    HW226763   5.159   2.350   2.029
 8622SOL     OW26764   6.751   5.255   2.596
 8622SOL    HW126765   6.843   5.219   2.612
 8622SOL    HW226766   6.723   5.311   2.675
 8623SOL     OW26767   6.575   2.886   5.323
 8623SOL    HW126768   6.573   2.786   5.332
 8623SOL    HW226769   6.555   2.911   5.228
 8624SOL     OW26770   3.323   3.561   6.222
 8624SOL    HW126771   3.284   3.652   6.233
 8624SOL    HW226772   3.250   3.495   6.205
 8625SOL     OW26773   3.698   1.552   5.612
 8625SOL    HW126774   3.757   1.479   5.578
 8625SOL    HW226775   3.645   1.518   5.690
 8626SOL     OW26776   4.817   3.903   0.536
 8626SOL    HW126777   4.769   3.845   0.602
 8626SOL    HW226778   4.912   3.873   0.529
 8627SOL     OW26779   1.569   1.332   2.624
 8627SOL    HW126780   1.507   1.373   2.691
 8627SOL    HW226781   1.520   1.263   2.571
 8628SOL     OW26782   0.376   6.397   0.439
 8628SOL    HW126783   0.438   6.449   0.380
 8628SOL    HW226784   0.410   6.400   0.533
 8629SOL     OW26785   0.279   0.156   4.261
 8629SOL    HW126786   0.268   0.114   4.351
 8629SOL    HW226787   0.231   0.100   4.193
 8630SOL     OW26788   4.970   3.280   2.771
 8630SOL    HW126789   4.917   3.196   2.767
 8630SOL    HW226790   5.027   3.280   2.853
 8631SOL     OW26791   2.784   6.331   6.780
 8631SOL    HW126792   2.798   6.408   6.842
 8631SOL    HW226793   2.816   6.356   6.689
 8632SOL     OW26794   4.508   4.772   5.196
 8632SOL    HW126795   4.439   4.812   5.257
 8632SOL    HW226796   4.574   4.843   5.170
 8633SOL     OW26797   5.641   3.990   5.566
 8633SOL    HW126798   5.643   4.055   5.489
 8633SOL    HW226799   5.599   3.905   5.536
 8634SOL     OW26800   5.583   5.051   1.081
 8634SOL    HW126801   5.618   5.040   1.174
 8634SOL    HW226802   5.528   4.971   1.056
 8635SOL     OW26803   6.308   2.933   6.764
 8635SOL    HW126804   6.320   2.936   6.665
 8635SOL    HW226805   6.210   2.933   6.786
 8636SOL     OW26806   4.764   6.136   1.083
 8636SOL    HW126807   4.768   6.131   1.183
 8636SOL    HW226808   4.679   6.182   1.056
 8637SOL     OW26809   2.241   1.841   6.288
 8637SOL    HW126810   2.248   1.941   6.290
 8637SOL    HW226811   2.330   1.801   6.269
 8638SOL     OW26812   4.384   2.976   5.399
 8638SOL    HW126813   4.432   2.915   5.336
 8638SOL    HW226814   4.309   3.021   5.350
 8639SOL     OW26815   4.409   3.073   6.634
 8639SOL    HW126816   4.313   3.075   6.660
 8639SOL    HW226817   4.436   3.162   6.597
 8640SOL     OW26818   2.889   3.272   1.462
 8640SOL    HW126819   2.853   3.233   1.547
 8640SOL    HW226820   2.881   3.204   1.389
 8641SOL     OW26821   4.705   5.523   2.602
 8641SOL    HW126822   4.709   5.434   2.557
 8641SOL    HW226823   4.745   5.593   2.543
 8642SOL     OW26824   1.265   6.559   4.538
 8642SOL    HW126825   1.305   6.560   4.446
 8642SOL    HW226826   1.321   6.615   4.599
 8643SOL     OW26827   3.363   6.970   0.626
 8643SOL    HW126828   3.386   0.030   0.683
 8643SOL    HW226829   3.429   6.896   0.643
 8644SOL     OW26830   6.101   1.714   6.714
 8644SOL    HW126831   6.190   1.697   6.672
 8644SOL    HW226832   6.097   1.666   6.802
 8645SOL     OW26833   6.050   4.310   1.872
 8645SOL    HW126834   6.127   4.306   1.935
 8645SOL    HW226835   5.999   4.224   1.876
 8646SOL     OW26836   0.138   2.030   5.455
 8646SOL    HW126837   0.079   1.951   5.468
 8646SOL    HW226838   0.105   2.106   5.511
 8647SOL     OW26839   2.345   4.525   1.535
 8647SOL    HW126840   2.367   4.620   1.514
 8647SOL    HW226841   2.271   4.522   1.602
 8648SOL     OW26842   5.878   5.621   0.904
 8648SOL    HW126843   5.970   5.584   0.915
 8648SOL    HW226844   5.882   5.721   0.900
 8649SOL     OW26845   4.352   6.439   0.642
 8649SOL    HW126846   4.299   6.486   0.713
 8649SOL    HW226847   4.449   6.439   0.667
 8650SOL     OW26848   2.091   0.064   4.193
 8650SOL    HW126849   1.993   0.070   4.172
 8650SOL    HW226850   2.134   0.152   4.175
 8651SOL     OW26851   2.778   1.468   0.804
 8651SOL    HW126852   2.813   1.546   0.753
 8651SOL    HW226853   2.743   1.499   0.892
 8652SOL     OW26854   1.319   4.160   3.902
 8652SOL    HW126855   1.327   4.252   3.940
 8652SOL    HW226856   1.350   4.160   3.807
 8653SOL     OW26857   6.932   1.403   5.970
 8653SOL    HW126858   6.847   1.352   5.956
 8653SOL    HW226859   6.911   1.496   6.000
 8654SOL     OW26860   1.256   5.056   1.690
 8654SOL    HW126861   1.175   5.084   1.740
 8654SOL    HW226862   1.326   5.025   1.754
 8655SOL     OW26863   0.004   1.191   5.323
 8655SOL    HW126864   6.994   1.232   5.409
 8655SOL    HW226865   6.947   1.195   5.257
 8656SOL     OW26866   4.571   0.086   1.283
 8656SOL    HW126867   4.481   0.126   1.268
 8656SOL    HW226868   4.611   0.124   1.367
 8657SOL     OW26869   5.383   0.717   2.337
 8657SOL    HW126870   5.327   0.721   2.254
 8657SOL    HW226871   5.368   0.629   2.383
 8658SOL     OW26872   6.422   4.815   1.103
 8658SOL    HW126873   6.475   4.876   1.044
 8658SOL    HW226874   6.455   4.721   1.094
 8659SOL     OW26875   5.180   1.575   2.119
 8659SOL    HW126876   5.123   1.570   2.038
 8659SOL    HW226877   5.123   1.572   2.201
 8660SOL     OW26878   0.876   2.789   1.278
 8660SOL    HW126879   0.781   2.765   1.299
 8660SOL    HW226880   0.933   2.707   1.279
 8661SOL     OW26881   6.122   3.245   2.959
 8661SOL    HW126882   6.030   3.280   2.941
 8661SOL    HW226883   6.122   3.191   3.043
 8662SOL     OW26884   3.109   5.497   2.992
 8662SOL    HW126885   3.102   5.406   2.950
 8662SOL    HW226886   3.138   5.563   2.923
 8663SOL     OW26887   3.581   5.647   3.205
 8663SOL    HW126888   3.517   5.570   3.198
 8663SOL    HW226889   3.675   5.614   3.199
 8664SOL     OW26890   2.550   5.408   3.256
 8664SOL    HW126891   2.635   5.389   3.206
 8664SOL    HW226892   2.513   5.496   3.227
 8665SOL     OW26893   6.116   3.941   5.981
 8665SOL    HW126894   6.047   3.981   6.041
 8665SOL    HW226895   6.207   3.952   6.021
 8666SOL     OW26896   5.232   0.084   3.141
 8666SOL    HW126897   5.249   0.144   3.220
 8666SOL    HW226898   5.177   0.133   3.074
 8667SOL     OW26899   4.856   1.895   4.444
 8667SOL    HW126900   4.858   1.961   4.369
 8667SOL    HW226901   4.852   1.944   4.531
 8668SOL     OW26902   4.962   2.958   5.080
 8668SOL    HW126903   4.919   2.949   5.170
 8668SOL    HW226904   4.956   2.870   5.032
 8669SOL     OW26905   6.113   6.484   6.199
 8669SOL    HW126906   6.137   6.568   6.150
 8669SOL    HW226907   6.039   6.437   6.152
 8670SOL     OW26908   6.119   4.496   5.596
 8670SOL    HW126909   6.084   4.485   5.689
 8670SOL    HW226910   6.176   4.418   5.573
 8671SOL     OW26911   0.294   2.180   2.529
 8671SOL    HW126912   0.314   2.099   2.585
 8671SOL    HW226913   0.375   2.239   2.527
 8672SOL     OW26914   0.021   0.662   3.599
 8672SOL    HW126915   6.987   0.582   3.627
 8672SOL    HW226916   0.016   0.673   3.500
 8673SOL     OW26917   0.928   1.905   0.439
 8673SOL    HW126918   0.962   1.816   0.409
 8673SOL    HW226919   0.974   1.932   0.523
 8674SOL     OW26920   0.595   4.667   3.098
 8674SOL    HW126921   0.564   4.759   3.121
 8674SOL    HW226922   0.674   4.673   3.037
 8675SOL     OW26923   3.613   1.959   5.850
 8675SOL    HW126924   3.627   1.941   5.753
 8675SOL    HW226925   3.540   1.900   5.884
 8676SOL     OW26926   5.834   0.890   0.789
 8676SOL    HW126927   5.892   0.938   0.855
 8676SOL    HW226928   5.808   0.952   0.715
 8677SOL     OW26929   1.321   6.816   5.597
 8677SOL    HW126930   1.390   6.853   5.658
 8677SOL    HW226931   1.327   6.716   5.595
 8678SOL     OW26932   1.469   0.580   1.202
 8678SOL    HW126933   1.372   0.579   1.226
 8678SOL    HW226934   1.500   0.486   1.187
 8679SOL     OW26935   2.171   1.227   4.040
 8679SOL    HW126936   2.132   1.164   3.974
 8679SOL    HW226937   2.259   1.193   4.071
 8680SOL     OW26938   6.513   2.540   6.277
 8680SOL    HW126939   6.478   2.608   6.212
 8680SOL    HW226940   6.451   2.535   6.355
 8681SOL     OW26941   5.427   5.856   1.029
 8681SOL    HW126942   5.445   5.954   1.032
 8681SOL    HW226943   5.449   5.821   0.938
 8682SOL     OW26944   0.316   0.202   0.971
 8682SOL    HW126945   0.383   0.251   1.027
 8682SOL    HW226946   0.273   0.267   0.907
 8683SOL     OW26947   1.979   4.075   4.627
 8683SOL    HW126948   1.917   4.013   4.675
 8683SOL    HW226949   1.948   4.089   4.533
 8684SOL     OW26950   0.719   3.926   4.553
 8684SOL    HW126951   0.739   3.939   4.456
 8684SOL    HW226952   0.626   3.958   4.572
 8685SOL     OW26953   5.011   2.423   5.593
 8685SOL    HW126954   4.972   2.515   5.606
 8685SOL    HW226955   4.945   2.355   5.623
 8686SOL     OW26956   6.751   6.207   2.626
 8686SOL    HW126957   6.733   6.175   2.533
 8686SOL    HW226958   6.839   6.254   2.629
 8687SOL     OW26959   6.150   3.081   3.223
 8687SOL    HW126960   6.209   3.111   3.298
 8687SOL    HW226961   6.203   3.026   3.159
 8688SOL     OW26962   1.206   4.078   6.187
 8688SOL    HW126963   1.265   4.076   6.267
 8688SOL    HW226964   1.120   4.031   6.208
 8689SOL     OW26965   4.383   3.558   0.869
 8689SOL    HW126966   4.309   3.507   0.824
 8689SOL    HW226967   4.471   3.522   0.839
 8690SOL     OW26968   1.735   2.138   3.558
 8690SOL    HW126969   1.649   2.188   3.567
 8690SOL    HW226970   1.722   2.043   3.584
 8691SOL     OW26971   2.850   2.202   4.879
 8691SOL    HW126972   2.845   2.273   4.809
 8691SOL    HW226973   2.815   2.116   4.842
 8692SOL     OW26974   4.616   2.217   5.802
 8692SOL    HW126975   4.660   2.301   5.836
 8692SOL    HW226976   4.679   2.170   5.740
 8693SOL     OW26977   6.045   0.893   6.118
 8693SOL    HW126978   5.959   0.897   6.169
 8693SOL    HW226979   6.053   0.803   6.074
 8694SOL     OW26980   5.836   3.041   3.713
 8694SOL    HW126981   5.844   2.971   3.642
 8694SOL    HW226982   5.762   3.017   3.775
 8695SOL     OW26983   4.309   3.674   6.441
 8695SOL    HW126984   4.222   3.624   6.440
 8695SOL    HW226985   4.380   3.616   6.481
 8696SOL     OW26986   2.974   5.758   5.826
 8696SOL    HW126987   3.057   5.808   5.851
 8696SOL    HW226988   2.897   5.821   5.825
 8697SOL     OW26989   1.829   4.342   5.854
 8697SOL    HW126990   1.788   4.267   5.803
 8697SOL    HW226991   1.913   4.373   5.808
 8698SOL     OW26992   5.249   5.848   5.444
 8698SOL    HW126993   5.291   5.771   5.493
 8698SOL    HW226994   5.269   5.933   5.492
 8699SOL     OW26995   2.171   3.116   0.019
 8699SOL    HW126996   2.261   3.073   0.013
 8699SOL    HW226997   2.162   3.162   0.108
 8700SOL     OW26998   0.707   0.104   5.068
 8700SOL    HW126999   0.622   0.067   5.106
 8700SOL    HW227000   0.717   0.200   5.094
 8701SOL     OW27001   1.126   1.965   6.740
 8701SOL    HW127002   1.141   2.041   6.803
 8701SOL    HW227003   1.114   2.001   6.647
 8702SOL     OW27004   5.401   4.135   1.882
 8702SOL    HW127005   5.365   4.124   1.789
 8702SOL    HW227006   5.440   4.226   1.892
 8703SOL     OW27007   2.540   4.547   1.135
 8703SOL    HW127008   2.599   4.467   1.130
 8703SOL    HW227009   2.466   4.530   1.201
 8704SOL     OW27010   0.671   2.110   3.788
 8704SOL    HW127011   0.605   2.185   3.799
 8704SOL    HW227012   0.759   2.138   3.827
 8705SOL     OW27013   4.304   2.710   0.397
 8705SOL    HW127014   4.391   2.743   0.359
 8705SOL    HW227015   4.244   2.681   0.322
 8706SOL     OW27016   4.818   3.328   6.374
 8706SOL    HW127017   4.762   3.396   6.422
 8706SOL    HW227018   4.833   3.358   6.280
 8707SOL     OW27019   1.478   2.095   4.474
 8707SOL    HW127020   1.493   2.014   4.418
 8707SOL    HW227021   1.524   2.174   4.433
 8708SOL     OW27022   5.872   2.240   2.530
 8708SOL    HW127023   5.874   2.213   2.434
 8708SOL    HW227024   5.796   2.193   2.576
 8709SOL     OW27025   6.737   0.244   5.732
 8709SOL    HW127026   6.824   0.212   5.769
 8709SOL    HW227027   6.704   0.180   5.662
 8710SOL     OW27028   2.224   1.282   3.743
 8710SOL    HW127029   2.267   1.199   3.779
 8710SOL    HW227030   2.184   1.263   3.654
 8711SOL     OW27031   1.232   0.620   1.681
 8711SOL    HW127032   1.307   0.606   1.617
 8711SOL    HW227033   1.162   0.549   1.666
 8712SOL     OW27034   1.767   2.472   5.642
 8712SOL    HW127035   1.862   2.463   5.612
 8712SOL    HW227036   1.718   2.531   5.578
 8713SOL     OW27037   1.019   4.921   2.073
 8713SOL    HW127038   1.042   5.017   2.083
 8713SOL    HW227039   0.977   4.905   1.984
 8714SOL     OW27040   6.511   6.202   6.870
 8714SOL    HW127041   6.411   6.200   6.872
 8714SOL    HW227042   6.543   6.197   6.776
 8715SOL     OW27043   2.746   2.080   0.407
 8715SOL    HW127044   2.843   2.082   0.431
 8715SOL    HW227045   2.691   2.088   0.490
 8716SOL     OW27046   6.475   6.915   1.412
 8716SOL    HW127047   6.486   6.820   1.384
 8716SOL    HW227048   6.563   6.962   1.404
 8717SOL     OW27049   2.361   4.641   0.216
 8717SOL    HW127050   2.321   4.614   0.129
 8717SOL    HW227051   2.367   4.561   0.276
 8718SOL     OW27052   2.340   4.413   6.338
 8718SOL    HW127053   2.333   4.508   6.370
 8718SOL    HW227054   2.356   4.353   6.416
 8719SOL     OW27055   3.615   0.931   5.991
 8719SOL    HW127056   3.707   0.954   5.959
 8719SOL    HW227057   3.549   0.993   5.948
 8720SOL     OW27058   6.794   4.125   5.063
 8720SOL    HW127059   6.729   4.160   5.130
 8720SOL    HW227060   6.815   4.196   4.996
 8721SOL     OW27061   0.011   6.559   6.601
 8721SOL    HW127062   6.970   6.491   6.558
 8721SOL    HW227063   0.087   6.581   6.540
 8722SOL     OW27064   3.815   0.957   1.154
 8722SOL    HW127065   3.795   0.992   1.246
 8722SOL    HW227066   3.800   1.029   1.087
 8723SOL     OW27067   5.175   0.045   2.353
 8723SOL    HW127068   5.126   7.013   2.281
 8723SOL    HW227069   5.130   0.029   2.441
 8724SOL     OW27070   4.229   0.321   4.739
 8724SOL    HW127071   4.203   0.400   4.794
 8724SOL    HW227072   4.166   0.246   4.757
 8725SOL     OW27073   0.538   6.448   4.528
 8725SOL    HW127074   0.621   6.401   4.558
 8725SOL    HW227075   0.522   6.527   4.588
 8726SOL     OW27076   0.822   0.919   0.376
 8726SOL    HW127077   0.856   0.915   0.470
 8726SOL    HW227078   0.898   0.933   0.313
 8727SOL     OW27079   5.369   5.786   6.139
 8727SOL    HW127080   5.424   5.709   6.105
 8727SOL    HW227081   5.280   5.786   6.093
 8728SOL     OW27082   5.989   0.398   3.164
 8728SOL    HW127083   5.904   0.407   3.216
 8728SOL    HW227084   5.984   0.318   3.105
 8729SOL     OW27085   3.731   5.351   6.156
 8729SOL    HW127086   3.786   5.434   6.141
 8729SOL    HW227087   3.641   5.363   6.114
 8730SOL     OW27088   5.183   4.780   2.162
 8730SOL    HW127089   5.114   4.708   2.154
 8730SOL    HW227090   5.166   4.850   2.093
 8731SOL     OW27091   0.200   2.042   3.367
 8731SOL    HW127092   0.122   1.980   3.356
 8731SOL    HW227093   0.167   2.135   3.384
 8732SOL     OW27094   5.103   5.406   1.052
 8732SOL    HW127095   5.198   5.437   1.061
 8732SOL    HW227096   5.042   5.484   1.065
 8733SOL     OW27097   0.247   4.791   2.547
 8733SOL    HW127098   0.227   4.821   2.454
 8733SOL    HW227099   0.274   4.694   2.546
 8734SOL     OW27100   6.879   3.491   2.147
 8734SOL    HW127101   6.807   3.502   2.079
 8734SOL    HW227102   6.843   3.443   2.227
 8735SOL     OW27103   1.907   4.031   5.664
 8735SOL    HW127104   1.917   4.102   5.595
 8735SOL    HW227105   1.818   3.987   5.652
 8736SOL     OW27106   0.882   5.571   2.629
 8736SOL    HW127107   0.877   5.625   2.545
 8736SOL    HW227108   0.796   5.521   2.641
 8737SOL     OW27109   1.650   5.180   6.580
 8737SOL    HW127110   1.654   5.173   6.680
 8737SOL    HW227111   1.555   5.192   6.551
 8738SOL     OW27112   1.058   3.849   3.610
 8738SOL    HW127113   0.994   3.773   3.599
 8738SOL    HW227114   1.011   3.926   3.653
 8739SOL     OW27115   5.240   4.255   5.311
 8739SOL    HW127116   5.281   4.213   5.230
 8739SOL    HW227117   5.143   4.271   5.293
 8740SOL     OW27118   3.514   1.813   3.873
 8740SOL    HW127119   3.599   1.816   3.925
 8740SOL    HW227120   3.441   1.775   3.929
 8741SOL     OW27121   1.091   0.098   2.197
 8741SOL    HW127122   1.136   0.170   2.250
 8741SOL    HW227123   1.113   0.009   2.238
 8742SOL     OW27124   3.167   1.457   2.522
 8742SOL    HW127125   3.085   1.411   2.488
 8742SOL    HW227126   3.248   1.407   2.491
 8743SOL     OW27127   1.488   0.560   1.939
 8743SOL    HW127128   1.482   0.472   1.892
 8743SOL    HW227129   1.451   0.632   1.880
 8744SOL     OW27130   3.653   3.955   6.873
 8744SOL    HW127131   3.625   3.887   6.805
 8744SOL    HW227132   3.745   3.933   6.906
 8745SOL     OW27133   6.412   1.500   6.206
 8745SOL    HW127134   6.362   1.584   6.184
 8745SOL    HW227135   6.365   1.452   6.280
 8746SOL     OW27136   5.280   5.303   4.445
 8746SOL    HW127137   5.336   5.237   4.395
 8746SOL    HW227138   5.311   5.306   4.540
 8747SOL     OW27139   6.845   0.748   2.052
 8747SOL    HW127140   6.930   0.696   2.066
 8747SOL    HW227141   6.783   0.729   2.128
 8748SOL     OW27142   0.581   1.943   3.443
 8748SOL    HW127143   0.661   1.890   3.416
 8748SOL    HW227144   0.610   2.027   3.489
 8749SOL     OW27145   2.635   1.584   5.421
 8749SOL    HW127146   2.544   1.545   5.403
 8749SOL    HW227147   2.630   1.684   5.416
 8750SOL     OW27148   4.760   2.685   6.292
 8750SOL    HW127149   4.802   2.769   6.258
 8750SOL    HW227150   4.683   2.708   6.352
 8751SOL     OW27151   0.242   6.339   1.989
 8751SOL    HW127152   0.263   6.260   2.046
 8751SOL    HW227153   0.146   6.336   1.961
 8752SOL     OW27154   4.791   3.177   6.907
 8752SOL    HW127155   4.872   3.144   6.957
 8752SOL    HW227156   4.710   3.130   6.941
 8753SOL     OW27157   1.578   3.042   0.070
 8753SOL    HW127158   1.615   3.127   0.034
 8753SOL    HW227159   1.492   3.061   0.118
 8754SOL     OW27160   2.932   5.446   6.749
 8754SOL    HW127161   2.882   5.510   6.807
 8754SOL    HW227162   2.995   5.392   6.805
 8755SOL     OW27163   0.350   1.724   2.321
 8755SOL    HW127164   0.312   1.682   2.403
 8755SOL    HW227165   0.283   1.786   2.281
 8756SOL     OW27166   2.196   2.528   3.892
 8756SOL    HW127167   2.147   2.579   3.822
 8756SOL    HW227168   2.229   2.592   3.962
 8757SOL     OW27169   4.817   6.517   5.551
 8757SOL    HW127170   4.895   6.462   5.580
 8757SOL    HW227171   4.805   6.508   5.452
 8758SOL     OW27172   3.848   6.584   3.881
 8758SOL    HW127173   3.788   6.517   3.837
 8758SOL    HW227174   3.881   6.648   3.812
 8759SOL     OW27175   6.364   0.882   0.329
 8759SOL    HW127176   6.311   0.820   0.271
 8759SOL    HW227177   6.323   0.884   0.421
 8760SOL     OW27178   2.242   2.220   4.571
 8760SOL    HW127179   2.246   2.286   4.496
 8760SOL    HW227180   2.226   2.268   4.657
 8761SOL     OW27181   4.631   1.080   2.152
 8761SOL    HW127182   4.648   1.120   2.242
 8761SOL    HW227183   4.709   1.100   2.092
 8762SOL     OW27184   1.203   4.933   3.395
 8762SOL    HW127185   1.281   4.965   3.340
 8762SOL    HW227186   1.235   4.908   3.486
 8763SOL     OW27187   0.195   1.004   5.800
 8763SOL    HW127188   0.129   0.935   5.771
 8763SOL    HW227189   0.196   1.079   5.735
 8764SOL     OW27190   3.893   4.914   5.768
 8764SOL    HW127191   3.845   4.973   5.703
 8764SOL    HW227192   3.928   4.833   5.720
 8765SOL     OW27193   5.008   0.100   5.071
 8765SOL    HW127194   5.003   0.190   5.028
 8765SOL    HW227195   5.061   0.037   5.014
 8766SOL     OW27196   5.161   4.789   5.800
 8766SOL    HW127197   5.101   4.865   5.775
 8766SOL    HW227198   5.112   4.703   5.788
 8767SOL     OW27199   3.094   0.645   3.594
 8767SOL    HW127200   3.155   0.721   3.571
 8767SOL    HW227201   3.137   0.559   3.566
 8768SOL     OW27202   6.596   2.812   0.395
 8768SOL    HW127203   6.593   2.871   0.314
 8768SOL    HW227204   6.691   2.802   0.426
 8769SOL     OW27205   6.412   1.138   0.961
 8769SOL    HW127206   6.508   1.167   0.960
 8769SOL    HW227207   6.408   1.038   0.958
 8770SOL     OW27208   4.963   3.472   2.570
 8770SOL    HW127209   4.970   3.409   2.647
 8770SOL    HW227210   4.984   3.565   2.601
 8771SOL     OW27211   0.413   3.653   6.190
 8771SOL    HW127212   0.473   3.727   6.159
 8771SOL    HW227213   0.456   3.606   6.267
 8772SOL     OW27214   5.746   0.138   4.448
 8772SOL    HW127215   5.780   0.229   4.423
 8772SOL    HW227216   5.823   0.080   4.475
 8773SOL     OW27217   6.825   2.071   4.031
 8773SOL    HW127218   6.816   2.086   3.932
 8773SOL    HW227219   6.853   2.155   4.075
 8774SOL     OW27220   1.418   0.231   0.386
 8774SOL    HW127221   1.414   0.150   0.444
 8774SOL    HW227222   1.347   0.227   0.316
 8775SOL     OW27223   5.269   2.015   4.471
 8775SOL    HW127224   5.230   1.968   4.550
 8775SOL    HW227225   5.238   1.971   4.387
 8776SOL     OW27226   4.797   2.635   0.256
 8776SOL    HW127227   4.823   2.573   0.331
 8776SOL    HW227228   4.813   2.589   0.168
 8777SOL     OW27229   1.445   2.256   3.246
 8777SOL    HW127230   1.433   2.208   3.159
 8777SOL    HW227231   1.370   2.320   3.259
 8778SOL     OW27232   4.420   4.433   5.891
 8778SOL    HW127233   4.323   4.413   5.877
 8778SOL    HW227234   4.452   4.386   5.973
 8779SOL     OW27235   3.400   4.891   3.315
 8779SOL    HW127236   3.396   4.892   3.415
 8779SOL    HW227237   3.308   4.896   3.277
 8780SOL     OW27238   6.785   5.453   2.828
 8780SOL    HW127239   6.789   5.407   2.917
 8780SOL    HW227240   6.788   5.552   2.842
 8781SOL     OW27241   3.749   6.124   2.103
 8781SOL    HW127242   3.764   6.222   2.100
 8781SOL    HW227243   3.777   6.088   2.192
 8782SOL     OW27244   4.899   0.749   1.694
 8782SOL    HW127245   4.942   0.816   1.755
 8782SOL    HW227246   4.834   0.694   1.746
 8783SOL     OW27247   4.927   3.467   4.818
 8783SOL    HW127248   4.883   3.529   4.883
 8783SOL    HW227249   4.867   3.388   4.801
 8784SOL     OW27250   5.579   6.486   0.836
 8784SOL    HW127251   5.502   6.422   0.830
 8784SOL    HW227252   5.545   6.578   0.853
 8785SOL     OW27253   0.788   5.552   6.077
 8785SOL    HW127254   0.853   5.487   6.116
 8785SOL    HW227255   0.785   5.635   6.133
 8786SOL     OW27256   4.115   1.965   2.175
 8786SOL    HW127257   4.056   1.899   2.127
 8786SOL    HW227258   4.079   2.057   2.162
 8787SOL     OW27259   3.462   0.417   1.896
 8787SOL    HW127260   3.440   0.473   1.816
 8787SOL    HW227261   3.378   0.374   1.931
 8788SOL     OW27262   0.637   0.031   4.793
 8788SOL    HW127263   0.626   0.103   4.726
 8788SOL    HW227264   0.670   0.070   4.879
 8789SOL     OW27265   0.464   3.558   4.910
 8789SOL    HW127266   0.479   3.656   4.916
 8789SOL    HW227267   0.549   3.513   4.883
 8790SOL     OW27268   5.829   3.113   6.590
 8790SOL    HW127269   5.916   3.062   6.591
 8790SOL    HW227270   5.766   3.071   6.656
 8791SOL     OW27271   4.543   5.586   5.375
 8791SOL    HW127272   4.547   5.655   5.448
 8791SOL    HW227273   4.495   5.505   5.409
 8792SOL     OW27274   5.004   5.352   1.778
 8792SOL    HW127275   5.032   5.304   1.861
 8792SOL    HW227276   4.915   5.395   1.793
 8793SOL     OW27277   0.467   4.653   4.495
 8793SOL    HW127278   0.384   4.634   4.548
 8793SOL    HW227279   0.538   4.687   4.557
 8794SOL     OW27280   0.033   0.201   1.894
 8794SOL    HW127281   0.026   0.121   1.953
 8794SOL    HW227282   0.059   0.172   1.802
 8795SOL     OW27283   1.702   5.227   5.624
 8795SOL    HW127284   1.725   5.199   5.717
 8795SOL    HW227285   1.750   5.312   5.602
 8796SOL     OW27286   6.814   3.369   3.475
 8796SOL    HW127287   6.756   3.449   3.485
 8796SOL    HW227288   6.786   3.299   3.540
 8797SOL     OW27289   5.945   0.098   4.038
 8797SOL    HW127290   5.925   0.170   3.970
 8797SOL    HW227291   5.917   0.010   4.001
 8798SOL     OW27292   4.715   6.394   5.781
 8798SOL    HW127293   4.766   6.436   5.705
 8798SOL    HW227294   4.618   6.392   5.758
 8799SOL     OW27295   2.163   5.092   2.189
 8799SOL    HW127296   2.173   5.074   2.091
 8799SOL    HW227297   2.239   5.052   2.239
 8800SOL     OW27298   6.968   5.807   5.503
 8800SOL    HW127299   6.931   5.874   5.439
 8800SOL    HW227300   6.897   5.782   5.570
 8801SOL     OW27301   6.074   2.379   5.178
 8801SOL    HW127302   6.091   2.471   5.143
 8801SOL    HW227303   6.003   2.383   5.248
 8802SOL     OW27304   1.201   6.330   5.652
 8802SOL    HW127305   1.121   6.306   5.597
 8802SOL    HW227306   1.208   6.430   5.659
 8803SOL     OW27307   6.182   0.548   6.298
 8803SOL    HW127308   6.205   0.526   6.393
 8803SOL    HW227309   6.083   0.542   6.286
 8804SOL     OW27310   1.628   5.771   1.968
 8804SOL    HW127311   1.666   5.808   1.884
 8804SOL    HW227312   1.611   5.846   2.033
 8805SOL     OW27313   4.429   5.476   2.421
 8805SOL    HW127314   4.489   5.419   2.365
 8805SOL    HW227315   4.439   5.451   2.517
 8806SOL     OW27316   2.158   6.656   0.091
 8806SOL    HW127317   2.102   6.657   0.174
 8806SOL    HW227318   2.246   6.700   0.110
 8807SOL     OW27319   5.098   2.403   1.218
 8807SOL    HW127320   5.024   2.380   1.156
 8807SOL    HW227321   5.172   2.336   1.210
 8808SOL     OW27322   2.185   2.117   0.745
 8808SOL    HW127323   2.143   2.129   0.655
 8808SOL    HW227324   2.215   2.022   0.756
 8809SOL     OW27325   1.638   3.654   3.567
 8809SOL    HW127326   1.595   3.730   3.519
 8809SOL    HW227327   1.586   3.632   3.650
 8810SOL     OW27328   6.707   1.445   5.660
 8810SOL    HW127329   6.668   1.426   5.750
 8810SOL    HW227330   6.646   1.506   5.610
 8811SOL     OW27331   4.361   6.059   2.437
 8811SOL    HW127332   4.369   6.068   2.338
 8811SOL    HW227333   4.326   5.968   2.459
 8812SOL     OW27334   3.534   1.617   6.467
 8812SOL    HW127335   3.466   1.586   6.534
 8812SOL    HW227336   3.527   1.716   6.457
 8813SOL     OW27337   2.679   4.678   3.115
 8813SOL    HW127338   2.625   4.602   3.080
 8813SOL    HW227339   2.694   4.666   3.213
 8814SOL     OW27340   5.698   7.019   6.789
 8814SOL    HW127341   5.727   0.086   6.747
 8814SOL    HW227342   5.775   6.978   6.839
 8815SOL     OW27343   5.321   1.158   0.173
 8815SOL    HW127344   5.359   1.087   0.113
 8815SOL    HW227345   5.225   1.139   0.190
 8816SOL     OW27346   0.868   6.200   5.725
 8816SOL    HW127347   0.913   6.111   5.737
 8816SOL    HW227348   0.800   6.213   5.796
 8817SOL     OW27349   1.749   3.349   4.235
 8817SOL    HW127350   1.833   3.299   4.212
 8817SOL    HW227351   1.759   3.445   4.207
 8818SOL     OW27352   2.308   0.066   3.980
 8818SOL    HW127353   2.384   0.001   3.984
 8818SOL    HW227354   2.225   0.022   4.014
 8819SOL     OW27355   5.382   4.289   5.989
 8819SOL    HW127356   5.481   4.298   5.980
 8819SOL    HW227357   5.337   4.372   5.957
 8820SOL     OW27358   3.429   0.796   4.393
 8820SOL    HW127359   3.458   0.798   4.297
 8820SOL    HW227360   3.330   0.806   4.398
 8821SOL     OW27361   0.963   4.414   0.550
 8821SOL    HW127362   0.963   4.485   0.480
 8821SOL    HW227363   0.955   4.455   0.640
 8822SOL     OW27364   6.624   6.870   3.827
 8822SOL    HW127365   6.543   6.892   3.881
 8822SOL    HW227366   6.675   6.953   3.808
 8823SOL     OW27367   3.744   0.844   3.105
 8823SOL    HW127368   3.648   0.826   3.082
 8823SOL    HW227369   3.761   0.942   3.102
 8824SOL     OW27370   2.215   1.051   1.411
 8824SOL    HW127371   2.125   1.083   1.441
 8824SOL    HW227372   2.270   1.129   1.380
 8825SOL     OW27373   0.245   6.958   6.824
 8825SOL    HW127374   0.222   6.988   6.916
 8825SOL    HW227375   0.169   6.978   6.762
 8826SOL     OW27376   1.046   3.200   0.938
 8826SOL    HW127377   1.019   3.118   0.987
 8826SOL    HW227378   1.038   3.185   0.839
 8827SOL     OW27379   4.329   0.203   2.352
 8827SOL    HW127380   4.343   0.105   2.362
 8827SOL    HW227381   4.280   0.239   2.431
 8828SOL     OW27382   4.399   3.345   6.379
 8828SOL    HW127383   4.426   3.335   6.475
 8828SOL    HW227384   4.305   3.315   6.367
 8829SOL     OW27385   7.012   1.692   2.050
 8829SOL    HW127386   6.954   1.721   1.973
 8829SOL    HW227387   6.996   1.595   2.068
 8830SOL     OW27388   2.875   1.929   2.885
 8830SOL    HW127389   2.805   1.878   2.936
 8830SOL    HW227390   2.853   2.027   2.888
 8831SOL     OW27391   0.479   1.960   1.794
 8831SOL    HW127392   0.543   1.946   1.869
 8831SOL    HW227393   0.444   2.054   1.797
 8832SOL     OW27394   6.680   0.103   4.137
 8832SOL    HW127395   6.724   0.138   4.054
 8832SOL    HW227396   6.584   0.133   4.138
 8833SOL     OW27397   3.485   2.532   0.912
 8833SOL    HW127398   3.411   2.532   0.979
 8833SOL    HW227399   3.545   2.454   0.930
 8834SOL     OW27400   5.758   3.735   5.274
 8834SOL    HW127401   5.763   3.649   5.223
 8834SOL    HW227402   5.679   3.733   5.335
 8835SOL     OW27403   6.237   0.640   5.498
 8835SOL    HW127404   6.201   0.672   5.410
 8835SOL    HW227405   6.282   0.715   5.545
 8836SOL     OW27406   4.962   2.211   6.458
 8836SOL    HW127407   5.042   2.271   6.463
 8836SOL    HW227408   4.934   2.201   6.363
 8837SOL     OW27409   5.868   0.066   1.653
 8837SOL    HW127410   5.899   0.150   1.609
 8837SOL    HW227411   5.902   0.063   1.747
 8838SOL     OW27412   0.063   4.067   3.366
 8838SOL    HW127413   0.150   4.109   3.340
 8838SOL    HW227414   7.016   4.139   3.389
 8839SOL     OW27415   5.343   6.220   3.428
 8839SOL    HW127416   5.298   6.132   3.412
 8839SOL    HW227417   5.285   6.277   3.485
 8840SOL     OW27418   0.113   0.940   1.289
 8840SOL    HW127419   0.096   1.038   1.279
 8840SOL    HW227420   0.187   0.913   1.227
 8841SOL     OW27421   3.680   1.494   1.935
 8841SOL    HW127422   3.769   1.450   1.946
 8841SOL    HW227423   3.608   1.424   1.934
 8842SOL     OW27424   3.660   2.903   4.130
 8842SOL    HW127425   3.664   2.940   4.222
 8842SOL    HW227426   3.727   2.949   4.072
 8843SOL     OW27427   1.889   3.661   5.375
 8843SOL    HW127428   1.928   3.589   5.317
 8843SOL    HW227429   1.962   3.723   5.404
 8844SOL     OW27430   5.051   1.582   4.938
 8844SOL    HW127431   5.028   1.491   4.903
 8844SOL    HW227432   4.988   1.606   5.012
 8845SOL     OW27433   0.993   5.386   1.422
 8845SOL    HW127434   0.896   5.381   1.398
 8845SOL    HW227435   1.023   5.297   1.455
 8846SOL     OW27436   5.322   4.784   3.507
 8846SOL    HW127437   5.280   4.721   3.441
 8846SOL    HW227438   5.256   4.805   3.579
 8847SOL     OW27439   2.358   2.151   2.636
 8847SOL    HW127440   2.261   2.167   2.618
 8847SOL    HW227441   2.368   2.098   2.720
 8848SOL     OW27442   3.498   1.559   1.139
 8848SOL    HW127443   3.444   1.574   1.056
 8848SOL    HW227444   3.482   1.634   1.203
 8849SOL     OW27445   3.533   5.913   4.563
 8849SOL    HW127446   3.442   5.872   4.562
 8849SOL    HW227447   3.599   5.847   4.527
 8850SOL     OW27448   3.005   2.138   0.409
 8850SOL    HW127449   3.094   2.144   0.456
 8850SOL    HW227450   3.020   2.128   0.311
 8851SOL     OW27451   0.865   4.838   3.707
 8851SOL    HW127452   0.898   4.763   3.650
 8851SOL    HW227453   0.769   4.856   3.686
 8852SOL     OW27454   5.732   2.697   5.753
 8852SOL    HW127455   5.660   2.644   5.709
 8852SOL    HW227456   5.700   2.791   5.766
 8853SOL     OW27457   4.092   1.351   5.216
 8853SOL    HW127458   4.149   1.290   5.270
 8853SOL    HW227459   4.023   1.394   5.275
 8854SOL     OW27460   1.536   1.886   6.093
 8854SOL    HW127461   1.452   1.909   6.142
 8854SOL    HW227462   1.512   1.847   6.004
 8855SOL     OW27463   6.225   5.972   6.553
 8855SOL    HW127464   6.142   5.999   6.602
 8855SOL    HW227465   6.200   5.915   6.475
 8856SOL     OW27466   5.874   1.026   5.082
 8856SOL    HW127467   5.838   1.119   5.087
 8856SOL    HW227468   5.959   1.020   5.134
 8857SOL     OW27469   6.242   2.140   3.583
 8857SOL    HW127470   6.297   2.094   3.514
 8857SOL    HW227471   6.165   2.081   3.608
 8858SOL     OW27472   1.053   3.701   5.964
 8858SOL    HW127473   1.084   3.746   5.880
 8858SOL    HW227474   0.958   3.670   5.952
 8859SOL     OW27475   1.280   5.947   5.410
 8859SOL    HW127476   1.265   5.856   5.371
 8859SOL    HW227477   1.255   6.017   5.343
 8860SOL     OW27478   1.133   2.214   2.389
 8860SOL    HW127479   1.160   2.306   2.416
 8860SOL    HW227480   1.090   2.216   2.299
 8861SOL     OW27481   3.954   3.166   0.266
 8861SOL    HW127482   3.989   3.237   0.205
 8861SOL    HW227483   3.854   3.165   0.263
 8862SOL     OW27484   5.791   1.695   4.840
 8862SOL    HW127485   5.888   1.704   4.862
 8862SOL    HW227486   5.761   1.602   4.860
 8863SOL     OW27487   2.067   5.754   4.721
 8863SOL    HW127488   2.133   5.817   4.761
 8863SOL    HW227489   2.043   5.683   4.788
 8864SOL     OW27490   2.232   3.231   6.313
 8864SOL    HW127491   2.216   3.172   6.392
 8864SOL    HW227492   2.328   3.259   6.311
 8865SOL     OW27493   2.427   1.887   5.457
 8865SOL    HW127494   2.466   1.947   5.527
 8865SOL    HW227495   2.336   1.919   5.432
 8866SOL     OW27496   3.338   6.615   3.387
 8866SOL    HW127497   3.371   6.631   3.480
 8866SOL    HW227498   3.280   6.691   3.359
 8867SOL     OW27499   5.908   1.994   3.043
 8867SOL    HW127500   5.976   2.035   2.982
 8867SOL    HW227501   5.925   2.025   3.137
 8868SOL     OW27502   4.826   4.141   0.696
 8868SOL    HW127503   4.814   4.076   0.621
 8868SOL    HW227504   4.841   4.090   0.781
 8869SOL     OW27505   4.854   3.548   3.262
 8869SOL    HW127506   4.760   3.568   3.236
 8869SOL    HW227507   4.915   3.572   3.187
 8870SOL     OW27508   4.050   1.160   0.994
 8870SOL    HW127509   3.953   1.138   1.004
 8870SOL    HW227510   4.072   1.240   1.049
 8871SOL     OW27511   1.753   1.858   3.521
 8871SOL    HW127512   1.765   1.870   3.422
 8871SOL    HW227513   1.819   1.791   3.554
 8872SOL     OW27514   1.859   4.084   4.359
 8872SOL    HW127515   1.809   4.018   4.304
 8872SOL    HW227516   1.833   4.177   4.333
 8873SOL     OW27517   0.407   5.355   4.209
 8873SOL    HW127518   0.350   5.433   4.235
 8873SOL    HW227519   0.430   5.362   4.112
 8874SOL     OW27520   2.782   0.413   1.231
 8874SOL    HW127521   2.821   0.503   1.249
 8874SOL    HW227522   2.857   0.347   1.221
 8875SOL     OW27523   1.570   2.946   4.437
 8875SOL    HW127524   1.509   2.881   4.392
 8875SOL    HW227525   1.657   2.950   4.388
 8876SOL     OW27526   0.485   1.124   4.993
 8876SOL    HW127527   0.497   1.214   4.951
 8876SOL    HW227528   0.567   1.102   5.047
 8877SOL     OW27529   3.046   0.852   4.379
 8877SOL    HW127530   3.088   0.934   4.341
 8877SOL    HW227531   3.059   0.775   4.316
 8878SOL     OW27532   0.103   4.110   7.008
 8878SOL    HW127533   0.107   4.208   0.011
 8878SOL    HW227534   0.066   4.099   6.915
 8879SOL     OW27535   5.410   6.367   0.307
 8879SOL    HW127536   5.360   6.346   0.222
 8879SOL    HW227537   5.400   6.290   0.370
 8880SOL     OW27538   6.568   4.682   4.226
 8880SOL    HW127539   6.514   4.765   4.240
 8880SOL    HW227540   6.630   4.696   4.149
 8881SOL     OW27541   0.151   1.160   1.886
 8881SOL    HW127542   0.122   1.190   1.976
 8881SOL    HW227543   0.245   1.189   1.869
 8882SOL     OW27544   5.649   2.366   6.509
 8882SOL    HW127545   5.627   2.334   6.417
 8882SOL    HW227546   5.699   2.452   6.503
 8883SOL     OW27547   6.025   0.686   5.938
 8883SOL    HW127548   6.044   0.720   5.846
 8883SOL    HW227549   6.065   0.594   5.948
 8884SOL     OW27550   5.445   6.997   5.987
 8884SOL    HW127551   5.489   6.916   5.948
 8884SOL    HW227552   5.514   0.047   6.010
 8885SOL     OW27553   5.931   3.738   1.911
 8885SOL    HW127554   5.903   3.758   1.817
 8885SOL    HW227555   5.916   3.641   1.930
 8886SOL     OW27556   2.679   6.686   5.908
 8886SOL    HW127557   2.605   6.708   5.972
 8886SOL    HW227558   2.751   6.756   5.916
 8887SOL     OW27559   2.784   0.952   1.519
 8887SOL    HW127560   2.719   1.022   1.491
 8887SOL    HW227561   2.740   0.863   1.519
 8888SOL     OW27562   2.121   1.407   1.441
 8888SOL    HW127563   2.027   1.437   1.457
 8888SOL    HW227564   2.165   1.469   1.376
 8889SOL     OW27565   4.513   0.084   4.712
 8889SOL    HW127566   4.517   7.010   4.749
 8889SOL    HW227567   4.605   0.125   4.714
 8890SOL     OW27568   0.175   5.595   4.755
 8890SOL    HW127569   0.173   5.499   4.784
 8890SOL    HW227570   0.235   5.604   4.676
 8891SOL     OW27571   5.595   3.199   6.426
 8891SOL    HW127572   5.677   3.177   6.478
 8891SOL    HW227573   5.613   3.277   6.366
 8892SOL     OW27574   2.016   0.435   3.369
 8892SOL    HW127575   2.039   0.506   3.436
 8892SOL    HW227576   1.925   0.400   3.388
 8893SOL     OW27577   6.869   1.420   0.931
 8893SOL    HW127578   6.947   1.460   0.978
 8893SOL    HW227579   6.834   1.484   0.863
 8894SOL     OW27580   4.348   2.709   5.920
 8894SOL    HW127581   4.431   2.716   5.864
 8894SOL    HW227582   4.281   2.651   5.874
 8895SOL     OW27583   0.538   6.758   1.435
 8895SOL    HW127584   0.524   6.716   1.345
 8895SOL    HW227585   0.635   6.759   1.456
 8896SOL     OW27586   1.687   4.069   4.926
 8896SOL    HW127587   1.744   3.992   4.898
 8896SOL    HW227588   1.744   4.139   4.969
 8897SOL     OW27589   1.202   1.590   1.360
 8897SOL    HW127590   1.296   1.557   1.353
 8897SOL    HW227591   1.162   1.562   1.447
 8898SOL     OW27592   5.899   3.352   4.242
 8898SOL    HW127593   5.933   3.387   4.154
 8898SOL    HW227594   5.868   3.258   4.230
 8899SOL     OW27595   1.882   4.468   0.164
 8899SOL    HW127596   1.966   4.457   0.217
 8899SOL    HW227597   1.889   4.550   0.107
 8900SOL     OW27598   4.665   2.350   3.059
 8900SOL    HW127599   4.671   2.251   3.045
 8900SOL    HW227600   4.590   2.387   3.005
 8901SOL     OW27601   1.192   0.412   2.707
 8901SOL    HW127602   1.152   0.374   2.624
 8901SOL    HW227603   1.118   0.440   2.769
 8902SOL     OW27604   1.925   5.575   6.284
 8902SOL    HW127605   1.872   5.648   6.240
 8902SOL    HW227606   1.996   5.617   6.342
 8903SOL     OW27607   2.039   1.926   3.988
 8903SOL    HW127608   1.943   1.913   4.013
 8903SOL    HW227609   2.098   1.899   4.064
 8904SOL     OW27610   0.117   5.668   3.965
 8904SOL    HW127611   0.099   5.720   3.881
 8904SOL    HW227612   0.031   5.652   4.013
 8905SOL     OW27613   2.447   3.409   5.525
 8905SOL    HW127614   2.490   3.497   5.545
 8905SOL    HW227615   2.371   3.394   5.588
 8906SOL     OW27616   6.657   6.433   6.246
 8906SOL    HW127617   6.573   6.417   6.297
 8906SOL    HW227618   6.718   6.354   6.254
 8907SOL     OW27619   3.240   2.764   5.218
 8907SOL    HW127620   3.223   2.666   5.217
 8907SOL    HW227621   3.155   2.812   5.241
 8908SOL     OW27622   1.621   1.852   1.566
 8908SOL    HW127623   1.547   1.828   1.503
 8908SOL    HW227624   1.584   1.904   1.643
 8909SOL     OW27625   2.595   0.900   6.105
 8909SOL    HW127626   2.546   0.866   6.025
 8909SOL    HW227627   2.691   0.915   6.081
 8910SOL     OW27628   2.813   2.909   6.807
 8910SOL    HW127629   2.896   2.957   6.778
 8910SOL    HW227630   2.816   2.814   6.774
 8911SOL     OW27631   3.375   2.128   4.659
 8911SOL    HW127632   3.341   2.137   4.752
 8911SOL    HW227633   3.457   2.069   4.659
 8912SOL     OW27634   4.303   1.700   6.289
 8912SOL    HW127635   4.280   1.741   6.378
 8912SOL    HW227636   4.270   1.605   6.287
 8913SOL     OW27637   4.940   4.118   1.803
 8913SOL    HW127638   5.007   4.164   1.860
 8913SOL    HW227639   4.985   4.045   1.750
 8914SOL     OW27640   3.675   1.458   5.066
 8914SOL    HW127641   3.630   1.375   5.034
 8914SOL    HW227642   3.714   1.508   4.988
 8915SOL     OW27643   2.178   3.207   3.387
 8915SOL    HW127644   2.200   3.173   3.478
 8915SOL    HW227645   2.154   3.130   3.328
 8916SOL     OW27646   6.941   4.630   2.698
 8916SOL    HW127647   6.922   4.551   2.757
 8916SOL    HW227648   6.910   4.713   2.744
 8917SOL     OW27649   6.322   6.456   6.639
 8917SOL    HW127650   6.371   6.543   6.640
 8917SOL    HW227651   6.315   6.420   6.732
 8918SOL     OW27652   5.365   6.163   6.481
 8918SOL    HW127653   5.294   6.232   6.494
 8918SOL    HW227654   5.445   6.187   6.537
 8919SOL     OW27655   3.229   4.457   1.007
 8919SOL    HW127656   3.284   4.453   1.090
 8919SOL    HW227657   3.279   4.415   0.932
 8920SOL     OW27658   6.229   5.052   6.033
 8920SOL    HW127659   6.150   4.997   6.060
 8920SOL    HW227660   6.208   5.104   5.951
 8921SOL     OW27661   1.378   0.676   3.847
 8921SOL    HW127662   1.289   0.721   3.847
 8921SOL    HW227663   1.366   0.579   3.822
 8922SOL     OW27664   1.609   4.813   0.836
 8922SOL    HW127665   1.580   4.799   0.931
 8922SOL    HW227666   1.644   4.727   0.799
 8923SOL     OW27667   1.766   3.816   6.884
 8923SOL    HW127668   1.857   3.857   6.893
 8923SOL    HW227669   1.766   3.726   6.927
 8924SOL     OW27670   3.364   5.086   5.067
 8924SOL    HW127671   3.330   5.039   4.986
 8924SOL    HW227672   3.401   5.175   5.042
 8925SOL     OW27673   6.745   0.018   2.147
 8925SOL    HW127674   6.775   6.974   2.219
 8925SOL    HW227675   6.645   0.026   2.150
 8926SOL     OW27676   5.432   2.143   2.118
 8926SOL    HW127677   5.420   2.242   2.113
 8926SOL    HW227678   5.523   2.118   2.086
 8927SOL     OW27679   2.398   2.747   5.196
 8927SOL    HW127680   2.485   2.700   5.178
 8927SOL    HW227681   2.408   2.844   5.172
 8928SOL     OW27682   0.533   0.523   5.444
 8928SOL    HW127683   0.557   0.611   5.485
 8928SOL    HW227684   0.490   0.465   5.513
 8929SOL     OW27685   0.018   3.851   4.324
 8929SOL    HW127686   7.009   3.755   4.316
 8929SOL    HW227687   6.960   3.910   4.296
 8930SOL     OW27688   1.440   5.056   4.854
 8930SOL    HW127689   1.366   5.110   4.895
 8930SOL    HW227690   1.442   5.072   4.755
 8931SOL     OW27691   4.965   1.539   1.382
 8931SOL    HW127692   5.048   1.546   1.326
 8931SOL    HW227693   4.907   1.466   1.346
 8932SOL     OW27694   5.861   0.590   6.585
 8932SOL    HW127695   5.898   0.675   6.550
 8932SOL    HW227696   5.921   0.514   6.560
 8933SOL     OW27697   1.637   1.024   4.824
 8933SOL    HW127698   1.576   1.102   4.821
 8933SOL    HW227699   1.587   0.941   4.797
 8934SOL     OW27700   3.462   5.783   2.993
 8934SOL    HW127701   3.510   5.776   3.080
 8934SOL    HW227702   3.520   5.831   2.927
 8935SOL     OW27703   4.412   2.360   2.626
 8935SOL    HW127704   4.355   2.288   2.667
 8935SOL    HW227705   4.384   2.374   2.531
 8936SOL     OW27706   0.828   5.085   1.266
 8936SOL    HW127707   0.755   5.124   1.322
 8936SOL    HW227708   0.915   5.091   1.316
 8937SOL     OW27709   7.015   6.528   4.142
 8937SOL    HW127710   0.040   6.573   4.219
 8937SOL    HW227711   6.933   6.579   4.114
 8938SOL     OW27712   6.504   0.856   0.766
 8938SOL    HW127713   6.484   0.828   0.860
 8938SOL    HW227714   6.588   0.911   0.766
 8939SOL     OW27715   0.200   2.676   4.196
 8939SOL    HW127716   0.182   2.736   4.117
 8939SOL    HW227717   0.298   2.659   4.204
 8940SOL     OW27718   0.105   3.171   0.826
 8940SOL    HW127719   0.024   3.127   0.865
 8940SOL    HW227720   0.185   3.114   0.842
 8941SOL     OW27721   5.256   2.249   2.372
 8941SOL    HW127722   5.229   2.250   2.276
 8941SOL    HW227723   5.253   2.342   2.409
 8942SOL     OW27724   6.556   4.378   3.487
 8942SOL    HW127725   6.612   4.321   3.548
 8942SOL    HW227726   6.469   4.332   3.470
 8943SOL     OW27727   4.480   3.749   0.112
 8943SOL    HW127728   4.569   3.729   0.071
 8943SOL    HW227729   4.452   3.672   0.169
 8944SOL     OW27730   4.801   5.093   4.332
 8944SOL    HW127731   4.841   5.168   4.384
 8944SOL    HW227732   4.776   5.018   4.393
 8945SOL     OW27733   6.102   4.114   4.959
 8945SOL    HW127734   6.126   4.112   4.862
 8945SOL    HW227735   6.066   4.024   4.986
 8946SOL     OW27736   5.496   1.304   4.120
 8946SOL    HW127737   5.481   1.276   4.214
 8946SOL    HW227738   5.594   1.320   4.104
 8947SOL     OW27739   1.269   4.804   6.016
 8947SOL    HW127740   1.301   4.712   6.037
 8947SOL    HW227741   1.312   4.869   6.079
 8948SOL     OW27742   6.712   0.466   3.318
 8948SOL    HW127743   6.723   0.396   3.389
 8948SOL    HW227744   6.657   0.541   3.353
 8949SOL     OW27745   2.978   6.390   0.128
 8949SOL    HW127746   3.048   6.324   0.102
 8949SOL    HW227747   3.013   6.448   0.202
 8950SOL     OW27748   4.771   4.723   1.518
 8950SOL    HW127749   4.672   4.725   1.531
 8950SOL    HW227750   4.806   4.631   1.537
 8951SOL     OW27751   2.152   1.414   4.504
 8951SOL    HW127752   2.230   1.411   4.441
 8951SOL    HW227753   2.093   1.491   4.481
 8952SOL     OW27754   1.748   4.752   3.683
 8952SOL    HW127755   1.825   4.788   3.736
 8952SOL    HW227756   1.782   4.690   3.613
 8953SOL     OW27757   2.316   4.942   2.353
 8953SOL    HW127758   2.319   4.983   2.444
 8953SOL    HW227759   2.408   4.941   2.313
 8954SOL     OW27760   1.273   5.155   5.287
 8954SOL    HW127761   1.307   5.062   5.276
 8954SOL    HW227762   1.208   5.175   5.214
 8955SOL     OW27763   4.885   2.682   3.726
 8955SOL    HW127764   4.959   2.746   3.704
 8955SOL    HW227765   4.901   2.595   3.678
 8956SOL     OW27766   1.176   6.236   6.119
 8956SOL    HW127767   1.270   6.248   6.150
 8956SOL    HW227768   1.150   6.140   6.124
 8957SOL     OW27769   1.118   5.183   2.106
 8957SOL    HW127770   1.213   5.173   2.077
 8957SOL    HW227771   1.065   5.226   2.032
 8958SOL     OW27772   1.678   3.861   5.308
 8958SOL    HW127773   1.759   3.839   5.363
 8958SOL    HW227774   1.634   3.777   5.278
 8959SOL     OW27775   0.363   3.145   2.459
 8959SOL    HW127776   0.283   3.160   2.517
 8959SOL    HW227777   0.406   3.233   2.438
 8960SOL     OW27778   5.798   4.165   4.298
 8960SOL    HW127779   5.727   4.186   4.231
 8960SOL    HW227780   5.760   4.174   4.390
 8961SOL     OW27781   3.446   6.948   4.855
 8961SOL    HW127782   3.356   6.990   4.861
 8961SOL    HW227783   3.502   6.996   4.788
 8962SOL     OW27784   0.876   5.761   1.284
 8962SOL    HW127785   0.883   5.662   1.292
 8962SOL    HW227786   0.941   5.795   1.216
 8963SOL     OW27787   3.785   6.002   4.298
 8963SOL    HW127788   3.881   5.973   4.295
 8963SOL    HW227789   3.727   5.927   4.268
 8964SOL     OW27790   6.903   3.272   4.361
 8964SOL    HW127791   6.993   3.307   4.387
 8964SOL    HW227792   6.869   3.212   4.432
 8965SOL     OW27793   4.577   5.122   0.549
 8965SOL    HW127794   4.607   5.181   0.474
 8965SOL    HW227795   4.633   5.141   0.630
 8966SOL     OW27796   5.312   5.410   6.024
 8966SOL    HW127797   5.376   5.344   6.063
 8966SOL    HW227798   5.220   5.392   6.059
 8967SOL     OW27799   3.664   0.391   3.251
 8967SOL    HW127800   3.613   0.390   3.337
 8967SOL    HW227801   3.761   0.411   3.269
 8968SOL     OW27802   3.475   4.974   2.095
 8968SOL    HW127803   3.404   4.990   2.027
 8968SOL    HW227804   3.534   4.899   2.065
 8969SOL     OW27805   0.094   0.931   2.840
 8969SOL    HW127806   7.017   0.902   2.839
 8969SOL    HW227807   0.143   0.886   2.765
 8970SOL     OW27808   1.631   1.396   6.268
 8970SOL    HW127809   1.687   1.417   6.349
 8970SOL    HW227810   1.688   1.404   6.186
 8971SOL     OW27811   4.503   5.673   0.505
 8971SOL    HW127812   4.595   5.661   0.540
 8971SOL    HW227813   4.445   5.715   0.575
 8972SOL     OW27814   5.891   4.432   0.671
 8972SOL    HW127815   5.914   4.529   0.666
 8972SOL    HW227816   5.805   4.416   0.623
 8973SOL     OW27817   0.172   2.482   2.196
 8973SOL    HW127818   0.144   2.430   2.277
 8973SOL    HW227819   0.261   2.524   2.212
 8974SOL     OW27820   2.303   4.125   4.505
 8974SOL    HW127821   2.251   4.045   4.473
 8974SOL    HW227822   2.294   4.133   4.604
 8975SOL     OW27823   0.387   0.336   6.381
 8975SOL    HW127824   0.465   0.277   6.404
 8975SOL    HW227825   0.421   0.426   6.352
 8976SOL     OW27826   6.526   6.610   1.645
 8976SOL    HW127827   6.585   6.539   1.684
 8976SOL    HW227828   6.578   6.663   1.578
 8977SOL     OW27829   0.087   5.010   5.982
 8977SOL    HW127830   0.167   5.023   6.040
 8977SOL    HW227831   0.021   4.951   6.028
 8978SOL     OW27832   5.816   5.316   5.460
 8978SOL    HW127833   5.869   5.401   5.462
 8978SOL    HW227834   5.769   5.309   5.372
 8979SOL     OW27835   1.058   5.373   5.932
 8979SOL    HW127836   1.021   5.336   6.017
 8979SOL    HW227837   0.993   5.357   5.857
 8980SOL     OW27838   3.918   0.810   5.141
 8980SOL    HW127839   3.833   0.862   5.134
 8980SOL    HW227840   3.898   0.712   5.136
 8981SOL     OW27841   4.295   2.945   6.993
 8981SOL    HW127842   4.301   2.847   6.974
 8981SOL    HW227843   4.207   2.964   0.019
 8982SOL     OW27844   0.142   1.291   1.493
 8982SOL    HW127845   0.196   1.257   1.416
 8982SOL    HW227846   0.178   1.380   1.521
 8983SOL     OW27847   1.115   6.684   2.913
 8983SOL    HW127848   1.141   6.755   2.847
 8983SOL    HW227849   1.056   6.724   2.983
 8984SOL     OW27850   5.679   0.366   4.241
 8984SOL    HW127851   5.633   0.309   4.173
 8984SOL    HW227852   5.650   0.461   4.231
 8985SOL     OW27853   4.287   2.539   0.899
 8985SOL    HW127854   4.304   2.506   0.992
 8985SOL    HW227855   4.251   2.464   0.843
 8986SOL     OW27856   6.871   4.466   0.907
 8986SOL    HW127857   6.805   4.542   0.910
 8986SOL    HW227858   6.873   4.421   0.996
 8987SOL     OW27859   2.141   0.058   1.630
 8987SOL    HW127860   2.159   0.133   1.693
 8987SOL    HW227861   2.105   6.998   1.682
 8988SOL     OW27862   1.346   5.042   1.242
 8988SOL    HW127863   1.376   4.959   1.291
 8988SOL    HW227864   1.333   5.116   1.308
 8989SOL     OW27865   5.661   1.648   1.694
 8989SOL    HW127866   5.655   1.676   1.790
 8989SOL    HW227867   5.687   1.727   1.638
 8990SOL     OW27868   3.300   7.004   1.876
 8990SOL    HW127869   3.377   0.015   1.821
 8990SOL    HW227870   3.265   0.062   1.930
 8991SOL     OW27871   2.339   2.654   0.857
 8991SOL    HW127872   2.397   2.615   0.928
 8991SOL    HW227873   2.363   2.615   0.768
 8992SOL     OW27874   0.316   3.304   6.938
 8992SOL    HW127875   0.349   3.395   6.912
 8992SOL    HW227876   0.389   3.237   6.924
 8993SOL     OW27877   5.574   2.532   3.526
 8993SOL    HW127878   5.490   2.479   3.537
 8993SOL    HW227879   5.553   2.629   3.520
 8994SOL     OW27880   0.933   4.956   3.457
 8994SOL    HW127881   1.031   4.954   3.434
 8994SOL    HW227882   0.915   4.895   3.534
 8995SOL     OW27883   1.894   3.849   5.025
 8995SOL    HW127884   1.861   3.898   5.106
 8995SOL    HW227885   1.993   3.843   5.028
 8996SOL     OW27886   0.343   3.882   2.567
 8996SOL    HW127887   0.295   3.875   2.654
 8996SOL    HW227888   0.386   3.795   2.544
 8997SOL     OW27889   4.321   1.530   5.112
 8997SOL    HW127890   4.240   1.473   5.125
 8997SOL    HW227891   4.373   1.495   5.033
 8998SOL     OW27892   1.156   2.092   5.790
 8998SOL    HW127893   1.256   2.090   5.783
 8998SOL    HW227894   1.116   2.069   5.701
 8999SOL     OW27895   6.052   1.334   4.964
 8999SOL    HW127896   5.995   1.377   4.894
 8999SOL    HW227897   6.025   1.369   5.054
 9000SOL     OW27898   3.041   4.274   0.706
 9000SOL    HW127899   2.997   4.252   0.793
 9000SOL    HW227900   3.140   4.262   0.714
 9001SOL     OW27901   1.980   4.989   3.706
 9001SOL    HW127902   1.898   5.047   3.711
 9001SOL    HW227903   2.052   5.037   3.656
 9002SOL     OW27904   5.910   4.667   6.185
 9002SOL    HW127905   5.961   4.621   6.257
 9002SOL    HW227906   5.814   4.637   6.187
 9003SOL     OW27907   6.140   2.893   0.076
 9003SOL    HW127908   6.206   2.825   0.043
 9003SOL    HW227909   6.123   2.879   0.173
 9004SOL     OW27910   4.540   6.506   0.990
 9004SOL    HW127911   4.523   6.419   1.036
 9004SOL    HW227912   4.452   6.547   0.963
 9005SOL     OW27913   5.035   1.950   3.414
 9005SOL    HW127914   5.068   2.004   3.492
 9005SOL    HW227915   5.027   1.854   3.442
 9006SOL     OW27916   1.566   5.452   1.329
 9006SOL    HW127917   1.580   5.425   1.233
 9006SOL    HW227918   1.504   5.530   1.333
 9007SOL     OW27919   3.225   6.034   3.704
 9007SOL    HW127920   3.158   5.964   3.679
 9007SOL    HW227921   3.296   6.039   3.633
 9008SOL     OW27922   0.631   4.384   2.459
 9008SOL    HW127923   0.688   4.460   2.428
 9008SOL    HW227924   0.675   4.298   2.434
 9009SOL     OW27925   2.633   6.415   0.420
 9009SOL    HW127926   2.545   6.435   0.463
 9009SOL    HW227927   2.622   6.414   0.321
 9010SOL     OW27928   0.977   6.169   5.229
 9010SOL    HW127929   0.977   6.114   5.146
 9010SOL    HW227930   0.886   6.209   5.243
 9011SOL     OW27931   4.403   1.816   0.943
 9011SOL    HW127932   4.445   1.753   0.879
 9011SOL    HW227933   4.462   1.896   0.956
 9012SOL     OW27934   0.407   5.022   1.846
 9012SOL    HW127935   0.411   4.923   1.849
 9012SOL    HW227936   0.488   5.058   1.799
 9013SOL     OW27937   6.534   6.056   3.203
 9013SOL    HW127938   6.461   6.038   3.138
 9013SOL    HW227939   6.495   6.097   3.286
 9014SOL     OW27940   1.726   0.204   1.268
 9014SOL    HW127941   1.789   0.208   1.190
 9014SOL    HW227942   1.635   0.235   1.238
 9015SOL     OW27943   0.261   1.089   6.059
 9015SOL    HW127944   0.178   1.067   6.111
 9015SOL    HW227945   0.249   1.060   5.964
 9016SOL     OW27946   6.226   6.228   6.225
 9016SOL    HW127947   6.204   6.185   6.138
 9016SOL    HW227948   6.202   6.325   6.222
 9017SOL     OW27949   6.290   2.284   3.951
 9017SOL    HW127950   6.312   2.273   4.048
 9017SOL    HW227951   6.257   2.197   3.914
 9018SOL     OW27952   3.628   2.331   5.389
 9018SOL    HW127953   3.595   2.293   5.476
 9018SOL    HW227954   3.661   2.424   5.404
 9019SOL     OW27955   2.391   6.923   0.242
 9019SOL    HW127956   2.410   6.826   0.234
 9019SOL    HW227957   2.403   6.952   0.337
 9020SOL     OW27958   1.568   4.176   2.581
 9020SOL    HW127959   1.592   4.245   2.512
 9020SOL    HW227960   1.538   4.092   2.536
 9021SOL     OW27961   6.666   5.666   4.677
 9021SOL    HW127962   6.633   5.599   4.743
 9021SOL    HW227963   6.754   5.703   4.708
 9022SOL     OW27964   2.436   1.003   0.270
 9022SOL    HW127965   2.404   0.979   0.179
 9022SOL    HW227966   2.534   0.982   0.278
 9023SOL     OW27967   3.400   2.889   4.014
 9023SOL    HW127968   3.487   2.902   4.061
 9023SOL    HW227969   3.414   2.837   3.930
 9024SOL     OW27970   1.793   6.737   6.153
 9024SOL    HW127971   1.816   6.699   6.243
 9024SOL    HW227972   1.704   6.783   6.158
 9025SOL     OW27973   6.093   4.692   1.733
 9025SOL    HW127974   6.129   4.785   1.723
 9025SOL    HW227975   6.161   4.627   1.699
 9026SOL     OW27976   3.374   2.972   5.046
 9026SOL    HW127977   3.341   2.912   5.119
 9026SOL    HW227978   3.403   3.059   5.085
 9027SOL     OW27979   2.734   2.155   3.338
 9027SOL    HW127980   2.726   2.252   3.363
 9027SOL    HW227981   2.697   2.141   3.246
 9028SOL     OW27982   2.721   4.768   5.207
 9028SOL    HW127983   2.743   4.853   5.255
 9028SOL    HW227984   2.806   4.723   5.178
 9029SOL     OW27985   4.658   6.026   3.373
 9029SOL    HW127986   4.724   6.100   3.365
 9029SOL    HW227987   4.566   6.064   3.386
 9030SOL     OW27988   1.897   0.799   2.661
 9030SOL    HW127989   1.853   0.802   2.572
 9030SOL    HW227990   1.904   0.704   2.691
 9031SOL     OW27991   2.356   6.243   5.808
 9031SOL    HW127992   2.363   6.305   5.729
 9031SOL    HW227993   2.335   6.295   5.890
 9032SOL     OW27994   2.560   1.915   1.460
 9032SOL    HW127995   2.651   1.949   1.485
 9032SOL    HW227996   2.514   1.881   1.542
 9033SOL     OW27997   2.026   3.397   3.478
 9033SOL    HW127998   2.090   3.459   3.522
 9033SOL    HW227999   2.076   3.329   3.424
 9034SOL     OW28000   3.186   6.398   5.779
 9034SOL    HW128001   3.227   6.376   5.868
 9034SOL    HW228002   3.180   6.498   5.769
 9035SOL     OW28003   0.087   1.117   4.024
 9035SOL    HW128004   0.035   1.048   3.974
 9035SOL    HW228005   0.182   1.085   4.034
 9036SOL     OW28006   0.892   3.006   5.688
 9036SOL    HW128007   0.912   3.071   5.615
 9036SOL    HW228008   0.955   3.020   5.765
 9037SOL     OW28009   2.702   4.509   6.532
 9037SOL    HW128010   2.689   4.421   6.488
 9037SOL    HW228011   2.779   4.504   6.596
 9038SOL     OW28012   4.442   6.503   5.414
 9038SOL    HW128013   4.473   6.576   5.475
 9038SOL    HW228014   4.462   6.414   5.455
 9039SOL     OW28015   1.927   5.184   4.637
 9039SOL    HW128016   1.950   5.145   4.548
 9039SOL    HW228017   2.001   5.166   4.701
 9040SOL     OW28018   1.542   1.943   2.714
 9040SOL    HW128019   1.452   1.965   2.751
 9040SOL    HW228020   1.547   1.976   2.619
 9041SOL     OW28021   1.317   2.950   0.846
 9041SOL    HW128022   1.220   2.939   0.826
 9041SOL    HW228023   1.349   3.037   0.808
 9042SOL     OW28024   2.826   4.943   3.339
 9042SOL    HW128025   2.811   4.874   3.268
 9042SOL    HW228026   2.920   4.977   3.333
 9043SOL     OW28027   0.680   2.598   6.016
 9043SOL    HW128028   0.597   2.601   6.072
 9043SOL    HW228029   0.656   2.577   5.922
 9044SOL     OW28030   6.018   0.690   0.862
 9044SOL    HW128031   5.932   0.729   0.829
 9044SOL    HW228032   6.016   0.590   0.852
 9045SOL     OW28033   2.818   0.046   3.323
 9045SOL    HW128034   2.815   0.058   3.224
 9045SOL    HW228035   2.793   6.971   3.346
 9046SOL     OW28036   3.241   4.149   5.482
 9046SOL    HW128037   3.163   4.130   5.541
 9046SOL    HW228038   3.223   4.114   5.390
 9047SOL     OW28039   1.189   4.082   4.309
 9047SOL    HW128040   1.127   4.023   4.257
 9047SOL    HW228041   1.176   4.177   4.280
 9048SOL     OW28042   0.971   3.930   4.687
 9048SOL    HW128043   0.966   3.937   4.787
 9048SOL    HW228044   0.879   3.939   4.648
 9049SOL     OW28045   5.662   6.277   6.046
 9049SOL    HW128046   5.593   6.208   6.022
 9049SOL    HW228047   5.647   6.308   6.140
 9050SOL     OW28048   0.070   4.584   6.813
 9050SOL    HW128049   0.092   4.628   6.901
 9050SOL    HW228050   0.147   4.527   6.784
 9051SOL     OW28051   5.962   5.782   0.008
 9051SOL    HW128052   5.972   5.853   0.077
 9051SOL    HW228053   6.050   5.737   7.013
 9052SOL     OW28054   2.482   4.829   4.663
 9052SOL    HW128055   2.392   4.814   4.704
 9052SOL    HW228056   2.542   4.753   4.686
 9053SOL     OW28057   2.303   2.723   4.061
 9053SOL    HW128058   2.279   2.799   4.122
 9053SOL    HW228059   2.378   2.671   4.102
 9054SOL     OW28060   1.631   0.543   2.190
 9054SOL    HW128061   1.682   0.627   2.202
 9054SOL    HW228062   1.572   0.551   2.109
 9055SOL     OW28063   0.591   2.318   4.043
 9055SOL    HW128064   0.525   2.280   4.108
 9055SOL    HW228065   0.683   2.312   4.081
 9056SOL     OW28066   4.742   0.016   2.935
 9056SOL    HW128067   4.788   6.971   2.996
 9056SOL    HW228068   4.803   0.092   2.914
 9057SOL     OW28069   6.236   6.102   6.830
 9057SOL    HW128070   6.245   6.007   6.802
 9057SOL    HW228071   6.150   6.139   6.795
 9058SOL     OW28072   1.961   2.877   4.990
 9058SOL    HW128073   2.005   2.966   4.980
 9058SOL    HW228074   1.862   2.886   4.973
 9059SOL     OW28075   6.755   1.839   2.821
 9059SOL    HW128076   6.813   1.828   2.740
 9059SOL    HW228077   6.672   1.888   2.795
 9060SOL     OW28078   0.438   3.338   1.759
 9060SOL    HW128079   0.464   3.241   1.763
 9060SOL    HW228080   0.366   3.350   1.691
 9061SOL     OW28081   4.918   5.672   2.119
 9061SOL    HW128082   4.987   5.735   2.083
 9061SOL    HW228083   4.844   5.725   2.162
 9062SOL     OW28084   0.446   4.280   3.832
 9062SOL    HW128085   0.507   4.346   3.787
 9062SOL    HW228086   0.496   4.229   3.902
 9063SOL     OW28087   2.955   0.826   2.609
 9063SOL    HW128088   2.894   0.767   2.557
 9063SOL    HW228089   3.015   0.770   2.666
 9064SOL     OW28090   0.477   4.462   3.588
 9064SOL    HW128091   0.519   4.456   3.498
 9064SOL    HW228092   0.549   4.471   3.657
 9065SOL     OW28093   2.638   5.692   5.147
 9065SOL    HW128094   2.654   5.595   5.128
 9065SOL    HW228095   2.614   5.739   5.063
 9066SOL     OW28096   5.457   5.249   6.243
 9066SOL    HW128097   5.546   5.213   6.214
 9066SOL    HW228098   5.470   5.308   6.324
 9067SOL     OW28099   6.438   0.436   4.742
 9067SOL    HW128100   6.408   0.436   4.838
 9067SOL    HW228101   6.452   0.342   4.712
 9068SOL     OW28102   4.973   0.299   4.844
 9068SOL    HW128103   5.036   0.368   4.880
 9068SOL    HW228104   5.004   0.267   4.755
 9069SOL     OW28105   4.805   1.878   1.818
 9069SOL    HW128106   4.763   1.788   1.827
 9069SOL    HW228107   4.746   1.938   1.763
 9070SOL     OW28108   1.033   2.144   5.467
 9070SOL    HW128109   1.067   2.052   5.447
 9070SOL    HW228110   1.018   2.153   5.566
 9071SOL     OW28111   4.532   1.452   5.778
 9071SOL    HW128112   4.447   1.490   5.743
 9071SOL    HW228113   4.557   1.498   5.863
 9072SOL     OW28114   5.358   0.180   2.099
 9072SOL    HW128115   5.293   0.236   2.150
 9072SOL    HW228116   5.434   0.236   2.067
 9073SOL     OW28117   3.784   0.538   6.738
 9073SOL    HW128118   3.822   0.600   6.807
 9073SOL    HW228119   3.854   0.519   6.669
 9074SOL     OW28120   1.378   6.878   1.190
 9074SOL    HW128121   1.380   6.819   1.271
 9074SOL    HW228122   1.353   6.824   1.110
 9075SOL     OW28123   6.661   0.792   1.562
 9075SOL    HW128124   6.698   0.793   1.655
 9075SOL    HW228125   6.718   0.850   1.503
 9076SOL     OW28126   5.770   6.743   2.396
 9076SOL    HW128127   5.830   6.794   2.458
 9076SOL    HW228128   5.818   6.726   2.310
 9077SOL     OW28129   5.727   1.442   5.969
 9077SOL    HW128130   5.724   1.424   6.068
 9077SOL    HW228131   5.723   1.355   5.920
 9078SOL     OW28132   4.983   5.956   0.018
 9078SOL    HW128133   5.041   5.876   0.021
 9078SOL    HW228134   4.936   5.967   0.106
 9079SOL     OW28135   1.000   0.077   5.778
 9079SOL    HW128136   1.031   7.003   5.756
 9079SOL    HW228137   0.948   0.114   5.701
 9080SOL     OW28138   6.654   3.567   0.957
 9080SOL    HW128139   6.668   3.615   0.871
 9080SOL    HW228140   6.624   3.474   0.939
 9081SOL     OW28141   3.592   1.743   1.591
 9081SOL    HW128142   3.671   1.708   1.541
 9081SOL    HW228143   3.621   1.780   1.679
 9082SOL     OW28144   3.222   6.115   6.164
 9082SOL    HW128145   3.204   6.095   6.067
 9082SOL    HW228146   3.190   6.039   6.220
 9083SOL     OW28147   4.806   4.754   6.002
 9083SOL    HW128148   4.798   4.796   6.092
 9083SOL    HW228149   4.715   4.729   5.968
 9084SOL     OW28150   0.761   2.723   5.524
 9084SOL    HW128151   0.731   2.749   5.432
 9084SOL    HW228152   0.837   2.782   5.552
 9085SOL     OW28153   3.178   5.196   6.668
 9085SOL    HW128154   3.121   5.273   6.696
 9085SOL    HW228155   3.250   5.228   6.606
 9086SOL     OW28156   6.592   4.436   0.810
 9086SOL    HW128157   6.658   4.394   0.872
 9086SOL    HW228158   6.552   4.365   0.751
 9087SOL     OW28159   6.046   2.226   1.854
 9087SOL    HW128160   6.093   2.224   1.766
 9087SOL    HW228161   5.993   2.141   1.865
 9088SOL     OW28162   6.022   0.772   1.637
 9088SOL    HW128163   5.946   0.725   1.681
 9088SOL    HW228164   6.067   0.711   1.572
 9089SOL     OW28165   4.305   5.146   3.614
 9089SOL    HW128166   4.292   5.203   3.696
 9089SOL    HW228167   4.369   5.192   3.552
 9090SOL     OW28168   5.644   6.319   4.602
 9090SOL    HW128169   5.677   6.235   4.643
 9090SOL    HW228170   5.551   6.305   4.566
 9091SOL     OW28171   3.676   2.323   0.271
 9091SOL    HW128172   3.582   2.355   0.259
 9091SOL    HW228173   3.710   2.352   0.360
 9092SOL     OW28174   1.395   6.524   5.701
 9092SOL    HW128175   1.443   6.513   5.614
 9092SOL    HW228176   1.408   6.443   5.757
 9093SOL     OW28177   1.474   5.711   0.412
 9093SOL    HW128178   1.568   5.684   0.391
 9093SOL    HW228179   1.419   5.630   0.434
 9094SOL     OW28180   0.171   5.686   1.961
 9094SOL    HW128181   0.193   5.662   2.055
 9094SOL    HW228182   0.159   5.785   1.954
 9095SOL     OW28183   5.076   3.387   6.914
 9095SOL    HW128184   4.999   3.443   6.884
 9095SOL    HW228185   5.064   3.363   7.010
 9096SOL     OW28186   5.648   3.228   2.878
 9096SOL    HW128187   5.553   3.225   2.908
 9096SOL    HW228188   5.698   3.152   2.920
 9097SOL     OW28189   0.977   3.866   6.666
 9097SOL    HW128190   0.892   3.848   6.715
 9097SOL    HW228191   0.982   3.964   6.643
 9098SOL     OW28192   3.953   3.981   2.042
 9098SOL    HW128193   3.981   4.047   2.112
 9098SOL    HW228194   4.017   3.905   2.041
 9099SOL     OW28195   3.198   3.414   1.049
 9099SOL    HW128196   3.173   3.391   0.955
 9099SOL    HW228197   3.277   3.359   1.077
 9100SOL     OW28198   0.675   3.047   1.454
 9100SOL    HW128199   0.616   2.975   1.491
 9100SOL    HW228200   0.746   3.069   1.521
 9101SOL     OW28201   1.869   2.694   2.766
 9101SOL    HW128202   1.891   2.716   2.861
 9101SOL    HW228203   1.787   2.636   2.764
 9102SOL     OW28204   3.726   5.483   2.303
 9102SOL    HW128205   3.643   5.432   2.323
 9102SOL    HW228206   3.728   5.508   2.206
 9103SOL     OW28207   6.936   3.831   1.001
 9103SOL    HW128208   6.948   3.790   1.092
 9103SOL    HW228209   7.018   3.814   0.946
 9104SOL     OW28210   4.249   6.212   1.875
 9104SOL    HW128211   4.177   6.158   1.832
 9104SOL    HW228212   4.322   6.151   1.905
 9105SOL     OW28213   1.768   0.568   6.673
 9105SOL    HW128214   1.761   0.614   6.585
 9105SOL    HW228215   1.703   0.491   6.675
 9106SOL     OW28216   5.589   4.108   0.450
 9106SOL    HW128217   5.564   4.018   0.486
 9106SOL    HW228218   5.682   4.104   0.413
 9107SOL     OW28219   4.047   6.893   6.705
 9107SOL    HW128220   4.084   6.925   6.618
 9107SOL    HW228221   4.014   6.799   6.696
 9108SOL     OW28222   4.758   4.557   5.276
 9108SOL    HW128223   4.739   4.477   5.333
 9108SOL    HW228224   4.834   4.536   5.214
 9109SOL     OW28225   2.224   2.051   3.137
 9109SOL    HW128226   2.251   1.960   3.170
 9109SOL    HW228227   2.281   2.120   3.180
 9110SOL     OW28228   2.436   4.711   3.726
 9110SOL    HW128229   2.505   4.780   3.703
 9110SOL    HW228230   2.394   4.735   3.813
 9111SOL     OW28231   3.583   4.252   1.492
 9111SOL    HW128232   3.594   4.348   1.517
 9111SOL    HW228233   3.492   4.220   1.519
 9112SOL     OW28234   0.549   3.407   3.394
 9112SOL    HW128235   0.562   3.491   3.341
 9112SOL    HW228236   0.601   3.414   3.479
 9113SOL     OW28237   4.317   1.250   6.910
 9113SOL    HW128238   4.224   1.280   6.892
 9113SOL    HW228239   4.336   1.167   6.857
 9114SOL     OW28240   2.087   4.791   2.503
 9114SOL    HW128241   2.187   4.788   2.502
 9114SOL    HW228242   2.054   4.849   2.429
 9115SOL     OW28243   1.187   5.097   4.272
 9115SOL    HW128244   1.110   5.088   4.336
 9115SOL    HW228245   1.181   5.026   4.203
 9116SOL     OW28246   6.631   1.718   6.640
 9116SOL    HW128247   6.541   1.673   6.641
 9116SOL    HW228248   6.667   1.722   6.733
 9117SOL     OW28249   6.453   3.190   6.459
 9117SOL    HW128250   6.421   3.240   6.378
 9117SOL    HW228251   6.375   3.162   6.514
 9118SOL     OW28252   6.142   7.009   0.971
 9118SOL    HW128253   6.234   0.027   0.991
 9118SOL    HW228254   6.148   6.911   0.953
 9119SOL     OW28255   5.849   1.165   2.312
 9119SOL    HW128256   5.882   1.257   2.290
 9119SOL    HW228257   5.759   1.151   2.271
 9120SOL     OW28258   5.916   2.699   5.942
 9120SOL    HW128259   5.898   2.789   5.982
 9120SOL    HW228260   5.854   2.684   5.865
 9121SOL     OW28261   0.479   3.179   5.176
 9121SOL    HW128262   0.506   3.275   5.169
 9121SOL    HW228263   0.538   3.132   5.242
 9122SOL     OW28264   1.820   2.710   1.780
 9122SOL    HW128265   1.894   2.649   1.753
 9122SOL    HW228266   1.841   2.751   1.869
 9123SOL     OW28267   3.401   6.434   5.324
 9123SOL    HW128268   3.498   6.408   5.330
 9123SOL    HW228269   3.354   6.400   5.406
 9124SOL     OW28270   6.121   5.651   5.302
 9124SOL    HW128271   6.101   5.631   5.206
 9124SOL    HW228272   6.057   5.720   5.336
 9125SOL     OW28273   4.729   4.189   3.832
 9125SOL    HW128274   4.821   4.188   3.794
 9125SOL    HW228275   4.692   4.096   3.833
 9126SOL     OW28276   6.248   1.457   2.289
 9126SOL    HW128277   6.151   1.455   2.265
 9126SOL    HW228278   6.298   1.506   2.218
 9127SOL     OW28279   5.813   0.400   5.486
 9127SOL    HW128280   5.871   0.342   5.428
 9127SOL    HW228281   5.718   0.394   5.454
 9128SOL     OW28282   3.993   1.727   5.359
 9128SOL    HW128283   3.982   1.818   5.399
 9128SOL    HW228284   4.070   1.728   5.296
 9129SOL     OW28285   1.757   3.342   0.989
 9129SOL    HW128286   1.684   3.384   0.935
 9129SOL    HW228287   1.837   3.402   0.988
 9130SOL     OW28288   6.999   4.114   6.760
 9130SOL    HW128289   6.926   4.106   6.828
 9130SOL    HW228290   6.959   4.127   6.669
 9131SOL     OW28291   0.273   4.074   4.718
 9131SOL    HW128292   0.309   4.167   4.730
 9131SOL    HW228293   0.268   4.029   4.807
 9132SOL     OW28294   6.915   4.068   3.668
 9132SOL    HW128295   6.982   4.040   3.599
 9132SOL    HW228296   6.941   4.029   3.757
 9133SOL     OW28297   3.193   5.164   0.744
 9133SOL    HW128298   3.203   5.186   0.647
 9133SOL    HW228299   3.274   5.113   0.774
 9134SOL     OW28300   3.649   6.853   0.591
 9134SOL    HW128301   3.718   6.799   0.639
 9134SOL    HW228302   3.655   6.948   0.622
 9135SOL     OW28303   7.009   6.318   1.896
 9135SOL    HW128304   6.986   6.289   1.803
 9135SOL    HW228305   6.925   6.328   1.949
 9136SOL     OW28306   4.973   5.226   5.385
 9136SOL    HW128307   4.912   5.305   5.380
 9136SOL    HW228308   4.947   5.160   5.313
 9137SOL     OW28309   5.626   1.491   0.764
 9137SOL    HW128310   5.702   1.503   0.828
 9137SOL    HW228311   5.662   1.487   0.671
 9138SOL     OW28312   6.670   4.961   6.043
 9138SOL    HW128313   6.687   5.007   5.956
 9138SOL    HW228314   6.594   4.896   6.032
 9139SOL     OW28315   2.290   1.217   4.620
 9139SOL    HW128316   2.233   1.135   4.631
 9139SOL    HW228317   2.235   1.290   4.579
 9140SOL     OW28318   6.716   2.783   2.592
 9140SOL    HW128319   6.783   2.819   2.657
 9140SOL    HW228320   6.725   2.830   2.505
 9141SOL     OW28321   5.522   0.242   6.571
 9141SOL    HW128322   5.448   0.188   6.531
 9141SOL    HW228323   5.484   0.319   6.622
 9142SOL     OW28324   0.348   2.592   5.664
 9142SOL    HW128325   0.382   2.657   5.596
 9142SOL    HW228326   0.265   2.547   5.628
 9143SOL     OW28327   4.819   4.325   6.979
 9143SOL    HW128328   4.808   4.298   0.056
 9143SOL    HW228329   4.913   4.306   6.950
 9144SOL     OW28330   2.277   5.556   6.298
 9144SOL    HW128331   2.235   5.465   6.294
 9144SOL    HW228332   2.358   5.558   6.241
 9145SOL     OW28333   6.757   4.740   1.169
 9145SOL    HW128334   6.671   4.731   1.119
 9145SOL    HW228335   6.819   4.799   1.118
 9146SOL     OW28336   5.175   1.719   1.740
 9146SOL    HW128337   5.115   1.745   1.664
 9146SOL    HW228338   5.254   1.668   1.705
 9147SOL     OW28339   5.955   6.971   4.560
 9147SOL    HW128340   6.036   6.940   4.511
 9147SOL    HW228341   5.964   6.949   4.657
 9148SOL     OW28342   5.165   0.170   1.193
 9148SOL    HW128343   5.179   0.096   1.127
 9148SOL    HW228344   5.104   0.138   1.266
 9149SOL     OW28345   4.906   2.538   3.964
 9149SOL    HW128346   4.886   2.592   3.882
 9149SOL    HW228347   4.914   2.441   3.939
 9150SOL     OW28348   3.736   5.485   3.592
 9150SOL    HW128349   3.669   5.514   3.524
 9150SOL    HW228350   3.697   5.412   3.648
 9151SOL     OW28351   1.276   4.336   2.878
 9151SOL    HW128352   1.352   4.348   2.942
 9151SOL    HW228353   1.288   4.398   2.800
 9152SOL     OW28354   2.665   5.288   4.575
 9152SOL    HW128355   2.669   5.385   4.597
 9152SOL    HW228356   2.647   5.235   4.658
 9153SOL     OW28357   1.493   3.571   1.078
 9153SOL    HW128358   1.563   3.589   1.009
 9153SOL    HW228359   1.415   3.524   1.036
 9154SOL     OW28360   2.761   5.348   0.101
 9154SOL    HW128361   2.749   5.284   0.025
 9154SOL    HW228362   2.799   5.434   0.067
 9155SOL     OW28363   2.043   3.780   0.447
 9155SOL    HW128364   1.952   3.821   0.461
 9155SOL    HW228365   2.102   3.845   0.399
 9156SOL     OW28366   3.058   3.039   1.071
 9156SOL    HW128367   3.045   3.067   1.166
 9156SOL    HW228368   3.156   3.031   1.052
 9157SOL     OW28369   6.198   4.835   5.728
 9157SOL    HW128370   6.267   4.768   5.754
 9157SOL    HW228371   6.241   4.909   5.677
 9158SOL     OW28372   6.249   3.496   5.074
 9158SOL    HW128373   6.177   3.440   5.116
 9158SOL    HW228374   6.273   3.571   5.136
 9159SOL     OW28375   0.995   6.674   3.892
 9159SOL    HW128376   0.989   6.735   3.813
 9159SOL    HW228377   0.962   6.721   3.974
 9160SOL     OW28378   6.496   0.329   5.274
 9160SOL    HW128379   6.546   0.259   5.323
 9160SOL    HW228380   6.423   0.365   5.332
 9161SOL     OW28381   4.794   4.085   4.224
 9161SOL    HW128382   4.747   4.092   4.312
 9161SOL    HW228383   4.838   4.172   4.203
 9162SOL     OW28384   4.839   1.469   3.726
 9162SOL    HW128385   4.772   1.395   3.737
 9162SOL    HW228386   4.925   1.430   3.694
 9163SOL     OW28387   2.161   3.335   3.806
 9163SOL    HW128388   2.074   3.371   3.773
 9163SOL    HW228389   2.233   3.403   3.792
 9164SOL     OW28390   2.758   0.626   0.140
 9164SOL    HW128391   2.767   0.637   0.239
 9164SOL    HW228392   2.755   0.716   0.097
 9165SOL     OW28393   6.126   0.994   5.196
 9165SOL    HW128394   6.121   1.047   5.280
 9165SOL    HW228395   6.183   1.042   5.129
 9166SOL     OW28396   4.891   5.929   0.964
 9166SOL    HW128397   4.822   5.858   0.951
 9166SOL    HW228398   4.852   6.005   1.016
 9167SOL     OW28399   1.408   2.824   6.575
 9167SOL    HW128400   1.345   2.771   6.630
 9167SOL    HW228401   1.488   2.850   6.630
 9168SOL     OW28402   0.717   6.957   5.984
 9168SOL    HW128403   0.680   6.900   6.057
 9168SOL    HW228404   0.806   6.994   6.012
 9169SOL     OW28405   6.537   1.496   4.705
 9169SOL    HW128406   6.476   1.556   4.758
 9169SOL    HW228407   6.583   1.550   4.634
 9170SOL     OW28408   0.420   5.122   0.786
 9170SOL    HW128409   0.365   5.049   0.746
 9170SOL    HW228410   0.482   5.084   0.855
 9171SOL     OW28411   2.937   5.278   0.349
 9171SOL    HW128412   2.930   5.356   0.412
 9171SOL    HW228413   2.866   5.285   0.279
 9172SOL     OW28414   3.158   0.597   5.057
 9172SOL    HW128415   3.231   0.598   4.989
 9172SOL    HW228416   3.069   0.599   5.010
 9173SOL     OW28417   5.948   4.120   4.683
 9173SOL    HW128418   5.954   4.023   4.659
 9173SOL    HW228419   6.038   4.162   4.674
 9174SOL     OW28420   6.278   4.426   1.080
 9174SOL    HW128421   6.210   4.419   1.007
 9174SOL    HW228422   6.246   4.492   1.149
 9175SOL     OW28423   1.396   6.709   5.097
 9175SOL    HW128424   1.403   6.656   5.012
 9175SOL    HW228425   1.485   6.709   5.143
 9176SOL     OW28426   2.816   0.985   4.834
 9176SOL    HW128427   2.870   1.063   4.866
 9176SOL    HW228428   2.782   0.933   4.912
 9177SOL     OW28429   1.757   4.946   4.561
 9177SOL    HW128430   1.757   5.033   4.610
 9177SOL    HW228431   1.688   4.949   4.489
 9178SOL     OW28432   2.152   5.614   0.736
 9178SOL    HW128433   2.070   5.615   0.793
 9178SOL    HW228434   2.134   5.562   0.652
 9179SOL     OW28435   3.279   5.427   3.765
 9179SOL    HW128436   3.347   5.407   3.836
 9179SOL    HW228437   3.321   5.481   3.692
 9180SOL     OW28438   5.739   2.191   2.940
 9180SOL    HW128439   5.774   2.117   2.998
 9180SOL    HW228440   5.727   2.157   2.847
 9181SOL     OW28441   3.875   1.971   3.871
 9181SOL    HW128442   3.935   1.905   3.828
 9181SOL    HW228443   3.822   2.019   3.801
 9182SOL     OW28444   2.394   6.435   2.327
 9182SOL    HW128445   2.455   6.359   2.352
 9182SOL    HW228446   2.301   6.400   2.314
 9183SOL     OW28447   4.944   6.682   0.426
 9183SOL    HW128448   4.943   6.611   0.496
 9183SOL    HW228449   4.974   6.644   0.339
 9184SOL     OW28450   5.247   1.907   6.860
 9184SOL    HW128451   5.149   1.890   6.863
 9184SOL    HW228452   5.296   1.829   6.898
 9185SOL     OW28453   4.492   6.653   5.090
 9185SOL    HW128454   4.459   6.738   5.051
 9185SOL    HW228455   4.480   6.654   5.189
 9186SOL     OW28456   6.138   0.330   4.110
 9186SOL    HW128457   6.222   0.331   4.056
 9186SOL    HW228458   6.083   0.250   4.085
 9187SOL     OW28459   2.745   1.074   1.043
 9187SOL    HW128460   2.710   0.994   1.091
 9187SOL    HW228461   2.801   1.129   1.105
 9188SOL     OW28462   2.205   6.459   1.940
 9188SOL    HW128463   2.119   6.408   1.934
 9188SOL    HW228464   2.273   6.403   1.987
 9189SOL     OW28465   5.512   5.976   1.547
 9189SOL    HW128466   5.581   5.913   1.513
 9189SOL    HW228467   5.543   6.070   1.535
 9190SOL     OW28468   1.717   4.837   0.140
 9190SOL    HW128469   1.632   4.784   0.145
 9190SOL    HW228470   1.696   4.930   0.111
 9191SOL     OW28471   5.693   0.694   6.031
 9191SOL    HW128472   5.742   0.769   6.077
 9191SOL    HW228473   5.715   0.694   5.934
 9192SOL     OW28474   0.380   4.099   6.043
 9192SOL    HW128475   0.387   4.135   6.136
 9192SOL    HW228476   0.438   4.018   6.033
 9193SOL     OW28477   4.584   4.660   0.419
 9193SOL    HW128478   4.603   4.562   0.410
 9193SOL    HW228479   4.667   4.707   0.448
 9194SOL     OW28480   3.054   0.452   3.060
 9194SOL    HW128481   3.014   0.446   3.152
 9194SOL    HW228482   3.018   0.533   3.014
 9195SOL     OW28483   1.806   2.207   4.344
 9195SOL    HW128484   1.784   2.304   4.329
 9195SOL    HW228485   1.777   2.181   4.436
 9196SOL     OW28486   4.269   0.218   4.008
 9196SOL    HW128487   4.365   0.188   4.004
 9196SOL    HW228488   4.266   0.318   4.007
 9197SOL     OW28489   1.948   4.273   1.585
 9197SOL    HW128490   2.010   4.348   1.608
 9197SOL    HW228491   1.941   4.211   1.663
 9198SOL     OW28492   6.616   4.744   6.419
 9198SOL    HW128493   6.588   4.706   6.331
 9198SOL    HW228494   6.567   4.698   6.493
 9199SOL     OW28495   1.721   3.914   6.016
 9199SOL    HW128496   1.728   4.001   6.065
 9199SOL    HW228497   1.804   3.899   5.962
 9200SOL     OW28498   2.764   0.257   0.790
 9200SOL    HW128499   2.684   0.228   0.842
 9200SOL    HW228500   2.846   0.214   0.828
 9201SOL     OW28501   0.438   2.693   0.485
 9201SOL    HW128502   0.427   2.596   0.462
 9201SOL    HW228503   0.418   2.749   0.405
 9202SOL     OW28504   1.534   6.506   2.687
 9202SOL    HW128505   1.575   6.553   2.765
 9202SOL    HW228506   1.527   6.570   2.610
 9203SOL     OW28507   0.499   5.233   0.348
 9203SOL    HW128508   0.575   5.178   0.382
 9203SOL    HW228509   0.476   5.203   0.255
 9204SOL     OW28510   4.290   2.673   6.487
 9204SOL    HW128511   4.298   2.625   6.400
 9204SOL    HW228512   4.279   2.770   6.471
 9205SOL     OW28513   6.074   4.887   2.786
 9205SOL    HW128514   6.174   4.885   2.784
 9205SOL    HW228515   6.041   4.963   2.731
 9206SOL     OW28516   4.044   5.473   2.039
 9206SOL    HW128517   3.968   5.423   1.997
 9206SOL    HW228518   4.041   5.461   2.138
 9207SOL     OW28519   4.117   5.034   6.771
 9207SOL    HW128520   4.215   5.015   6.771
 9207SOL    HW228521   4.097   5.104   6.703
 9208SOL     OW28522   5.810   3.931   3.994
 9208SOL    HW128523   5.869   4.010   4.010
 9208SOL    HW228524   5.817   3.869   4.072
 9209SOL     OW28525   2.781   0.870   0.009
 9209SOL    HW128526   2.725   0.933   6.973
 9209SOL    HW228527   2.785   0.902   0.104
 9210SOL     OW28528   6.941   0.840   3.145
 9210SOL    HW128529   6.911   0.920   3.198
 9210SOL    HW228530   0.007   0.804   3.184
 9211SOL     OW28531   6.115   3.255   4.643
 9211SOL    HW128532   6.136   3.159   4.622
 9211SOL    HW228533   6.166   3.282   4.725
 9212SOL     OW28534   4.167   5.148   4.438
 9212SOL    HW128535   4.108   5.069   4.456
 9212SOL    HW228536   4.150   5.219   4.507
 9213SOL     OW28537   5.439   3.622   5.814
 9213SOL    HW128538   5.403   3.712   5.790
 9213SOL    HW228539   5.364   3.556   5.814
 9214SOL     OW28540   0.319   4.996   6.126
 9214SOL    HW128541   0.392   4.927   6.130
 9214SOL    HW228542   0.306   5.036   6.217
 9215SOL     OW28543   1.546   2.278   0.110
 9215SOL    HW128544   1.599   2.319   0.184
 9215SOL    HW228545   1.468   2.337   0.087
 9216SOL     OW28546   2.671   0.172   2.733
 9216SOL    HW128547   2.590   0.141   2.783
 9216SOL    HW228548   2.643   0.224   2.653
 9217SOL     OW28549   0.588   1.350   6.327
 9217SOL    HW128550   0.519   1.278   6.341
 9217SOL    HW228551   0.659   1.316   6.266
 9218SOL     OW28552   3.567   6.267   0.849
 9218SOL    HW128553   3.526   6.306   0.766
 9218SOL    HW228554   3.627   6.335   0.891
 9219SOL     OW28555   0.396   2.332   1.246
 9219SOL    HW128556   0.404   2.271   1.325
 9219SOL    HW228557   0.342   2.288   1.175
 9220SOL     OW28558   2.116   6.911   0.480
 9220SOL    HW128559   2.083   6.944   0.391
 9220SOL    HW228560   2.056   6.945   0.552
 9221SOL     OW28561   2.976   1.241   4.255
 9221SOL    HW128562   2.933   1.291   4.330
 9221SOL    HW228563   2.908   1.185   4.208
 9222SOL     OW28564   1.994   6.997   6.308
 9222SOL    HW128565   2.048   0.061   6.325
 9222SOL    HW228566   2.026   6.924   6.368
 9223SOL     OW28567   2.001   1.501   3.950
 9223SOL    HW128568   2.030   1.471   4.041
 9223SOL    HW228569   2.080   1.532   3.898
 9224SOL     OW28570   2.589   4.894   5.013
 9224SOL    HW128571   2.538   4.973   5.047
 9224SOL    HW228572   2.643   4.854   5.088
 9225SOL     OW28573   4.080   6.796   6.067
 9225SOL    HW128574   4.028   6.714   6.044
 9225SOL    HW228575   4.176   6.772   6.081
 9226SOL     OW28576   5.292   6.917   2.038
 9226SOL    HW128577   5.378   6.869   2.022
 9226SOL    HW228578   5.309   7.010   2.068
 9227SOL     OW28579   0.672   5.289   1.414
 9227SOL    HW128580   0.660   5.336   1.326
 9227SOL    HW228581   0.694   5.356   1.484
 9228SOL     OW28582   1.723   1.025   5.971
 9228SOL    HW128583   1.721   0.926   5.960
 9228SOL    HW228584   1.797   1.050   6.034
 9229SOL     OW28585   1.369   5.201   4.608
 9229SOL    HW128586   1.293   5.242   4.558
 9229SOL    HW228587   1.451   5.256   4.596
 9230SOL     OW28588   5.855   0.830   3.465
 9230SOL    HW128589   5.861   0.927   3.487
 9230SOL    HW228590   5.849   0.776   3.549
 9231SOL     OW28591   1.394   4.749   4.747
 9231SOL    HW128592   1.469   4.741   4.812
 9231SOL    HW228593   1.339   4.830   4.769
 9232SOL     OW28594   3.367   5.518   0.525
 9232SOL    HW128595   3.426   5.459   0.580
 9232SOL    HW228596   3.386   5.502   0.428
 9233SOL     OW28597   5.376   5.306   1.593
 9233SOL    HW128598   5.296   5.304   1.533
 9233SOL    HW228599   5.448   5.250   1.553
 9234SOL     OW28600   3.681   5.620   5.081
 9234SOL    HW128601   3.754   5.565   5.040
 9234SOL    HW228602   3.647   5.685   5.012
 9235SOL     OW28603   1.140   2.391   3.881
 9235SOL    HW128604   1.045   2.420   3.891
 9235SOL    HW228605   1.168   2.340   3.963
 9236SOL     OW28606   2.715   4.214   5.611
 9236SOL    HW128607   2.657   4.133   5.623
 9236SOL    HW228608   2.686   4.264   5.529
 9237SOL     OW28609   2.225   4.816   5.162
 9237SOL    HW128610   2.294   4.845   5.228
 9237SOL    HW228611   2.214   4.716   5.167
 9238SOL     OW28612   3.803   1.820   6.273
 9238SOL    HW128613   3.874   1.768   6.321
 9238SOL    HW228614   3.727   1.839   6.336
 9239SOL     OW28615   0.368   3.982   0.833
 9239SOL    HW128616   0.437   3.969   0.763
 9239SOL    HW228617   0.394   4.058   0.893
 9240SOL     OW28618   5.460   1.784   0.694
 9240SOL    HW128619   5.541   1.786   0.753
 9240SOL    HW228620   5.469   1.709   0.628
 9241SOL     OW28621   0.706   5.169   6.545
 9241SOL    HW128622   0.765   5.094   6.574
 9241SOL    HW228623   0.664   5.211   6.625
 9242SOL     OW28624   6.588   5.575   0.850
 9242SOL    HW128625   6.545   5.561   0.938
 9242SOL    HW228626   6.599   5.673   0.833
 9243SOL     OW28627   5.904   6.525   2.548
 9243SOL    HW128628   5.855   6.506   2.632
 9243SOL    HW228629   5.869   6.609   2.507
 9244SOL     OW28630   4.456   5.223   6.081
 9244SOL    HW128631   4.445   5.171   5.996
 9244SOL    HW228632   4.485   5.316   6.059
 9245SOL     OW28633   1.305   5.580   2.969
 9245SOL    HW128634   1.393   5.533   2.957
 9245SOL    HW228635   1.283   5.584   3.067
 9246SOL     OW28636   0.057   4.845   3.269
 9246SOL    HW128637   0.116   4.905   3.324
 9246SOL    HW228638   0.112   4.770   3.231
 9247SOL     OW28639   0.924   0.165   3.527
 9247SOL    HW128640   0.979   0.100   3.475
 9247SOL    HW228641   0.838   0.121   3.554
 9248SOL     OW28642   1.748   2.958   6.312
 9248SOL    HW128643   1.785   2.878   6.359
 9248SOL    HW228644   1.655   2.975   6.343
 9249SOL     OW28645   5.318   3.347   6.207
 9249SOL    HW128646   5.391   3.398   6.254
 9249SOL    HW228647   5.240   3.338   6.268
 9250SOL     OW28648   5.186   3.490   4.896
 9250SOL    HW128649   5.099   3.481   4.847
 9250SOL    HW228650   5.242   3.408   4.882
 9251SOL     OW28651   3.818   2.170   3.070
 9251SOL    HW128652   3.773   2.172   3.159
 9251SOL    HW228653   3.887   2.097   3.069
 9252SOL     OW28654   6.101   0.344   4.410
 9252SOL    HW128655   6.087   0.360   4.313
 9252SOL    HW228656   6.071   0.424   4.462
 9253SOL     OW28657   5.105   6.001   6.315
 9253SOL    HW128658   5.087   6.038   6.406
 9253SOL    HW228659   5.056   5.914   6.304
 9254SOL     OW28660   6.306   4.537   1.694
 9254SOL    HW128661   6.278   4.442   1.681
 9254SOL    HW228662   6.383   4.540   1.758
 9255SOL     OW28663   5.648   3.235   0.432
 9255SOL    HW128664   5.633   3.270   0.340
 9255SOL    HW228665   5.655   3.312   0.496
 9256SOL     OW28666   3.978   5.114   2.935
 9256SOL    HW128667   3.935   5.034   2.978
 9256SOL    HW228668   4.058   5.085   2.882
 9257SOL     OW28669   0.725   3.626   2.616
 9257SOL    HW128670   0.801   3.682   2.586
 9257SOL    HW228671   0.751   3.575   2.699
 9258SOL     OW28672   3.829   3.046   3.946
 9258SOL    HW128673   3.825   3.015   3.851
 9258SOL    HW228674   3.918   3.086   3.964
 9259SOL     OW28675   1.640   2.178   1.229
 9259SOL    HW128676   1.628   2.235   1.147
 9259SOL    HW228677   1.706   2.106   1.209
 9260SOL     OW28678   5.167   1.404   5.291
 9260SOL    HW128679   5.160   1.320   5.237
 9260SOL    HW228680   5.075   1.436   5.315
 9261SOL     OW28681   4.828   0.765   6.093
 9261SOL    HW128682   4.906   0.715   6.132
 9261SOL    HW228683   4.805   0.842   6.153
 9262SOL     OW28684   6.601   3.258   5.527
 9262SOL    HW128685   6.652   3.262   5.613
 9262SOL    HW228686   6.642   3.323   5.462
 9263SOL     OW28687   6.361   4.126   1.062
 9263SOL    HW128688   6.416   4.209   1.057
 9263SOL    HW228689   6.401   4.063   1.128
 9264SOL     OW28690   5.485   3.816   0.469
 9264SOL    HW128691   5.449   3.748   0.532
 9264SOL    HW228692   5.563   3.778   0.420
 9265SOL     OW28693   2.992   1.667   0.494
 9265SOL    HW128694   3.010   1.574   0.528
 9265SOL    HW228695   3.076   1.721   0.498
 9266SOL     OW28696   1.865   6.265   2.287
 9266SOL    HW128697   1.771   6.253   2.253
 9266SOL    HW228698   1.885   6.194   2.355
 9267SOL     OW28699   6.829   4.203   5.892
 9267SOL    HW128700   6.847   4.276   5.957
 9267SOL    HW228701   6.749   4.226   5.836
 9268SOL     OW28702   1.222   5.919   1.329
 9268SOL    HW128703   1.282   5.974   1.271
 9268SOL    HW228704   1.278   5.854   1.382
 9269SOL     OW28705   3.471   2.674   6.111
 9269SOL    HW128706   3.408   2.666   6.033
 9269SOL    HW228707   3.561   2.640   6.085
 9270SOL     OW28708   5.164   0.131   5.678
 9270SOL    HW128709   5.231   0.115   5.605
 9270SOL    HW228710   5.183   0.068   5.754
 9271SOL     OW28711   1.710   5.572   6.684
 9271SOL    HW128712   1.621   5.615   6.670
 9271SOL    HW228713   1.781   5.623   6.635
 9272SOL     OW28714   2.926   5.492   5.852
 9272SOL    HW128715   3.021   5.460   5.851
 9272SOL    HW228716   2.923   5.587   5.881
 9273SOL     OW28717   5.426   6.222   4.363
 9273SOL    HW128718   5.413   6.314   4.400
 9273SOL    HW228719   5.513   6.217   4.315
 9274SOL     OW28720   6.580   3.016   0.180
 9274SOL    HW128721   6.585   3.011   0.080
 9274SOL    HW228722   6.504   3.075   0.206
 9275SOL     OW28723   0.279   1.846   6.849
 9275SOL    HW128724   0.352   1.906   6.817
 9275SOL    HW228725   0.308   1.800   6.933
 9276SOL     OW28726   2.585   4.724   4.024
 9276SOL    HW128727   2.556   4.628   4.014
 9276SOL    HW228728   2.525   4.770   4.089
 9277SOL     OW28729   3.907   3.729   0.349
 9277SOL    HW128730   3.853   3.674   0.414
 9277SOL    HW228731   4.003   3.724   0.374
 9278SOL     OW28732   1.539   0.962   4.485
 9278SOL    HW128733   1.549   0.910   4.570
 9278SOL    HW228734   1.550   0.901   4.407
 9279SOL     OW28735   4.440   0.175   1.657
 9279SOL    HW128736   4.381   0.096   1.643
 9279SOL    HW228737   4.385   0.253   1.689
 9280SOL     OW28738   1.603   0.292   3.189
 9280SOL    HW128739   1.525   0.270   3.247
 9280SOL    HW228740   1.628   0.389   3.202
 9281SOL     OW28741   3.440   4.029   1.394
 9281SOL    HW128742   3.340   4.034   1.399
 9281SOL    HW228743   3.467   3.988   1.307
 9282SOL     OW28744   4.557   2.017   4.282
 9282SOL    HW128745   4.513   2.028   4.371
 9282SOL    HW228746   4.550   2.103   4.231
 9283SOL     OW28747   5.713   0.823   3.249
 9283SOL    HW128748   5.745   0.756   3.183
 9283SOL    HW228749   5.772   0.821   3.330
 9284SOL     OW28750   3.543   5.476   6.450
 9284SOL    HW128751   3.551   5.575   6.465
 9284SOL    HW228752   3.633   5.438   6.429
 9285SOL     OW28753   5.204   3.289   0.450
 9285SOL    HW128754   5.130   3.225   0.471
 9285SOL    HW228755   5.291   3.247   0.473
 9286SOL     OW28756   5.170   6.980   5.913
 9286SOL    HW128757   5.096   6.914   5.932
 9286SOL    HW228758   5.224   6.993   5.996
 9287SOL     OW28759   2.811   5.814   0.471
 9287SOL    HW128760   2.882   5.794   0.538
 9287SOL    HW228761   2.759   5.732   0.451
 9288SOL     OW28762   2.846   1.565   5.081
 9288SOL    HW128763   2.785   1.498   5.039
 9288SOL    HW228764   2.857   1.545   5.178
 9289SOL     OW28765   3.793   1.827   2.290
 9289SOL    HW128766   3.857   1.793   2.359
 9289SOL    HW228767   3.730   1.754   2.264
 9290SOL     OW28768   4.961   1.910   4.056
 9290SOL    HW128769   4.904   1.981   4.096
 9290SOL    HW228770   5.043   1.898   4.112
 9291SOL     OW28771   2.723   0.258   5.068
 9291SOL    HW128772   2.722   0.165   5.031
 9291SOL    HW228773   2.696   0.322   4.997
 9292SOL     OW28774   6.988   3.545   6.158
 9292SOL    HW128775   0.049   3.588   6.199
 9292SOL    HW228776   6.940   3.491   6.227
 9293SOL     OW28777   6.499   3.985   0.795
 9293SOL    HW128778   6.563   3.908   0.800
 9293SOL    HW228779   6.496   4.032   0.884
 9294SOL     OW28780   3.518   6.348   5.730
 9294SOL    HW128781   3.428   6.391   5.722
 9294SOL    HW228782   3.562   6.377   5.816
 9295SOL     OW28783   5.445   1.986   3.598
 9295SOL    HW128784   5.390   2.038   3.663
 9295SOL    HW228785   5.490   1.911   3.646
 9296SOL     OW28786   0.370   6.220   6.453
 9296SOL    HW128787   0.434   6.173   6.392
 9296SOL    HW228788   0.421   6.271   6.522
 9297SOL     OW28789   6.858   0.717   1.086
 9297SOL    HW128790   6.760   0.725   1.072
 9297SOL    HW228791   6.904   0.800   1.055
 9298SOL     OW28792   2.077   6.930   5.600
 9298SOL    HW128793   1.993   6.919   5.548
 9298SOL    HW228794   2.063   6.899   5.694
 9299SOL     OW28795   0.985   2.685   4.601
 9299SOL    HW128796   0.951   2.657   4.512
 9299SOL    HW228797   0.928   2.759   4.637
 9300SOL     OW28798   0.520   4.908   4.868
 9300SOL    HW128799   0.538   5.000   4.904
 9300SOL    HW228800   0.485   4.914   4.775
 9301SOL     OW28801   5.035   4.331   3.399
 9301SOL    HW128802   5.041   4.243   3.352
 9301SOL    HW228803   4.948   4.375   3.377
 9302SOL     OW28804   2.100   3.135   4.452
 9302SOL    HW128805   2.059   3.095   4.534
 9302SOL    HW228806   2.096   3.235   4.457
 9303SOL     OW28807   3.752   6.045   0.614
 9303SOL    HW128808   3.809   6.118   0.577
 9303SOL    HW228809   3.656   6.069   0.605
 9304SOL     OW28810   4.355   4.262   1.024
 9304SOL    HW128811   4.398   4.243   1.112
 9304SOL    HW228812   4.265   4.217   1.021
 9305SOL     OW28813   4.139   1.466   1.601
 9305SOL    HW128814   4.132   1.565   1.608
 9305SOL    HW228815   4.047   1.426   1.608
 9306SOL     OW28816   0.620   4.590   4.971
 9306SOL    HW128817   0.531   4.634   4.986
 9306SOL    HW228818   0.628   4.564   4.875
 9307SOL     OW28819   1.282   3.510   1.575
 9307SOL    HW128820   1.197   3.531   1.528
 9307SOL    HW228821   1.263   3.481   1.669
 9308SOL     OW28822   1.110   3.770   0.893
 9308SOL    HW128823   1.095   3.825   0.811
 9308SOL    HW228824   1.201   3.790   0.931
 9309SOL     OW28825   3.230   5.071   5.293
 9309SOL    HW128826   3.247   5.089   5.196
 9309SOL    HW228827   3.317   5.048   5.338
 9310SOL     OW28828   4.532   5.657   6.434
 9310SOL    HW128829   4.628   5.660   6.460
 9310SOL    HW228830   4.505   5.745   6.393
 9311SOL     OW28831   5.904   4.500   1.680
 9311SOL    HW128832   5.909   4.591   1.722
 9311SOL    HW228833   5.962   4.436   1.731
 9312SOL     OW28834   1.370   4.161   1.603
 9312SOL    HW128835   1.297   4.229   1.615
 9312SOL    HW228836   1.403   4.132   1.693
 9313SOL     OW28837   0.563   0.684   0.926
 9313SOL    HW128838   0.536   0.603   0.875
 9313SOL    HW228839   0.661   0.681   0.945
 9314SOL     OW28840   3.955   5.613   5.905
 9314SOL    HW128841   4.044   5.634   5.866
 9314SOL    HW228842   3.884   5.629   5.837
 9315SOL     OW28843   6.676   0.744   5.149
 9315SOL    HW128844   6.763   0.702   5.122
 9315SOL    HW228845   6.645   0.806   5.077
 9316SOL     OW28846   4.023   5.211   5.358
 9316SOL    HW128847   4.000   5.270   5.435
 9316SOL    HW228848   3.957   5.224   5.284
 9317SOL     OW28849   6.323   5.593   3.304
 9317SOL    HW128850   6.413   5.627   3.277
 9317SOL    HW228851   6.333   5.508   3.357
 9318SOL     OW28852   6.559   0.922   4.888
 9318SOL    HW128853   6.466   0.892   4.870
 9318SOL    HW228854   6.559   0.989   4.962
 9319SOL     OW28855   0.624   2.554   5.747
 9319SOL    HW128856   0.528   2.548   5.719
 9319SOL    HW228857   0.678   2.594   5.673
 9320SOL     OW28858   4.621   1.995   6.411
 9320SOL    HW128859   4.674   1.983   6.327
 9320SOL    HW228860   4.525   2.005   6.389
 9321SOL     OW28861   6.340   0.123   2.465
 9321SOL    HW128862   6.329   0.124   2.564
 9321SOL    HW228863   6.314   0.213   2.428
 9322SOL     OW28864   0.156   5.941   6.199
 9322SOL    HW128865   0.103   5.867   6.241
 9322SOL    HW228866   0.101   5.985   6.128
 9323SOL     OW28867   1.945   0.185   5.503
 9323SOL    HW128868   1.995   0.223   5.581
 9323SOL    HW228869   1.877   0.119   5.535
 9324SOL     OW28870   1.912   5.124   0.441
 9324SOL    HW128871   1.823   5.136   0.397
 9324SOL    HW228872   1.907   5.155   0.536
 9325SOL     OW28873   5.044   1.889   0.213
 9325SOL    HW128874   4.980   1.843   0.275
 9325SOL    HW228875   5.007   1.978   0.187
 9326SOL     OW28876   2.517   0.175   0.895
 9326SOL    HW128877   2.475   0.207   0.810
 9326SOL    HW228878   2.474   0.089   0.923
 9327SOL     OW28879   4.938   6.540   2.581
 9327SOL    HW128880   4.987   6.488   2.650
 9327SOL    HW228881   4.842   6.550   2.609
 9328SOL     OW28882   3.506   0.970   6.427
 9328SOL    HW128883   3.482   1.003   6.336
 9328SOL    HW228884   3.430   0.989   6.490
 9329SOL     OW28885   0.179   4.086   2.121
 9329SOL    HW128886   0.096   4.128   2.083
 9329SOL    HW228887   0.251   4.155   2.128
 9330SOL     OW28888   0.497   6.196   6.932
 9330SOL    HW128889   0.536   6.198   0.005
 9330SOL    HW228890   0.409   6.243   6.932
 9331SOL     OW28891   1.370   1.666   5.978
 9331SOL    HW128892   1.372   1.650   6.077
 9331SOL    HW228893   1.376   1.579   5.930
 9332SOL     OW28894   3.652   4.106   2.930
 9332SOL    HW128895   3.657   4.196   2.886
 9332SOL    HW228896   3.573   4.103   2.991
 9333SOL     OW28897   4.633   3.891   1.452
 9333SOL    HW128898   4.550   3.946   1.462
 9333SOL    HW228899   4.713   3.945   1.478
 9334SOL     OW28900   4.210   6.745   4.054
 9334SOL    HW128901   4.175   6.667   4.002
 9334SOL    HW228902   4.276   6.714   4.121
 9335SOL     OW28903   1.188   1.261   5.983
 9335SOL    HW128904   1.112   1.290   6.042
 9335SOL    HW228905   1.273   1.299   6.018
 9336SOL     OW28906   3.554   5.699   6.178
 9336SOL    HW128907   3.596   5.662   6.261
 9336SOL    HW228908   3.463   5.735   6.199
 9337SOL     OW28909   5.307   1.011   3.456
 9337SOL    HW128910   5.245   0.936   3.435
 9337SOL    HW228911   5.374   0.982   3.524
 9338SOL     OW28912   4.272   1.007   2.120
 9338SOL    HW128913   4.237   1.062   2.044
 9338SOL    HW228914   4.319   0.927   2.085
 9339SOL     OW28915   5.205   6.869   0.778
 9339SOL    HW128916   5.196   6.772   0.758
 9339SOL    HW228917   5.133   6.920   0.731
 9340SOL     OW28918   5.126   3.753   4.955
 9340SOL    HW128919   5.061   3.774   4.882
 9340SOL    HW228920   5.117   3.657   4.982
 9341SOL     OW28921   0.337   5.942   6.517
 9341SOL    HW128922   0.333   6.026   6.463
 9341SOL    HW228923   0.432   5.920   6.538
 9342SOL     OW28924   2.573   0.788   3.827
 9342SOL    HW128925   2.652   0.820   3.774
 9342SOL    HW228926   2.494   0.844   3.804
 9343SOL     OW28927   6.072   4.334   3.088
 9343SOL    HW128928   6.089   4.413   3.029
 9343SOL    HW228929   6.156   4.312   3.138
 9344SOL     OW28930   4.437   5.824   1.366
 9344SOL    HW128931   4.498   5.876   1.307
 9344SOL    HW228932   4.488   5.750   1.409
 9345SOL     OW28933   6.384   4.053   2.003
 9345SOL    HW128934   6.439   4.136   1.992
 9345SOL    HW228935   6.362   4.039   2.099
 9346SOL     OW28936   6.224   0.839   0.951
 9346SOL    HW128937   6.179   0.751   0.936
 9346SOL    HW228938   6.157   0.913   0.946
 9347SOL     OW28939   1.352   5.387   0.845
 9347SOL    HW128940   1.314   5.346   0.927
 9347SOL    HW228941   1.411   5.464   0.870
 9348SOL     OW28942   3.830   5.428   1.583
 9348SOL    HW128943   3.774   5.370   1.523
 9348SOL    HW228944   3.883   5.492   1.528
 9349SOL     OW28945   0.585   6.737   2.503
 9349SOL    HW128946   0.578   6.648   2.459
 9349SOL    HW228947   0.553   6.808   2.441
 9350SOL     OW28948   0.608   3.053   5.378
 9350SOL    HW128949   0.663   2.971   5.365
 9350SOL    HW228950   0.612   3.081   5.474
 9351SOL     OW28951   2.998   1.162   6.486
 9351SOL    HW128952   2.977   1.238   6.547
 9351SOL    HW228953   3.090   1.172   6.450
 9352SOL     OW28954   2.994   3.291   0.247
 9352SOL    HW128955   3.078   3.313   0.198
 9352SOL    HW228956   3.004   3.203   0.293
 9353SOL     OW28957   0.719   5.496   1.588
 9353SOL    HW128958   0.786   5.530   1.654
 9353SOL    HW228959   0.649   5.443   1.636
 9354SOL     OW28960   6.760   2.410   6.819
 9354SOL    HW128961   6.835   2.368   6.769
 9354SOL    HW228962   6.698   2.456   6.755
 9355SOL     OW28963   0.843   2.441   4.965
 9355SOL    HW128964   0.891   2.362   4.927
 9355SOL    HW228965   0.858   2.444   5.064
 9356SOL     OW28966   3.609   6.915   1.077
 9356SOL    HW128967   3.518   6.953   1.064
 9356SOL    HW228968   3.602   6.817   1.096
 9357SOL     OW28969   1.411   3.198   6.144
 9357SOL    HW128970   1.378   3.225   6.235
 9357SOL    HW228971   1.407   3.099   6.135
 9358SOL     OW28972   0.459   4.090   2.238
 9358SOL    HW128973   0.423   3.997   2.226
 9358SOL    HW228974   0.418   4.132   2.318
 9359SOL     OW28975   1.680   4.936   6.201
 9359SOL    HW128976   1.740   4.958   6.278
 9359SOL    HW228977   1.724   4.869   6.142
 9360SOL     OW28978   1.538   6.369   6.461
 9360SOL    HW128979   1.614   6.316   6.424
 9360SOL    HW228980   1.561   6.398   6.554
 9361SOL     OW28981   2.017   5.736   3.480
 9361SOL    HW128982   1.966   5.752   3.564
 9361SOL    HW228983   2.078   5.657   3.492
 9362SOL     OW28984   1.471   1.641   2.270
 9362SOL    HW128985   1.505   1.687   2.352
 9362SOL    HW228986   1.449   1.709   2.200
 9363SOL     OW28987   3.550   5.237   1.653
 9363SOL    HW128988   3.490   5.315   1.638
 9363SOL    HW228989   3.507   5.173   1.716
 9364SOL     OW28990   2.209   2.107   1.605
 9364SOL    HW128991   2.277   2.144   1.669
 9364SOL    HW228992   2.240   2.121   1.511
 9365SOL     OW28993   2.972   2.150   3.944
 9365SOL    HW128994   2.949   2.089   3.868
 9365SOL    HW228995   2.898   2.149   4.011
 9366SOL     OW28996   3.197   5.847   6.914
 9366SOL    HW128997   3.110   5.845   6.865
 9366SOL    HW228998   3.243   5.759   6.902
 9367SOL     OW28999   5.732   0.280   1.083
 9367SOL    HW129000   5.654   0.335   1.115
 9367SOL    HW229001   5.697   0.198   1.037
 9368SOL     OW29002   3.657   7.009   2.233
 9368SOL    HW129003   3.604   0.046   2.168
 9368SOL    HW229004   3.754   0.012   2.223
 9369SOL     OW29005   0.765   5.765   5.003
 9369SOL    HW129006   0.795   5.780   5.097
 9369SOL    HW229007   0.735   5.852   4.963
 9370SOL     OW29008   4.697   0.956   3.298
 9370SOL    HW129009   4.620   0.923   3.243
 9370SOL    HW229010   4.768   0.992   3.238
 9371SOL     OW29011   3.115   5.273   1.479
 9371SOL    HW129012   3.036   5.222   1.512
 9371SOL    HW229013   3.171   5.214   1.420
 9372SOL     OW29014   4.222   0.002   1.574
 9372SOL    HW129015   4.230   6.922   1.561
 9372SOL    HW229016   4.180   0.021   1.663
 9373SOL     OW29017   6.417   2.580   0.396
 9373SOL    HW129018   6.483   2.656   0.396
 9373SOL    HW229019   6.382   2.567   0.488
 9374SOL     OW29020   0.523   4.140   5.592
 9374SOL    HW129021   0.495   4.193   5.672
 9374SOL    HW229022   0.451   4.074   5.569
 9375SOL     OW29023   0.230   1.819   0.345
 9375SOL    HW129024   0.132   1.800   0.339
 9375SOL    HW229025   0.256   1.881   0.271
 9376SOL     OW29026   2.095   3.437   2.262
 9376SOL    HW129027   2.125   3.521   2.306
 9376SOL    HW229028   2.137   3.430   2.172
 9377SOL     OW29029   2.861   5.235   2.970
 9377SOL    HW129030   2.948   5.240   2.922
 9377SOL    HW229031   2.877   5.214   3.066
 9378SOL     OW29032   3.627   1.094   3.642
 9378SOL    HW129033   3.675   1.025   3.587
 9378SOL    HW229034   3.568   1.149   3.582
 9379SOL     OW29035   4.578   6.835   4.742
 9379SOL    HW129036   4.564   6.784   4.657
 9379SOL    HW229037   4.670   6.815   4.777
 9380SOL     OW29038   3.411   5.628   5.651
 9380SOL    HW129039   3.317   5.664   5.648
 9380SOL    HW229040   3.461   5.673   5.726
 9381SOL     OW29041   4.986   1.670   4.346
 9381SOL    HW129042   4.981   1.592   4.410
 9381SOL    HW229043   4.942   1.749   4.388
 9382SOL     OW29044   4.025   0.775   4.139
 9382SOL    HW129045   4.051   0.714   4.214
 9382SOL    HW229046   3.929   0.802   4.150
 9383SOL     OW29047   4.949   4.164   3.640
 9383SOL    HW129048   4.866   4.112   3.619
 9383SOL    HW229049   4.974   4.221   3.562
 9384SOL     OW29050   1.846   6.744   2.085
 9384SOL    HW129051   1.845   6.684   2.165
 9384SOL    HW229052   1.760   6.795   2.081
 9385SOL     OW29053   4.000   1.491   4.303
 9385SOL    HW129054   3.966   1.508   4.395
 9385SOL    HW229055   3.933   1.435   4.252
 9386SOL     OW29056   3.197   6.001   5.157
 9386SOL    HW129057   3.270   5.947   5.114
 9386SOL    HW229058   3.217   6.098   5.145
 9387SOL     OW29059   3.945   1.925   0.151
 9387SOL    HW129060   3.849   1.947   0.167
 9387SOL    HW229061   3.985   1.882   0.232
 9388SOL     OW29062   1.553   6.849   4.169
 9388SOL    HW129063   1.527   6.944   4.186
 9388SOL    HW229064   1.499   6.789   4.228
 9389SOL     OW29065   3.340   5.176   2.571
 9389SOL    HW129066   3.266   5.126   2.615
 9389SOL    HW229067   3.322   5.183   2.473
 9390SOL     OW29068   5.338   4.689   5.546
 9390SOL    HW129069   5.288   4.611   5.509
 9390SOL    HW229070   5.398   4.658   5.620
 9391SOL     OW29071   0.926   6.849   5.114
 9391SOL    HW129072   1.020   6.814   5.113
 9391SOL    HW229073   0.907   6.892   5.203
 9392SOL     OW29074   5.133   4.687   3.721
 9392SOL    HW129075   5.145   4.597   3.680
 9392SOL    HW229076   5.035   4.711   3.719
 9393SOL     OW29077   3.440   6.256   6.134
 9393SOL    HW129078   3.361   6.196   6.149
 9393SOL    HW229079   3.408   6.349   6.116
 9394SOL     OW29080   5.514   0.608   1.517
 9394SOL    HW129081   5.596   0.666   1.518
 9394SOL    HW229082   5.443   0.651   1.461
 9395SOL     OW29083   2.943   1.532   1.108
 9395SOL    HW129084   2.946   1.625   1.072
 9395SOL    HW229085   3.024   1.515   1.164
 9396SOL     OW29086   1.941   6.003   6.209
 9396SOL    HW129087   1.949   6.048   6.120
 9396SOL    HW229088   1.853   6.027   6.250
 9397SOL     OW29089   3.719   6.901   6.205
 9397SOL    HW129090   3.667   6.986   6.212
 9397SOL    HW229091   3.784   6.909   6.129
 9398SOL     OW29092   6.208   1.119   6.532
 9398SOL    HW129093   6.136   1.079   6.589
 9398SOL    HW229094   6.283   1.149   6.590
 9399SOL     OW29095   1.823   2.951   4.317
 9399SOL    HW129096   1.892   2.888   4.351
 9399SOL    HW229097   1.868   3.031   4.277
 9400SOL     OW29098   5.518   1.429   0.056
 9400SOL    HW129099   5.480   1.339   0.076
 9400SOL    HW229100   5.530   1.439   6.975
 9401SOL     OW29101   0.721   2.592   2.812
 9401SOL    HW129102   0.641   2.648   2.791
 9401SOL    HW229103   0.692   2.498   2.833
 9402SOL     OW29104   1.585   5.597   3.297
 9402SOL    HW129105   1.590   5.695   3.315
 9402SOL    HW229106   1.659   5.550   3.345
 9403SOL     OW29107   6.707   1.090   2.042
 9403SOL    HW129108   6.649   1.033   1.984
 9403SOL    HW229109   6.651   1.132   2.114
 9404SOL     OW29110   1.188   3.019   1.277
 9404SOL    HW129111   1.133   3.073   1.341
 9404SOL    HW229112   1.142   2.933   1.257
 9405SOL     OW29113   0.277   4.785   4.872
 9405SOL    HW129114   0.284   4.711   4.938
 9405SOL    HW229115   0.361   4.840   4.873
 9406SOL     OW29116   0.659   3.023   6.264
 9406SOL    HW129117   0.602   2.976   6.332
 9406SOL    HW229118   0.727   2.958   6.228
 9407SOL     OW29119   2.566   5.109   4.754
 9407SOL    HW129120   2.573   5.035   4.820
 9407SOL    HW229121   2.471   5.138   4.746
 9408SOL     OW29122   6.723   4.023   5.652
 9408SOL    HW129123   6.628   4.050   5.667
 9408SOL    HW229124   6.777   4.103   5.626
 9409SOL     OW29125   6.826   5.675   2.144
 9409SOL    HW129126   6.830   5.775   2.143
 9409SOL    HW229127   6.809   5.644   2.238
 9410SOL     OW29128   4.300   0.357   1.810
 9410SOL    HW129129   4.369   0.398   1.749
 9410SOL    HW229130   4.248   0.429   1.854
 9411SOL     OW29131   3.535   2.877   3.639
 9411SOL    HW129132   3.467   2.874   3.565
 9411SOL    HW229133   3.491   2.909   3.723
 9412SOL     OW29134   0.192   0.776   0.908
 9412SOL    HW129135   0.255   0.784   0.985
 9412SOL    HW229136   0.176   0.679   0.888
 9413SOL     OW29137   4.588   4.871   4.199
 9413SOL    HW129138   4.529   4.900   4.274
 9413SOL    HW229139   4.647   4.796   4.231
 9414SOL     OW29140   2.216   2.408   5.083
 9414SOL    HW129141   2.171   2.462   5.155
 9414SOL    HW229142   2.224   2.313   5.114
 9415SOL     OW29143   3.748   0.350   2.301
 9415SOL    HW129144   3.823   0.303   2.253
 9415SOL    HW229145   3.685   0.389   2.233
 9416SOL     OW29146   0.351   6.329   5.851
 9416SOL    HW129147   0.450   6.338   5.864
 9416SOL    HW229148   0.333   6.287   5.762
 9417SOL     OW29149   3.324   6.528   1.200
 9417SOL    HW129150   3.317   6.462   1.275
 9417SOL    HW229151   3.247   6.592   1.204
 9418SOL     OW29152   3.118   1.987   4.154
 9418SOL    HW129153   3.065   2.044   4.090
 9418SOL    HW229154   3.184   2.043   4.202
 9419SOL     OW29155   2.813   2.064   6.599
 9419SOL    HW129156   2.822   2.160   6.571
 9419SOL    HW229157   2.718   2.046   6.626
 9420SOL     OW29158   5.616   3.369   0.717
 9420SOL    HW129159   5.712   3.353   0.696
 9420SOL    HW229160   5.599   3.344   0.812
 9421SOL     OW29161   3.850   6.255   5.469
 9421SOL    HW129162   3.858   6.183   5.400
 9421SOL    HW229163   3.763   6.302   5.458
 9422SOL     OW29164   2.627   6.297   4.117
 9422SOL    HW129165   2.695   6.329   4.051
 9422SOL    HW229166   2.671   6.280   4.205
 9423SOL     OW29167   4.119   5.962   3.066
 9423SOL    HW129168   4.191   6.031   3.054
 9423SOL    HW229169   4.160   5.871   3.065
 9424SOL     OW29170   5.380   1.276   4.381
 9424SOL    HW129171   5.383   1.360   4.435
 9424SOL    HW229172   5.296   1.275   4.326
 9425SOL     OW29173   6.184   4.595   1.256
 9425SOL    HW129174   6.244   4.640   1.321
 9425SOL    HW229175   6.117   4.660   1.221
 9426SOL     OW29176   0.509   1.891   6.211
 9426SOL    HW129177   0.591   1.939   6.243
 9426SOL    HW229178   0.508   1.889   6.111
 9427SOL     OW29179   3.502   5.512   2.939
 9427SOL    HW129180   3.468   5.604   2.959
 9427SOL    HW229181   3.599   5.506   2.963
 9428SOL     OW29182   6.232   6.756   6.864
 9428SOL    HW129183   6.212   6.783   6.770
 9428SOL    HW229184   6.319   6.706   6.867
 9429SOL     OW29185   1.628   2.367   3.938
 9429SOL    HW129186   1.684   2.391   4.017
 9429SOL    HW229187   1.536   2.406   3.950
 9430SOL     OW29188   0.620   2.179   4.422
 9430SOL    HW129189   0.605   2.153   4.327
 9430SOL    HW229190   0.551   2.247   4.450
 9431SOL     OW29191   6.993   4.357   0.008
 9431SOL    HW129192   7.004   4.392   0.101
 9431SOL    HW229193   6.978   4.433   6.964
 9432SOL     OW29194   6.791   1.519   3.414
 9432SOL    HW129195   6.847   1.461   3.355
 9432SOL    HW229196   6.732   1.576   3.357
 9433SOL     OW29197   4.160   6.355   2.694
 9433SOL    HW129198   4.161   6.305   2.607
 9433SOL    HW229199   4.074   6.404   2.703
 9434SOL     OW29200   5.062   5.810   3.918
 9434SOL    HW129201   5.145   5.840   3.870
 9434SOL    HW229202   4.982   5.849   3.874
 9435SOL     OW29203   0.762   2.601   2.205
 9435SOL    HW129204   0.704   2.682   2.203
 9435SOL    HW229205   0.830   2.611   2.278
 9436SOL     OW29206   0.560   1.127   2.467
 9436SOL    HW129207   0.586   1.119   2.563
 9436SOL    HW229208   0.610   1.060   2.413
 9437SOL     OW29209   0.311   5.236   4.482
 9437SOL    HW129210   0.244   5.165   4.458
 9437SOL    HW229211   0.351   5.273   4.398
 9438SOL     OW29212   2.494   6.377   1.726
 9438SOL    HW129213   2.418   6.317   1.701
 9438SOL    HW229214   2.571   6.360   1.664
 9439SOL     OW29215   0.799   2.970   0.126
 9439SOL    HW129216   0.862   2.963   0.049
 9439SOL    HW229217   0.705   2.975   0.092
 9440SOL     OW29218   3.132   4.849   3.573
 9440SOL    HW129219   3.218   4.799   3.562
 9440SOL    HW229220   3.130   4.926   3.509
 9441SOL     OW29221   6.382   5.583   4.554
 9441SOL    HW129222   6.356   5.487   4.546
 9441SOL    HW229223   6.482   5.590   4.548
 9442SOL     OW29224   4.763   3.699   0.729
 9442SOL    HW129225   4.666   3.673   0.735
 9442SOL    HW229226   4.819   3.624   0.763
 9443SOL     OW29227   2.955   4.831   2.183
 9443SOL    HW129228   2.971   4.912   2.126
 9443SOL    HW229229   2.928   4.754   2.124
 9444SOL     OW29230   2.172   3.962   0.279
 9444SOL    HW129231   2.077   3.970   0.250
 9444SOL    HW229232   2.231   3.953   0.199
 9445SOL     OW29233   0.397   1.614   3.768
 9445SOL    HW129234   0.408   1.671   3.687
 9445SOL    HW229235   0.311   1.564   3.762
 9446SOL     OW29236   6.475   4.826   3.352
 9446SOL    HW129237   6.402   4.843   3.286
 9446SOL    HW229238   6.481   4.904   3.415
 9447SOL     OW29239   5.837   5.397   2.609
 9447SOL    HW129240   5.788   5.456   2.545
 9447SOL    HW229241   5.771   5.346   2.665
 9448SOL     OW29242   5.275   0.491   5.797
 9448SOL    HW129243   5.299   0.399   5.828
 9448SOL    HW229244   5.354   0.532   5.751
 9449SOL     OW29245   5.537   6.775   0.924
 9449SOL    HW129246   5.635   6.787   0.940
 9449SOL    HW229247   5.508   6.833   0.848
 9450SOL     OW29248   1.523   5.718   4.381
 9450SOL    HW129249   1.428   5.750   4.388
 9450SOL    HW229250   1.584   5.797   4.377
 9451SOL     OW29251   3.965   5.547   6.171
 9451SOL    HW129252   4.060   5.519   6.183
 9451SOL    HW229253   3.951   5.580   6.078
 9452SOL     OW29254   0.584   4.165   1.016
 9452SOL    HW129255   0.603   4.223   0.937
 9452SOL    HW229256   0.641   4.082   1.012
 9453SOL     OW29257   3.646   5.234   2.880
 9453SOL    HW129258   3.703   5.315   2.866
 9453SOL    HW229259   3.674   5.189   2.965
 9454SOL     OW29260   4.341   4.417   0.663
 9454SOL    HW129261   4.431   4.373   0.668
 9454SOL    HW229262   4.335   4.487   0.734
 9455SOL     OW29263   2.767   2.253   2.245
 9455SOL    HW129264   2.673   2.252   2.211
 9455SOL    HW229265   2.830   2.266   2.168
 9456SOL     OW29266   6.061   3.250   2.286
 9456SOL    HW129267   6.001   3.207   2.353
 9456SOL    HW229268   6.131   3.184   2.258
 9457SOL     OW29269   1.095   4.674   4.168
 9457SOL    HW129270   1.074   4.762   4.126
 9457SOL    HW229271   1.103   4.686   4.267
 9458SOL     OW29272   6.562   4.293   0.109
 9458SOL    HW129273   6.528   4.387   0.111
 9458SOL    HW229274   6.486   4.229   0.119
 9459SOL     OW29275   5.225   4.773   4.620
 9459SOL    HW129276   5.281   4.695   4.592
 9459SOL    HW229277   5.222   4.840   4.545
 9460SOL     OW29278   1.136   2.977   3.259
 9460SOL    HW129279   1.139   3.075   3.280
 9460SOL    HW229280   1.171   2.962   3.166
 9461SOL     OW29281   1.391   2.114   1.335
 9461SOL    HW129282   1.378   2.103   1.433
 9461SOL    HW229283   1.483   2.147   1.317
 9462SOL     OW29284   2.180   1.840   4.346
 9462SOL    HW129285   2.207   1.845   4.442
 9462SOL    HW229286   2.136   1.926   4.319
 9463SOL     OW29287   5.130   6.937   1.055
 9463SOL    HW129288   5.036   6.904   1.059
 9463SOL    HW229289   5.170   6.915   0.966
 9464SOL     OW29290   0.137   0.776   1.520
 9464SOL    HW129291   0.133   0.846   1.449
 9464SOL    HW229292   0.057   0.716   1.511
 9465SOL     OW29293   0.562   3.971   1.283
 9465SOL    HW129294   0.570   4.071   1.282
 9465SOL    HW229295   0.512   3.941   1.201
 9466SOL     OW29296   4.109   5.246   6.612
 9466SOL    HW129297   4.195   5.264   6.562
 9466SOL    HW229298   4.036   5.229   6.546
 9467SOL     OW29299   2.086   3.251   1.197
 9467SOL    HW129300   2.009   3.307   1.166
 9467SOL    HW229301   2.164   3.310   1.216
 9468SOL     OW29302   6.549   3.376   0.413
 9468SOL    HW129303   6.610   3.385   0.335
 9468SOL    HW229304   6.540   3.280   0.439
 9469SOL     OW29305   0.122   6.263   0.772
 9469SOL    HW129306   0.177   6.233   0.694
 9469SOL    HW229307   0.182   6.306   0.839
 9470SOL     OW29308   5.088   3.737   0.532
 9470SOL    HW129309   5.160   3.806   0.531
 9470SOL    HW229310   5.072   3.703   0.439
 9471SOL     OW29311   6.278   2.148   5.192
 9471SOL    HW129312   6.302   2.117   5.100
 9471SOL    HW229313   6.186   2.186   5.191
 9472SOL     OW29314   1.441   4.163   6.005
 9472SOL    HW129315   1.354   4.192   6.044
 9472SOL    HW229316   1.430   4.075   5.958
 9473SOL     OW29317   2.744   4.561   0.355
 9473SOL    HW129318   2.723   4.550   0.452
 9473SOL    HW229319   2.839   4.532   0.338
 9474SOL     OW29320   5.902   3.453   2.016
 9474SOL    HW129321   5.956   3.370   2.007
 9474SOL    HW229322   5.805   3.429   2.022
 9475SOL     OW29323   4.893   3.414   5.691
 9475SOL    HW129324   4.843   3.499   5.672
 9475SOL    HW229325   4.852   3.370   5.771
 9476SOL     OW29326   3.628   4.211   5.729
 9476SOL    HW129327   3.553   4.255   5.680
 9476SOL    HW229328   3.591   4.149   5.798
 9477SOL     OW29329   1.936   3.892   1.478
 9477SOL    HW129330   1.856   3.930   1.523
 9477SOL    HW229331   2.011   3.884   1.544
 9478SOL     OW29332   5.106   2.772   0.336
 9478SOL    HW129333   5.124   2.870   0.325
 9478SOL    HW229334   5.065   2.737   0.252
 9479SOL     OW29335   4.760   1.023   1.729
 9479SOL    HW129336   4.712   1.017   1.641
 9479SOL    HW229337   4.694   1.046   1.801
 9480SOL     OW29338   5.991   6.041   6.687
 9480SOL    HW129339   5.929   5.966   6.708
 9480SOL    HW229340   5.976   6.072   6.593
 9481SOL     OW29341   4.796   1.571   3.436
 9481SOL    HW129342   4.765   1.661   3.465
 9481SOL    HW229343   4.814   1.514   3.516
 9482SOL     OW29344   5.807   1.041   0.552
 9482SOL    HW129345   5.891   1.026   0.499
 9482SOL    HW229346   5.735   0.982   0.516
 9483SOL     OW29347   0.803   0.602   0.375
 9483SOL    HW129348   0.765   0.695   0.382
 9483SOL    HW229349   0.733   0.536   0.399
 9484SOL     OW29350   2.718   6.456   4.662
 9484SOL    HW129351   2.668   6.533   4.623
 9484SOL    HW229352   2.814   6.461   4.635
 9485SOL     OW29353   6.620   1.375   0.121
 9485SOL    HW129354   6.538   1.427   0.145
 9485SOL    HW229355   6.631   1.299   0.185
 9486SOL     OW29356   4.686   5.525   0.308
 9486SOL    HW129357   4.703   5.578   0.225
 9486SOL    HW229358   4.610   5.566   0.359
 9487SOL     OW29359   3.005   3.681   4.140
 9487SOL    HW129360   3.061   3.684   4.057
 9487SOL    HW229361   2.950   3.598   4.141
 9488SOL     OW29362   1.420   1.226   1.179
 9488SOL    HW129363   1.384   1.155   1.240
 9488SOL    HW229364   1.345   1.264   1.126
 9489SOL     OW29365   5.247   4.131   1.008
 9489SOL    HW129366   5.207   4.222   1.021
 9489SOL    HW229367   5.176   4.067   0.982
 9490SOL     OW29368   6.168   4.453   3.714
 9490SOL    HW129369   6.119   4.484   3.796
 9490SOL    HW229370   6.243   4.392   3.741
 9491SOL     OW29371   5.182   6.421   3.544
 9491SOL    HW129372   5.202   6.495   3.479
 9491SOL    HW229373   5.189   6.457   3.637
 9492SOL     OW29374   4.873   3.171   4.453
 9492SOL    HW129375   4.863   3.126   4.542
 9492SOL    HW229376   4.814   3.127   4.386
 9493SOL     OW29377   4.269   6.158   4.267
 9493SOL    HW129378   4.174   6.125   4.273
 9493SOL    HW229379   4.331   6.080   4.274
 9494SOL     OW29380   4.961   2.923   2.377
 9494SOL    HW129381   4.899   2.902   2.301
 9494SOL    HW229382   4.963   3.021   2.393
 9495SOL     OW29383   0.514   0.381   1.676
 9495SOL    HW129384   0.479   0.413   1.764
 9495SOL    HW229385   0.472   0.433   1.602
 9496SOL     OW29386   4.224   2.080   2.505
 9496SOL    HW129387   4.271   2.002   2.463
 9496SOL    HW229388   4.208   2.150   2.435
 9497SOL     OW29389   5.949   5.679   4.560
 9497SOL    HW129390   5.854   5.651   4.575
 9497SOL    HW229391   5.964   5.768   4.601
 9498SOL     OW29392   6.708   5.214   4.560
 9498SOL    HW129393   6.749   5.305   4.551
 9498SOL    HW229394   6.659   5.207   4.647
 9499SOL     OW29395   6.515   5.497   5.191
 9499SOL    HW129396   6.605   5.525   5.159
 9499SOL    HW229397   6.511   5.505   5.291
 9500SOL     OW29398   4.166   0.256   0.824
 9500SOL    HW129399   4.208   0.298   0.905
 9500SOL    HW229400   4.128   0.326   0.765
 9501SOL     OW29401   1.673   1.371   4.478
 9501SOL    HW129402   1.743   1.312   4.437
 9501SOL    HW229403   1.702   1.397   4.570
 9502SOL     OW29404   5.411   4.832   5.232
 9502SOL    HW129405   5.466   4.751   5.255
 9502SOL    HW229406   5.465   4.914   5.251
 9503SOL     OW29407   0.660   1.905   0.131
 9503SOL    HW129408   0.679   1.809   0.111
 9503SOL    HW229409   0.742   1.959   0.113
 9504SOL     OW29410   0.130   4.454   1.119
 9504SOL    HW129411   0.182   4.499   1.046
 9504SOL    HW229412   0.039   4.494   1.124
 9505SOL     OW29413   4.242   4.634   5.535
 9505SOL    HW129414   4.327   4.667   5.576
 9505SOL    HW229415   4.167   4.646   5.599
 9506SOL     OW29416   2.574   2.142   1.116
 9506SOL    HW129417   2.518   2.152   1.034
 9506SOL    HW229418   2.586   2.045   1.136
 9507SOL     OW29419   6.069   0.258   1.548
 9507SOL    HW129420   6.064   0.256   1.448
 9507SOL    HW229421   5.984   0.296   1.585
 9508SOL     OW29422   4.790   1.458   2.324
 9508SOL    HW129423   4.887   1.482   2.328
 9508SOL    HW229424   4.738   1.515   2.388
 9509SOL     OW29425   6.628   0.392   2.822
 9509SOL    HW129426   6.621   0.386   2.922
 9509SOL    HW229427   6.566   0.463   2.789
 9510SOL     OW29428   0.430   3.243   3.908
 9510SOL    HW129429   0.408   3.331   3.951
 9510SOL    HW229430   0.351   3.183   3.915
 9511SOL     OW29431   1.299   0.974   1.217
 9511SOL    HW129432   1.326   0.887   1.174
 9511SOL    HW229433   1.200   0.986   1.209
 9512SOL     OW29434   6.672   3.262   0.954
 9512SOL    HW129435   6.574   3.257   0.974
 9512SOL    HW229436   6.720   3.190   1.004
 9513SOL     OW29437   4.437   4.604   6.212
 9513SOL    HW129438   4.411   4.685   6.266
 9513SOL    HW229439   4.370   4.532   6.225
 9514SOL     OW29440   2.980   3.050   6.674
 9514SOL    HW129441   3.039   3.058   6.594
 9514SOL    HW229442   3.004   3.121   6.740
 9515SOL     OW29443   2.706   5.100   3.874
 9515SOL    HW129444   2.766   5.092   3.793
 9515SOL    HW229445   2.681   5.008   3.906
 9516SOL     OW29446   6.359   4.155   0.220
 9516SOL    HW129447   6.346   4.060   0.247
 9516SOL    HW229448   6.337   4.215   0.298
 9517SOL     OW29449   0.952   3.938   1.045
 9517SOL    HW129450   1.002   3.866   0.998
 9517SOL    HW229451   0.870   3.961   0.994
 9518SOL     OW29452   2.400   1.666   0.810
 9518SOL    HW129453   2.466   1.699   0.878
 9518SOL    HW229454   2.426   1.573   0.782
 9519SOL     OW29455   1.177   2.557   5.651
 9519SOL    HW129456   1.264   2.543   5.698
 9519SOL    HW229457   1.176   2.503   5.567
 9520SOL     OW29458   2.453   0.119   2.884
 9520SOL    HW129459   2.354   0.125   2.889
 9520SOL    HW229460   2.493   0.207   2.910
 9521SOL     OW29461   5.890   5.834   3.911
 9521SOL    HW129462   5.835   5.754   3.886
 9521SOL    HW229463   5.916   5.827   4.007
 9522SOL     OW29464   3.266   6.050   1.101
 9522SOL    HW129465   3.235   6.110   1.175
 9522SOL    HW229466   3.349   6.087   1.061
 9523SOL     OW29467   3.685   5.189   4.365
 9523SOL    HW129468   3.715   5.119   4.300
 9523SOL    HW229469   3.587   5.179   4.382
 9524SOL     OW29470   3.618   3.096   1.282
 9524SOL    HW129471   3.632   3.009   1.234
 9524SOL    HW229472   3.622   3.081   1.381
 9525SOL     OW29473   1.750   1.287   5.814
 9525SOL    HW129474   1.745   1.267   5.716
 9525SOL    HW229475   1.697   1.218   5.864
 9526SOL     OW29476   4.847   6.219   3.341
 9526SOL    HW129477   4.841   6.297   3.404
 9526SOL    HW229478   4.879   6.250   3.252
 9527SOL     OW29479   0.875   1.115   2.212
 9527SOL    HW129480   0.921   1.119   2.301
 9527SOL    HW229481   0.942   1.132   2.140
 9528SOL     OW29482   6.099   0.213   1.252
 9528SOL    HW129483   6.130   0.117   1.255
 9528SOL    HW229484   6.041   0.226   1.171
 9529SOL     OW29485   1.005   3.122   6.288
 9529SOL    HW129486   1.041   3.028   6.290
 9529SOL    HW229487   1.077   3.185   6.316
 9530SOL     OW29488   1.600   2.645   2.901
 9530SOL    HW129489   1.558   2.594   2.825
 9530SOL    HW229490   1.576   2.742   2.893
 9531SOL     OW29491   3.497   6.956   3.296
 9531SOL    HW129492   3.408   6.966   3.251
 9531SOL    HW229493   3.565   6.928   3.229
 9532SOL     OW29494   1.714   6.873   1.344
 9532SOL    HW129495   1.775   6.821   1.404
 9532SOL    HW229496   1.754   6.876   1.252
 9533SOL     OW29497   1.274   1.386   5.424
 9533SOL    HW129498   1.348   1.424   5.480
 9533SOL    HW229499   1.277   1.286   5.430
 9534SOL     OW29500   5.147   1.969   4.768
 9534SOL    HW129501   5.144   2.061   4.807
 9534SOL    HW229502   5.181   1.905   4.836
 9535SOL     OW29503   2.487   1.284   5.543
 9535SOL    HW129504   2.584   1.306   5.535
 9535SOL    HW229505   2.459   1.290   5.639
 9536SOL     OW29506   1.661   5.654   5.552
 9536SOL    HW129507   1.734   5.587   5.546
 9536SOL    HW229508   1.609   5.639   5.637
 9537SOL     OW29509   3.156   0.402   2.204
 9537SOL    HW129510   3.057   0.395   2.212
 9537SOL    HW229511   3.179   0.454   2.121
 9538SOL     OW29512   6.675   2.160   4.418
 9538SOL    HW129513   6.742   2.215   4.369
 9538SOL    HW229514   6.651   2.205   4.504
 9539SOL     OW29515   1.053   5.890   0.019
 9539SOL    HW129516   0.996   5.815   7.004
 9539SOL    HW229517   1.132   5.901   6.978
 9540SOL     OW29518   4.430   5.006   4.998
 9540SOL    HW129519   4.361   4.934   5.009
 9540SOL    HW229520   4.389   5.085   4.952
 9541SOL     OW29521   2.041   2.779   4.405
 9541SOL    HW129522   2.063   2.797   4.501
 9541SOL    HW229523   2.105   2.829   4.346
 9542SOL     OW29524   4.862   3.084   4.716
 9542SOL    HW129525   4.956   3.057   4.740
 9542SOL    HW229526   4.803   3.072   4.795
 9543SOL     OW29527   4.523   0.988   3.725
 9543SOL    HW129528   4.442   1.045   3.739
 9543SOL    HW229529   4.548   0.944   3.811
 9544SOL     OW29530   5.439   0.938   2.032
 9544SOL    HW129531   5.505   0.896   2.094
 9544SOL    HW229532   5.362   0.875   2.017
 9545SOL     OW29533   7.005   0.172   3.011
 9545SOL    HW129534   6.962   0.250   2.968
 9545SOL    HW229535   6.950   0.090   2.995
 9546SOL     OW29536   2.793   5.677   6.362
 9546SOL    HW129537   2.888   5.646   6.361
 9546SOL    HW229538   2.734   5.605   6.397
 9547SOL     OW29539   1.187   6.104   4.833
 9547SOL    HW129540   1.250   6.031   4.860
 9547SOL    HW229541   1.233   6.165   4.768
 9548SOL     OW29542   5.720   5.973   4.370
 9548SOL    HW129543   5.671   5.887   4.379
 9548SOL    HW229544   5.702   6.013   4.279
 9549SOL     OW29545   3.036   5.637   0.346
 9549SOL    HW129546   2.973   5.588   0.406
 9549SOL    HW229547   3.015   5.616   0.251
 9550SOL     OW29548   1.226   1.463   0.411
 9550SOL    HW129549   1.237   1.444   0.508
 9550SOL    HW229550   1.211   1.377   0.362
 9551SOL     OW29551   0.393   6.786   4.777
 9551SOL    HW129552   0.491   6.794   4.762
 9551SOL    HW229553   0.361   6.863   4.832
 9552SOL     OW29554   1.533   6.228   3.627
 9552SOL    HW129555   1.451   6.185   3.587
 9552SOL    HW229556   1.521   6.327   3.629
 9553SOL     OW29557   6.013   4.567   5.901
 9553SOL    HW129558   5.963   4.603   5.979
 9553SOL    HW229559   5.957   4.577   5.818
 9554SOL     OW29560   2.454   1.402   2.088
 9554SOL    HW129561   2.447   1.329   2.019
 9554SOL    HW229562   2.535   1.457   2.069
 9555SOL     OW29563   6.586   2.206   0.870
 9555SOL    HW129564   6.612   2.112   0.846
 9555SOL    HW229565   6.560   2.209   0.967
 9556SOL     OW29566   2.539   1.330   1.311
 9556SOL    HW129567   2.523   1.308   1.215
 9556SOL    HW229568   2.547   1.429   1.322
 9557SOL     OW29569   5.521   0.197   2.584
 9557SOL    HW129570   5.469   0.266   2.635
 9557SOL    HW229571   5.461   0.153   2.518
 9558SOL     OW29572   6.838   5.129   2.835
 9558SOL    HW129573   6.881   5.040   2.850
 9558SOL    HW229574   6.885   5.199   2.889
 9559SOL     OW29575   0.054   3.155   1.723
 9559SOL    HW129576   0.061   3.113   1.814
 9559SOL    HW229577   0.008   3.243   1.731
 9560SOL     OW29578   2.536   1.247   3.159
 9560SOL    HW129579   2.519   1.311   3.234
 9560SOL    HW229580   2.598   1.176   3.190
 9561SOL     OW29581   4.292   6.600   0.929
 9561SOL    HW129582   4.217   6.535   0.942
 9561SOL    HW229583   4.277   6.652   0.845
 9562SOL     OW29584   4.995   5.330   2.518
 9562SOL    HW129585   5.031   5.418   2.487
 9562SOL    HW229586   5.065   5.259   2.504
 9563SOL     OW29587   6.798   5.774   6.210
 9563SOL    HW129588   6.782   5.820   6.123
 9563SOL    HW229589   6.723   5.795   6.273
 9564SOL     OW29590   2.806   6.771   6.770
 9564SOL    HW129591   2.903   6.786   6.790
 9564SOL    HW229592   2.797   6.713   6.689
 9565SOL     OW29593   3.571   6.313   4.477
 9565SOL    HW129594   3.668   6.322   4.500
 9565SOL    HW229595   3.549   6.374   4.401
 9566SOL     OW29596   2.817   4.661   5.592
 9566SOL    HW129597   2.805   4.575   5.543
 9566SOL    HW229598   2.902   4.657   5.646
 9567SOL     OW29599   5.990   5.703   6.138
 9567SOL    HW129600   6.026   5.696   6.045
 9567SOL    HW229601   5.962   5.613   6.170
 9568SOL     OW29602   4.902   3.624   6.459
 9568SOL    HW129603   4.936   3.704   6.508
 9568SOL    HW229604   4.802   3.621   6.464
 9569SOL     OW29605   6.201   0.549   0.124
 9569SOL    HW129606   6.274   0.601   0.079
 9569SOL    HW229607   6.174   0.595   0.208
 9570SOL     OW29608   1.085   1.285   0.012
 9570SOL    HW129609   1.075   1.384   0.019
 9570SOL    HW229610   1.116   1.261   6.938
 9571SOL     OW29611   2.193   3.384   0.405
 9571SOL    HW129612   2.179   3.446   0.483
 9571SOL    HW229613   2.160   3.293   0.429
 9572SOL     OW29614   1.325   4.249   1.884
 9572SOL    HW129615   1.257   4.322   1.885
 9572SOL    HW229616   1.416   4.289   1.896
 9573SOL     OW29617   1.971   1.425   0.176
 9573SOL    HW129618   1.998   1.372   0.257
 9573SOL    HW229619   1.948   1.363   0.102
 9574SOL     OW29620   2.786   3.197   5.856
 9574SOL    HW129621   2.696   3.226   5.824
 9574SOL    HW229622   2.783   3.100   5.881
 9575SOL     OW29623   5.210   0.760   2.101
 9575SOL    HW129624   5.131   0.821   2.095
 9575SOL    HW229625   5.218   0.707   2.017
 9576SOL     OW29626   3.212   1.502   4.600
 9576SOL    HW129627   3.189   1.405   4.609
 9576SOL    HW229628   3.130   1.558   4.618
 9577SOL     OW29629   1.049   6.238   2.675
 9577SOL    HW129630   1.022   6.328   2.641
 9577SOL    HW229631   1.007   6.167   2.618
 9578SOL     OW29632   6.541   2.862   2.101
 9578SOL    HW129633   6.599   2.844   2.181
 9578SOL    HW229634   6.526   2.961   2.091
 9579SOL     OW29635   0.892   6.713   2.378
 9579SOL    HW129636   0.884   6.708   2.279
 9579SOL    HW229637   0.816   6.767   2.415
 9580SOL     OW29638   4.044   3.808   6.700
 9580SOL    HW129639   4.028   3.804   6.602
 9580SOL    HW229640   4.127   3.757   6.722
 9581SOL     OW29641   1.156   4.298   5.945
 9581SOL    HW129642   1.151   4.349   5.859
 9581SOL    HW229643   1.110   4.209   5.934
 9582SOL     OW29644   4.159   4.775   4.345
 9582SOL    HW129645   4.214   4.713   4.401
 9582SOL    HW229646   4.167   4.749   4.249
 9583SOL     OW29647   2.043   4.037   2.084
 9583SOL    HW129648   2.000   4.055   2.172
 9583SOL    HW229649   2.070   3.941   2.079
 9584SOL     OW29650   6.188   5.642   7.001
 9584SOL    HW129651   6.222   5.655   0.076
 9584SOL    HW229652   6.264   5.650   6.937
 9585SOL     OW29653   6.330   0.179   4.386
 9585SOL    HW129654   6.241   0.223   4.392
 9585SOL    HW229655   6.402   0.248   4.394
 9586SOL     OW29656   5.578   3.535   3.465
 9586SOL    HW129657   5.480   3.534   3.483
 9586SOL    HW229658   5.599   3.475   3.388
 9587SOL     OW29659   5.272   0.487   2.424
 9587SOL    HW129660   5.189   0.525   2.465
 9587SOL    HW229661   5.248   0.430   2.346
 9588SOL     OW29662   0.496   0.682   1.287
 9588SOL    HW129663   0.560   0.606   1.276
 9588SOL    HW229664   0.534   0.748   1.352
 9589SOL     OW29665   2.588   0.665   6.890
 9589SOL    HW129666   2.650   0.587   6.901
 9589SOL    HW229667   2.640   0.745   6.859
 9590SOL     OW29668   0.169   4.414   3.312
 9590SOL    HW129669   0.190   4.326   3.270
 9590SOL    HW229670   0.143   4.400   3.407
 9591SOL     OW29671   1.641   5.346   1.085
 9591SOL    HW129672   1.734   5.321   1.060
 9591SOL    HW229673   1.576   5.284   1.040
 9592SOL     OW29674   4.843   5.379   2.132
 9592SOL    HW129675   4.862   5.477   2.136
 9592SOL    HW229676   4.919   5.332   2.089
 9593SOL     OW29677   6.941   2.570   4.677
 9593SOL    HW129678   6.995   2.630   4.619
 9593SOL    HW229679   6.901   2.497   4.622
 9594SOL     OW29680   6.474   0.012   2.231
 9594SOL    HW129681   6.474   6.931   2.221
 9594SOL    HW229682   6.427   0.036   2.316
 9595SOL     OW29683   1.501   5.558   4.132
 9595SOL    HW129684   1.508   5.627   4.204
 9595SOL    HW229685   1.585   5.559   4.078
 9596SOL     OW29686   5.654   6.008   5.142
 9596SOL    HW129687   5.723   6.067   5.183
 9596SOL    HW229688   5.608   6.056   5.067
 9597SOL     OW29689   1.847   4.132   1.363
 9597SOL    HW129690   1.885   4.040   1.379
 9597SOL    HW229691   1.856   4.186   1.447
 9598SOL     OW29692   7.011   5.580   5.958
 9598SOL    HW129693   0.064   5.529   5.911
 9598SOL    HW229694   0.023   5.604   6.050
 9599SOL     OW29695   4.600   1.606   5.525
 9599SOL    HW129696   4.634   1.599   5.619
 9599SOL    HW229697   4.618   1.520   5.477
 9600SOL     OW29698   1.475   0.421   6.701
 9600SOL    HW129699   1.438   0.344   6.648
 9600SOL    HW229700   1.430   0.505   6.672
 9601SOL     OW29701   0.165   5.502   5.518
 9601SOL    HW129702   0.164   5.571   5.445
 9601SOL    HW229703   0.170   5.548   5.607
 9602SOL     OW29704   1.012   5.670   6.847
 9602SOL    HW129705   1.019   5.701   6.752
 9602SOL    HW229706   1.021   5.571   6.851
 9603SOL     OW29707   1.870   6.112   4.537
 9603SOL    HW129708   1.843   6.187   4.478
 9603SOL    HW229709   1.969   6.096   4.527
 9604SOL     OW29710   5.780   1.819   6.857
 9604SOL    HW129711   5.807   1.875   6.935
 9604SOL    HW229712   5.756   1.877   6.780
 9605SOL     OW29713   1.650   5.996   6.735
 9605SOL    HW129714   1.637   5.900   6.757
 9605SOL    HW229715   1.621   6.052   6.812
 9606SOL     OW29716   6.991   6.341   4.412
 9606SOL    HW129717   6.904   6.374   4.375
 9606SOL    HW229718   0.018   6.415   4.461
 9607SOL     OW29719   1.277   2.434   2.092
 9607SOL    HW129720   1.217   2.508   2.123
 9607SOL    HW229721   1.289   2.440   1.993
 9608SOL     OW29722   0.534   6.912   2.276
 9608SOL    HW129723   0.469   6.983   2.246
 9608SOL    HW229724   0.560   6.856   2.198
 9609SOL     OW29725   1.453   4.131   4.268
 9609SOL    HW129726   1.377   4.083   4.312
 9609SOL    HW229727   1.497   4.069   4.202
 9610SOL     OW29728   2.055   1.888   6.016
 9610SOL    HW129729   2.100   1.919   6.101
 9610SOL    HW229730   2.037   1.967   5.958
 9611SOL     OW29731   6.182   0.461   1.034
 9611SOL    HW129732   6.099   0.406   1.044
 9611SOL    HW229733   6.193   0.519   1.114
 9612SOL     OW29734   5.740   2.753   1.745
 9612SOL    HW129735   5.819   2.700   1.775
 9612SOL    HW229736   5.768   2.818   1.674
 9613SOL     OW29737   6.094   6.788   5.159
 9613SOL    HW129738   6.003   6.782   5.119
 9613SOL    HW229739   6.134   6.877   5.139
 9614SOL     OW29740   3.687   3.676   2.574
 9614SOL    HW129741   3.605   3.733   2.572
 9614SOL    HW229742   3.679   3.607   2.646
 9615SOL     OW29743   1.145   5.741   2.823
 9615SOL    HW129744   1.191   5.683   2.891
 9615SOL    HW229745   1.201   5.822   2.806
 9616SOL     OW29746   3.937   2.879   0.930
 9616SOL    HW129747   3.878   2.841   0.860
 9616SOL    HW229748   3.902   2.969   0.957
 9617SOL     OW29749   1.070   3.145   3.781
 9617SOL    HW129750   1.139   3.073   3.789
 9617SOL    HW229751   0.990   3.108   3.734
 9618SOL     OW29752   4.005   5.996   6.665
 9618SOL    HW129753   3.968   5.924   6.725
 9618SOL    HW229754   3.947   6.005   6.585
 9619SOL     OW29755   2.386   6.460   0.569
 9619SOL    HW129756   2.434   6.448   0.655
 9619SOL    HW229757   2.311   6.526   0.581
 9620SOL     OW29758   3.240   1.431   6.245
 9620SOL    HW129759   3.283   1.436   6.154
 9620SOL    HW229760   3.254   1.339   6.283
 9621SOL     OW29761   0.697   0.445   1.127
 9621SOL    HW129762   0.731   0.539   1.124
 9621SOL    HW229763   0.762   0.384   1.082
 9622SOL     OW29764   5.916   0.548   6.246
 9622SOL    HW129765   5.834   0.492   6.259
 9622SOL    HW229766   5.894   0.628   6.190
 9623SOL     OW29767   4.453   6.164   6.117
 9623SOL    HW129768   4.537   6.202   6.156
 9623SOL    HW229769   4.470   6.138   6.022
 9624SOL     OW29770   4.164   4.985   5.250
 9624SOL    HW129771   4.073   5.012   5.283
 9624SOL    HW229772   4.155   4.943   5.159
 9625SOL     OW29773   5.243   4.514   5.920
 9625SOL    HW129774   5.177   4.547   5.987
 9625SOL    HW229775   5.205   4.527   5.828
 9626SOL     OW29776   2.467   4.177   6.211
 9626SOL    HW129777   2.438   4.213   6.123
 9626SOL    HW229778   2.482   4.254   6.274
 9627SOL     OW29779   0.889   5.182   0.144
 9627SOL    HW129780   0.887   5.111   0.074
 9627SOL    HW229781   0.813   5.246   0.129
 9628SOL     OW29782   5.797   3.393   6.687
 9628SOL    HW129783   5.750   3.443   6.614
 9628SOL    HW229784   5.850   3.318   6.647
 9629SOL     OW29785   0.319   5.732   3.582
 9629SOL    HW129786   0.371   5.774   3.508
 9629SOL    HW229787   0.260   5.661   3.545
 9630SOL     OW29788   6.403   5.925   6.164
 9630SOL    HW129789   6.317   5.894   6.206
 9630SOL    HW229790   6.467   5.951   6.236
 9631SOL     OW29791   4.181   1.184   0.759
 9631SOL    HW129792   4.115   1.168   0.832
 9631SOL    HW229793   4.164   1.121   0.684
 9632SOL     OW29794   3.584   6.318   1.331
 9632SOL    HW129795   3.665   6.303   1.274
 9632SOL    HW229796   3.583   6.250   1.405
 9633SOL     OW29797   3.367   2.853   2.703
 9633SOL    HW129798   3.456   2.867   2.659
 9633SOL    HW229799   3.307   2.804   2.640
 9634SOL     OW29800   5.282   4.460   2.300
 9634SOL    HW129801   5.252   4.412   2.382
 9634SOL    HW229802   5.378   4.487   2.310
 9635SOL     OW29803   0.876   3.662   3.273
 9635SOL    HW129804   0.867   3.761   3.261
 9635SOL    HW229805   0.787   3.624   3.298
 9636SOL     OW29806   4.675   2.415   4.401
 9636SOL    HW129807   4.768   2.379   4.413
 9636SOL    HW229808   4.675   2.514   4.415
 9637SOL     OW29809   2.721   3.142   0.809
 9637SOL    HW129810   2.672   3.063   0.773
 9637SOL    HW229811   2.710   3.146   0.908
 9638SOL     OW29812   0.088   4.480   5.657
 9638SOL    HW129813   0.118   4.384   5.656
 9638SOL    HW229814   0.160   4.538   5.618
 9639SOL     OW29815   4.376   1.656   2.513
 9639SOL    HW129816   4.338   1.690   2.599
 9639SOL    HW229817   4.363   1.725   2.441
 9640SOL     OW29818   3.571   0.160   2.412
 9640SOL    HW129819   3.616   0.242   2.378
 9640SOL    HW229820   3.589   0.084   2.350
 9641SOL     OW29821   6.154   4.178   2.377
 9641SOL    HW129822   6.220   4.220   2.440
 9641SOL    HW229823   6.108   4.249   2.324
 9642SOL     OW29824   2.156   0.695   3.453
 9642SOL    HW129825   2.185   0.728   3.363
 9642SOL    HW229826   2.216   0.620   3.481
 9643SOL     OW29827   5.476   4.680   4.293
 9643SOL    HW129828   5.436   4.652   4.206
 9643SOL    HW229829   5.444   4.619   4.365
 9644SOL     OW29830   1.437   5.434   5.000
 9644SOL    HW129831   1.439   5.425   4.901
 9644SOL    HW229832   1.342   5.439   5.031
 9645SOL     OW29833   0.865   5.363   6.882
 9645SOL    HW129834   0.850   5.462   6.893
 9645SOL    HW229835   0.934   5.347   6.812
 9646SOL     OW29836   3.411   6.081   5.672
 9646SOL    HW129837   3.312   6.074   5.655
 9646SOL    HW229838   3.432   6.171   5.708
 9647SOL     OW29839   6.016   6.765   3.444
 9647SOL    HW129840   6.105   6.757   3.399
 9647SOL    HW229841   5.979   6.674   3.462
 9648SOL     OW29842   4.646   2.438   1.040
 9648SOL    HW129843   4.677   2.527   1.007
 9648SOL    HW229844   4.551   2.445   1.071
 9649SOL     OW29845   2.618   3.938   0.460
 9649SOL    HW129846   2.535   3.986   0.430
 9649SOL    HW229847   2.697   3.977   0.413
 9650SOL     OW29848   6.994   4.622   4.501
 9650SOL    HW129849   6.943   4.678   4.436
 9650SOL    HW229850   6.931   4.587   4.571
 9651SOL     OW29851   3.064   1.416   0.577
 9651SOL    HW129852   3.111   1.408   0.665
 9651SOL    HW229853   2.997   1.343   0.568
 9652SOL     OW29854   6.592   4.257   0.457
 9652SOL    HW129855   6.520   4.326   0.447
 9652SOL    HW229856   6.655   4.263   0.380
 9653SOL     OW29857   4.503   3.930   5.969
 9653SOL    HW129858   4.487   3.838   5.933
 9653SOL    HW229859   4.524   3.925   6.066
 9654SOL     OW29860   3.240   3.354   4.097
 9654SOL    HW129861   3.262   3.373   4.193
 9654SOL    HW229862   3.222   3.440   4.049
 9655SOL     OW29863   5.159   1.209   1.911
 9655SOL    HW129864   5.209   1.142   1.856
 9655SOL    HW229865   5.089   1.252   1.854
 9656SOL     OW29866   5.567   4.228   1.378
 9656SOL    HW129867   5.634   4.212   1.305
 9656SOL    HW229868   5.481   4.259   1.338
 9657SOL     OW29869   5.965   3.393   3.354
 9657SOL    HW129870   5.973   3.489   3.327
 9657SOL    HW229871   6.041   3.369   3.414
 9658SOL     OW29872   4.854   1.793   2.149
 9658SOL    HW129873   4.900   1.787   2.061
 9658SOL    HW229874   4.818   1.703   2.174
 9659SOL     OW29875   3.179   3.031   0.625
 9659SOL    HW129876   3.125   3.052   0.706
 9659SOL    HW229877   3.194   2.933   0.619
 9660SOL     OW29878   0.388   5.797   1.167
 9660SOL    HW129879   0.439   5.751   1.239
 9660SOL    HW229880   0.316   5.853   1.208
 9661SOL     OW29881   4.805   4.981   0.747
 9661SOL    HW129882   4.719   4.987   0.797
 9661SOL    HW229883   4.841   5.073   0.730
 9662SOL     OW29884   4.977   4.282   6.650
 9662SOL    HW129885   5.009   4.252   6.740
 9662SOL    HW229886   5.043   4.346   6.612
 9663SOL     OW29887   0.948   4.630   3.549
 9663SOL    HW129888   0.930   4.619   3.452
 9663SOL    HW229889   0.947   4.541   3.595
 9664SOL     OW29890   5.702   4.184   3.157
 9664SOL    HW129891   5.764   4.106   3.158
 9664SOL    HW229892   5.611   4.155   3.187
 9665SOL     OW29893   5.555   6.261   6.644
 9665SOL    HW129894   5.520   6.302   6.728
 9665SOL    HW229895   5.651   6.287   6.632
 9666SOL     OW29896   5.883   3.825   0.824
 9666SOL    HW129897   5.839   3.874   0.749
 9666SOL    HW229898   5.814   3.772   0.874
 9667SOL     OW29899   5.178   5.343   0.332
 9667SOL    HW129900   5.258   5.343   0.392
 9667SOL    HW229901   5.117   5.418   0.358
 9668SOL     OW29902   1.037   6.660   5.842
 9668SOL    HW129903   1.097   6.580   5.832
 9668SOL    HW229904   1.067   6.715   5.920
 9669SOL     OW29905   3.578   0.050   0.194
 9669SOL    HW129906   3.644   7.017   0.247
 9669SOL    HW229907   3.623   0.127   0.150
 9670SOL     OW29908   0.427   0.309   6.018
 9670SOL    HW129909   0.470   0.254   5.947
 9670SOL    HW229910   0.379   0.250   6.082
 9671SOL     OW29911   1.314   5.011   6.588
 9671SOL    HW129912   1.255   5.029   6.509
 9671SOL    HW229913   1.259   5.008   6.671
 9672SOL     OW29914   0.460   3.968   4.248
 9672SOL    HW129915   0.471   4.059   4.207
 9672SOL    HW229916   0.371   3.963   4.293
 9673SOL     OW29917   2.458   3.829   1.353
 9673SOL    HW129918   2.501   3.739   1.354
 9673SOL    HW229919   2.501   3.887   1.421
 9674SOL     OW29920   3.550   6.177   3.591
 9674SOL    HW129921   3.543   6.266   3.546
 9674SOL    HW229922   3.490   6.112   3.543
 9675SOL     OW29923   4.725   3.749   1.745
 9675SOL    HW129924   4.797   3.736   1.814
 9675SOL    HW229925   4.735   3.839   1.703
 9676SOL     OW29926   1.324   3.223   5.617
 9676SOL    HW129927   1.377   3.286   5.561
 9676SOL    HW229928   1.318   3.258   5.710
 9677SOL     OW29929   6.203   4.873   0.376
 9677SOL    HW129930   6.148   4.881   0.293
 9677SOL    HW229931   6.274   4.804   0.363
 9678SOL     OW29932   3.443   3.882   5.090
 9678SOL    HW129933   3.378   3.874   5.166
 9678SOL    HW229934   3.521   3.939   5.118
 9679SOL     OW29935   1.867   1.517   5.211
 9679SOL    HW129936   1.803   1.592   5.194
 9679SOL    HW229937   1.953   1.536   5.165
 9680SOL     OW29938   4.317   6.089   2.877
 9680SOL    HW129939   4.292   6.180   2.907
 9680SOL    HW229940   4.401   6.093   2.823
 9681SOL     OW29941   2.027   1.418   2.234
 9681SOL    HW129942   2.037   1.324   2.266
 9681SOL    HW229943   1.948   1.424   2.172
 9682SOL     OW29944   5.454   5.950   4.761
 9682SOL    HW129945   5.443   6.004   4.845
 9682SOL    HW229946   5.467   5.854   4.786
 9683SOL     OW29947   2.660   0.124   1.195
 9683SOL    HW129948   2.602   0.100   1.118
 9683SOL    HW229949   2.670   0.045   1.256
 9684SOL     OW29950   1.103   4.423   5.721
 9684SOL    HW129951   1.073   4.511   5.685
 9684SOL    HW229952   1.171   4.383   5.660
 9685SOL     OW29953   3.512   4.675   1.346
 9685SOL    HW129954   3.457   4.596   1.320
 9685SOL    HW229955   3.606   4.661   1.318
 9686SOL     OW29956   6.347   1.961   5.671
 9686SOL    HW129957   6.277   2.019   5.713
 9686SOL    HW229958   6.304   1.875   5.640
 9687SOL     OW29959   6.304   0.372   2.343
 9687SOL    HW129960   6.383   0.369   2.283
 9687SOL    HW229961   6.295   0.464   2.382
 9688SOL     OW29962   1.241   4.867   1.480
 9688SOL    HW129963   1.241   4.935   1.554
 9688SOL    HW229964   1.147   4.839   1.461
 9689SOL     OW29965   0.976   6.233   0.412
 9689SOL    HW129966   1.047   6.163   0.414
 9689SOL    HW229967   1.020   6.324   0.410
 9690SOL     OW29968   5.807   5.823   5.369
 9690SOL    HW129969   5.710   5.843   5.386
 9690SOL    HW229970   5.863   5.871   5.436
 9691SOL     OW29971   3.434   3.363   2.230
 9691SOL    HW129972   3.380   3.327   2.154
 9691SOL    HW229973   3.467   3.454   2.206
 9692SOL     OW29974   4.478   4.937   0.323
 9692SOL    HW129975   4.539   4.936   0.403
 9692SOL    HW229976   4.483   4.848   0.276
 9693SOL     OW29977   5.375   4.186   4.057
 9693SOL    HW129978   5.313   4.109   4.073
 9693SOL    HW229979   5.345   4.237   3.977
 9694SOL     OW29980   3.395   6.517   1.864
 9694SOL    HW129981   3.393   6.614   1.838
 9694SOL    HW229982   3.480   6.497   1.913
 9695SOL     OW29983   0.407   2.752   3.857
 9695SOL    HW129984   0.458   2.667   3.868
 9695SOL    HW229985   0.458   2.828   3.898
 9696SOL     OW29986   6.029   2.084   2.746
 9696SOL    HW129987   5.976   2.138   2.682
 9696SOL    HW229988   6.096   2.142   2.793
 9697SOL     OW29989   6.802   6.094   0.270
 9697SOL    HW129990   6.721   6.080   0.214
 9697SOL    HW229991   6.876   6.036   0.237
 9698SOL     OW29992   5.079   3.648   0.273
 9698SOL    HW129993   5.156   3.669   0.213
 9698SOL    HW229994   5.000   3.621   0.218
 9699SOL     OW29995   1.127   5.270   0.723
 9699SOL    HW129996   1.206   5.319   0.758
 9699SOL    HW229997   1.104   5.195   0.785
 9700SOL     OW29998   5.750   6.694   4.146
 9700SOL    HW129999   5.680   6.665   4.212
 9700SOL    HW230000   5.839   6.657   4.173
 9701SOL     OW30001   5.212   3.275   6.678
 9701SOL    HW130002   5.152   3.307   6.753
 9701SOL    HW230003   5.307   3.293   6.702
 9702SOL     OW30004   3.338   2.995   1.030
 9702SOL    HW130005   3.378   2.925   1.089
 9702SOL    HW230006   3.344   3.084   1.075
 9703SOL     OW30007   5.968   3.861   4.985
 9703SOL    HW130008   5.902   3.880   5.057
 9703SOL    HW230009   5.952   3.769   4.949
 9704SOL     OW30010   2.922   4.784   3.090
 9704SOL    HW130011   2.840   4.729   3.109
 9704SOL    HW230012   2.933   4.793   2.991
 9705SOL     OW30013   6.013   4.201   5.292
 9705SOL    HW130014   5.976   4.108   5.285
 9705SOL    HW230015   6.074   4.206   5.370
 9706SOL     OW30016   1.013   1.424   2.501
 9706SOL    HW130017   0.965   1.394   2.583
 9706SOL    HW230018   0.946   1.446   2.430
 9707SOL     OW30019   6.111   4.654   2.184
 9707SOL    HW130020   6.084   4.652   2.280
 9707SOL    HW230021   6.171   4.576   2.164
 9708SOL     OW30022   1.618   0.648   2.570
 9708SOL    HW130023   1.664   0.579   2.626
 9708SOL    HW230024   1.554   0.604   2.508
 9709SOL     OW30025   5.659   2.720   2.373
 9709SOL    HW130026   5.691   2.701   2.281
 9709SOL    HW230027   5.580   2.781   2.370
 9710SOL     OW30028   6.035   6.025   5.019
 9710SOL    HW130029   6.114   6.082   4.998
 9710SOL    HW230030   5.984   6.065   5.096
 9711SOL     OW30031   3.944   6.409   6.550
 9711SOL    HW130032   3.904   6.319   6.534
 9711SOL    HW230033   3.986   6.443   6.466
 9712SOL     OW30034   6.272   2.536   0.623
 9712SOL    HW130035   6.208   2.602   0.662
 9712SOL    HW230036   6.293   2.465   0.690
 9713SOL     OW30037   1.796   6.242   3.612
 9713SOL    HW130038   1.804   6.240   3.711
 9713SOL    HW230039   1.699   6.241   3.587
 9714SOL     OW30040   3.506   4.899   4.514
 9714SOL    HW130041   3.434   4.891   4.445
 9714SOL    HW230042   3.484   4.974   4.577
 9715SOL     OW30043   6.017   4.482   0.934
 9715SOL    HW130044   6.084   4.488   0.860
 9715SOL    HW230045   5.929   4.452   0.898
 9716SOL     OW30046   3.258   4.938   6.572
 9716SOL    HW130047   3.203   5.022   6.566
 9716SOL    HW230048   3.228   4.885   6.652
 9717SOL     OW30049   3.916   0.715   6.020
 9717SOL    HW130050   3.932   0.801   5.973
 9717SOL    HW230051   3.828   0.677   5.993
 9718SOL     OW30052   3.302   2.061   0.031
 9718SOL    HW130053   3.362   2.090   6.974
 9718SOL    HW230054   3.323   1.966   0.054
 9719SOL     OW30055   4.651   6.012   5.291
 9719SOL    HW130056   4.619   6.039   5.382
 9719SOL    HW230057   4.572   5.984   5.236
 9720SOL     OW30058   1.518   4.369   3.027
 9720SOL    HW130059   1.534   4.453   2.974
 9720SOL    HW230060   1.558   4.291   2.980
 9721SOL     OW30061   0.958   1.997   0.165
 9721SOL    HW130062   1.042   1.946   0.146
 9721SOL    HW230063   0.936   1.988   0.263
 9722SOL     OW30064   3.685   2.962   5.345
 9722SOL    HW130065   3.737   2.947   5.430
 9722SOL    HW230066   3.617   2.890   5.335
 9723SOL     OW30067   6.398   4.884   4.788
 9723SOL    HW130068   6.312   4.854   4.830
 9723SOL    HW230069   6.457   4.923   4.858
 9724SOL     OW30070   1.157   5.275   0.038
 9724SOL    HW130071   1.196   5.339   0.104
 9724SOL    HW230072   1.068   5.243   0.071
 9725SOL     OW30073   3.467   5.311   4.837
 9725SOL    HW130074   3.558   5.288   4.802
 9725SOL    HW230075   3.476   5.348   4.930
 9726SOL     OW30076   6.471   0.952   4.209
 9726SOL    HW130077   6.382   0.952   4.164
 9726SOL    HW230078   6.526   1.027   4.173
 9727SOL     OW30079   0.417   1.616   6.664
 9727SOL    HW130080   0.440   1.520   6.652
 9727SOL    HW230081   0.459   1.670   6.592
 9728SOL     OW30082   5.051   0.625   6.165
 9728SOL    HW130083   5.054   0.527   6.185
 9728SOL    HW230084   5.129   0.650   6.107
 9729SOL     OW30085   0.595   4.521   3.336
 9729SOL    HW130086   0.647   4.583   3.395
 9729SOL    HW230087   0.587   4.561   3.244
 9730SOL     OW30088   0.636   4.187   3.120
 9730SOL    HW130089   0.612   4.263   3.060
 9730SOL    HW230090   0.721   4.208   3.168
 9731SOL     OW30091   4.725   4.128   2.702
 9731SOL    HW130092   4.769   4.066   2.637
 9731SOL    HW230093   4.675   4.074   2.770
 9732SOL     OW30094   1.776   2.805   2.274
 9732SOL    HW130095   1.703   2.867   2.244
 9732SOL    HW230096   1.785   2.730   2.209
 9733SOL     OW30097   6.307   5.703   2.553
 9733SOL    HW130098   6.266   5.652   2.478
 9733SOL    HW230099   6.329   5.640   2.628
 9734SOL     OW30100   6.044   6.938   6.594
 9734SOL    HW130101   6.013   6.940   6.499
 9734SOL    HW230102   6.142   6.919   6.597
 9735SOL     OW30103   0.691   1.563   2.923
 9735SOL    HW130104   0.697   1.537   3.019
 9735SOL    HW230105   0.739   1.650   2.908
 9736SOL     OW30106   4.704   2.269   5.311
 9736SOL    HW130107   4.655   2.305   5.231
 9736SOL    HW230108   4.716   2.342   5.378
 9737SOL     OW30109   6.461   1.779   2.230
 9737SOL    HW130110   6.478   1.829   2.315
 9737SOL    HW230111   6.424   1.842   2.161
 9738SOL     OW30112   2.075   5.935   1.095
 9738SOL    HW130113   2.029   5.982   1.019
 9738SOL    HW230114   2.105   5.845   1.065
 9739SOL     OW30115   5.155   0.397   0.139
 9739SOL    HW130116   5.141   0.463   0.214
 9739SOL    HW230117   5.112   0.310   0.164
 9740SOL     OW30118   6.837   0.456   2.516
 9740SOL    HW130119   6.899   0.501   2.451
 9740SOL    HW230120   6.845   0.357   2.506
 9741SOL     OW30121   3.300   1.794   4.529
 9741SOL    HW130122   3.390   1.836   4.515
 9741SOL    HW230123   3.308   1.722   4.599
 9742SOL     OW30124   3.993   1.648   6.417
 9742SOL    HW130125   3.934   1.618   6.492
 9742SOL    HW230126   4.050   1.571   6.387
 9743SOL     OW30127   6.264   2.753   3.437
 9743SOL    HW130128   6.280   2.675   3.498
 9743SOL    HW230129   6.191   2.730   3.372
 9744SOL     OW30130   2.151   6.581   3.441
 9744SOL    HW130131   2.137   6.616   3.348
 9744SOL    HW230132   2.105   6.640   3.506
 9745SOL     OW30133   5.713   1.216   5.833
 9745SOL    HW130134   5.796   1.180   5.791
 9745SOL    HW230135   5.642   1.227   5.763
 9746SOL     OW30136   5.039   6.110   6.613
 9746SOL    HW130137   5.034   6.025   6.665
 9746SOL    HW230138   5.073   6.183   6.673
 9747SOL     OW30139   2.507   2.079   2.177
 9747SOL    HW130140   2.411   2.052   2.165
 9747SOL    HW230141   2.558   2.058   2.093
 9748SOL     OW30142   0.787   0.752   3.301
 9748SOL    HW130143   0.776   0.656   3.324
 9748SOL    HW230144   0.749   0.808   3.375
 9749SOL     OW30145   0.587   1.777   2.455
 9749SOL    HW130146   0.530   1.743   2.381
 9749SOL    HW230147   0.605   1.704   2.520
 9750SOL     OW30148   6.214   4.719   4.105
 9750SOL    HW130149   6.121   4.720   4.141
 9750SOL    HW230150   6.225   4.640   4.044
 9751SOL     OW30151   2.560   0.692   1.875
 9751SOL    HW130152   2.570   0.659   1.781
 9751SOL    HW230153   2.467   0.725   1.889
 9752SOL     OW30154   4.172   2.587   0.609
 9752SOL    HW130155   4.158   2.669   0.665
 9752SOL    HW230156   4.213   2.612   0.522
 9753SOL     OW30157   6.798   6.156   6.227
 9753SOL    HW130158   6.769   6.106   6.145
 9753SOL    HW230159   6.753   6.118   6.307
 9754SOL     OW30160   4.003   0.458   0.741
 9754SOL    HW130161   3.977   0.413   0.656
 9754SOL    HW230162   3.925   0.458   0.804
 9755SOL     OW30163   3.404   4.076   5.811
 9755SOL    HW130164   3.366   4.055   5.901
 9755SOL    HW230165   3.336   4.127   5.758
 9756SOL     OW30166   5.696   1.427   6.269
 9756SOL    HW130167   5.772   1.460   6.325
 9756SOL    HW230168   5.611   1.469   6.301
 9757SOL     OW30169   5.415   4.039   4.299
 9757SOL    HW130170   5.361   3.956   4.288
 9757SOL    HW230171   5.430   4.081   4.210
 9758SOL     OW30172   1.297   0.759   0.659
 9758SOL    HW130173   1.250   0.836   0.701
 9758SOL    HW230174   1.246   0.675   0.675
 9759SOL     OW30175   1.363   1.440   0.669
 9759SOL    HW130176   1.397   1.372   0.605
 9759SOL    HW230177   1.420   1.440   0.752
 9760SOL     OW30178   5.053   2.188   6.887
 9760SOL    HW130179   4.967   2.169   6.840
 9760SOL    HW230180   5.040   2.177   6.986
 9761SOL     OW30181   1.368   1.193   1.892
 9761SOL    HW130182   1.324   1.282   1.882
 9761SOL    HW230183   1.458   1.195   1.848
 9762SOL     OW30184   3.164   1.347   5.080
 9762SOL    HW130185   3.254   1.389   5.066
 9762SOL    HW230186   3.122   1.386   5.161
 9763SOL     OW30187   6.327   1.412   1.544
 9763SOL    HW130188   6.323   1.326   1.492
 9763SOL    HW230189   6.238   1.430   1.585
 9764SOL     OW30190   5.682   2.015   2.322
 9764SOL    HW130191   5.616   1.984   2.391
 9764SOL    HW230192   5.770   1.971   2.338
 9765SOL     OW30193   6.437   1.291   1.922
 9765SOL    HW130194   6.363   1.224   1.923
 9765SOL    HW230195   6.472   1.300   1.828
 9766SOL     OW30196   2.022   0.822   3.761
 9766SOL    HW130197   2.012   0.917   3.790
 9766SOL    HW230198   1.956   0.803   3.687
 9767SOL     OW30199   1.965   3.393   5.885
 9767SOL    HW130200   1.876   3.356   5.859
 9767SOL    HW230201   2.035   3.323   5.873
 9768SOL     OW30202   6.294   2.322   0.809
 9768SOL    HW130203   6.205   2.277   0.820
 9768SOL    HW230204   6.354   2.265   0.753
 9769SOL     OW30205   3.100   1.650   4.989
 9769SOL    HW130206   3.102   1.637   4.890
 9769SOL    HW230207   3.009   1.628   5.024
 9770SOL     OW30208   3.794   2.736   6.289
 9770SOL    HW130209   3.764   2.679   6.213
 9770SOL    HW230210   3.855   2.807   6.256
 9771SOL     OW30211   2.782   6.283   2.415
 9771SOL    HW130212   2.835   6.209   2.456
 9771SOL    HW230213   2.685   6.270   2.434
 9772SOL     OW30214   1.630   6.199   2.144
 9772SOL    HW130215   1.557   6.142   2.107
 9772SOL    HW230216   1.593   6.289   2.168
 9773SOL     OW30217   5.473   5.502   2.438
 9773SOL    HW130218   5.411   5.566   2.393
 9773SOL    HW230219   5.463   5.511   2.537
 9774SOL     OW30220   0.491   5.358   3.883
 9774SOL    HW130221   0.559   5.385   3.952
 9774SOL    HW230222   0.518   5.394   3.794
 9775SOL     OW30223   2.454   0.603   3.600
 9775SOL    HW130224   2.529   0.589   3.664
 9775SOL    HW230225   2.375   0.641   3.649
 9776SOL     OW30226   1.701   5.213   6.098
 9776SOL    HW130227   1.740   5.273   6.168
 9776SOL    HW230228   1.667   5.130   6.141
 9777SOL     OW30229   5.455   6.567   6.220
 9777SOL    HW130230   5.385   6.591   6.287
 9777SOL    HW230231   5.513   6.647   6.202
 9778SOL     OW30232   0.378   1.826   4.738
 9778SOL    HW130233   0.429   1.834   4.652
 9778SOL    HW230234   0.303   1.891   4.739
 9779SOL     OW30235   0.873   1.656   3.585
 9779SOL    HW130236   0.964   1.681   3.617
 9779SOL    HW230237   0.854   1.703   3.498
 9780SOL     OW30238   1.649   1.664   1.222
 9780SOL    HW130239   1.656   1.572   1.186
 9780SOL    HW230240   1.738   1.692   1.259
 9781SOL     OW30241   1.233   3.449   3.610
 9781SOL    HW130242   1.313   3.509   3.616
 9781SOL    HW230243   1.214   3.408   3.699
 9782SOL     OW30244   0.594   2.337   0.422
 9782SOL    HW130245   0.658   2.264   0.447
 9782SOL    HW230246   0.516   2.334   0.484
 9783SOL     OW30247   3.836   1.835   3.080
 9783SOL    HW130248   3.791   1.919   3.052
 9783SOL    HW230249   3.779   1.756   3.056
 9784SOL     OW30250   2.927   1.373   0.085
 9784SOL    HW130251   3.017   1.408   0.113
 9784SOL    HW230252   2.877   1.445   0.036
 9785SOL     OW30253   6.740   2.520   4.966
 9785SOL    HW130254   6.750   2.451   5.037
 9785SOL    HW230255   6.784   2.605   4.995
 9786SOL     OW30256   2.386   4.523   0.555
 9786SOL    HW130257   2.407   4.445   0.614
 9786SOL    HW230258   2.421   4.607   0.597
 9787SOL     OW30259   3.650   3.450   3.653
 9787SOL    HW130260   3.605   3.472   3.739
 9787SOL    HW230261   3.607   3.370   3.611
 9788SOL     OW30262   0.497   5.935   1.908
 9788SOL    HW130263   0.596   5.945   1.900
 9788SOL    HW230264   0.470   5.843   1.879
 9789SOL     OW30265   2.964   6.990   6.546
 9789SOL    HW130266   2.934   6.938   6.466
 9789SOL    HW230267   2.999   6.927   6.616
 9790SOL     OW30268   0.056   3.686   4.694
 9790SOL    HW130269   6.976   3.689   4.683
 9790SOL    HW230270   0.083   3.742   4.773
 9791SOL     OW30271   0.553   6.581   0.288
 9791SOL    HW130272   0.530   6.623   0.375
 9791SOL    HW230273   0.642   6.613   0.257
 9792SOL     OW30274   3.736   5.471   0.901
 9792SOL    HW130275   3.835   5.462   0.884
 9792SOL    HW230276   3.712   5.567   0.908
 9793SOL     OW30277   4.514   1.246   1.755
 9793SOL    HW130278   4.450   1.306   1.802
 9793SOL    HW230279   4.534   1.167   1.813
 9794SOL     OW30280   4.966   4.703   4.489
 9794SOL    HW130281   5.019   4.635   4.439
 9794SOL    HW230282   5.028   4.760   4.543
 9795SOL     OW30283   0.858   2.832   3.484
 9795SOL    HW130284   0.951   2.810   3.516
 9795SOL    HW230285   0.825   2.759   3.425
 9796SOL     OW30286   3.621   4.129   3.702
 9796SOL    HW130287   3.604   4.172   3.791
 9796SOL    HW230288   3.642   4.032   3.715
 9797SOL     OW30289   2.865   6.345   6.519
 9797SOL    HW130290   2.801   6.295   6.461
 9797SOL    HW230291   2.924   6.402   6.462
 9798SOL     OW30292   1.400   2.772   1.052
 9798SOL    HW130293   1.421   2.856   1.002
 9798SOL    HW230294   1.440   2.694   1.005
 9799SOL     OW30295   2.649   5.546   5.898
 9799SOL    HW130296   2.640   5.642   5.873
 9799SOL    HW230297   2.745   5.519   5.894
 9800SOL     OW30298   5.375   3.110   3.839
 9800SOL    HW130299   5.415   3.181   3.897
 9800SOL    HW230300   5.436   3.090   3.763
 9801SOL     OW30301   5.634   4.816   6.559
 9801SOL    HW130302   5.595   4.886   6.619
 9801SOL    HW230303   5.729   4.799   6.585
 9802SOL     OW30304   3.977   5.315   0.909
 9802SOL    HW130305   3.918   5.256   0.853
 9802SOL    HW230306   4.033   5.258   0.969
 9803SOL     OW30307   1.660   3.524   6.740
 9803SOL    HW130308   1.710   3.563   6.817
 9803SOL    HW230309   1.567   3.560   6.738
 9804SOL     OW30310   6.553   5.656   3.150
 9804SOL    HW130311   6.632   5.704   3.187
 9804SOL    HW230312   6.491   5.723   3.108
 9805SOL     OW30313   0.419   6.459   3.850
 9805SOL    HW130314   0.435   6.369   3.892
 9805SOL    HW230315   0.498   6.518   3.867
 9806SOL     OW30316   4.123   2.257   5.778
 9806SOL    HW130317   4.115   2.306   5.691
 9806SOL    HW230318   4.038   2.209   5.797
 9807SOL     OW30319   3.444   2.812   2.329
 9807SOL    HW130320   3.373   2.881   2.341
 9807SOL    HW230321   3.462   2.799   2.231
 9808SOL     OW30322   4.472   6.199   4.074
 9808SOL    HW130323   4.399   6.208   4.141
 9808SOL    HW230324   4.457   6.118   4.018
 9809SOL     OW30325   0.623   3.134   0.713
 9809SOL    HW130326   0.666   3.081   0.787
 9809SOL    HW230327   0.620   3.231   0.738
 9810SOL     OW30328   2.330   1.784   5.723
 9810SOL    HW130329   2.368   1.780   5.631
 9810SOL    HW230330   2.310   1.879   5.746
 9811SOL     OW30331   6.684   3.739   4.134
 9811SOL    HW130332   6.711   3.652   4.176
 9811SOL    HW230333   6.733   3.814   4.180
 9812SOL     OW30334   2.450   6.840   4.702
 9812SOL    HW130335   2.372   6.855   4.641
 9812SOL    HW230336   2.515   6.915   4.692
 9813SOL     OW30337   5.297   2.505   0.696
 9813SOL    HW130338   5.281   2.406   0.701
 9813SOL    HW230339   5.219   2.553   0.735
 9814SOL     OW30340   5.701   1.968   0.060
 9814SOL    HW130341   5.642   2.041   0.025
 9814SOL    HW230342   5.649   1.909   0.120
 9815SOL     OW30343   4.678   2.692   4.460
 9815SOL    HW130344   4.579   2.677   4.461
 9815SOL    HW230345   4.697   2.787   4.434
 9816SOL     OW30346   1.193   0.182   0.215
 9816SOL    HW130347   1.174   0.280   0.213
 9816SOL    HW230348   1.108   0.131   0.229
 9817SOL     OW30349   0.330   0.015   3.289
 9817SOL    HW130350   0.347   0.109   3.319
 9817SOL    HW230351   0.274   0.016   3.207
 9818SOL     OW30352   6.062   1.842   5.119
 9818SOL    HW130353   6.052   1.785   5.038
 9818SOL    HW230354   6.108   1.927   5.093
 9819SOL     OW30355   4.138   1.933   3.434
 9819SOL    HW130356   4.232   1.964   3.446
 9819SOL    HW230357   4.136   1.855   3.371
 9820SOL     OW30358   3.130   4.134   6.006
 9820SOL    HW130359   3.209   4.088   6.048
 9820SOL    HW230360   3.123   4.227   6.042
 9821SOL     OW30361   5.451   6.400   6.842
 9821SOL    HW130362   5.421   6.364   6.930
 9821SOL    HW230363   5.495   6.489   6.856
 9822SOL     OW30364   0.531   6.729   2.965
 9822SOL    HW130365   0.573   6.664   2.902
 9822SOL    HW230366   0.581   6.815   2.962
 9823SOL     OW30367   3.241   0.606   1.995
 9823SOL    HW130368   3.331   0.646   1.977
 9823SOL    HW230369   3.173   0.651   1.938
 9824SOL     OW30370   0.757   4.132   5.452
 9824SOL    HW130371   0.670   4.154   5.495
 9824SOL    HW230372   0.747   4.049   5.397
 9825SOL     OW30373   3.655   5.515   5.494
 9825SOL    HW130374   3.683   5.597   5.445
 9825SOL    HW230375   3.566   5.531   5.537
 9826SOL     OW30376   4.907   5.795   6.295
 9826SOL    HW130377   4.867   5.704   6.283
 9826SOL    HW230378   4.871   5.857   6.226
 9827SOL     OW30379   1.497   4.389   4.716
 9827SOL    HW130380   1.421   4.406   4.779
 9827SOL    HW230381   1.501   4.292   4.694
 9828SOL     OW30382   3.239   2.794   6.728
 9828SOL    HW130383   3.197   2.760   6.811
 9828SOL    HW230384   3.293   2.876   6.748
 9829SOL     OW30385   3.329   6.386   0.233
 9829SOL    HW130386   3.378   6.309   0.274
 9829SOL    HW230387   3.251   6.409   0.291
 9830SOL     OW30388   6.212   1.980   0.943
 9830SOL    HW130389   6.251   2.008   0.855
 9830SOL    HW230390   6.257   1.896   0.973
 9831SOL     OW30391   1.020   5.945   1.123
 9831SOL    HW130392   1.104   5.932   1.177
 9831SOL    HW230393   1.023   5.888   1.042
 9832SOL     OW30394   4.479   4.777   2.534
 9832SOL    HW130395   4.504   4.865   2.572
 9832SOL    HW230396   4.540   4.754   2.458
 9833SOL     OW30397   3.247   3.296   5.121
 9833SOL    HW130398   3.338   3.254   5.115
 9833SOL    HW230399   3.194   3.251   5.192
 9834SOL     OW30400   2.907   3.534   6.031
 9834SOL    HW130401   2.995   3.572   6.004
 9834SOL    HW230402   2.862   3.495   5.951
 9835SOL     OW30403   4.946   1.594   4.076
 9835SOL    HW130404   4.904   1.659   4.013
 9835SOL    HW230405   4.951   1.633   4.167
 9836SOL     OW30406   6.044   3.663   3.309
 9836SOL    HW130407   5.968   3.699   3.362
 9836SOL    HW230408   6.128   3.710   3.336
 9837SOL     OW30409   1.866   6.924   3.587
 9837SOL    HW130410   1.889   6.993   3.656
 9837SOL    HW230411   1.917   6.944   3.503
 9838SOL     OW30412   0.369   6.585   5.611
 9838SOL    HW130413   0.401   6.532   5.534
 9838SOL    HW230414   0.272   6.565   5.628
 9839SOL     OW30415   6.539   1.352   2.634
 9839SOL    HW130416   6.621   1.321   2.681
 9839SOL    HW230417   6.546   1.450   2.617
 9840SOL     OW30418   0.226   0.462   0.525
 9840SOL    HW130419   0.255   0.402   0.450
 9840SOL    HW230420   0.284   0.543   0.528
 9841SOL     OW30421   1.294   4.493   4.156
 9841SOL    HW130422   1.249   4.576   4.187
 9841SOL    HW230423   1.333   4.444   4.234
 9842SOL     OW30424   3.419   3.081   3.778
 9842SOL    HW130425   3.453   3.130   3.859
 9842SOL    HW230426   3.461   3.119   3.696
 9843SOL     OW30427   6.829   2.013   1.140
 9843SOL    HW130428   6.888   2.092   1.121
 9843SOL    HW230429   6.734   2.037   1.121
 9844SOL     OW30430   4.689   6.665   2.867
 9844SOL    HW130431   4.632   6.700   2.940
 9844SOL    HW230432   4.733   6.579   2.897
 9845SOL     OW30433   2.069   1.593   5.054
 9845SOL    HW130434   2.143   1.648   5.016
 9845SOL    HW230435   1.987   1.604   4.997
 9846SOL     OW30436   3.189   3.815   3.312
 9846SOL    HW130437   3.237   3.733   3.343
 9846SOL    HW230438   3.217   3.893   3.368
 9847SOL     OW30439   2.569   2.867   5.711
 9847SOL    HW130440   2.558   2.860   5.810
 9847SOL    HW230441   2.540   2.958   5.680
 9848SOL     OW30442   4.041   2.609   6.627
 9848SOL    HW130443   4.044   2.513   6.655
 9848SOL    HW230444   4.125   2.632   6.577
 9849SOL     OW30445   5.589   0.577   6.627
 9849SOL    HW130446   5.681   0.612   6.610
 9849SOL    HW230447   5.584   0.537   6.718
 9850SOL     OW30448   4.831   5.721   2.435
 9850SOL    HW130449   4.754   5.736   2.373
 9850SOL    HW230450   4.844   5.802   2.492
 9851SOL     OW30451   4.248   1.752   5.234
 9851SOL    HW130452   4.298   1.760   5.320
 9851SOL    HW230453   4.281   1.672   5.183
 9852SOL     OW30454   4.116   1.774   3.196
 9852SOL    HW130455   4.148   1.681   3.182
 9852SOL    HW230456   4.033   1.789   3.143
 9853SOL     OW30457   4.649   4.391   3.061
 9853SOL    HW130458   4.621   4.382   2.965
 9853SOL    HW230459   4.723   4.327   3.081
 9854SOL     OW30460   6.231   5.160   5.268
 9854SOL    HW130461   6.215   5.062   5.274
 9854SOL    HW230462   6.329   5.178   5.274
 9855SOL     OW30463   1.049   4.093   1.539
 9855SOL    HW130464   1.055   3.998   1.510
 9855SOL    HW230465   0.980   4.102   1.610
 9856SOL     OW30466   4.222   3.877   6.968
 9856SOL    HW130467   4.290   3.927   6.915
 9856SOL    HW230468   4.266   3.836   0.030
 9857SOL     OW30469   5.464   2.020   3.079
 9857SOL    HW130470   5.385   2.016   3.018
 9857SOL    HW230471   5.513   2.106   3.064
 9858SOL     OW30472   5.580   0.516   1.202
 9858SOL    HW130473   5.636   0.509   1.284
 9858SOL    HW230474   5.634   0.558   1.129
 9859SOL     OW30475   6.381   0.063   1.081
 9859SOL    HW130476   6.479   0.070   1.102
 9859SOL    HW230477   6.336   0.010   1.153
 9860SOL     OW30478   0.613   0.818   1.502
 9860SOL    HW130479   0.679   0.825   1.577
 9860SOL    HW230480   0.552   0.898   1.504
 9861SOL     OW30481   3.679   6.717   4.392
 9861SOL    HW130482   3.601   6.666   4.357
 9861SOL    HW230483   3.705   6.788   4.326
 9862SOL     OW30484   2.827   3.567   0.897
 9862SOL    HW130485   2.860   3.630   0.967
 9862SOL    HW230486   2.744   3.604   0.855
 9863SOL     OW30487   3.398   6.887   3.034
 9863SOL    HW130488   3.412   6.837   2.948
 9863SOL    HW230489   3.364   6.979   3.014
 9864SOL     OW30490   4.092   5.929   3.772
 9864SOL    HW130491   3.997   5.953   3.751
 9864SOL    HW230492   4.154   5.986   3.717
 9865SOL     OW30493   0.858   0.947   4.092
 9865SOL    HW130494   0.937   0.886   4.097
 9865SOL    HW230495   0.810   0.933   4.006
 9866SOL     OW30496   5.079   4.278   4.703
 9866SOL    HW130497   5.076   4.186   4.742
 9866SOL    HW230498   5.137   4.278   4.622
 9867SOL     OW30499   4.514   0.708   1.249
 9867SOL    HW130500   4.452   0.766   1.302
 9867SOL    HW230501   4.609   0.728   1.275
 9868SOL     OW30502   1.625   4.581   5.932
 9868SOL    HW130503   1.664   4.564   5.842
 9868SOL    HW230504   1.528   4.556   5.931
 9869SOL     OW30505   2.091   3.603   2.642
 9869SOL    HW130506   1.991   3.608   2.645
 9869SOL    HW230507   2.122   3.523   2.694
 9870SOL     OW30508   3.891   5.977   2.321
 9870SOL    HW130509   3.984   5.963   2.287
 9870SOL    HW230510   3.853   5.890   2.352
 9871SOL     OW30511   0.897   6.795   6.484
 9871SOL    HW130512   0.828   6.847   6.433
 9871SOL    HW230513   0.865   6.701   6.497
 9872SOL     OW30514   2.823   5.244   3.272
 9872SOL    HW130515   2.829   5.319   3.337
 9872SOL    HW230516   2.849   5.158   3.317
 9873SOL     OW30517   2.332   2.538   1.215
 9873SOL    HW130518   2.385   2.549   1.131
 9873SOL    HW230519   2.237   2.565   1.199
 9874SOL     OW30520   0.778   2.389   4.314
 9874SOL    HW130521   0.753   2.332   4.393
 9874SOL    HW230522   0.797   2.331   4.236
 9875SOL     OW30523   0.279   6.718   2.233
 9875SOL    HW130524   0.300   6.800   2.179
 9875SOL    HW230525   0.327   6.639   2.193
 9876SOL     OW30526   6.965   1.001   2.123
 9876SOL    HW130527   6.876   1.042   2.101
 9876SOL    HW230528   6.963   0.904   2.102
 9877SOL     OW30529   1.724   6.107   2.915
 9877SOL    HW130530   1.664   6.179   2.882
 9877SOL    HW230531   1.680   6.018   2.905
 9878SOL     OW30532   2.179   5.353   5.062
 9878SOL    HW130533   2.159   5.255   5.057
 9878SOL    HW230534   2.274   5.366   5.092
 9879SOL     OW30535   5.652   5.083   4.856
 9879SOL    HW130536   5.721   5.146   4.894
 9879SOL    HW230537   5.564   5.099   4.901
 9880SOL     OW30538   1.759   2.639   5.251
 9880SOL    HW130539   1.851   2.668   5.278
 9880SOL    HW230540   1.766   2.563   5.186
 9881SOL     OW30541   1.825   1.639   4.922
 9881SOL    HW130542   1.730   1.627   4.951
 9881SOL    HW230543   1.843   1.737   4.906
 9882SOL     OW30544   1.200   1.938   3.663
 9882SOL    HW130545   1.122   1.915   3.721
 9882SOL    HW230546   1.285   1.921   3.712
 9883SOL     OW30547   1.243   5.373   0.290
 9883SOL    HW130548   1.305   5.321   0.349
 9883SOL    HW230549   1.151   5.373   0.330
 9884SOL     OW30550   4.259   1.508   3.134
 9884SOL    HW130551   4.241   1.410   3.124
 9884SOL    HW230552   4.356   1.526   3.119
 9885SOL     OW30553   0.111   3.546   5.440
 9885SOL    HW130554   0.130   3.505   5.529
 9885SOL    HW230555   0.196   3.552   5.387
 9886SOL     OW30556   0.941   4.442   2.061
 9886SOL    HW130557   0.957   4.380   2.138
 9886SOL    HW230558   1.023   4.447   2.004
 9887SOL     OW30559   3.312   1.839   6.517
 9887SOL    HW130560   3.271   1.761   6.470
 9887SOL    HW230561   3.247   1.915   6.519
 9888SOL     OW30562   6.819   4.333   1.147
 9888SOL    HW130563   6.865   4.291   1.225
 9888SOL    HW230564   6.720   4.323   1.157
 9889SOL     OW30565   6.626   4.841   1.439
 9889SOL    HW130566   6.692   4.769   1.417
 9889SOL    HW230567   6.647   4.923   1.386
 9890SOL     OW30568   1.676   2.484   0.249
 9890SOL    HW130569   1.699   2.508   0.344
 9890SOL    HW230570   1.643   2.566   0.202
 9891SOL     OW30571   5.889   3.140   1.287
 9891SOL    HW130572   5.870   3.076   1.361
 9891SOL    HW230573   5.979   3.119   1.248
 9892SOL     OW30574   6.674   5.197   0.524
 9892SOL    HW130575   6.576   5.181   0.521
 9892SOL    HW230576   6.711   5.195   0.431
 9893SOL     OW30577   1.195   6.965   0.943
 9893SOL    HW130578   1.245   0.031   0.958
 9893SOL    HW230579   1.101   6.986   0.916
 9894SOL     OW30580   1.831   1.835   1.821
 9894SOL    HW130581   1.906   1.850   1.757
 9894SOL    HW230582   1.839   1.899   1.897
 9895SOL     OW30583   5.759   3.570   5.638
 9895SOL    HW130584   5.851   3.577   5.599
 9895SOL    HW230585   5.747   3.480   5.679
 9896SOL     OW30586   6.257   6.987   5.852
 9896SOL    HW130587   6.265   0.045   5.916
 9896SOL    HW230588   6.162   6.982   5.818
 9897SOL     OW30589   5.766   5.600   3.817
 9897SOL    HW130590   5.770   5.551   3.730
 9897SOL    HW230591   5.770   5.535   3.893
 9898SOL     OW30592   2.414   5.810   5.706
 9898SOL    HW130593   2.322   5.804   5.744
 9898SOL    HW230594   2.431   5.903   5.674
 9899SOL     OW30595   0.119   5.676   6.796
 9899SOL    HW130596   0.136   5.642   6.888
 9899SOL    HW230597   0.071   5.607   6.742
 9900SOL     OW30598   2.175   3.583   3.569
 9900SOL    HW130599   2.239   3.643   3.616
 9900SOL    HW230600   2.137   3.630   3.490
 9901SOL     OW30601   3.167   1.613   6.424
 9901SOL    HW130602   3.144   1.686   6.359
 9901SOL    HW230603   3.195   1.531   6.374
 9902SOL     OW30604   3.162   4.827   6.828
 9902SOL    HW130605   3.078   4.856   6.781
 9902SOL    HW230606   3.157   4.729   6.848
 9903SOL     OW30607   4.979   1.178   1.600
 9903SOL    HW130608   4.945   1.256   1.654
 9903SOL    HW230609   4.916   1.101   1.610
 9904SOL     OW30610   0.710   3.495   6.931
 9904SOL    HW130611   0.769   3.507   7.010
 9904SOL    HW230612   0.733   3.409   6.885
 9905SOL     OW30613   2.496   0.484   0.093
 9905SOL    HW130614   2.585   0.524   0.114
 9905SOL    HW230615   2.502   0.433   0.006
 9906SOL     OW30616   3.119   3.089   1.728
 9906SOL    HW130617   3.188   3.078   1.656
 9906SOL    HW230618   3.141   3.029   1.805
 9907SOL     OW30619   6.494   0.635   0.591
 9907SOL    HW130620   6.510   0.696   0.669
 9907SOL    HW230621   6.558   0.657   0.518
 9908SOL     OW30622   5.577   1.674   4.165
 9908SOL    HW130623   5.549   1.768   4.147
 9908SOL    HW230624   5.498   1.614   4.159
 9909SOL     OW30625   4.049   0.566   3.925
 9909SOL    HW130626   3.994   0.532   3.849
 9909SOL    HW230627   4.016   0.656   3.952
 9910SOL     OW30628   1.151   3.731   2.597
 9910SOL    HW130629   1.106   3.735   2.686
 9910SOL    HW230630   1.127   3.647   2.550
 9911SOL     OW30631   3.521   6.379   2.152
 9911SOL    HW130632   3.505   6.289   2.193
 9911SOL    HW230633   3.496   6.450   2.217
 9912SOL     OW30634   4.175   1.552   1.993
 9912SOL    HW130635   4.097   1.489   1.983
 9912SOL    HW230636   4.170   1.597   2.082
 9913SOL     OW30637   6.704   4.171   0.707
 9913SOL    HW130638   6.641   4.102   0.742
 9913SOL    HW230639   6.683   4.190   0.611
 9914SOL     OW30640   5.104   2.310   4.946
 9914SOL    HW130641   5.138   2.396   4.909
 9914SOL    HW230642   5.004   2.314   4.954
 9915SOL     OW30643   5.505   0.849   3.647
 9915SOL    HW130644   5.593   0.834   3.692
 9915SOL    HW230645   5.434   0.862   3.716
 9916SOL     OW30646   1.869   2.540   3.449
 9916SOL    HW130647   1.888   2.469   3.517
 9916SOL    HW230648   1.792   2.512   3.392
 9917SOL     OW30649   6.000   3.746   0.305
 9917SOL    HW130650   6.013   3.671   0.371
 9917SOL    HW230651   6.021   3.713   0.213
 9918SOL     OW30652   3.062   1.301   3.116
 9918SOL    HW130653   3.029   1.375   3.057
 9918SOL    HW230654   3.014   1.306   3.204
 9919SOL     OW30655   6.110   5.157   1.430
 9919SOL    HW130656   6.021   5.196   1.452
 9919SOL    HW230657   6.105   5.107   1.344
 9920SOL     OW30658   4.993   1.680   1.940
 9920SOL    HW130659   4.905   1.650   1.904
 9920SOL    HW230660   5.052   1.707   1.864
 9921SOL     OW30661   4.511   0.027   6.120
 9921SOL    HW130662   4.419   0.049   6.087
 9921SOL    HW230663   4.505   6.985   6.199
 9922SOL     OW30664   1.967   4.392   0.909
 9922SOL    HW130665   1.924   4.342   0.984
 9922SOL    HW230666   2.064   4.368   0.904
 9923SOL     OW30667   4.782   4.750   0.139
 9923SOL    HW130668   4.831   4.802   0.210
 9923SOL    HW230669   4.843   4.734   0.061
 9924SOL     OW30670   6.289   2.334   4.591
 9924SOL    HW130671   6.249   2.247   4.621
 9924SOL    HW230672   6.254   2.408   4.649
 9925SOL     OW30673   6.507   3.539   3.986
 9925SOL    HW130674   6.556   3.610   4.036
 9925SOL    HW230675   6.531   3.545   3.889
 9926SOL     OW30676   3.840   3.117   0.616
 9926SOL    HW130677   3.767   3.131   0.683
 9926SOL    HW230678   3.869   3.204   0.578
 9927SOL     OW30679   6.819   6.944   1.037
 9927SOL    HW130680   6.766   0.003   1.070
 9927SOL    HW230681   6.881   6.973   0.964
 9928SOL     OW30682   4.891   6.272   1.800
 9928SOL    HW130683   4.960   6.331   1.841
 9928SOL    HW230684   4.810   6.326   1.778
 9929SOL     OW30685   2.828   5.239   4.866
 9929SOL    HW130686   2.763   5.170   4.836
 9929SOL    HW230687   2.881   5.204   4.944
 9930SOL     OW30688   6.616   6.784   4.571
 9930SOL    HW130689   6.584   6.835   4.491
 9930SOL    HW230690   6.550   6.793   4.645
 9931SOL     OW30691   1.142   4.664   4.444
 9931SOL    HW130692   1.141   4.608   4.526
 9931SOL    HW230693   1.236   4.677   4.413
 9932SOL     OW30694   2.310   5.330   6.638
 9932SOL    HW130695   2.244   5.294   6.572
 9932SOL    HW230696   2.298   5.429   6.647
 9933SOL     OW30697   1.055   5.285   3.732
 9933SOL    HW130698   1.078   5.308   3.826
 9933SOL    HW230699   0.961   5.251   3.727
 9934SOL     OW30700   5.357   1.399   5.625
 9934SOL    HW130701   5.395   1.436   5.710
 9934SOL    HW230702   5.403   1.442   5.547
 9935SOL     OW30703   3.192   6.890   0.200
 9935SOL    HW130704   3.229   6.906   0.292
 9935SOL    HW230705   3.167   6.794   0.190
 9936SOL     OW30706   6.773   5.056   6.302
 9936SOL    HW130707   6.737   5.016   6.218
 9936SOL    HW230708   6.812   5.145   6.282
 9937SOL     OW30709   6.788   1.570   0.095
 9937SOL    HW130710   6.870   1.528   0.055
 9937SOL    HW230711   6.719   1.500   0.112
 9938SOL     OW30712   6.908   5.501   2.562
 9938SOL    HW130713   6.926   5.554   2.644
 9938SOL    HW230714   6.878   5.409   2.588
 9939SOL     OW30715   4.355   2.126   0.831
 9939SOL    HW130716   4.374   2.149   0.735
 9939SOL    HW230717   4.256   2.129   0.847
 9940SOL     OW30718   0.853   0.989   1.183
 9940SOL    HW130719   0.757   1.014   1.175
 9940SOL    HW230720   0.910   1.061   1.144
 9941SOL     OW30721   3.131   3.893   5.330
 9941SOL    HW130722   3.185   3.871   5.412
 9941SOL    HW230723   3.176   3.966   5.279
 9942SOL     OW30724   2.520   5.507   2.728
 9942SOL    HW130725   2.495   5.495   2.632
 9942SOL    HW230726   2.455   5.570   2.772
 9943SOL     OW30727   6.773   5.438   5.613
 9943SOL    HW130728   6.771   5.505   5.687
 9943SOL    HW230729   6.804   5.350   5.648
 9944SOL     OW30730   1.960   4.591   6.184
 9944SOL    HW130731   1.887   4.634   6.131
 9944SOL    HW230732   1.964   4.633   6.275
 9945SOL     OW30733   6.501   5.404   6.584
 9945SOL    HW130734   6.472   5.308   6.581
 9945SOL    HW230735   6.546   5.428   6.499
 9946SOL     OW30736   4.581   1.004   4.705
 9946SOL    HW130737   4.584   1.052   4.793
 9946SOL    HW230738   4.520   0.925   4.712
 9947SOL     OW30739   1.605   3.329   5.219
 9947SOL    HW130740   1.535   3.276   5.171
 9947SOL    HW230741   1.675   3.268   5.255
 9948SOL     OW30742   5.562   4.885   4.425
 9948SOL    HW130743   5.545   4.822   4.349
 9948SOL    HW230744   5.606   4.835   4.500
 9949SOL     OW30745   6.032   5.006   3.965
 9949SOL    HW130746   5.987   4.932   3.916
 9949SOL    HW230747   5.963   5.056   4.018
 9950SOL     OW30748   5.858   6.166   5.221
 9950SOL    HW130749   5.877   6.264   5.216
 9950SOL    HW230750   5.922   6.123   5.285
 9951SOL     OW30751   6.062   1.728   4.820
 9951SOL    HW130752   6.033   1.721   4.725
 9951SOL    HW230753   6.158   1.754   4.825
 9952SOL     OW30754   0.859   3.239   1.285
 9952SOL    HW130755   0.859   3.196   1.195
 9952SOL    HW230756   0.836   3.170   1.354
 9953SOL     OW30757   6.259   2.459   4.188
 9953SOL    HW130758   6.313   2.402   4.250
 9953SOL    HW230759   6.266   2.555   4.216
 9954SOL     OW30760   5.801   0.277   6.031
 9954SOL    HW130761   5.781   0.348   5.964
 9954SOL    HW230762   5.882   0.303   6.084
 9955SOL     OW30763   6.061   3.790   5.749
 9955SOL    HW130764   6.101   3.812   5.661
 9955SOL    HW230765   6.069   3.868   5.811
 9956SOL     OW30766   1.608   6.884   1.704
 9956SOL    HW130767   1.688   6.835   1.740
 9956SOL    HW230768   1.544   6.903   1.778
 9957SOL     OW30769   5.812   5.485   3.331
 9957SOL    HW130770   5.905   5.474   3.297
 9957SOL    HW230771   5.771   5.567   3.292
 9958SOL     OW30772   2.935   5.084   0.795
 9958SOL    HW130773   2.889   5.110   0.710
 9958SOL    HW230774   3.032   5.108   0.789
 9959SOL     OW30775   4.092   3.641   5.478
 9959SOL    HW130776   4.149   3.700   5.536
 9959SOL    HW230777   4.098   3.672   5.383
 9960SOL     OW30778   6.874   6.856   2.310
 9960SOL    HW130779   6.958   6.871   2.363
 9960SOL    HW230780   6.850   6.759   2.313
 9961SOL     OW30781   1.534   5.706   3.813
 9961SOL    HW130782   1.534   5.785   3.753
 9961SOL    HW230783   1.563   5.734   3.905
 9962SOL     OW30784   6.816   6.976   3.003
 9962SOL    HW130785   6.762   6.967   2.919
 9962SOL    HW230786   6.842   6.886   3.036
 9963SOL     OW30787   3.121   2.688   6.936
 9963SOL    HW130788   3.075   2.603   6.910
 9963SOL    HW230789   3.089   2.717   0.008
 9964SOL     OW30790   4.869   5.083   5.158
 9964SOL    HW130791   4.773   5.108   5.153
 9964SOL    HW230792   4.878   4.984   5.172
 9965SOL     OW30793   3.716   6.746   6.925
 9965SOL    HW130794   3.634   6.755   6.982
 9965SOL    HW230795   3.705   6.802   6.842
 9966SOL     OW30796   1.642   5.149   1.648
 9966SOL    HW130797   1.677   5.195   1.566
 9966SOL    HW230798   1.717   5.133   1.712
 9967SOL     OW30799   0.276   6.016   2.063
 9967SOL    HW130800   0.357   6.028   2.006
 9967SOL    HW230801   0.287   6.069   2.148
 9968SOL     OW30802   3.732   4.009   1.366
 9968SOL    HW130803   3.678   4.077   1.416
 9968SOL    HW230804   3.674   3.960   1.302
 9969SOL     OW30805   1.694   3.385   2.212
 9969SOL    HW130806   1.780   3.336   2.220
 9969SOL    HW230807   1.654   3.399   2.302
 9970SOL     OW30808   5.058   4.391   3.065
 9970SOL    HW130809   5.140   4.381   3.121
 9970SOL    HW230810   5.022   4.301   3.042
 9971SOL     OW30811   1.972   4.938   1.272
 9971SOL    HW130812   1.898   4.987   1.226
 9971SOL    HW230813   1.970   4.842   1.245
 9972SOL     OW30814   5.733   5.038   1.309
 9972SOL    HW130815   5.771   4.973   1.375
 9972SOL    HW230816   5.805   5.068   1.247
 9973SOL     OW30817   6.248   1.803   3.491
 9973SOL    HW130818   6.153   1.774   3.491
 9973SOL    HW230819   6.304   1.733   3.448
 9974SOL     OW30820   1.165   2.473   2.450
 9974SOL    HW130821   1.175   2.502   2.545
 9974SOL    HW230822   1.129   2.549   2.395
 9975SOL     OW30823   5.862   3.313   0.611
 9975SOL    HW130824   5.895   3.291   0.703
 9975SOL    HW230825   5.893   3.244   0.546
 9976SOL     OW30826   1.373   6.227   5.452
 9976SOL    HW130827   1.431   6.163   5.502
 9976SOL    HW230828   1.290   6.245   5.505
 9977SOL     OW30829   6.504   5.810   5.587
 9977SOL    HW130830   6.436   5.813   5.513
 9977SOL    HW230831   6.458   5.824   5.675
 9978SOL     OW30832   1.153   3.058   4.572
 9978SOL    HW130833   1.145   3.097   4.664
 9978SOL    HW230834   1.171   3.131   4.506
 9979SOL     OW30835   6.539   4.835   5.570
 9979SOL    HW130836   6.599   4.838   5.490
 9979SOL    HW230837   6.452   4.879   5.549
 9980SOL     OW30838   2.216   0.204   6.933
 9980SOL    HW130839   2.294   0.176   6.990
 9980SOL    HW230840   2.249   0.250   6.851
 9981SOL     OW30841   2.171   1.715   2.872
 9981SOL    HW130842   2.210   1.675   2.956
 9981SOL    HW230843   2.087   1.764   2.894
 9982SOL     OW30844   6.474   5.891   4.280
 9982SOL    HW130845   6.567   5.920   4.258
 9982SOL    HW230846   6.447   5.817   4.220
 9983SOL     OW30847   0.212   2.603   3.033
 9983SOL    HW130848   0.197   2.638   2.941
 9983SOL    HW230849   0.217   2.503   3.031
 9984SOL     OW30850   2.462   1.500   6.996
 9984SOL    HW130851   2.454   1.486   0.076
 9984SOL    HW230852   2.558   1.512   6.972
 9985SOL     OW30853   1.850   0.817   0.828
 9985SOL    HW130854   1.920   0.811   0.756
 9985SOL    HW230855   1.759   0.815   0.786
 9986SOL     OW30856   6.222   4.164   5.848
 9986SOL    HW130857   6.185   4.079   5.883
 9986SOL    HW230858   6.213   4.236   5.916
 9987SOL     OW30859   6.276   3.027   5.074
 9987SOL    HW130860   6.350   2.966   5.106
 9987SOL    HW230861   6.214   2.975   5.016
 9988SOL     OW30862   0.498   5.888   4.212
 9988SOL    HW130863   0.408   5.850   4.194
 9988SOL    HW230864   0.500   5.926   4.305
 9989SOL     OW30865   6.575   3.519   3.698
 9989SOL    HW130866   6.542   3.447   3.638
 9989SOL    HW230867   6.651   3.567   3.654
 9990SOL     OW30868   1.998   4.717   3.278
 9990SOL    HW130869   1.939   4.758   3.208
 9990SOL    HW230870   2.054   4.788   3.320
 9991SOL     OW30871   2.735   2.231   4.403
 9991SOL    HW130872   2.821   2.221   4.453
 9991SOL    HW230873   2.752   2.220   4.305
 9992SOL     OW30874   5.420   4.561   7.011
 9992SOL    HW130875   5.331   4.605   7.000
 9992SOL    HW230876   5.491   4.620   6.971
 9993SOL     OW30877   2.832   1.211   0.815
 9993SOL    HW130878   2.823   1.309   0.799
 9993SOL    HW230879   2.782   1.186   0.898
 9994SOL     OW30880   6.369   4.485   2.895
 9994SOL    HW130881   6.397   4.391   2.875
 9994SOL    HW230882   6.370   4.539   2.811
 9995SOL     OW30883   4.546   1.547   3.187
 9995SOL    HW130884   4.507   1.585   3.271
 9995SOL    HW230885   4.638   1.512   3.205
 9996SOL     OW30886   3.385   3.865   0.326
 9996SOL    HW130887   3.324   3.899   0.398
 9996SOL    HW230888   3.439   3.940   0.289
 9997SOL     OW30889   2.897   1.826   5.397
 9997SOL    HW130890   2.976   1.885   5.379
 9997SOL    HW230891   2.820   1.857   5.341
 9998SOL     OW30892   5.952   4.870   5.545
 9998SOL    HW130893   5.928   4.881   5.641
 9998SOL    HW230894   6.040   4.822   5.538
 9999SOL     OW30895   6.348   2.963   6.139
 9999SOL    HW130896   6.401   3.031   6.088
 9999SOL    HW230897   6.289   3.009   6.205
10000SOL     OW30898   6.592   4.279   6.803
10000SOL    HW130899   6.582   4.230   6.716
10000SOL    HW230900   6.635   4.219   6.870
10001SOL     OW30901   4.990   6.955   2.160
10001SOL    HW130902   4.944   6.879   2.206
10001SOL    HW230903   4.978   6.945   2.061
10002SOL     OW30904   1.365   6.949   1.831
10002SOL    HW130905   1.360   6.996   1.919
10002SOL    HW230906   1.295   6.879   1.827
10003SOL     OW30907   3.485   2.126   3.943
10003SOL    HW130908   3.390   2.157   3.933
10003SOL    HW230909   3.524   2.106   3.854
10004SOL     OW30910   0.223   2.868   4.779
10004SOL    HW130911   0.259   2.777   4.763
10004SOL    HW230912   0.205   2.913   4.691
10005SOL     OW30913   5.800   0.668   3.678
10005SOL    HW130914   5.794   0.641   3.774
10005SOL    HW230915   5.824   0.589   3.623
10006SOL     OW30916   4.591   6.219   4.378
10006SOL    HW130917   4.650   6.238   4.456
10006SOL    HW230918   4.606   6.126   4.345
10007SOL     OW30919   0.282   3.964   4.991
10007SOL    HW130920   0.190   3.924   4.996
10007SOL    HW230921   0.279   4.058   5.026
10008SOL     OW30922   4.082   1.269   4.951
10008SOL    HW130923   4.081   1.309   5.043
10008SOL    HW230924   4.090   1.169   4.959
10009SOL     OW30925   1.847   3.626   2.283
10009SOL    HW130926   1.925   3.588   2.334
10009SOL    HW230927   1.800   3.553   2.234
10010SOL     OW30928   2.240   1.003   6.402
10010SOL    HW130929   2.159   0.965   6.447
10010SOL    HW230930   2.228   1.102   6.390
10011SOL     OW30931   6.570   0.493   5.726
10011SOL    HW130932   6.589   0.533   5.636
10011SOL    HW230933   6.643   0.429   5.749
10012SOL     OW30934   6.197   0.579   2.738
10012SOL    HW130935   6.186   0.658   2.677
10012SOL    HW230936   6.144   0.502   2.703
10013SOL     OW30937   0.321   1.100   3.124
10013SOL    HW130938   0.356   1.008   3.141
10013SOL    HW230939   0.336   1.158   3.204
10014SOL     OW30940   0.352   4.365   6.835
10014SOL    HW130941   0.432   4.366   6.776
10014SOL    HW230942   0.364   4.433   6.908
10015SOL     OW30943   2.172   5.036   0.482
10015SOL    HW130944   2.224   4.953   0.463
10015SOL    HW230945   2.074   5.017   0.473
10016SOL     OW30946   1.381   1.538   6.220
10016SOL    HW130947   1.458   1.505   6.275
10016SOL    HW230948   1.311   1.467   6.215
10017SOL     OW30949   3.231   2.166   3.876
10017SOL    HW130950   3.196   2.198   3.788
10017SOL    HW230951   3.158   2.169   3.944
10018SOL     OW30952   5.070   0.308   6.905
10018SOL    HW130953   5.130   0.300   6.825
10018SOL    HW230954   5.118   0.355   6.979
10019SOL     OW30955   0.865   1.506   3.142
10019SOL    HW130956   0.938   1.441   3.158
10019SOL    HW230957   0.781   1.473   3.185
10020SOL     OW30958   0.853   2.779   1.700
10020SOL    HW130959   0.930   2.832   1.668
10020SOL    HW230960   0.847   2.693   1.648
10021SOL     OW30961   6.798   3.203   1.320
10021SOL    HW130962   6.717   3.261   1.319
10021SOL    HW230963   6.818   3.171   1.228
10022SOL     OW30964   2.564   1.446   5.875
10022SOL    HW130965   2.468   1.455   5.848
10022SOL    HW230966   2.581   1.501   5.956
10023SOL     OW30967   6.608   4.602   0.559
10023SOL    HW130968   6.612   4.560   0.649
10023SOL    HW230969   6.700   4.613   0.522
10024SOL     OW30970   1.327   5.898   3.903
10024SOL    HW130971   1.383   5.977   3.930
10024SOL    HW230972   1.384   5.817   3.898
10025SOL     OW30973   2.011   0.790   1.463
10025SOL    HW130974   2.082   0.727   1.495
10025SOL    HW230975   1.921   0.756   1.490
10026SOL     OW30976   5.796   0.374   3.940
10026SOL    HW130977   5.865   0.328   3.884
10026SOL    HW230978   5.821   0.471   3.950
10027SOL     OW30979   5.560   3.148   4.329
10027SOL    HW130980   5.540   3.201   4.412
10027SOL    HW230981   5.479   3.097   4.301
10028SOL     OW30982   1.154   0.729   0.973
10028SOL    HW130983   1.162   0.636   1.010
10028SOL    HW230984   1.061   0.763   0.988
10029SOL     OW30985   5.452   1.905   3.344
10029SOL    HW130986   5.479   1.972   3.274
10029SOL    HW230987   5.462   1.947   3.435
10030SOL     OW30988   2.069   0.979   3.466
10030SOL    HW130989   1.973   1.005   3.480
10030SOL    HW230990   2.086   0.891   3.511
10031SOL     OW30991   5.438   4.952   3.763
10031SOL    HW130992   5.467   4.879   3.701
10031SOL    HW230993   5.340   4.966   3.754
10032SOL     OW30994   2.518   1.592   4.917
10032SOL    HW130995   2.458   1.569   4.841
10032SOL    HW230996   2.463   1.612   4.998
10033SOL     OW30997   6.177   3.280   4.272
10033SOL    HW130998   6.190   3.297   4.175
10033SOL    HW230999   6.121   3.353   4.311
10034SOL     OW31000   3.659   0.646   4.527
10034SOL    HW131001   3.624   0.553   4.533
10034SOL    HW231002   3.583   0.711   4.527
10035SOL     OW31003   6.829   5.150   1.888
10035SOL    HW131004   6.863   5.122   1.798
10035SOL    HW231005   6.797   5.245   1.884
10036SOL     OW31006   6.428   2.014   0.166
10036SOL    HW131007   6.412   2.112   0.159
10036SOL    HW231008   6.399   1.982   0.257
10037SOL     OW31009   6.540   1.259   6.172
10037SOL    HW131010   6.529   1.217   6.262
10037SOL    HW231011   6.474   1.334   6.163
10038SOL     OW31012   6.389   0.315   0.928
10038SOL    HW131013   6.303   0.358   0.957
10038SOL    HW231014   6.417   0.247   0.996
10039SOL     OW31015   3.067   0.144   3.437
10039SOL    HW131016   3.087   0.152   3.340
10039SOL    HW231017   2.974   0.110   3.449
10040SOL     OW31018   6.145   3.994   0.380
10040SOL    HW131019   6.105   4.085   0.385
10040SOL    HW231020   6.072   3.926   0.383
10041SOL     OW31021   3.170   6.628   0.120
10041SOL    HW131022   3.189   6.596   0.027
10041SOL    HW231023   3.234   6.584   0.183
10042SOL     OW31024   6.928   2.282   3.232
10042SOL    HW131025   6.886   2.240   3.152
10042SOL    HW231026   6.885   2.246   3.315
10043SOL     OW31027   6.666   1.795   5.782
10043SOL    HW131028   6.681   1.796   5.684
10043SOL    HW231029   6.581   1.746   5.802
10044SOL     OW31030   2.507   3.202   5.814
10044SOL    HW131031   2.475   3.170   5.903
10044SOL    HW231032   2.458   3.286   5.790
10045SOL     OW31033   4.596   0.774   0.952
10045SOL    HW131034   4.584   0.678   0.979
10045SOL    HW231035   4.526   0.798   0.885
10046SOL     OW31036   1.052   4.523   1.304
10046SOL    HW131037   1.050   4.479   1.395
10046SOL    HW231038   0.968   4.577   1.292
10047SOL     OW31039   0.755   3.346   5.893
10047SOL    HW131040   0.775   3.341   5.795
10047SOL    HW231041   0.801   3.271   5.940
10048SOL     OW31042   6.745   6.565   2.563
10048SOL    HW131043   6.824   6.508   2.542
10048SOL    HW231044   6.739   6.580   2.661
10049SOL     OW31045   0.314   2.686   5.896
10049SOL    HW131046   0.361   2.648   5.817
10049SOL    HW231047   0.265   2.769   5.869
10050SOL     OW31048   4.988   3.587   5.199
10050SOL    HW131049   4.918   3.600   5.128
10050SOL    HW231050   5.036   3.500   5.183
10051SOL     OW31051   0.920   4.220   4.461
10051SOL    HW131052   0.883   4.152   4.398
10051SOL    HW231053   0.966   4.292   4.409
10052SOL     OW31054   0.697   0.950   3.492
10052SOL    HW131055   0.784   0.999   3.501
10052SOL    HW231056   0.657   0.970   3.402
10053SOL     OW31057   5.080   5.502   4.472
10053SOL    HW131058   5.151   5.433   4.460
10053SOL    HW231059   4.993   5.457   4.494
10054SOL     OW31060   5.390   4.067   4.609
10054SOL    HW131061   5.473   4.039   4.562
10054SOL    HW231062   5.316   4.003   4.589
10055SOL     OW31063   6.659   2.485   6.515
10055SOL    HW131064   6.613   2.498   6.427
10055SOL    HW231065   6.752   2.452   6.500
10056SOL     OW31066   5.316   3.333   3.238
10056SOL    HW131067   5.326   3.276   3.320
10056SOL    HW231068   5.226   3.316   3.197
10057SOL     OW31069   5.150   4.492   6.537
10057SOL    HW131070   5.237   4.459   6.575
10057SOL    HW231071   5.169   4.556   6.462
10058SOL     OW31072   6.025   2.867   4.973
10058SOL    HW131073   6.007   2.853   4.876
10058SOL    HW231074   5.945   2.908   5.017
10059SOL     OW31075   7.006   1.379   6.981
10059SOL    HW131076   0.059   1.414   0.022
10059SOL    HW231077   0.016   1.291   6.942
10060SOL     OW31078   2.253   1.740   2.612
10060SOL    HW131079   2.188   1.809   2.578
10060SOL    HW231080   2.247   1.736   2.712
10061SOL     OW31081   3.771   0.958   3.450
10061SOL    HW131082   3.812   0.872   3.418
10061SOL    HW231083   3.842   1.019   3.484
10062SOL     OW31084   0.796   0.339   4.124
10062SOL    HW131085   0.816   0.436   4.120
10062SOL    HW231086   0.705   0.325   4.164
10063SOL     OW31087   1.660   2.926   4.984
10063SOL    HW131088   1.599   2.888   5.054
10063SOL    HW231089   1.650   2.874   4.900
10064SOL     OW31090   2.973   6.643   0.661
10064SOL    HW131091   2.931   6.656   0.571
10064SOL    HW231092   2.992   6.546   0.675
10065SOL     OW31093   0.749   0.823   1.728
10065SOL    HW131094   0.663   0.868   1.750
10065SOL    HW231095   0.767   0.751   1.795
10066SOL     OW31096   6.765   3.440   4.859
10066SOL    HW131097   6.692   3.497   4.821
10066SOL    HW231098   6.796   3.375   4.790
10067SOL     OW31099   0.027   2.331   5.472
10067SOL    HW131100   0.100   2.382   5.425
10067SOL    HW231101   0.054   2.315   5.567
10068SOL     OW31102   2.562   2.313   2.735
10068SOL    HW131103   2.607   2.348   2.652
10068SOL    HW231104   2.488   2.251   2.709
10069SOL     OW31105   3.477   5.473   1.297
10069SOL    HW131106   3.421   5.397   1.265
10069SOL    HW231107   3.553   5.488   1.233
10070SOL     OW31108   3.452   5.869   4.995
10070SOL    HW131109   3.475   5.966   4.986
10070SOL    HW231110   3.513   5.816   4.936
10071SOL     OW31111   6.585   0.059   3.347
10071SOL    HW131112   6.520   0.027   3.279
10071SOL    HW231113   6.650   7.005   3.368
10072SOL     OW31114   6.775   1.588   2.510
10072SOL    HW131115   6.799   1.492   2.494
10072SOL    HW231116   6.840   1.647   2.463
10073SOL     OW31117   6.012   3.665   4.635
10073SOL    HW131118   6.006   3.586   4.574
10073SOL    HW231119   6.089   3.654   4.698
10074SOL     OW31120   1.570   4.637   0.553
10074SOL    HW131121   1.620   4.582   0.486
10074SOL    HW231122   1.556   4.583   0.636
10075SOL     OW31123   1.770   3.015   1.885
10075SOL    HW131124   1.822   2.969   1.957
10075SOL    HW231125   1.814   2.998   1.796
10076SOL     OW31126   5.553   5.200   3.468
10076SOL    HW131127   5.572   5.286   3.517
10076SOL    HW231128   5.589   5.123   3.521
10077SOL     OW31129   6.463   3.090   6.923
10077SOL    HW131130   6.390   3.142   6.967
10077SOL    HW231131   6.425   3.032   6.851
10078SOL     OW31132   0.225   6.414   5.018
10078SOL    HW131133   0.206   6.387   5.113
10078SOL    HW231134   0.282   6.344   4.976
10079SOL     OW31135   4.468   2.542   3.187
10079SOL    HW131136   4.487   2.445   3.201
10079SOL    HW231137   4.405   2.553   3.109
10080SOL     OW31138   5.364   0.307   6.209
10080SOL    HW131139   5.454   0.268   6.190
10080SOL    HW231140   5.373   0.379   6.279
10081SOL     OW31141   1.955   2.571   0.336
10081SOL    HW131142   1.891   2.583   0.412
10081SOL    HW231143   2.026   2.506   0.363
10082SOL     OW31144   1.215   4.421   2.075
10082SOL    HW131145   1.193   4.383   2.165
10082SOL    HW231146   1.251   4.514   2.086
10083SOL     OW31147   4.006   5.272   3.712
10083SOL    HW131148   4.066   5.332   3.660
10083SOL    HW231149   4.016   5.290   3.809
10084SOL     OW31150   1.223   0.428   5.037
10084SOL    HW131151   1.172   0.461   5.117
10084SOL    HW231152   1.225   0.328   5.038
10085SOL     OW31153   4.257   6.824   0.356
10085SOL    HW131154   4.207   6.791   0.276
10085SOL    HW231155   4.355   6.825   0.337
10086SOL     OW31156   6.753   6.197   1.506
10086SOL    HW131157   6.754   6.191   1.407
10086SOL    HW231158   6.720   6.111   1.545
10087SOL     OW31159   1.632   6.723   4.931
10087SOL    HW131160   1.652   6.635   4.973
10087SOL    HW231161   1.715   6.779   4.927
10088SOL     OW31162   0.103   2.900   0.319
10088SOL    HW131163   0.086   2.942   0.230
10088SOL    HW231164   0.068   2.960   0.392
10089SOL     OW31165   4.048   1.806   2.502
10089SOL    HW131166   4.086   1.898   2.490
10089SOL    HW231167   4.073   1.771   2.593
10090SOL     OW31168   1.659   6.051   1.313
10090SOL    HW131169   1.673   6.108   1.232
10090SOL    HW231170   1.696   6.098   1.394
10091SOL     OW31171   6.404   4.465   6.025
10091SOL    HW131172   6.472   4.400   5.990
10091SOL    HW231173   6.324   4.414   6.059
10092SOL     OW31174   0.423   2.357   5.153
10092SOL    HW131175   0.416   2.350   5.053
10092SOL    HW231176   0.400   2.268   5.194
10093SOL     OW31177   5.474   4.550   5.804
10093SOL    HW131178   5.408   4.586   5.870
10093SOL    HW231179   5.561   4.598   5.816
10094SOL     OW31180   3.189   0.948   1.224
10094SOL    HW131181   3.120   0.938   1.151
10094SOL    HW231182   3.260   0.878   1.212
10095SOL     OW31183   4.812   2.629   5.222
10095SOL    HW131184   4.765   2.653   5.137
10095SOL    HW231185   4.791   2.697   5.292
10096SOL     OW31186   4.981   1.143   2.954
10096SOL    HW131187   4.946   1.213   3.015
10096SOL    HW231188   5.078   1.127   2.973
10097SOL     OW31189   1.132   1.612   0.042
10097SOL    HW131190   1.216   1.652   0.006
10097SOL    HW231191   1.132   1.618   0.142
10098SOL     OW31192   3.704   5.168   3.981
10098SOL    HW131193   3.716   5.103   4.057
10098SOL    HW231194   3.785   5.225   3.972
10099SOL     OW31195   0.205   4.640   1.507
10099SOL    HW131196   0.199   4.555   1.559
10099SOL    HW231197   0.131   4.644   1.440
10100SOL     OW31198   4.861   5.344   4.563
10100SOL    HW131199   4.852   5.294   4.649
10100SOL    HW231200   4.777   5.396   4.546
10101SOL     OW31201   1.139   2.084   1.547
10101SOL    HW131202   1.214   2.099   1.612
10101SOL    HW231203   1.085   2.168   1.540
10102SOL     OW31204   6.251   6.529   1.383
10102SOL    HW131205   6.250   6.513   1.481
10102SOL    HW231206   6.341   6.563   1.355
10103SOL     OW31207   6.981   6.293   5.850
10103SOL    HW131208   0.040   6.338   5.806
10103SOL    HW231209   6.910   6.361   5.870
10104SOL     OW31210   2.300   0.401   4.699
10104SOL    HW131211   2.387   0.356   4.717
10104SOL    HW231212   2.228   0.332   4.687
10105SOL     OW31213   2.362   0.683   6.486
10105SOL    HW131214   2.418   0.611   6.528
10105SOL    HW231215   2.421   0.750   6.441
10106SOL     OW31216   4.844   5.823   1.283
10106SOL    HW131217   4.838   5.767   1.366
10106SOL    HW231218   4.918   5.889   1.293
10107SOL     OW31219   4.566   4.422   6.924
10107SOL    HW131220   4.538   4.476   7.003
10107SOL    HW231221   4.659   4.387   6.939
10108SOL     OW31222   1.865   2.769   0.142
10108SOL    HW131223   1.927   2.730   0.211
10108SOL    HW231224   1.822   2.851   0.179
10109SOL     OW31225   1.088   1.930   1.185
10109SOL    HW131226   1.121   1.840   1.158
10109SOL    HW231227   1.036   1.971   1.110
10110SOL     OW31228   4.809   6.170   2.826
10110SOL    HW131229   4.735   6.224   2.866
10110SOL    HW231230   4.807   6.077   2.864
10111SOL     OW31231   1.086   1.208   2.099
10111SOL    HW131232   1.168   1.247   2.140
10111SOL    HW231233   1.048   1.271   2.032
10112SOL     OW31234   6.665   2.191   3.761
10112SOL    HW131235   6.668   2.092   3.774
10112SOL    HW231236   6.571   2.220   3.743
10113SOL     OW31237   5.812   1.149   6.564
10113SOL    HW131238   5.787   1.130   6.659
10113SOL    HW231239   5.813   1.064   6.512
10114SOL     OW31240   4.676   1.881   2.483
10114SOL    HW131241   4.680   1.785   2.513
10114SOL    HW231242   4.682   1.941   2.563
10115SOL     OW31243   3.240   2.624   5.679
10115SOL    HW131244   3.270   2.579   5.595
10115SOL    HW231245   3.170   2.693   5.658
10116SOL     OW31246   6.187   0.183   4.889
10116SOL    HW131247   6.221   0.094   4.857
10116SOL    HW231248   6.087   0.181   4.893
10117SOL     OW31249   6.382   4.542   3.921
10117SOL    HW131250   6.396   4.474   3.850
10117SOL    HW231251   6.461   4.604   3.925
10118SOL     OW31252   3.373   5.222   4.409
10118SOL    HW131253   3.307   5.191   4.340
10118SOL    HW231254   3.337   5.205   4.500
10119SOL     OW31255   0.085   5.208   5.060
10119SOL    HW131256   0.052   5.258   5.140
10119SOL    HW231257   0.139   5.270   5.002
10120SOL     OW31258   2.173   2.746   2.158
10120SOL    HW131259   2.200   2.813   2.089
10120SOL    HW231260   2.224   2.763   2.242
10121SOL     OW31261   6.227   4.108   0.781
10121SOL    HW131262   6.247   4.134   0.875
10121SOL    HW231263   6.303   4.054   0.745
10122SOL     OW31264   1.448   0.565   3.517
10122SOL    HW131265   1.513   0.612   3.577
10122SOL    HW231266   1.355   0.587   3.546
10123SOL     OW31267   5.552   5.691   6.769
10123SOL    HW131268   5.489   5.634   6.822
10123SOL    HW231269   5.500   5.761   6.720
10124SOL     OW31270   1.275   4.534   2.662
10124SOL    HW131271   1.343   4.586   2.713
10124SOL    HW231272   1.184   4.573   2.677
10125SOL     OW31273   1.206   1.324   6.261
10125SOL    HW131274   1.107   1.337   6.256
10125SOL    HW231275   1.227   1.226   6.262
10126SOL     OW31276   6.298   6.826   6.564
10126SOL    HW131277   6.305   6.801   6.468
10126SOL    HW231278   6.390   6.843   6.601
10127SOL     OW31279   1.994   5.457   6.040
10127SOL    HW131280   2.082   5.487   6.003
10127SOL    HW231281   1.972   5.512   6.121
10128SOL     OW31282   2.654   0.985   6.804
10128SOL    HW131283   2.567   1.005   6.759
10128SOL    HW231284   2.718   0.946   6.737
10129SOL     OW31285   6.061   1.494   3.924
10129SOL    HW131286   5.987   1.542   3.876
10129SOL    HW231287   6.026   1.453   4.008
10130SOL     OW31288   1.714   1.994   2.463
10130SOL    HW131289   1.703   2.049   2.380
10130SOL    HW231290   1.783   2.037   2.522
10131SOL     OW31291   2.034   0.546   4.567
10131SOL    HW131292   2.055   0.630   4.618
10131SOL    HW231293   1.937   0.548   4.540
10132SOL     OW31294   6.800   0.844   1.797
10132SOL    HW131295   6.814   0.812   1.891
10132SOL    HW231296   6.855   0.927   1.782
10133SOL     OW31297   5.499   7.010   0.330
10133SOL    HW131298   5.516   0.057   0.256
10133SOL    HW231299   5.533   0.030   0.416
10134SOL     OW31300   6.134   0.488   1.836
10134SOL    HW131301   6.100   0.510   1.744
10134SOL    HW231302   6.221   0.439   1.828
10135SOL     OW31303   6.419   0.118   2.831
10135SOL    HW131304   6.373   0.033   2.804
10135SOL    HW231305   6.505   0.126   2.781
10136SOL     OW31306   5.635   1.811   2.700
10136SOL    HW131307   5.634   1.805   2.800
10136SOL    HW231308   5.564   1.751   2.663
10137SOL     OW31309   6.415   5.440   5.836
10137SOL    HW131310   6.432   5.532   5.870
10137SOL    HW231311   6.487   5.379   5.869
10138SOL     OW31312   6.961   1.791   0.351
10138SOL    HW131313   6.870   1.807   0.315
10138SOL    HW231314   6.971   1.836   0.440
10139SOL     OW31315   3.569   2.946   6.177
10139SOL    HW131316   3.552   2.928   6.273
10139SOL    HW231317   3.516   2.882   6.121
10140SOL     OW31318   6.912   5.822   5.899
10140SOL    HW131319   6.972   5.888   5.855
10140SOL    HW231320   6.961   5.736   5.913
10141SOL     OW31321   2.459   2.450   4.693
10141SOL    HW131322   2.403   2.385   4.744
10141SOL    HW231323   2.511   2.507   4.757
10142SOL     OW31324   5.187   6.131   4.740
10142SOL    HW131325   5.191   6.031   4.743
10142SOL    HW231326   5.197   6.167   4.833
10143SOL     OW31327   5.218   3.786   6.909
10143SOL    HW131328   5.233   3.878   6.871
10143SOL    HW231329   5.248   3.718   6.842
10144SOL     OW31330   3.791   6.471   5.719
10144SOL    HW131331   3.729   6.461   5.642
10144SOL    HW231332   3.738   6.482   5.803
10145SOL     OW31333   5.822   5.811   6.776
10145SOL    HW131334   5.857   5.817   6.869
10145SOL    HW231335   5.723   5.802   6.777
10146SOL     OW31336   0.470   2.424   4.441
10146SOL    HW131337   0.376   2.409   4.470
10146SOL    HW231338   0.526   2.447   4.521
10147SOL     OW31339   5.119   5.130   5.846
10147SOL    HW131340   5.138   5.125   5.748
10147SOL    HW231341   5.204   5.150   5.896
10148SOL     OW31342   1.349   4.749   0.464
10148SOL    HW131343   1.428   4.700   0.502
10148SOL    HW231344   1.329   4.713   0.373
10149SOL     OW31345   3.834   4.624   6.747
10149SOL    HW131346   3.819   4.636   6.845
10149SOL    HW231347   3.812   4.709   6.700
10150SOL     OW31348   4.067   4.797   6.942
10150SOL    HW131349   3.984   4.819   6.994
10150SOL    HW231350   4.102   4.880   6.899
10151SOL     OW31351   5.587   6.923   5.451
10151SOL    HW131352   5.554   6.859   5.520
10151SOL    HW231353   5.537   6.909   5.365
10152SOL     OW31354   5.069   6.280   2.775
10152SOL    HW131355   4.974   6.250   2.780
10152SOL    HW231356   5.083   6.360   2.832
10153SOL     OW31357   4.648   4.305   3.563
10153SOL    HW131358   4.645   4.301   3.663
10153SOL    HW231359   4.555   4.308   3.527
10154SOL     OW31360   5.383   5.447   5.646
10154SOL    HW131361   5.406   5.536   5.608
10154SOL    HW231362   5.381   5.379   5.573
10155SOL     OW31363   4.118   1.403   4.716
10155SOL    HW131364   4.104   1.351   4.801
10155SOL    HW231365   4.189   1.359   4.661
10156SOL     OW31366   5.334   2.059   6.446
10156SOL    HW131367   5.327   2.071   6.544
10156SOL    HW231368   5.397   2.127   6.407
10157SOL     OW31369   0.543   2.709   0.827
10157SOL    HW131370   0.455   2.701   0.874
10157SOL    HW231371   0.563   2.625   0.777
10158SOL     OW31372   5.585   5.295   0.960
10158SOL    HW131373   5.581   5.204   1.002
10158SOL    HW231374   5.504   5.310   0.904
10159SOL     OW31375   3.651   3.283   3.122
10159SOL    HW131376   3.600   3.304   3.205
10159SOL    HW231377   3.588   3.256   3.049
10160SOL     OW31378   1.073   5.131   3.096
10160SOL    HW131379   1.044   5.224   3.072
10160SOL    HW231380   1.150   5.135   3.159
10161SOL     OW31381   5.252   3.637   5.490
10161SOL    HW131382   5.175   3.675   5.440
10161SOL    HW231383   5.221   3.602   5.578
10162SOL     OW31384   1.584   2.893   2.868
10162SOL    HW131385   1.618   2.841   2.789
10162SOL    HW231386   1.625   2.984   2.868
10163SOL     OW31387   1.493   5.802   5.103
10163SOL    HW131388   1.578   5.753   5.086
10163SOL    HW231389   1.437   5.751   5.168
10164SOL     OW31390   1.135   2.357   3.314
10164SOL    HW131391   1.140   2.332   3.218
10164SOL    HW231392   1.051   2.319   3.354
10165SOL     OW31393   0.229   3.495   4.654
10165SOL    HW131394   0.226   3.449   4.742
10165SOL    HW231395   0.173   3.578   4.658
10166SOL     OW31396   1.883   0.962   1.284
10166SOL    HW131397   1.933   0.906   1.350
10166SOL    HW231398   1.935   0.966   1.198
10167SOL     OW31399   2.068   0.126   6.647
10167SOL    HW131400   2.077   0.135   6.548
10167SOL    HW231401   2.156   0.143   6.690
10168SOL     OW31402   7.015   1.293   0.505
10168SOL    HW131403   0.085   1.298   0.460
10168SOL    HW231404   0.009   1.278   0.603
10169SOL     OW31405   6.299   2.559   3.618
10169SOL    HW131406   6.395   2.534   3.631
10169SOL    HW231407   6.256   2.576   3.706
10170SOL     OW31408   5.748   5.781   6.231
10170SOL    HW131409   5.754   5.745   6.324
10170SOL    HW231410   5.838   5.780   6.188
10171SOL     OW31411   2.618   3.656   6.047
10171SOL    HW131412   2.651   3.580   5.990
10171SOL    HW231413   2.629   3.742   5.997
10172SOL     OW31414   6.214   6.966   2.789
10172SOL    HW131415   6.179   6.882   2.830
10172SOL    HW231416   6.138   0.002   2.755
10173SOL     OW31417   3.084   4.350   5.274
10173SOL    HW131418   3.142   4.398   5.341
10173SOL    HW231419   3.037   4.416   5.217
10174SOL     OW31420   4.340   5.824   2.953
10174SOL    HW131421   4.324   5.909   2.905
10174SOL    HW231422   4.345   5.748   2.888
10175SOL     OW31423   6.951   1.375   3.622
10175SOL    HW131424   6.897   1.422   3.552
10175SOL    HW231425   7.002   1.300   3.580
10176SOL     OW31426   5.945   1.788   6.088
10176SOL    HW131427   5.898   1.833   6.163
10176SOL    HW231428   5.881   1.773   6.012
10177SOL     OW31429   2.322   0.366   2.895
10177SOL    HW131430   2.244   0.319   2.854
10177SOL    HW231431   2.355   0.437   2.834
10178SOL     OW31432   1.756   2.228   0.854
10178SOL    HW131433   1.847   2.231   0.897
10178SOL    HW231434   1.757   2.164   0.778
10179SOL     OW31435   0.724   4.575   1.062
10179SOL    HW131436   0.703   4.670   1.087
10179SOL    HW231437   0.639   4.523   1.055
10180SOL     OW31438   3.990   0.274   6.074
10180SOL    HW131439   4.078   0.271   6.120
10180SOL    HW231440   4.003   0.307   5.980
10181SOL     OW31441   6.886   3.415   1.741
10181SOL    HW131442   6.944   3.495   1.728
10181SOL    HW231443   6.806   3.422   1.682
10182SOL     OW31444   5.721   2.288   0.101
10182SOL    HW131445   5.789   2.245   0.042
10182SOL    HW231446   5.646   2.324   0.046
10183SOL     OW31447   6.119   2.172   6.759
10183SOL    HW131448   6.145   2.143   6.851
10183SOL    HW231449   6.097   2.092   6.704
10184SOL     OW31450   5.691   3.371   6.222
10184SOL    HW131451   5.639   3.457   6.221
10184SOL    HW231452   5.747   3.365   6.140
10185SOL     OW31453   3.643   5.648   2.046
10185SOL    HW131454   3.606   5.741   2.042
10185SOL    HW231455   3.724   5.642   1.988
10186SOL     OW31456   3.893   3.348   5.895
10186SOL    HW131457   3.829   3.306   5.959
10186SOL    HW231458   3.895   3.447   5.910
10187SOL     OW31459   1.674   5.811   6.181
10187SOL    HW131460   1.597   5.871   6.199
10187SOL    HW231461   1.749   5.863   6.139
10188SOL     OW31462   2.890   0.511   6.550
10188SOL    HW131463   2.972   0.455   6.538
10188SOL    HW231464   2.844   0.484   6.635
10189SOL     OW31465   1.068   2.093   6.447
10189SOL    HW131466   0.994   2.108   6.381
10189SOL    HW231467   1.143   2.044   6.402
10190SOL     OW31468   3.057   5.271   2.224
10190SOL    HW131469   3.044   5.187   2.171
10190SOL    HW231470   2.973   5.294   2.271
10191SOL     OW31471   5.977   5.467   6.826
10191SOL    HW131472   6.003   5.557   6.860
10191SOL    HW231473   6.037   5.398   6.867
10192SOL     OW31474   2.011   1.608   4.409
10192SOL    HW131475   2.064   1.692   4.398
10192SOL    HW231476   1.959   1.590   4.324
10193SOL     OW31477   3.428   3.830   3.679
10193SOL    HW131478   3.516   3.835   3.725
10193SOL    HW231479   3.396   3.923   3.658
10194SOL     OW31480   3.428   0.179   2.990
10194SOL    HW131481   3.386   0.206   2.904
10194SOL    HW231482   3.527   0.185   2.983
10195SOL     OW31483   3.889   6.288   1.762
10195SOL    HW131484   3.857   6.289   1.667
10195SOL    HW231485   3.811   6.294   1.823
10196SOL     OW31486   6.436   2.000   3.427
10196SOL    HW131487   6.407   1.905   3.438
10196SOL    HW231488   6.430   2.026   3.331
10197SOL     OW31489   5.595   0.335   2.041
10197SOL    HW131490   5.690   0.339   2.071
10197SOL    HW231491   5.591   0.344   1.941
10198SOL     OW31492   2.789   6.885   1.067
10198SOL    HW131493   2.738   6.865   0.983
10198SOL    HW231494   2.730   6.873   1.146
10199SOL     OW31495   1.266   1.062   0.309
10199SOL    HW131496   1.209   1.113   0.373
10199SOL    HW231497   1.324   1.125   0.258
10200SOL     OW31498   5.070   4.657   4.826
10200SOL    HW131499   5.144   4.704   4.777
10200SOL    HW231500   5.097   4.562   4.844
10201SOL     OW31501   1.421   4.738   2.170
10201SOL    HW131502   1.359   4.768   2.242
10201SOL    HW231503   1.370   4.730   2.084
10202SOL     OW31504   1.297   3.331   2.490
10202SOL    HW131505   1.214   3.376   2.457
10202SOL    HW231506   1.274   3.271   2.567
10203SOL     OW31507   2.280   2.833   2.385
10203SOL    HW131508   2.312   2.816   2.478
10203SOL    HW231509   2.182   2.849   2.386
10204SOL     OW31510   3.087   4.741   5.297
10204SOL    HW131511   3.041   4.784   5.374
10204SOL    HW231512   3.031   4.666   5.262
10205SOL     OW31513   5.002   2.306   3.063
10205SOL    HW131514   4.962   2.395   3.039
10205SOL    HW231515   5.101   2.314   3.068
10206SOL     OW31516   5.411   6.565   5.935
10206SOL    HW131517   5.504   6.542   5.905
10206SOL    HW231518   5.407   6.563   6.035
10207SOL     OW31519   3.790   0.821   2.701
10207SOL    HW131520   3.821   0.915   2.690
10207SOL    HW231521   3.868   0.763   2.725
10208SOL     OW31522   6.324   4.302   5.560
10208SOL    HW131523   6.325   4.245   5.478
10208SOL    HW231524   6.398   4.370   5.554
10209SOL     OW31525   6.371   6.901   6.191
10209SOL    HW131526   6.387   7.000   6.193
10209SOL    HW231527   6.448   6.854   6.235
10210SOL     OW31528   4.824   6.019   2.215
10210SOL    HW131529   4.922   6.006   2.228
10210SOL    HW231530   4.790   6.085   2.282
10211SOL     OW31531   3.824   5.915   4.767
10211SOL    HW131532   3.833   5.970   4.684
10211SOL    HW231533   3.839   5.973   4.847
10212SOL     OW31534   6.986   0.803   4.684
10212SOL    HW131535   0.028   0.775   4.610
10212SOL    HW231536   7.009   0.753   4.767
10213SOL     OW31537   6.553   1.445   3.047
10213SOL    HW131538   6.529   1.538   3.022
10213SOL    HW231539   6.504   1.381   2.988
10214SOL     OW31540   6.919   1.090   1.760
10214SOL    HW131541   7.010   1.098   1.802
10214SOL    HW231542   6.858   1.158   1.799
10215SOL     OW31543   3.821   4.108   6.670
10215SOL    HW131544   3.828   4.045   6.748
10215SOL    HW231545   3.852   4.199   6.698
10216SOL     OW31546   5.068   0.532   1.568
10216SOL    HW131547   5.013   0.609   1.600
10216SOL    HW231548   5.007   0.464   1.526
10217SOL     OW31549   2.147   1.946   4.891
10217SOL    HW131550   2.168   1.924   4.986
10217SOL    HW231551   2.225   1.922   4.833
10218SOL     OW31552   2.076   1.276   0.947
10218SOL    HW131553   1.992   1.243   0.991
10218SOL    HW231554   2.079   1.245   0.853
10219SOL     OW31555   1.185   3.232   1.493
10219SOL    HW131556   1.284   3.247   1.482
10219SOL    HW231557   1.136   3.315   1.466
10220SOL     OW31558   4.554   2.142   1.057
10220SOL    HW131559   4.464   2.168   1.094
10220SOL    HW231560   4.569   2.187   0.970
10221SOL     OW31561   3.010   0.202   5.062
10221SOL    HW131562   2.915   0.172   5.056
10221SOL    HW231563   3.032   0.257   4.981
10222SOL     OW31564   1.806   4.976   5.541
10222SOL    HW131565   1.768   4.933   5.623
10222SOL    HW231566   1.777   5.071   5.537
10223SOL     OW31567   1.253   4.487   0.176
10223SOL    HW131568   1.307   4.409   0.209
10223SOL    HW231569   1.156   4.463   0.179
10224SOL     OW31570   1.259   0.247   4.161
10224SOL    HW131571   1.228   0.240   4.256
10224SOL    HW231572   1.304   0.334   4.147
10225SOL     OW31573   6.566   5.471   4.846
10225SOL    HW131574   6.515   5.412   4.784
10225SOL    HW231575   6.630   5.416   4.900
10226SOL     OW31576   1.990   1.214   7.000
10226SOL    HW131577   1.932   1.134   6.982
10226SOL    HW231578   2.086   1.189   6.988
10227SOL     OW31579   4.924   4.967   6.952
10227SOL    HW131580   4.940   4.919   0.020
10227SOL    HW231581   4.934   5.066   6.966
10228SOL     OW31582   1.217   5.620   3.242
10228SOL    HW131583   1.124   5.649   3.263
10228SOL    HW231584   1.229   5.524   3.267
10229SOL     OW31585   0.826   0.150   3.127
10229SOL    HW131586   0.883   0.097   3.190
10229SOL    HW231587   0.840   0.116   3.034
10230SOL     OW31588   6.807   0.792   3.734
10230SOL    HW131589   6.814   0.778   3.832
10230SOL    HW231590   6.803   0.703   3.688
10231SOL     OW31591   5.578   6.973   5.061
10231SOL    HW131592   5.581   6.983   4.961
10231SOL    HW231593   5.611   0.039   5.103
10232SOL     OW31594   3.330   2.133   4.943
10232SOL    HW131595   3.430   2.139   4.941
10232SOL    HW231596   3.294   2.202   5.006
10233SOL     OW31597   4.729   1.714   5.743
10233SOL    HW131598   4.796   1.640   5.744
10233SOL    HW231599   4.727   1.759   5.832
10234SOL     OW31600   5.560   0.075   1.765
10234SOL    HW131601   5.540   0.078   1.667
10234SOL    HW231602   5.656   0.049   1.779
10235SOL     OW31603   5.527   1.435   6.807
10235SOL    HW131604   5.624   1.460   6.797
10235SOL    HW231605   5.510   1.349   6.758
10236SOL     OW31606   2.027   5.797   1.842
10236SOL    HW131607   2.049   5.714   1.790
10236SOL    HW231608   2.032   5.778   1.940
10237SOL     OW31609   6.155   3.517   2.284
10237SOL    HW131610   6.121   3.557   2.369
10237SOL    HW231611   6.113   3.426   2.272
10238SOL     OW31612   4.536   4.840   4.690
10238SOL    HW131613   4.554   4.923   4.743
10238SOL    HW231614   4.530   4.762   4.753
10239SOL     OW31615   0.013   4.066   3.990
10239SOL    HW131616   6.989   3.979   3.963
10239SOL    HW231617   6.966   4.120   4.042
10240SOL     OW31618   0.866   3.584   3.832
10240SOL    HW131619   0.867   3.484   3.828
10240SOL    HW231620   0.952   3.616   3.871
10241SOL     OW31621   1.114   1.809   1.922
10241SOL    HW131622   1.052   1.732   1.907
10241SOL    HW231623   1.173   1.820   1.842
10242SOL     OW31624   0.086   0.776   6.233
10242SOL    HW131625   0.171   0.734   6.199
10242SOL    HW231626   0.017   0.705   6.246
10243SOL     OW31627   0.925   5.583   1.729
10243SOL    HW131628   0.984   5.546   1.801
10243SOL    HW231629   0.979   5.642   1.669
10244SOL     OW31630   1.896   5.765   6.598
10244SOL    HW131631   1.900   5.865   6.599
10244SOL    HW231632   1.974   5.729   6.548
10245SOL     OW31633   2.271   2.607   5.924
10245SOL    HW131634   2.367   2.578   5.927
10245SOL    HW231635   2.267   2.705   5.904
10246SOL     OW31636   3.253   4.134   5.188
10246SOL    HW131637   3.232   4.104   5.095
10246SOL    HW231638   3.216   4.226   5.203
10247SOL     OW31639   6.853   5.233   5.897
10247SOL    HW131640   6.945   5.271   5.896
10247SOL    HW231641   6.839   5.175   5.817
10248SOL     OW31642   2.968   0.069   2.154
10248SOL    HW131643   3.025   7.014   2.118
10248SOL    HW231644   2.913   0.108   2.080
10249SOL     OW31645   4.917   1.521   5.779
10249SOL    HW131646   4.992   1.587   5.782
10249SOL    HW231647   4.952   1.433   5.746
10250SOL     OW31648   6.132   1.364   0.573
10250SOL    HW131649   6.199   1.427   0.614
10250SOL    HW231650   6.179   1.301   0.512
10251SOL     OW31651   2.504   3.472   6.797
10251SOL    HW131652   2.438   3.405   6.832
10251SOL    HW231653   2.587   3.468   6.852
10252SOL     OW31654   5.812   5.932   0.900
10252SOL    HW131655   5.909   5.946   0.879
10252SOL    HW231656   5.804   5.863   0.972
10253SOL     OW31657   4.713   5.144   0.066
10253SOL    HW131658   4.725   5.046   0.083
10253SOL    HW231659   4.688   5.190   0.152
10254SOL     OW31660   2.293   1.851   5.113
10254SOL    HW131661   2.336   1.764   5.139
10254SOL    HW231662   2.365   1.917   5.088
10255SOL     OW31663   2.507   5.779   2.521
10255SOL    HW131664   2.536   5.782   2.425
10255SOL    HW231665   2.430   5.716   2.531
10256SOL     OW31666   5.382   0.910   0.065
10256SOL    HW131667   5.311   0.886   7.017
10256SOL    HW231668   5.363   0.866   0.152
10257SOL     OW31669   1.224   5.614   5.981
10257SOL    HW131670   1.163   5.535   5.980
10257SOL    HW231671   1.297   5.600   6.047
10258SOL     OW31672   4.014   6.806   3.177
10258SOL    HW131673   3.998   6.722   3.229
10258SOL    HW231674   4.047   6.877   3.239
10259SOL     OW31675   0.056   3.644   4.033
10259SOL    HW131676   0.108   3.660   3.949
10259SOL    HW231677   6.984   3.608   4.009
10260SOL     OW31678   0.825   6.769   2.123
10260SOL    HW131679   0.876   6.774   2.037
10260SOL    HW231680   0.736   6.726   2.106
10261SOL     OW31681   1.191   5.775   2.063
10261SOL    HW131682   1.284   5.802   2.087
10261SOL    HW231683   1.181   5.676   2.071
10262SOL     OW31684   2.783   4.973   4.597
10262SOL    HW131685   2.767   4.898   4.532
10262SOL    HW231686   2.696   5.000   4.639
10263SOL     OW31687   5.734   1.725   5.921
10263SOL    HW131688   5.686   1.721   6.009
10263SOL    HW231689   5.683   1.673   5.853
10264SOL     OW31690   6.316   0.760   6.181
10264SOL    HW131691   6.272   0.682   6.227
10264SOL    HW231692   6.295   0.844   6.231
10265SOL     OW31693   3.710   1.549   2.754
10265SOL    HW131694   3.675   1.636   2.719
10265SOL    HW231695   3.636   1.482   2.755
10266SOL     OW31696   3.158   3.938   6.482
10266SOL    HW131697   3.224   4.004   6.518
10266SOL    HW231698   3.079   3.987   6.446
10267SOL     OW31699   0.265   2.337   6.471
10267SOL    HW131700   0.279   2.238   6.470
10267SOL    HW231701   0.324   2.378   6.541
10268SOL     OW31702   5.160   5.625   1.798
10268SOL    HW131703   5.251   5.637   1.760
10268SOL    HW231704   5.127   5.533   1.777
10269SOL     OW31705   2.394   2.446   6.510
10269SOL    HW131706   2.307   2.423   6.554
10269SOL    HW231707   2.389   2.424   6.413
10270SOL     OW31708   1.825   5.867   0.704
10270SOL    HW131709   1.850   5.844   0.798
10270SOL    HW231710   1.731   5.902   0.702
10271SOL     OW31711   4.136   4.290   1.583
10271SOL    HW131712   4.143   4.210   1.523
10271SOL    HW231713   4.226   4.312   1.620
10272SOL     OW31714   0.608   0.615   4.858
10272SOL    HW131715   0.573   0.532   4.901
10272SOL    HW231716   0.688   0.592   4.803
10273SOL     OW31717   3.842   5.470   4.631
10273SOL    HW131718   3.752   5.511   4.645
10273SOL    HW231719   3.866   5.473   4.535
10274SOL     OW31720   0.816   5.000   5.645
10274SOL    HW131721   0.833   5.098   5.660
10274SOL    HW231722   0.901   4.956   5.617
10275SOL     OW31723   0.626   6.749   3.234
10275SOL    HW131724   0.595   6.765   3.140
10275SOL    HW231725   0.602   6.655   3.261
10276SOL     OW31726   6.956   5.306   5.255
10276SOL    HW131727   6.879   5.243   5.244
10276SOL    HW231728   6.922   5.395   5.287
10277SOL     OW31729   3.032   6.789   4.332
10277SOL    HW131730   3.105   6.804   4.265
10277SOL    HW231731   3.025   6.692   4.353
10278SOL     OW31732   5.598   0.155   6.160
10278SOL    HW131733   5.680   0.185   6.111
10278SOL    HW231734   5.623   0.085   6.226
10279SOL     OW31735   3.199   0.573   4.368
10279SOL    HW131736   3.230   0.481   4.347
10279SOL    HW231737   3.220   0.634   4.291
10280SOL     OW31738   1.623   4.028   0.637
10280SOL    HW131739   1.557   3.969   0.684
10280SOL    HW231740   1.576   4.108   0.602
10281SOL     OW31741   4.981   0.989   3.221
10281SOL    HW131742   5.027   0.939   3.295
10281SOL    HW231743   5.042   0.995   3.142
10282SOL     OW31744   0.976   2.145   3.881
10282SOL    HW131745   0.986   2.193   3.794
10282SOL    HW231746   1.064   2.105   3.907
10283SOL     OW31747   1.037   3.556   0.496
10283SOL    HW131748   0.968   3.488   0.522
10283SOL    HW231749   1.058   3.546   0.398
10284SOL     OW31750   5.460   3.283   5.581
10284SOL    HW131751   5.423   3.325   5.498
10284SOL    HW231752   5.552   3.319   5.599
10285SOL     OW31753   5.116   0.759   0.597
10285SOL    HW131754   5.195   0.725   0.649
10285SOL    HW231755   5.143   0.775   0.502
10286SOL     OW31756   4.214   0.586   3.167
10286SOL    HW131757   4.302   0.555   3.204
10286SOL    HW231758   4.141   0.560   3.230
10287SOL     OW31759   2.040   6.939   1.866
10287SOL    HW131760   1.996   6.852   1.889
10287SOL    HW231761   2.095   6.970   1.944
10288SOL     OW31762   5.939   6.096   3.462
10288SOL    HW131763   5.994   6.134   3.536
10288SOL    HW231764   5.914   6.002   3.484
10289SOL     OW31765   3.195   1.484   1.688
10289SOL    HW131766   3.238   1.566   1.725
10289SOL    HW231767   3.100   1.504   1.663
10290SOL     OW31768   3.910   3.195   3.071
10290SOL    HW131769   3.821   3.207   3.114
10290SOL    HW231770   3.982   3.210   3.138
10291SOL     OW31771   3.407   0.672   4.922
10291SOL    HW131772   3.504   0.652   4.908
10291SOL    HW231773   3.372   0.725   4.845
10292SOL     OW31774   0.606   1.168   4.607
10292SOL    HW131775   0.704   1.162   4.588
10292SOL    HW231776   0.554   1.138   4.526
10293SOL     OW31777   2.416   6.307   3.182
10293SOL    HW131778   2.337   6.262   3.223
10293SOL    HW231779   2.487   6.238   3.163
10294SOL     OW31780   5.338   1.608   3.029
10294SOL    HW131781   5.333   1.689   2.971
10294SOL    HW231782   5.405   1.543   2.991
10295SOL     OW31783   0.601   5.317   6.347
10295SOL    HW131784   0.650   5.264   6.416
10295SOL    HW231785   0.652   5.400   6.326
10296SOL     OW31786   6.460   3.605   6.906
10296SOL    HW131787   6.542   3.563   6.866
10296SOL    HW231788   6.380   3.548   6.886
10297SOL     OW31789   0.898   5.437   4.372
10297SOL    HW131790   0.938   5.389   4.294
10297SOL    HW231791   0.827   5.380   4.414
10298SOL     OW31792   5.295   4.284   3.819
10298SOL    HW131793   5.357   4.307   3.744
10298SOL    HW231794   5.210   4.334   3.808
10299SOL     OW31795   4.323   4.685   3.222
10299SOL    HW131796   4.402   4.654   3.169
10299SOL    HW231797   4.240   4.646   3.183
10300SOL     OW31798   0.908   3.834   2.551
10300SOL    HW131799   0.995   3.787   2.563
10300SOL    HW231800   0.898   3.904   2.622
10301SOL     OW31801   5.949   0.926   2.375
10301SOL    HW131802   5.919   1.021   2.367
10301SOL    HW231803   6.034   0.922   2.428
10302SOL     OW31804   1.550   5.880   2.921
10302SOL    HW131805   1.524   5.839   3.009
10302SOL    HW231806   1.472   5.929   2.883
10303SOL     OW31807   3.990   3.960   1.219
10303SOL    HW131808   3.998   3.861   1.211
10303SOL    HW231809   3.904   3.984   1.262
10304SOL     OW31810   0.026   6.789   2.716
10304SOL    HW131811   6.947   6.768   2.726
10304SOL    HW231812   0.036   6.884   2.684
10305SOL     OW31813   1.481   5.647   0.001
10305SOL    HW131814   1.500   5.568   0.060
10305SOL    HW231815   1.494   5.620   6.924
10306SOL     OW31816   4.003   5.639   0.311
10306SOL    HW131817   4.073   5.573   0.339
10306SOL    HW231818   4.000   5.715   0.376
10307SOL     OW31819   1.662   1.406   6.582
10307SOL    HW131820   1.593   1.334   6.581
10307SOL    HW231821   1.724   1.392   6.659
10308SOL     OW31822   3.188   6.145   3.279
10308SOL    HW131823   3.139   6.073   3.232
10308SOL    HW231824   3.256   6.105   3.341
10309SOL     OW31825   0.143   6.573   2.611
10309SOL    HW131826   0.232   6.558   2.654
10309SOL    HW231827   0.108   6.663   2.636
10310SOL     OW31828   3.702   3.647   2.880
10310SOL    HW131829   3.671   3.555   2.856
10310SOL    HW231830   3.670   3.671   2.972
10311SOL     OW31831   0.524   5.411   0.011
10311SOL    HW131832   0.458   5.475   0.050
10311SOL    HW231833   0.602   5.402   0.072
10312SOL     OW31834   2.599   4.793   0.254
10312SOL    HW131835   2.518   4.778   0.198
10312SOL    HW231836   2.629   4.706   0.294
10313SOL     OW31837   5.072   0.569   2.593
10313SOL    HW131838   5.089   0.514   2.675
10313SOL    HW231839   4.982   0.544   2.555
10314SOL     OW31840   6.176   6.954   0.571
10314SOL    HW131841   6.137   6.865   0.596
10314SOL    HW231842   6.266   6.940   0.529
10315SOL     OW31843   5.982   5.879   4.751
10315SOL    HW131844   6.064   5.936   4.755
10315SOL    HW231845   5.903   5.932   4.783
10316SOL     OW31846   0.412   3.607   3.764
10316SOL    HW131847   0.470   3.535   3.725
10316SOL    HW231848   0.457   3.696   3.754
10317SOL     OW31849   4.283   5.361   6.928
10317SOL    HW131850   4.337   5.325   7.004
10317SOL    HW231851   4.280   5.294   6.853
10318SOL     OW31852   5.918   5.274   1.871
10318SOL    HW131853   5.979   5.353   1.874
10318SOL    HW231854   5.939   5.212   1.946
10319SOL     OW31855   6.399   5.638   3.751
10319SOL    HW131856   6.358   5.696   3.821
10319SOL    HW231857   6.343   5.555   3.740
10320SOL     OW31858   6.505   6.643   1.301
10320SOL    HW131859   6.604   6.650   1.315
10320SOL    HW231860   6.487   6.628   1.204
10321SOL     OW31861   4.747   5.486   4.171
10321SOL    HW131862   4.826   5.547   4.167
10321SOL    HW231863   4.775   5.394   4.142
10322SOL     OW31864   6.325   3.868   0.526
10322SOL    HW131865   6.316   3.769   0.539
10322SOL    HW231866   6.245   3.903   0.478
10323SOL     OW31867   5.221   3.098   5.969
10323SOL    HW131868   5.249   3.129   5.878
10323SOL    HW231869   5.124   3.118   5.983
10324SOL     OW31870   3.338   2.931   3.432
10324SOL    HW131871   3.293   3.020   3.420
10324SOL    HW231872   3.420   2.928   3.376
10325SOL     OW31873   0.485   2.689   2.789
10325SOL    HW131874   0.485   2.680   2.689
10325SOL    HW231875   0.393   2.711   2.821
10326SOL     OW31876   5.406   2.462   0.450
10326SOL    HW131877   5.319   2.444   0.405
10326SOL    HW231878   5.390   2.488   0.545
10327SOL     OW31879   0.167   0.710   3.295
10327SOL    HW131880   0.238   0.781   3.293
10327SOL    HW231881   0.209   0.621   3.277
10328SOL     OW31882   5.637   3.264   2.580
10328SOL    HW131883   5.544   3.299   2.573
10328SOL    HW231884   5.658   3.243   2.676
10329SOL     OW31885   3.230   7.006   2.851
10329SOL    HW131886   3.189   0.071   2.889
10329SOL    HW231887   3.211   7.002   2.753
10330SOL     OW31888   4.166   5.121   1.815
10330SOL    HW131889   4.103   5.094   1.888
10330SOL    HW231890   4.249   5.158   1.856
10331SOL     OW31891   5.373   0.564   3.208
10331SOL    HW131892   5.407   0.619   3.284
10331SOL    HW231893   5.366   0.620   3.126
10332SOL     OW31894   6.845   2.194   6.186
10332SOL    HW131895   6.885   2.127   6.248
10332SOL    HW231896   6.761   2.231   6.226
10333SOL     OW31897   5.839   5.426   4.010
10333SOL    HW131898   5.891   5.366   3.949
10333SOL    HW231899   5.767   5.373   4.055
10334SOL     OW31900   2.001   4.637   4.217
10334SOL    HW131901   1.917   4.678   4.251
10334SOL    HW231902   2.074   4.649   4.285
10335SOL     OW31903   1.697   5.201   1.375
10335SOL    HW131904   1.641   5.284   1.374
10335SOL    HW231905   1.691   5.157   1.285
10336SOL     OW31906   4.099   6.266   2.194
10336SOL    HW131907   4.017   6.304   2.152
10336SOL    HW231908   4.176   6.328   2.180
10337SOL     OW31909   0.825   4.799   4.972
10337SOL    HW131910   0.752   4.731   4.963
10337SOL    HW231911   0.831   4.828   5.067
10338SOL     OW31912   2.873   6.089   2.840
10338SOL    HW131913   2.840   6.022   2.906
10338SOL    HW231914   2.840   6.180   2.865
10339SOL     OW31915   2.697   6.336   1.503
10339SOL    HW131916   2.738   6.254   1.544
10339SOL    HW231917   2.628   6.308   1.437
10340SOL     OW31918   1.646   6.944   0.335
10340SOL    HW131919   1.581   6.977   0.404
10340SOL    HW231920   1.633   6.996   0.251
10341SOL     OW31921   1.614   1.733   2.470
10341SOL    HW131922   1.656   1.824   2.468
10341SOL    HW231923   1.661   1.676   2.537
10342SOL     OW31924   2.692   0.009   4.683
10342SOL    HW131925   2.697   0.108   4.671
10342SOL    HW231926   2.722   6.982   4.600
10343SOL     OW31927   2.750   3.792   6.290
10343SOL    HW131928   2.665   3.798   6.342
10343SOL    HW231929   2.732   3.756   6.199
10344SOL     OW31930   4.132   3.491   4.831
10344SOL    HW131931   4.107   3.401   4.865
10344SOL    HW231932   4.222   3.487   4.788
10345SOL     OW31933   2.336   1.572   6.440
10345SOL    HW131934   2.319   1.662   6.399
10345SOL    HW231935   2.370   1.510   6.369
10346SOL     OW31936   4.964   6.617   0.156
10346SOL    HW131937   4.923   6.707   0.165
10346SOL    HW231938   4.908   6.560   0.095
10347SOL     OW31939   5.711   1.864   1.530
10347SOL    HW131940   5.803   1.898   1.549
10347SOL    HW231941   5.700   1.851   1.431
10348SOL     OW31942   0.248   0.323   5.788
10348SOL    HW131943   0.286   0.297   5.877
10348SOL    HW231944   0.166   0.378   5.802
10349SOL     OW31945   6.687   1.675   1.520
10349SOL    HW131946   6.706   1.760   1.470
10349SOL    HW231947   6.756   1.606   1.496
10350SOL     OW31948   2.587   5.102   4.198
10350SOL    HW131949   2.539   5.062   4.276
10350SOL    HW231950   2.646   5.033   4.156
10351SOL     OW31951   5.922   4.922   5.198
10351SOL    HW131952   5.872   4.989   5.253
10351SOL    HW231953   5.866   4.839   5.188
10352SOL     OW31954   6.000   2.415   0.196
10352SOL    HW131955   6.089   2.455   0.217
10352SOL    HW231956   5.994   2.397   0.098
10353SOL     OW31957   6.593   2.810   3.645
10353SOL    HW131958   6.679   2.825   3.597
10353SOL    HW231959   6.561   2.717   3.627
10354SOL     OW31960   0.489   3.056   0.493
10354SOL    HW131961   0.424   3.132   0.492
10354SOL    HW231962   0.555   3.070   0.566
10355SOL     OW31963   1.265   0.447   0.940
10355SOL    HW131964   1.219   0.472   0.855
10355SOL    HW231965   1.362   0.432   0.923
10356SOL     OW31966   6.634   4.089   6.612
10356SOL    HW131967   6.729   4.090   6.578
10356SOL    HW231968   6.616   4.002   6.658
10357SOL     OW31969   1.069   3.117   5.879
10357SOL    HW131970   1.135   3.183   5.915
10357SOL    HW231971   0.987   3.118   5.936
10358SOL     OW31972   1.081   2.614   2.154
10358SOL    HW131973   1.001   2.625   2.213
10358SOL    HW231974   1.057   2.641   2.061
10359SOL     OW31975   5.939   1.910   2.312
10359SOL    HW131976   5.980   1.911   2.403
10359SOL    HW231977   5.965   1.993   2.263
10360SOL     OW31978   6.020   4.707   2.446
10360SOL    HW131979   5.975   4.628   2.489
10360SOL    HW231980   6.078   4.753   2.514
10361SOL     OW31981   0.629   1.664   1.611
10361SOL    HW131982   0.637   1.647   1.709
10361SOL    HW231983   0.656   1.582   1.561
10362SOL     OW31984   1.088   4.860   2.714
10362SOL    HW131985   1.160   4.867   2.783
10362SOL    HW231986   1.066   4.763   2.699
10363SOL     OW31987   4.969   4.378   0.689
10363SOL    HW131988   5.044   4.376   0.755
10363SOL    HW231989   4.889   4.331   0.727
10364SOL     OW31990   6.061   4.363   2.181
10364SOL    HW131991   5.983   4.415   2.148
10364SOL    HW231992   6.129   4.355   2.108
10365SOL     OW31993   6.139   5.925   0.283
10365SOL    HW131994   6.049   5.967   0.289
10365SOL    HW231995   6.137   5.834   0.324
10366SOL     OW31996   3.050   6.309   3.088
10366SOL    HW131997   3.098   6.267   3.165
10366SOL    HW231998   2.952   6.302   3.102
10367SOL     OW31999   6.246   2.081   0.670
10367SOL    HW132000   6.335   2.101   0.629
10367SOL    HW232001   6.174   2.132   0.622
10368SOL     OW32002   2.149   6.070   1.830
10368SOL    HW132003   2.103   5.993   1.786
10368SOL    HW232004   2.099   6.097   1.912
10369SOL     OW32005   3.657   0.011   5.921
10369SOL    HW132006   3.631   0.101   5.887
10369SOL    HW232007   3.753   0.013   5.950
10370SOL     OW32008   0.332   1.085   4.737
10370SOL    HW132009   0.421   1.130   4.751
10370SOL    HW232010   0.278   1.092   4.821
10371SOL     OW32011   3.043   5.738   3.370
10371SOL    HW132012   2.959   5.760   3.320
10371SOL    HW232013   3.120   5.737   3.306
10372SOL     OW32014   2.635   6.806   1.586
10372SOL    HW132015   2.567   6.807   1.660
10372SOL    HW232016   2.679   6.716   1.583
10373SOL     OW32017   0.075   1.531   5.345
10373SOL    HW132018   0.135   1.590   5.399
10373SOL    HW232019   0.025   1.587   5.279
10374SOL     OW32020   3.380   6.724   4.600
10374SOL    HW132021   3.303   6.694   4.656
10374SOL    HW232022   3.358   6.711   4.503
10375SOL     OW32023   3.372   3.466   0.484
10375SOL    HW132024   3.438   3.525   0.438
10375SOL    HW232025   3.279   3.497   0.463
10376SOL     OW32026   2.264   5.150   2.874
10376SOL    HW132027   2.173   5.143   2.914
10376SOL    HW232028   2.321   5.207   2.933
10377SOL     OW32029   1.242   1.175   2.865
10377SOL    HW132030   1.193   1.119   2.798
10377SOL    HW232031   1.291   1.248   2.817
10378SOL     OW32032   6.938   4.547   5.400
10378SOL    HW132033   6.979   4.520   5.487
10378SOL    HW232034   6.922   4.646   5.400
10379SOL     OW32035   1.808   6.786   4.524
10379SOL    HW132036   1.823   6.828   4.435
10379SOL    HW232037   1.750   6.846   4.580
10380SOL     OW32038   1.373   2.570   4.632
10380SOL    HW132039   1.358   2.472   4.619
10380SOL    HW232040   1.433   2.605   4.559
10381SOL     OW32041   4.447   4.712   1.132
10381SOL    HW132042   4.423   4.674   1.221
10381SOL    HW232043   4.494   4.799   1.143
10382SOL     OW32044   2.897   4.428   1.338
10382SOL    HW132045   2.903   4.503   1.272
10382SOL    HW232046   2.899   4.465   1.430
10383SOL     OW32047   1.977   4.480   0.578
10383SOL    HW132048   2.023   4.525   0.654
10383SOL    HW232049   2.026   4.499   0.493
10384SOL     OW32050   5.482   6.775   1.603
10384SOL    HW132051   5.494   6.786   1.505
10384SOL    HW232052   5.467   6.864   1.646
10385SOL     OW32053   3.680   4.678   6.295
10385SOL    HW132054   3.608   4.685   6.364
10385SOL    HW232055   3.698   4.582   6.275
10386SOL     OW32056   0.074   0.717   6.627
10386SOL    HW132057   0.100   0.679   6.538
10386SOL    HW232058   0.144   0.782   6.658
10387SOL     OW32059   4.852   3.000   2.744
10387SOL    HW132060   4.858   2.960   2.836
10387SOL    HW232061   4.811   2.933   2.682
10388SOL     OW32062   3.019   0.501   5.736
10388SOL    HW132063   3.038   0.451   5.651
10388SOL    HW232064   2.922   0.495   5.758
10389SOL     OW32065   0.603   3.202   0.262
10389SOL    HW132066   0.641   3.282   0.309
10389SOL    HW232067   0.615   3.121   0.320
10390SOL     OW32068   2.925   2.326   0.749
10390SOL    HW132069   2.949   2.399   0.685
10390SOL    HW232070   2.830   2.336   0.777
10391SOL     OW32071   6.812   6.737   4.147
10391SOL    HW132072   6.824   6.775   4.239
10391SOL    HW232073   6.852   6.800   4.080
10392SOL     OW32074   6.808   4.930   4.581
10392SOL    HW132075   6.751   5.007   4.551
10392SOL    HW232076   6.831   4.874   4.503
10393SOL     OW32077   1.758   3.993   3.786
10393SOL    HW132078   1.839   4.028   3.833
10393SOL    HW232079   1.686   3.976   3.853
10394SOL     OW32080   3.131   5.981   3.993
10394SOL    HW132081   3.059   6.049   3.984
10394SOL    HW232082   3.187   5.980   3.910
10395SOL     OW32083   6.617   6.810   0.659
10395SOL    HW132084   6.553   6.734   0.647
10395SOL    HW232085   6.568   6.889   0.695
10396SOL     OW32086   3.079   1.828   4.376
10396SOL    HW132087   3.153   1.813   4.442
10396SOL    HW232088   3.110   1.890   4.304
10397SOL     OW32089   3.076   2.112   2.244
10397SOL    HW132090   3.169   2.141   2.217
10397SOL    HW232091   3.009   2.169   2.196
10398SOL     OW32092   0.209   3.370   1.572
10398SOL    HW132093   0.141   3.335   1.507
10398SOL    HW232094   0.299   3.373   1.527
10399SOL     OW32095   5.846   2.366   2.277
10399SOL    HW132096   5.868   2.457   2.242
10399SOL    HW232097   5.748   2.361   2.299
10400SOL     OW32098   4.220   0.104   0.259
10400SOL    HW132099   4.270   0.051   0.328
10400SOL    HW232100   4.122   0.086   0.268
10401SOL     OW32101   6.822   0.837   4.011
10401SOL    HW132102   6.843   0.923   3.963
10401SOL    HW232103   6.789   0.857   4.103
10402SOL     OW32104   5.952   2.699   4.750
10402SOL    HW132105   5.853   2.686   4.760
10402SOL    HW232106   5.972   2.728   4.657
10403SOL     OW32107   3.315   0.399   3.112
10403SOL    HW132108   3.234   0.454   3.096
10403SOL    HW232109   3.356   0.374   3.024
10404SOL     OW32110   6.052   0.027   5.675
10404SOL    HW132111   6.053   7.000   5.587
10404SOL    HW232112   6.119   0.101   5.675
10405SOL     OW32113   0.928   1.883   5.821
10405SOL    HW132114   0.865   1.860   5.747
10405SOL    HW232115   1.016   1.838   5.806
10406SOL     OW32116   3.225   5.034   2.014
10406SOL    HW132117   3.166   4.956   2.034
10406SOL    HW232118   3.169   5.110   1.979
10407SOL     OW32119   3.415   5.960   5.401
10407SOL    HW132120   3.431   6.019   5.481
10407SOL    HW232121   3.329   5.986   5.358
10408SOL     OW32122   5.109   1.555   0.352
10408SOL    HW132123   5.141   1.647   0.373
10408SOL    HW232124   5.156   1.520   0.271
10409SOL     OW32125   0.013   4.839   0.501
10409SOL    HW132126   0.110   4.844   0.478
10409SOL    HW232127   7.004   4.924   0.548
10410SOL     OW32128   5.441   1.701   6.911
10410SOL    HW132129   5.451   1.710   7.010
10410SOL    HW232130   5.457   1.606   6.884
10411SOL     OW32131   3.213   6.269   2.881
10411SOL    HW132132   3.295   6.273   2.938
10411SOL    HW232133   3.132   6.274   2.939
10412SOL     OW32134   6.237   0.877   0.621
10412SOL    HW132135   6.184   0.793   0.629
10412SOL    HW232136   6.290   0.890   0.705
10413SOL     OW32137   0.331   1.709   1.166
10413SOL    HW132138   0.337   1.624   1.218
10413SOL    HW232139   0.240   1.749   1.179
10414SOL     OW32140   4.473   4.142   5.756
10414SOL    HW132141   4.455   4.231   5.798
10414SOL    HW232142   4.464   4.070   5.825
10415SOL     OW32143   0.142   4.902   5.732
10415SOL    HW132144   0.101   4.957   5.804
10415SOL    HW232145   0.088   4.818   5.719
10416SOL     OW32146   6.911   1.424   3.009
10416SOL    HW132147   6.816   1.395   3.015
10416SOL    HW232148   6.925   1.478   2.926
10417SOL     OW32149   4.035   5.206   4.187
10417SOL    HW132150   4.004   5.116   4.156
10417SOL    HW232151   4.092   5.195   4.268
10418SOL     OW32152   0.282   4.606   5.530
10418SOL    HW132153   0.236   4.695   5.531
10418SOL    HW232154   0.380   4.619   5.548
10419SOL     OW32155   1.253   0.475   0.015
10419SOL    HW132156   1.244   0.475   0.115
10419SOL    HW232157   1.163   0.468   6.992
10420SOL     OW32158   6.872   3.290   2.393
10420SOL    HW132159   6.841   3.253   2.481
10420SOL    HW232160   6.867   3.219   2.323
10421SOL     OW32161   0.788   1.776   3.348
10421SOL    HW132162   0.738   1.714   3.287
10421SOL    HW232163   0.842   1.840   3.292
10422SOL     OW32164   6.355   2.321   5.556
10422SOL    HW132165   6.428   2.385   5.582
10422SOL    HW232166   6.395   2.231   5.538
10423SOL     OW32167   4.981   5.055   4.667
10423SOL    HW132168   4.893   5.024   4.703
10423SOL    HW232169   4.990   5.024   4.572
10424SOL     OW32170   5.599   2.739   0.545
10424SOL    HW132171   5.680   2.798   0.536
10424SOL    HW232172   5.523   2.779   0.495
10425SOL     OW32173   2.112   6.808   2.146
10425SOL    HW132174   2.028   6.765   2.112
10425SOL    HW232175   2.089   6.880   2.211
10426SOL     OW32176   6.720   3.612   0.622
10426SOL    HW132177   6.624   3.594   0.598
10426SOL    HW232178   6.774   3.531   0.602
10427SOL     OW32179   4.339   1.435   0.795
10427SOL    HW132180   4.266   1.496   0.765
10427SOL    HW232181   4.302   1.342   0.805
10428SOL     OW32182   3.324   1.806   4.860
10428SOL    HW132183   3.402   1.857   4.895
10428SOL    HW232184   3.239   1.847   4.894
10429SOL     OW32185   0.108   5.640   1.309
10429SOL    HW132186   0.099   5.697   1.228
10429SOL    HW232187   0.038   5.665   1.376
10430SOL     OW32188   4.181   0.030   3.825
10430SOL    HW132189   4.103   0.001   3.880
10430SOL    HW232190   4.235   0.096   3.877
10431SOL     OW32191   3.175   6.862   5.153
10431SOL    HW132192   3.269   6.838   5.177
10431SOL    HW232193   3.140   6.930   5.218
10432SOL     OW32194   6.738   0.898   4.262
10432SOL    HW132195   6.638   0.897   4.258
10432SOL    HW232196   6.767   0.920   4.355
10433SOL     OW32197   1.303   6.204   1.476
10433SOL    HW132198   1.323   6.169   1.384
10433SOL    HW232199   1.242   6.141   1.524
10434SOL     OW32200   3.645   6.599   3.034
10434SOL    HW132201   3.599   6.650   2.961
10434SOL    HW232202   3.584   6.594   3.113
10435SOL     OW32203   6.260   0.688   4.682
10435SOL    HW132204   6.321   0.619   4.722
10435SOL    HW232205   6.261   0.770   4.739
10436SOL     OW32206   0.963   5.090   5.105
10436SOL    HW132207   0.884   5.138   5.142
10436SOL    HW232208   0.985   5.011   5.163
10437SOL     OW32209   6.493   5.163   5.225
10437SOL    HW132210   6.578   5.115   5.245
10437SOL    HW232211   6.505   5.261   5.241
10438SOL     OW32212   5.182   6.753   0.258
10438SOL    HW132213   5.203   6.675   0.316
10438SOL    HW232214   5.114   6.726   0.190
10439SOL     OW32215   3.392   1.493   6.011
10439SOL    HW132216   3.298   1.495   5.976
10439SOL    HW232217   3.446   1.427   5.959
10440SOL     OW32218   0.403   5.892   0.596
10440SOL    HW132219   0.361   5.983   0.588
10440SOL    HW232220   0.406   5.865   0.692
10441SOL     OW32221   4.760   1.591   6.725
10441SOL    HW132222   4.789   1.606   6.819
10441SOL    HW232223   4.696   1.663   6.698
10442SOL     OW32224   3.107   5.316   5.216
10442SOL    HW132225   3.161   5.261   5.280
10442SOL    HW232226   3.139   5.411   5.217
10443SOL     OW32227   4.863   3.611   4.521
10443SOL    HW132228   4.848   3.540   4.452
10443SOL    HW232229   4.950   3.596   4.567
10444SOL     OW32230   4.053   5.250   4.665
10444SOL    HW132231   3.999   5.332   4.681
10444SOL    HW232232   4.020   5.176   4.723
10445SOL     OW32233   0.803   4.593   4.346
10445SOL    HW132234   0.827   4.661   4.416
10445SOL    HW232235   0.737   4.633   4.282
10446SOL     OW32236   1.016   3.846   6.209
10446SOL    HW132237   0.916   3.838   6.214
10446SOL    HW232238   1.048   3.816   6.119
10447SOL     OW32239   0.386   1.303   1.862
10447SOL    HW132240   0.463   1.300   1.797
10447SOL    HW232241   0.369   1.397   1.889
10448SOL     OW32242   4.069   3.256   0.981
10448SOL    HW132243   4.100   3.240   1.074
10448SOL    HW232244   4.146   3.242   0.918
10449SOL     OW32245   2.804   5.259   4.185
10449SOL    HW132246   2.866   5.251   4.263
10449SOL    HW232247   2.723   5.202   4.201
10450SOL     OW32248   0.934   2.727   6.836
10450SOL    HW132249   0.945   2.821   6.870
10450SOL    HW232250   0.963   2.662   6.906
10451SOL     OW32251   2.893   4.969   2.799
10451SOL    HW132252   2.829   5.020   2.856
10451SOL    HW232253   2.845   4.893   2.755
10452SOL     OW32254   6.806   3.643   3.620
10452SOL    HW132255   6.795   3.720   3.557
10452SOL    HW232256   6.898   3.605   3.611
10453SOL     OW32257   5.643   6.086   1.819
10453SOL    HW132258   5.558   6.054   1.777
10453SOL    HW232259   5.631   6.180   1.849
10454SOL     OW32260   5.400   2.743   1.986
10454SOL    HW132261   5.391   2.683   2.066
10454SOL    HW232262   5.492   2.782   1.985
10455SOL     OW32263   0.439   5.304   3.390
10455SOL    HW132264   0.488   5.237   3.446
10455SOL    HW232265   0.346   5.272   3.371
10456SOL     OW32266   2.899   6.174   0.958
10456SOL    HW132267   2.917   6.075   0.965
10456SOL    HW232268   2.967   6.224   1.011
10457SOL     OW32269   3.454   3.183   4.160
10457SOL    HW132270   3.423   3.106   4.216
10457SOL    HW232271   3.375   3.234   4.125
10458SOL     OW32272   6.743   6.794   7.007
10458SOL    HW132273   6.837   6.800   0.022
10458SOL    HW232274   6.742   6.751   6.917
10459SOL     OW32275   6.112   5.500   2.733
10459SOL    HW132276   6.073   5.551   2.811
10459SOL    HW232277   6.043   5.489   2.663
10460SOL     OW32278   2.086   5.904   1.377
10460SOL    HW132279   2.165   5.844   1.386
10460SOL    HW232280   2.056   5.907   1.282
10461SOL     OW32281   1.552   6.431   6.027
10461SOL    HW132282   1.639   6.474   6.003
10461SOL    HW232283   1.503   6.489   6.092
10462SOL     OW32284   6.056   1.040   1.589
10462SOL    HW132285   6.051   0.940   1.594
10462SOL    HW232286   5.998   1.080   1.659
10463SOL     OW32287   3.069   3.903   5.859
10463SOL    HW132288   2.970   3.895   5.850
10463SOL    HW232289   3.092   3.981   5.916
10464SOL     OW32290   4.472   6.992   0.957
10464SOL    HW132291   4.472   0.069   0.988
10464SOL    HW232292   4.392   6.945   0.996
10465SOL     OW32293   0.114   0.157   6.356
10465SOL    HW132294   0.171   0.235   6.330
10465SOL    HW232295   0.022   0.169   6.318
10466SOL     OW32296   4.815   5.733   5.372
10466SOL    HW132297   4.748   5.699   5.307
10466SOL    HW232298   4.891   5.775   5.323
10467SOL     OW32299   1.589   1.784   5.476
10467SOL    HW132300   1.526   1.710   5.451
10467SOL    HW232301   1.560   1.823   5.564
10468SOL     OW32302   3.695   6.288   4.204
10468SOL    HW132303   3.792   6.311   4.194
10468SOL    HW232304   3.686   6.194   4.234
10469SOL     OW32305   2.444   3.735   1.027
10469SOL    HW132306   2.505   3.784   1.090
10469SOL    HW232307   2.372   3.690   1.080
10470SOL     OW32308   2.372   1.993   4.034
10470SOL    HW132309   2.385   1.968   3.938
10470SOL    HW232310   2.403   2.086   4.049
10471SOL     OW32311   2.534   3.858   1.623
10471SOL    HW132312   2.453   3.810   1.588
10471SOL    HW232313   2.606   3.791   1.645
10472SOL     OW32314   3.964   0.053   1.851
10472SOL    HW132315   3.917   0.010   1.774
10472SOL    HW232316   4.061   0.031   1.848
10473SOL     OW32317   5.832   6.811   0.691
10473SOL    HW132318   5.861   6.782   0.782
10473SOL    HW232319   5.797   6.905   0.696
10474SOL     OW32320   4.526   0.478   4.193
10474SOL    HW132321   4.553   0.444   4.283
10474SOL    HW232322   4.460   0.553   4.205
10475SOL     OW32323   3.984   5.832   1.068
10475SOL    HW132324   3.975   5.750   1.012
10475SOL    HW232325   4.070   5.829   1.119
10476SOL     OW32326   6.577   5.413   0.248
10476SOL    HW132327   6.539   5.321   0.259
10476SOL    HW232328   6.640   5.413   0.170
10477SOL     OW32329   5.364   3.300   4.818
10477SOL    HW132330   5.321   3.241   4.749
10477SOL    HW232331   5.461   3.312   4.796
10478SOL     OW32332   1.048   6.837   6.751
10478SOL    HW132333   0.963   6.830   6.698
10478SOL    HW232334   1.042   6.780   6.832
10479SOL     OW32335   1.568   2.952   2.199
10479SOL    HW132336   1.507   2.889   2.152
10479SOL    HW232337   1.571   3.039   2.150
10480SOL     OW32338   5.376   6.569   2.015
10480SOL    HW132339   5.429   6.653   2.030
10480SOL    HW232340   5.430   6.505   1.962
10481SOL     OW32341   2.446   1.000   4.853
10481SOL    HW132342   2.442   1.091   4.895
10481SOL    HW232343   2.493   1.005   4.766
10482SOL     OW32344   1.333   6.458   4.930
10482SOL    HW132345   1.295   6.403   5.004
10482SOL    HW232346   1.269   6.531   4.906
10483SOL     OW32347   6.140   5.710   0.485
10483SOL    HW132348   6.097   5.620   0.491
10483SOL    HW232349   6.239   5.699   0.482
10484SOL     OW32350   6.838   0.905   1.353
10484SOL    HW132351   6.933   0.876   1.342
10484SOL    HW232352   6.805   0.941   1.265
10485SOL     OW32353   3.125   3.860   2.911
10485SOL    HW132354   3.156   3.786   2.851
10485SOL    HW232355   3.116   3.944   2.858
10486SOL     OW32356   6.980   0.170   5.909
10486SOL    HW132357   0.058   0.191   5.895
10486SOL    HW232358   6.972   0.095   5.975
10487SOL     OW32359   4.787   1.465   1.603
10487SOL    HW132360   4.771   1.562   1.580
10487SOL    HW232361   4.795   1.413   1.518
10488SOL     OW32362   0.508   2.459   5.454
10488SOL    HW132363   0.540   2.367   5.477
10488SOL    HW232364   0.586   2.518   5.435
10489SOL     OW32365   6.283   5.082   3.954
10489SOL    HW132366   6.291   5.182   3.958
10489SOL    HW232367   6.191   5.055   3.982
10490SOL     OW32368   5.897   0.213   0.741
10490SOL    HW132369   5.995   0.198   0.726
10490SOL    HW232370   5.849   0.215   0.653
10491SOL     OW32371   1.599   3.272   6.841
10491SOL    HW132372   1.625   3.364   6.812
10491SOL    HW232373   1.625   3.205   6.772
10492SOL     OW32374   4.968   0.138   0.513
10492SOL    HW132375   4.982   0.067   0.581
10492SOL    HW232376   5.051   0.193   0.504
10493SOL     OW32377   4.244   5.419   1.240
10493SOL    HW132378   4.173   5.350   1.249
10493SOL    HW232379   4.248   5.451   1.145
10494SOL     OW32380   0.863   4.950   6.599
10494SOL    HW132381   0.841   4.904   6.513
10494SOL    HW232382   0.829   4.895   6.675
10495SOL     OW32383   0.113   6.456   5.658
10495SOL    HW132384   0.114   6.375   5.599
10495SOL    HW232385   0.066   6.530   5.610
10496SOL     OW32386   6.733   3.662   5.393
10496SOL    HW132387   6.759   3.728   5.464
10496SOL    HW232388   6.647   3.690   5.351
10497SOL     OW32389   2.542   6.901   2.264
10497SOL    HW132390   2.618   6.958   2.297
10497SOL    HW232391   2.553   6.808   2.300
10498SOL     OW32392   5.027   5.625   0.664
10498SOL    HW132393   5.044   5.696   0.595
10498SOL    HW232394   5.071   5.652   0.750
10499SOL     OW32395   6.100   5.732   1.698
10499SOL    HW132396   6.109   5.808   1.634
10499SOL    HW232397   6.191   5.703   1.728
10500SOL     OW32398   5.311   4.585   5.044
10500SOL    HW132399   5.367   4.521   4.992
10500SOL    HW232400   5.315   4.675   5.003
10501SOL     OW32401   2.292   5.742   2.142
10501SOL    HW132402   2.316   5.734   2.045
10501SOL    HW232403   2.193   5.737   2.153
10502SOL     OW32404   2.996   3.520   2.620
10502SOL    HW132405   2.946   3.600   2.588
10502SOL    HW232406   2.996   3.450   2.548
10503SOL     OW32407   6.880   3.809   6.295
10503SOL    HW132408   6.953   3.815   6.363
10503SOL    HW232409   6.840   3.717   6.297
10504SOL     OW32410   1.967   3.299   6.325
10504SOL    HW132411   2.064   3.319   6.314
10504SOL    HW232412   1.938   3.324   6.417
10505SOL     OW32413   5.782   6.702   1.940
10505SOL    HW132414   5.825   6.674   1.854
10505SOL    HW232415   5.852   6.737   2.002
10506SOL     OW32416   0.455   3.149   6.599
10506SOL    HW132417   0.395   3.215   6.555
10506SOL    HW232418   0.442   3.153   6.698
10507SOL     OW32419   2.402   4.955   6.975
10507SOL    HW132420   2.458   4.881   6.939
10507SOL    HW232421   2.378   4.935   0.052
10508SOL     OW32422   1.120   5.150   5.550
10508SOL    HW132423   1.101   5.210   5.472
10508SOL    HW232424   1.217   5.127   5.552
10509SOL     OW32425   4.884   3.361   4.036
10509SOL    HW132426   4.906   3.451   4.001
10509SOL    HW232427   4.858   3.367   4.133
10510SOL     OW32428   4.914   6.005   5.170
10510SOL    HW132429   4.900   5.955   5.084
10510SOL    HW232430   4.826   6.016   5.216
10511SOL     OW32431   2.917   1.612   1.980
10511SOL    HW132432   2.970   1.694   2.004
10511SOL    HW232433   2.976   1.532   1.985
10512SOL     OW32434   4.307   0.473   5.806
10512SOL    HW132435   4.342   0.445   5.717
10512SOL    HW232436   4.360   0.551   5.840
10513SOL     OW32437   5.365   3.133   2.230
10513SOL    HW132438   5.300   3.187   2.285
10513SOL    HW232439   5.331   3.126   2.136
10514SOL     OW32440   1.334   2.791   1.621
10514SOL    HW132441   1.277   2.720   1.580
10514SOL    HW232442   1.359   2.764   1.715
10515SOL     OW32443   2.047   3.280   5.002
10515SOL    HW132444   2.060   3.376   4.978
10515SOL    HW232445   1.954   3.252   4.979
10516SOL     OW32446   3.415   2.704   6.993
10516SOL    HW132447   3.319   2.676   6.985
10516SOL    HW232448   3.467   2.632   0.020
10517SOL     OW32449   1.130   2.860   3.507
10517SOL    HW132450   1.149   2.904   3.419
10517SOL    HW232451   1.216   2.845   3.556
10518SOL     OW32452   0.906   5.299   2.243
10518SOL    HW132453   0.987   5.244   2.224
10518SOL    HW232454   0.841   5.245   2.297
10519SOL     OW32455   2.270   6.298   1.005
10519SOL    HW132456   2.206   6.337   0.940
10519SOL    HW232457   2.339   6.244   0.956
10520SOL     OW32458   6.558   1.100   6.412
10520SOL    HW132459   6.514   1.178   6.457
10520SOL    HW232460   6.524   1.015   6.452
10521SOL     OW32461   6.303   3.129   1.640
10521SOL    HW132462   6.379   3.175   1.686
10521SOL    HW232463   6.280   3.046   1.690
10522SOL     OW32464   5.849   2.454   2.885
10522SOL    HW132465   5.791   2.535   2.896
10522SOL    HW232466   5.793   2.372   2.883
10523SOL     OW32467   0.599   4.083   3.986
10523SOL    HW132468   0.594   4.152   4.058
10523SOL    HW232469   0.695   4.061   3.966
10524SOL     OW32470   6.635   5.664   4.131
10524SOL    HW132471   6.560   5.620   4.181
10524SOL    HW232472   6.712   5.600   4.125
10525SOL     OW32473   4.379   0.961   4.286
10525SOL    HW132474   4.340   1.054   4.284
10525SOL    HW232475   4.437   0.951   4.366
10526SOL     OW32476   0.331   5.663   0.439
10526SOL    HW132477   0.327   5.741   0.502
10526SOL    HW232478   0.396   5.596   0.474
10527SOL     OW32479   0.860   1.427   4.831
10527SOL    HW132480   0.829   1.508   4.781
10527SOL    HW232481   0.904   1.363   4.767
10528SOL     OW32482   0.531   4.987   6.827
10528SOL    HW132483   0.555   5.084   6.816
10528SOL    HW232484   0.437   4.973   6.797
10529SOL     OW32485   1.892   6.506   6.021
10529SOL    HW132486   1.895   6.604   6.042
10529SOL    HW232487   1.859   6.456   6.101
10530SOL     OW32488   0.928   0.199   6.813
10530SOL    HW132489   0.995   0.195   6.739
10530SOL    HW232490   0.955   0.137   6.886
10531SOL     OW32491   3.010   2.500   5.404
10531SOL    HW132492   3.074   2.518   5.329
10531SOL    HW232493   2.922   2.542   5.384
10532SOL     OW32494   5.782   6.382   6.553
10532SOL    HW132495   5.727   6.407   6.474
10532SOL    HW232496   5.877   6.372   6.526
10533SOL     OW32497   3.530   5.569   4.019
10533SOL    HW132498   3.625   5.580   4.048
10533SOL    HW232499   3.488   5.660   4.011
10534SOL     OW32500   0.694   6.029   2.640
10534SOL    HW132501   0.604   6.001   2.674
10534SOL    HW232502   0.717   6.119   2.676
10535SOL     OW32503   2.586   1.319   2.405
10535SOL    HW132504   2.543   1.396   2.359
10535SOL    HW232505   2.617   1.346   2.496
10536SOL     OW32506   4.697   1.307   4.303
10536SOL    HW132507   4.734   1.286   4.212
10536SOL    HW232508   4.687   1.223   4.355
10537SOL     OW32509   4.908   6.961   3.139
10537SOL    HW132510   4.899   0.038   3.168
10537SOL    HW232511   4.935   6.904   3.217
10538SOL     OW32512   6.536   3.185   2.458
10538SOL    HW132513   6.502   3.244   2.385
10538SOL    HW232514   6.461   3.129   2.493
10539SOL     OW32515   5.905   6.322   2.868
10539SOL    HW132516   5.805   6.320   2.858
10539SOL    HW232517   5.943   6.233   2.843
10540SOL     OW32518   2.791   3.952   6.588
10540SOL    HW132519   2.875   3.933   6.536
10540SOL    HW232520   2.712   3.939   6.528
10541SOL     OW32521   3.002   3.112   5.186
10541SOL    HW132522   3.027   3.033   5.243
10541SOL    HW232523   3.024   3.093   5.091
10542SOL     OW32524   6.291   6.949   4.508
10542SOL    HW132525   6.235   6.882   4.459
10542SOL    HW232526   6.303   0.012   4.452
10543SOL     OW32527   6.949   2.897   5.631
10543SOL    HW132528   6.909   2.834   5.565
10543SOL    HW232529   6.996   2.971   5.582
10544SOL     OW32530   1.111   1.400   3.500
10544SOL    HW132531   1.031   1.353   3.461
10544SOL    HW232532   1.141   1.472   3.437
10545SOL     OW32533   2.422   2.082   2.924
10545SOL    HW132534   2.442   2.180   2.931
10545SOL    HW232535   2.332   2.064   2.962
10546SOL     OW32536   3.093   6.307   1.117
10546SOL    HW132537   3.184   6.334   1.148
10546SOL    HW232538   3.038   6.280   1.196
10547SOL     OW32539   4.438   6.995   5.131
10547SOL    HW132540   4.422   6.970   5.227
10547SOL    HW232541   4.535   7.014   5.118
10548SOL     OW32542   0.917   4.859   4.461
10548SOL    HW132543   0.992   4.797   4.485
10548SOL    HW232544   0.854   4.866   4.538
10549SOL     OW32545   0.255   1.183   0.979
10549SOL    HW132546   0.284   1.268   0.934
10549SOL    HW232547   0.230   1.116   0.909
10550SOL     OW32548   3.863   5.924   3.214
10550SOL    HW132549   3.808   5.987   3.159
10550SOL    HW232550   3.949   5.907   3.168
10551SOL     OW32551   2.771   2.128   5.811
10551SOL    HW132552   2.743   2.033   5.823
10551SOL    HW232553   2.870   2.133   5.805
10552SOL     OW32554   3.617   0.906   4.800
10552SOL    HW132555   3.663   0.974   4.857
10552SOL    HW232556   3.659   0.817   4.815
10553SOL     OW32557   0.630   5.339   0.754
10553SOL    HW132558   0.604   5.242   0.750
10553SOL    HW232559   0.717   5.347   0.804
10554SOL     OW32560   6.472   5.115   2.565
10554SOL    HW132561   6.521   5.067   2.637
10554SOL    HW232562   6.427   5.195   2.604
10555SOL     OW32563   3.488   2.172   0.485
10555SOL    HW132564   3.569   2.231   0.487
10555SOL    HW232565   3.506   2.090   0.539
10556SOL     OW32566   1.698   1.639   3.138
10556SOL    HW132567   1.703   1.662   3.041
10556SOL    HW232568   1.788   1.607   3.169
10557SOL     OW32569   2.031   3.660   3.892
10557SOL    HW132570   2.050   3.753   3.859
10557SOL    HW232571   2.022   3.598   3.815
10558SOL     OW32572   2.757   5.460   5.031
10558SOL    HW132573   2.741   5.401   5.110
10558SOL    HW232574   2.766   5.405   4.948
10559SOL     OW32575   3.311   0.194   7.003
10559SOL    HW132576   3.335   0.163   0.077
10559SOL    HW232577   3.292   0.292   7.004
10560SOL     OW32578   4.721   6.508   1.364
10560SOL    HW132579   4.796   6.487   1.426
10560SOL    HW232580   4.717   6.606   1.348
10561SOL     OW32581   5.676   4.150   1.139
10561SOL    HW132582   5.643   4.221   1.077
10561SOL    HW232583   5.753   4.102   1.098
10562SOL     OW32584   3.057   6.682   1.454
10562SOL    HW132585   2.986   6.631   1.502
10562SOL    HW232586   3.017   6.763   1.412
10563SOL     OW32587   0.536   7.016   0.540
10563SOL    HW132588   0.510   6.920   0.526
10563SOL    HW232589   0.510   0.026   0.632
10564SOL     OW32590   6.406   5.532   4.221
10564SOL    HW132591   6.409   5.453   4.160
10564SOL    HW232592   6.379   5.502   4.313
10565SOL     OW32593   6.503   6.736   5.529
10565SOL    HW132594   6.445   6.709   5.452
10565SOL    HW232595   6.465   6.819   5.570
10566SOL     OW32596   2.936   2.471   0.232
10566SOL    HW132597   2.954   2.569   0.223
10566SOL    HW232598   2.837   2.456   0.241
10567SOL     OW32599   1.837   2.599   6.147
10567SOL    HW132600   1.797   2.592   6.056
10567SOL    HW232601   1.936   2.603   6.141
10568SOL     OW32602   5.290   2.837   6.081
10568SOL    HW132603   5.259   2.845   6.175
10568SOL    HW232604   5.272   2.923   6.032
10569SOL     OW32605   5.098   0.202   1.923
10569SOL    HW132606   5.095   0.290   1.970
10569SOL    HW232607   5.070   0.129   1.985
10570SOL     OW32608   0.672   5.120   4.660
10570SOL    HW132609   0.754   5.075   4.697
10570SOL    HW232610   0.633   5.064   4.587
10571SOL     OW32611   6.959   4.717   5.720
10571SOL    HW132612   6.861   4.728   5.734
10571SOL    HW232613   6.985   4.622   5.739
10572SOL     OW32614   6.587   4.487   1.335
10572SOL    HW132615   6.523   4.563   1.343
10572SOL    HW232616   6.656   4.508   1.265
10573SOL     OW32617   6.134   0.673   3.837
10573SOL    HW132618   6.124   0.630   3.927
10573SOL    HW232619   6.045   0.710   3.808
10574SOL     OW32620   0.059   1.150   3.274
10574SOL    HW132621   0.117   1.101   3.209
10574SOL    HW232622   6.982   1.126   3.259
10575SOL     OW32623   6.270   1.132   2.183
10575SOL    HW132624   6.208   1.195   2.135
10575SOL    HW232625   6.266   1.149   2.281
10576SOL     OW32626   2.428   4.793   3.286
10576SOL    HW132627   2.435   4.807   3.187
10576SOL    HW232628   2.337   4.820   3.317
10577SOL     OW32629   3.902   6.034   0.861
10577SOL    HW132630   3.860   6.034   0.770
10577SOL    HW232631   3.922   5.940   0.888
10578SOL     OW32632   6.484   2.028   4.082
10578SOL    HW132633   6.524   1.994   3.997
10578SOL    HW232634   6.538   2.105   4.116
10579SOL     OW32635   2.737   2.814   1.207
10579SOL    HW132636   2.660   2.781   1.261
10579SOL    HW232637   2.729   2.782   1.113
10580SOL     OW32638   6.471   6.691   6.381
10580SOL    HW132639   6.434   6.601   6.360
10580SOL    HW232640   6.570   6.691   6.365
10581SOL     OW32641   5.341   6.964   3.619
10581SOL    HW132642   5.355   6.866   3.631
10581SOL    HW232643   5.375   7.012   3.700
10582SOL     OW32644   5.585   5.017   6.735
10582SOL    HW132645   5.643   5.097   6.754
10582SOL    HW232646   5.494   5.048   6.709
10583SOL     OW32647   2.866   0.220   3.695
10583SOL    HW132648   2.942   0.256   3.641
10583SOL    HW232649   2.847   0.283   3.771
10584SOL     OW32650   6.819   0.293   5.456
10584SOL    HW132651   6.881   0.235   5.404
10584SOL    HW232652   6.870   0.343   5.526
10585SOL     OW32653   0.548   1.802   5.960
10585SOL    HW132654   0.559   1.797   5.860
10585SOL    HW232655   0.567   1.713   6.000
10586SOL     OW32656   5.131   4.518   5.646
10586SOL    HW132657   5.148   4.422   5.626
10586SOL    HW232658   5.047   4.548   5.601
10587SOL     OW32659   0.886   5.568   5.698
10587SOL    HW132660   0.971   5.608   5.733
10587SOL    HW232661   0.881   5.472   5.727
10588SOL     OW32662   1.098   3.496   4.155
10588SOL    HW132663   1.172   3.478   4.220
10588SOL    HW232664   1.011   3.470   4.196
10589SOL     OW32665   5.075   6.468   4.075
10589SOL    HW132666   5.058   6.485   4.173
10589SOL    HW232667   5.044   6.376   4.052
10590SOL     OW32668   0.685   5.750   1.677
10590SOL    HW132669   0.588   5.764   1.693
10590SOL    HW232670   0.699   5.661   1.633
10591SOL     OW32671   0.973   1.596   1.054
10591SOL    HW132672   0.905   1.670   1.051
10591SOL    HW232673   1.064   1.635   1.066
10592SOL     OW32674   5.943   2.106   5.317
10592SOL    HW132675   5.949   2.054   5.402
10592SOL    HW232676   5.917   2.201   5.338
10593SOL     OW32677   2.626   6.877   1.290
10593SOL    HW132678   2.581   6.807   1.234
10593SOL    HW232679   2.621   6.851   1.386
10594SOL     OW32680   3.956   0.454   3.229
10594SOL    HW132681   4.024   0.390   3.264
10594SOL    HW232682   3.967   0.464   3.130
10595SOL     OW32683   5.980   0.746   0.570
10595SOL    HW132684   5.942   0.653   0.572
10595SOL    HW232685   5.987   0.781   0.664
10596SOL     OW32686   4.349   1.727   6.690
10596SOL    HW132687   4.365   1.745   6.787
10596SOL    HW232688   4.334   1.629   6.676
10597SOL     OW32689   2.346   0.349   6.240
10597SOL    HW132690   2.378   0.328   6.148
10597SOL    HW232691   2.424   0.357   6.302
10598SOL     OW32692   2.742   1.665   5.963
10598SOL    HW132693   2.816   1.609   6.000
10598SOL    HW232694   2.763   1.690   5.868
10599SOL     OW32695   6.712   4.011   6.332
10599SOL    HW132696   6.774   3.951   6.281
10599SOL    HW232697   6.627   4.021   6.282
10600SOL     OW32698   2.621   1.951   1.944
10600SOL    HW132699   2.659   1.923   2.032
10600SOL    HW232700   2.642   2.047   1.928
10601SOL     OW32701   0.089   6.704   6.847
10601SOL    HW132702   0.060   6.665   6.759
10601SOL    HW232703   0.188   6.716   6.848
10602SOL     OW32704   0.120   0.030   0.078
10602SOL    HW132705   0.075   0.119   0.079
10602SOL    HW232706   0.207   0.037   0.128
10603SOL     OW32707   4.373   6.634   1.941
10603SOL    HW132708   4.324   6.696   1.880
10603SOL    HW232709   4.454   6.599   1.894
10604SOL     OW32710   0.602   6.742   5.138
10604SOL    HW132711   0.580   6.824   5.192
10604SOL    HW232712   0.639   6.770   5.049
10605SOL     OW32713   2.365   1.189   0.684
10605SOL    HW132714   2.273   1.229   0.683
10605SOL    HW232715   2.371   1.116   0.616
10606SOL     OW32716   6.235   1.152   1.421
10606SOL    HW132717   6.291   1.077   1.386
10606SOL    HW232718   6.181   1.119   1.499
10607SOL     OW32719   4.477   4.240   6.089
10607SOL    HW132720   4.538   4.255   6.166
10607SOL    HW232721   4.393   4.195   6.121
10608SOL     OW32722   6.298   2.948   3.030
10608SOL    HW132723   6.247   2.892   2.965
10608SOL    HW232724   6.388   2.970   2.991
10609SOL     OW32725   3.605   0.484   0.165
10609SOL    HW132726   3.625   0.435   0.081
10609SOL    HW232727   3.685   0.538   0.193
10610SOL     OW32728   0.305   1.446   4.732
10610SOL    HW132729   0.279   1.524   4.675
10610SOL    HW232730   0.228   1.417   4.788
10611SOL     OW32731   2.430   5.637   4.793
10611SOL    HW132732   2.499   5.677   4.852
10611SOL    HW232733   2.349   5.696   4.791
10612SOL     OW32734   5.376   1.348   3.853
10612SOL    HW132735   5.467   1.389   3.864
10612SOL    HW232736   5.341   1.320   3.943
10613SOL     OW32737   6.441   6.361   3.942
10613SOL    HW132738   6.418   6.391   4.035
10613SOL    HW232739   6.408   6.428   3.876
10614SOL     OW32740   5.186   0.601   6.512
10614SOL    HW132741   5.147   0.688   6.482
10614SOL    HW232742   5.219   0.610   6.606
10615SOL     OW32743   2.554   2.045   6.329
10615SOL    HW132744   2.523   1.951   6.314
10615SOL    HW232745   2.652   2.051   6.307
10616SOL     OW32746   2.933   6.103   6.827
10616SOL    HW132747   2.896   6.185   6.783
10616SOL    HW232748   2.935   6.116   6.926
10617SOL     OW32749   2.837   3.075   1.668
10617SOL    HW132750   2.816   2.978   1.657
10617SOL    HW232751   2.930   3.086   1.702
10618SOL     OW32752   0.939   5.490   4.973
10618SOL    HW132753   0.868   5.530   5.030
10618SOL    HW232754   0.897   5.448   4.892
10619SOL     OW32755   0.934   1.983   3.241
10619SOL    HW132756   0.967   1.984   3.147
10619SOL    HW232757   0.907   2.075   3.268
10620SOL     OW32758   2.373   6.970   5.797
10620SOL    HW132759   2.451   6.931   5.845
10620SOL    HW232760   2.405   0.003   5.717
10621SOL     OW32761   1.195   3.895   3.017
10621SOL    HW132762   1.281   3.863   2.977
10621SOL    HW232763   1.131   3.819   3.024
10622SOL     OW32764   4.635   3.140   0.911
10622SOL    HW132765   4.552   3.106   0.866
10622SOL    HW232766   4.706   3.070   0.907
10623SOL     OW32767   5.750   5.885   5.967
10623SOL    HW132768   5.730   5.805   5.910
10623SOL    HW232769   5.704   5.874   6.055
10624SOL     OW32770   0.901   2.363   5.256
10624SOL    HW132771   0.895   2.375   5.355
10624SOL    HW232772   0.990   2.395   5.223
10625SOL     OW32773   6.682   3.863   6.740
10625SOL    HW132774   6.641   3.810   6.666
10625SOL    HW232775   6.764   3.818   6.773
10626SOL     OW32776   4.047   3.227   1.587
10626SOL    HW132777   4.059   3.128   1.590
10626SOL    HW232778   4.088   3.268   1.669
10627SOL     OW32779   5.877   6.671   5.817
10627SOL    HW132780   5.802   6.609   5.839
10627SOL    HW232781   5.960   6.618   5.799
10628SOL     OW32782   4.256   0.419   0.219
10628SOL    HW132783   4.261   0.319   0.213
10628SOL    HW232784   4.275   0.448   0.313
10629SOL     OW32785   3.783   5.378   4.978
10629SOL    HW132786   3.769   5.348   5.072
10629SOL    HW232787   3.724   5.324   4.917
10630SOL     OW32788   4.489   0.633   2.813
10630SOL    HW132789   4.421   0.577   2.860
10630SOL    HW232790   4.579   0.614   2.850
10631SOL     OW32791   4.744   5.645   0.055
10631SOL    HW132792   4.830   5.615   0.013
10631SOL    HW232793   4.718   5.734   0.018
10632SOL     OW32794   4.851   5.754   3.093
10632SOL    HW132795   4.774   5.693   3.107
10632SOL    HW232796   4.847   5.828   3.161
10633SOL     OW32797   1.969   2.875   2.026
10633SOL    HW132798   2.034   2.951   2.032
10633SOL    HW232799   2.012   2.792   2.062
10634SOL     OW32800   1.028   4.689   0.016
10634SOL    HW132801   1.020   4.684   0.116
10634SOL    HW232802   1.097   4.623   7.004
10635SOL     OW32803   2.440   3.575   0.627
10635SOL    HW132804   2.492   3.600   0.545
10635SOL    HW232805   2.437   3.476   0.636
10636SOL     OW32806   6.568   2.676   6.676
10636SOL    HW132807   6.598   2.617   6.601
10636SOL    HW232808   6.634   2.751   6.688
10637SOL     OW32809   2.788   6.669   6.517
10637SOL    HW132810   2.750   6.627   6.434
10637SOL    HW232811   2.887   6.661   6.515
10638SOL     OW32812   6.629   5.374   1.826
10638SOL    HW132813   6.683   5.458   1.824
10638SOL    HW232814   6.612   5.347   1.921
10639SOL     OW32815   2.439   3.581   1.636
10639SOL    HW132816   2.428   3.517   1.712
10639SOL    HW232817   2.532   3.576   1.601
10640SOL     OW32818   3.920   0.135   3.599
10640SOL    HW132819   3.861   0.081   3.659
10640SOL    HW232820   3.893   0.121   3.504
10641SOL     OW32821   1.163   0.372   3.507
10641SOL    HW132822   1.075   0.325   3.514
10641SOL    HW232823   1.166   0.447   3.573
10642SOL     OW32824   6.300   2.709   6.942
10642SOL    HW132825   6.335   2.781   6.882
10642SOL    HW232826   6.293   2.623   6.891
10643SOL     OW32827   1.610   4.900   5.369
10643SOL    HW132828   1.675   4.911   5.444
10643SOL    HW232829   1.657   4.912   5.282
10644SOL     OW32830   6.699   2.718   2.297
10644SOL    HW132831   6.797   2.698   2.298
10644SOL    HW232832   6.648   2.637   2.323
10645SOL     OW32833   2.374   2.758   3.198
10645SOL    HW132834   2.279   2.736   3.221
10645SOL    HW232835   2.404   2.838   3.249
10646SOL     OW32836   5.149   1.312   4.222
10646SOL    HW132837   5.064   1.365   4.231
10646SOL    HW232838   5.143   1.254   4.140
10647SOL     OW32839   4.362   4.902   5.408
10647SOL    HW132840   4.271   4.901   5.368
10647SOL    HW232841   4.357   4.875   5.504
10648SOL     OW32842   6.310   4.969   5.514
10648SOL    HW132843   6.322   5.068   5.512
10648SOL    HW232844   6.244   4.942   5.443
10649SOL     OW32845   0.139   3.216   3.905
10649SOL    HW132846   0.062   3.241   3.964
10649SOL    HW232847   0.197   3.295   3.889
10650SOL     OW32848   6.803   0.309   3.946
10650SOL    HW132849   6.891   0.290   3.902
10650SOL    HW232850   6.799   0.405   3.973
10651SOL     OW32851   5.190   6.381   5.939
10651SOL    HW132852   5.254   6.453   5.965
10651SOL    HW232853   5.163   6.330   6.021
10652SOL     OW32854   1.453   6.550   6.279
10652SOL    HW132855   1.359   6.572   6.308
10652SOL    HW232856   1.491   6.482   6.342
10653SOL     OW32857   3.854   6.108   4.999
10653SOL    HW132858   3.803   6.174   4.943
10653SOL    HW232859   3.790   6.054   5.053
10654SOL     OW32860   5.343   1.527   4.154
10654SOL    HW132861   5.272   1.535   4.223
10654SOL    HW232862   5.338   1.436   4.112
10655SOL     OW32863   1.424   4.786   1.324
10655SOL    HW132864   1.400   4.699   1.282
10655SOL    HW232865   1.359   4.807   1.397
10656SOL     OW32866   6.253   1.099   1.867
10656SOL    HW132867   6.189   1.092   1.943
10656SOL    HW232868   6.203   1.092   1.780
10657SOL     OW32869   5.974   0.708   4.325
10657SOL    HW132870   5.926   0.794   4.312
10657SOL    HW232871   6.064   0.725   4.366
10658SOL     OW32872   5.376   3.686   4.827
10658SOL    HW132873   5.298   3.708   4.885
10658SOL    HW232874   5.430   3.613   4.871
10659SOL     OW32875   0.953   4.813   0.911
10659SOL    HW132876   0.905   4.809   0.999
10659SOL    HW232877   1.043   4.853   0.924
10660SOL     OW32878   6.075   3.506   5.783
10660SOL    HW132879   6.083   3.463   5.694
10660SOL    HW232880   6.091   3.604   5.775
10661SOL     OW32881   1.208   4.216   0.562
10661SOL    HW132882   1.217   4.163   0.646
10661SOL    HW232883   1.146   4.293   0.578
10662SOL     OW32884   2.977   1.304   2.415
10662SOL    HW132885   3.002   1.210   2.439
10662SOL    HW232886   2.896   1.302   2.356
10663SOL     OW32887   1.383   0.987   3.402
10663SOL    HW132888   1.344   1.071   3.439
10663SOL    HW232889   1.388   0.992   3.303
10664SOL     OW32890   1.060   5.152   4.675
10664SOL    HW132891   1.141   5.155   4.734
10664SOL    HW232892   1.064   5.226   4.609
10665SOL     OW32893   2.253   3.308   6.783
10665SOL    HW132894   2.242   3.275   6.876
10665SOL    HW232895   2.256   3.231   6.720
10666SOL     OW32896   3.881   3.408   2.504
10666SOL    HW132897   3.833   3.326   2.534
10666SOL    HW232898   3.916   3.395   2.412
10667SOL     OW32899   5.043   1.838   2.944
10667SOL    HW132900   5.081   1.801   3.029
10667SOL    HW232901   4.990   1.921   2.964
10668SOL     OW32902   3.565   1.872   5.290
10668SOL    HW132903   3.503   1.950   5.292
10668SOL    HW232904   3.531   1.803   5.226
10669SOL     OW32905   5.567   0.704   0.593
10669SOL    HW132906   5.628   0.656   0.656
10669SOL    HW232907   5.621   0.743   0.519
10670SOL     OW32908   5.102   4.113   4.406
10670SOL    HW132909   5.175   4.067   4.356
10670SOL    HW232910   5.137   4.199   4.444
10671SOL     OW32911   0.970   1.481   4.399
10671SOL    HW132912   1.032   1.425   4.344
10671SOL    HW232913   0.953   1.567   4.352
10672SOL     OW32914   6.441   4.234   1.632
10672SOL    HW132915   6.435   4.151   1.687
10672SOL    HW232916   6.349   4.263   1.605
10673SOL     OW32917   2.015   0.370   0.857
10673SOL    HW132918   2.003   0.317   0.773
10673SOL    HW232919   2.107   0.410   0.858
10674SOL     OW32920   4.118   3.585   4.577
10674SOL    HW132921   4.117   3.569   4.675
10674SOL    HW232922   4.056   3.521   4.531
10675SOL     OW32923   3.376   1.145   6.625
10675SOL    HW132924   3.309   1.204   6.669
10675SOL    HW232925   3.467   1.187   6.632
10676SOL     OW32926   0.945   5.816   4.745
10676SOL    HW132927   0.878   5.794   4.817
10676SOL    HW232928   0.990   5.902   4.767
10677SOL     OW32929   1.683   1.392   1.189
10677SOL    HW132930   1.753   1.333   1.149
10677SOL    HW232931   1.596   1.344   1.191
10678SOL     OW32932   3.998   4.970   3.788
10678SOL    HW132933   3.945   5.047   3.751
10678SOL    HW232934   4.056   4.932   3.716
10679SOL     OW32935   3.698   4.976   0.139
10679SOL    HW132936   3.773   4.993   0.202
10679SOL    HW232937   3.731   4.980   0.045
10680SOL     OW32938   3.578   1.551   4.124
10680SOL    HW132939   3.639   1.472   4.115
10680SOL    HW232940   3.484   1.522   4.108
10681SOL     OW32941   0.055   3.820   0.256
10681SOL    HW132942   0.085   3.904   0.301
10681SOL    HW232943   0.126   3.751   0.264
10682SOL     OW32944   6.281   3.237   4.902
10682SOL    HW132945   6.295   3.323   4.951
10682SOL    HW232946   6.272   3.163   4.968
10683SOL     OW32947   4.203   0.512   3.518
10683SOL    HW132948   4.209   0.413   3.514
10683SOL    HW232949   4.295   0.551   3.531
10684SOL     OW32950   4.522   5.408   1.251
10684SOL    HW132951   4.549   5.481   1.314
10684SOL    HW232952   4.423   5.410   1.237
10685SOL     OW32953   6.765   5.701   1.147
10685SOL    HW132954   6.705   5.780   1.137
10685SOL    HW232955   6.799   5.672   1.058
10686SOL     OW32956   2.583   4.526   6.157
10686SOL    HW132957   2.663   4.466   6.158
10686SOL    HW232958   2.519   4.498   6.228
10687SOL     OW32959   6.115   4.969   3.427
10687SOL    HW132960   6.139   4.881   3.385
10687SOL    HW232961   6.102   4.956   3.525
10688SOL     OW32962   5.984   1.408   2.353
10688SOL    HW132963   6.052   1.429   2.423
10688SOL    HW232964   5.912   1.477   2.355
10689SOL     OW32965   0.096   0.101   1.383
10689SOL    HW132966   0.024   0.051   1.334
10689SOL    HW232967   0.185   0.064   1.357
10690SOL     OW32968   0.202   5.165   3.428
10690SOL    HW132969   0.253   5.091   3.384
10690SOL    HW232970   0.190   5.145   3.525
10691SOL     OW32971   1.950   1.553   1.783
10691SOL    HW132972   1.880   1.625   1.785
10691SOL    HW232973   2.041   1.595   1.786
10692SOL     OW32974   2.954   0.772   4.640
10692SOL    HW132975   2.984   0.806   4.551
10692SOL    HW232976   2.904   0.844   4.688
10693SOL     OW32977   0.648   6.108   1.586
10693SOL    HW132978   0.579   6.120   1.656
10693SOL    HW232979   0.652   6.011   1.559
10694SOL     OW32980   4.957   6.752   6.390
10694SOL    HW132981   4.890   6.772   6.318
10694SOL    HW232982   4.987   6.838   6.431
10695SOL     OW32983   1.374   2.732   1.314
10695SOL    HW132984   1.387   2.746   1.216
10695SOL    HW232985   1.427   2.800   1.365
10696SOL     OW32986   6.219   3.615   5.332
10696SOL    HW132987   6.196   3.544   5.398
10696SOL    HW232988   6.139   3.672   5.314
10697SOL     OW32989   6.977   6.617   5.513
10697SOL    HW132990   6.968   6.709   5.549
10697SOL    HW232991   6.914   6.605   5.436
10698SOL     OW32992   4.564   4.379   0.355
10698SOL    HW132993   4.553   4.334   0.444
10698SOL    HW232994   4.636   4.334   0.303
10699SOL     OW32995   3.687   4.468   0.742
10699SOL    HW132996   3.669   4.389   0.800
10699SOL    HW232997   3.602   4.515   0.721
10700SOL     OW32998   5.486   6.930   0.705
10700SOL    HW132999   5.519   7.005   0.647
10700SOL    HW233000   5.386   6.933   0.709
10701SOL     OW33001   3.109   0.180   6.032
10701SOL    HW133002   3.042   0.183   6.106
10701SOL    HW233003   3.197   0.217   6.064
10702SOL     OW33004   4.876   3.896   2.933
10702SOL    HW133005   4.862   3.802   2.965
10702SOL    HW233006   4.947   3.896   2.863
10703SOL     OW33007   2.126   3.036   5.599
10703SOL    HW133008   2.154   2.973   5.527
10703SOL    HW233009   2.125   3.129   5.563
10704SOL     OW33010   6.934   4.847   2.871
10704SOL    HW133011   0.015   4.841   2.874
10704SOL    HW233012   6.897   4.827   2.962
10705SOL     OW33013   5.686   5.508   1.322
10705SOL    HW133014   5.740   5.483   1.242
10705SOL    HW233015   5.597   5.463   1.317
10706SOL     OW33016   4.346   6.701   1.303
10706SOL    HW133017   4.302   6.612   1.317
10706SOL    HW233018   4.308   6.767   1.369
10707SOL     OW33019   0.479   6.905   4.162
10707SOL    HW133020   0.524   6.926   4.075
10707SOL    HW233021   0.383   6.933   4.157
10708SOL     OW33022   4.667   0.961   1.475
10708SOL    HW133023   4.751   0.950   1.421
10708SOL    HW233024   4.602   1.018   1.425
10709SOL     OW33025   5.708   4.798   4.856
10709SOL    HW133026   5.647   4.756   4.922
10709SOL    HW233027   5.692   4.897   4.854
10710SOL     OW33028   6.061   1.204   3.884
10710SOL    HW133029   6.091   1.286   3.836
10710SOL    HW233030   6.132   1.175   3.948
10711SOL     OW33031   2.422   6.716   4.131
10711SOL    HW133032   2.329   6.747   4.152
10711SOL    HW233033   2.422   6.616   4.124
10712SOL     OW33034   3.763   0.213   2.613
10712SOL    HW133035   3.755   0.149   2.690
10712SOL    HW233036   3.689   0.197   2.548
10713SOL     OW33037   1.059   2.730   0.080
10713SOL    HW133038   1.148   2.691   0.104
10713SOL    HW233039   1.072   2.823   0.045
10714SOL     OW33040   4.227   3.449   5.202
10714SOL    HW133041   4.177   3.365   5.221
10714SOL    HW233042   4.323   3.438   5.229
10715SOL     OW33043   4.558   0.335   2.285
10715SOL    HW133044   4.477   0.278   2.269
10715SOL    HW233045   4.604   0.353   2.198
10716SOL     OW33046   5.845   2.721   3.094
10716SOL    HW133047   5.828   2.811   3.056
10716SOL    HW233048   5.929   2.723   3.149
10717SOL     OW33049   1.700   2.777   0.685
10717SOL    HW133050   1.699   2.771   0.785
10717SOL    HW233051   1.606   2.774   0.651
10718SOL     OW33052   1.139   3.909   6.926
10718SOL    HW133053   1.085   3.906   6.842
10718SOL    HW233054   1.235   3.888   6.905
10719SOL     OW33055   6.578   5.721   3.519
10719SOL    HW133056   6.577   5.820   3.526
10719SOL    HW233057   6.501   5.683   3.571
10720SOL     OW33058   6.133   5.245   4.699
10720SOL    HW133059   6.189   5.223   4.779
10720SOL    HW233060   6.103   5.340   4.704
10721SOL     OW33061   5.253   3.884   5.159
10721SOL    HW133062   5.312   3.807   5.184
10721SOL    HW233063   5.193   3.856   5.084
10722SOL     OW33064   0.314   5.004   1.097
10722SOL    HW133065   0.339   5.100   1.110
10722SOL    HW233066   0.257   4.995   1.016
10723SOL     OW33067   0.008   1.989   6.287
10723SOL    HW133068   0.063   2.056   6.237
10723SOL    HW233069   0.030   1.897   6.255
10724SOL     OW33070   6.192   6.733   6.046
10724SOL    HW133071   6.270   6.763   6.102
10724SOL    HW233072   6.218   6.731   5.950
10725SOL     OW33073   2.047   5.842   5.017
10725SOL    HW133074   2.033   5.908   5.091
10725SOL    HW233075   2.088   5.888   4.938
10726SOL     OW33076   5.822   1.107   4.004
10726SOL    HW133077   5.750   1.115   3.935
10726SOL    HW233078   5.911   1.106   3.960
10727SOL     OW33079   0.622   5.169   5.938
10727SOL    HW133080   0.611   5.183   5.840
10727SOL    HW233081   0.702   5.111   5.955
10728SOL     OW33082   1.113   4.993   6.763
10728SOL    HW133083   1.098   5.082   6.806
10728SOL    HW233084   1.036   4.972   6.703
10729SOL     OW33085   5.785   1.255   2.600
10729SOL    HW133086   5.808   1.266   2.503
10729SOL    HW233087   5.689   1.280   2.613
10730SOL     OW33088   2.389   0.419   1.692
10730SOL    HW133089   2.381   0.342   1.755
10730SOL    HW233090   2.306   0.425   1.636
10731SOL     OW33091   3.312   1.470   0.409
10731SOL    HW133092   3.221   1.441   0.439
10731SOL    HW233093   3.375   1.392   0.413
10732SOL     OW33094   0.206   4.579   5.213
10732SOL    HW133095   0.152   4.584   5.296
10732SOL    HW233096   0.297   4.616   5.230
10733SOL     OW33097   6.690   2.048   6.541
10733SOL    HW133098   6.764   2.103   6.580
10733SOL    HW233099   6.703   1.952   6.567
10734SOL     OW33100   0.975   0.869   0.601
10734SOL    HW133101   1.006   0.776   0.582
10734SOL    HW233102   1.046   0.934   0.574
10735SOL     OW33103   0.341   3.138   2.152
10735SOL    HW133104   0.380   3.221   2.112
10735SOL    HW233105   0.321   3.154   2.249
10736SOL     OW33106   1.157   0.629   3.597
10736SOL    HW133107   1.178   0.682   3.679
10736SOL    HW233108   1.065   0.653   3.564
10737SOL     OW33109   1.559   1.721   0.282
10737SOL    HW133110   1.489   1.750   0.347
10737SOL    HW233111   1.576   1.794   0.216
10738SOL     OW33112   2.757   6.667   2.951
10738SOL    HW133113   2.719   6.752   2.915
10738SOL    HW233114   2.831   6.635   2.892
10739SOL     OW33115   2.068   0.869   1.738
10739SOL    HW133116   1.989   0.854   1.797
10739SOL    HW233117   2.039   0.915   1.654
10740SOL     OW33118   0.356   5.023   5.283
10740SOL    HW133119   0.340   5.119   5.261
10740SOL    HW233120   0.359   4.970   5.198
10741SOL     OW33121   4.337   0.899   1.346
10741SOL    HW133122   4.342   0.935   1.439
10741SOL    HW233123   4.242   0.902   1.315
10742SOL     OW33124   5.547   6.786   1.329
10742SOL    HW133125   5.642   6.815   1.316
10742SOL    HW233126   5.490   6.827   1.257
10743SOL     OW33127   1.457   2.873   5.434
10743SOL    HW133128   1.365   2.879   5.474
10743SOL    HW233129   1.515   2.942   5.476
10744SOL     OW33130   3.226   1.404   0.923
10744SOL    HW133131   3.214   1.396   1.022
10744SOL    HW233132   3.210   1.499   0.896
10745SOL     OW33133   6.508   5.686   6.000
10745SOL    HW133134   6.514   5.785   6.014
10745SOL    HW233135   6.432   5.650   6.054
10746SOL     OW33136   2.218   4.724   1.170
10746SOL    HW133137   2.274   4.641   1.173
10746SOL    HW233138   2.122   4.699   1.179
10747SOL     OW33139   3.766   1.083   4.936
10747SOL    HW133140   3.859   1.116   4.953
10747SOL    HW233141   3.701   1.158   4.949
10748SOL     OW33142   5.581   1.265   0.466
10748SOL    HW133143   5.486   1.298   0.467
10748SOL    HW233144   5.604   1.232   0.557
10749SOL     OW33145   0.147   5.332   3.750
10749SOL    HW133146   0.172   5.408   3.691
10749SOL    HW233147   0.147   5.362   3.845
10750SOL     OW33148   4.521   6.197   4.916
10750SOL    HW133149   4.489   6.128   4.851
10750SOL    HW233150   4.599   6.160   4.967
10751SOL     OW33151   1.727   4.606   4.295
10751SOL    HW133152   1.687   4.601   4.386
10751SOL    HW233153   1.715   4.698   4.258
10752SOL     OW33154   6.160   4.885   5.288
10752SOL    HW133155   6.213   4.851   5.211
10752SOL    HW233156   6.062   4.878   5.267
10753SOL     OW33157   5.939   4.863   4.484
10753SOL    HW133158   5.989   4.790   4.529
10753SOL    HW233159   5.915   4.934   4.550
10754SOL     OW33160   0.533   6.848   3.755
10754SOL    HW133161   0.519   6.925   3.817
10754SOL    HW233162   0.510   6.875   3.662
10755SOL     OW33163   0.216   0.409   0.814
10755SOL    HW133164   0.194   0.435   0.720
10755SOL    HW233165   0.140   0.434   0.874
10756SOL     OW33166   6.487   5.079   6.363
10756SOL    HW133167   6.402   5.027   6.357
10756SOL    HW233168   6.482   5.160   6.304
10757SOL     OW33169   1.512   2.612   0.074
10757SOL    HW133170   1.517   2.704   0.034
10757SOL    HW233171   1.442   2.611   0.146
10758SOL     OW33172   0.755   5.720   4.211
10758SOL    HW133173   0.675   5.775   4.189
10758SOL    HW233174   0.755   5.699   4.309
10759SOL     OW33175   1.687   3.967   1.573
10759SOL    HW133176   1.697   3.994   1.669
10759SOL    HW233177   1.625   3.889   1.567
10760SOL     OW33178   5.090   0.442   2.842
10760SOL    HW133179   5.051   0.529   2.871
10760SOL    HW233180   5.081   0.375   2.916
10761SOL     OW33181   0.471   6.078   5.833
10761SOL    HW133182   0.524   6.003   5.792
10761SOL    HW233183   0.393   6.099   5.774
10762SOL     OW33184   2.990   1.556   4.317
10762SOL    HW133185   3.024   1.641   4.356
10762SOL    HW233186   3.035   1.538   4.230
10763SOL     OW33187   4.060   6.817   2.246
10763SOL    HW133188   4.055   6.727   2.288
10763SOL    HW233189   4.011   6.816   2.159
10764SOL     OW33190   5.205   2.150   5.885
10764SOL    HW133191   5.297   2.121   5.861
10764SOL    HW233192   5.182   2.234   5.836
10765SOL     OW33193   4.911   2.817   0.608
10765SOL    HW133194   4.971   2.743   0.639
10765SOL    HW233195   4.817   2.783   0.601
10766SOL     OW33196   4.019   5.030   0.639
10766SOL    HW133197   3.961   5.063   0.714
10766SOL    HW233198   3.961   4.986   0.570
10767SOL     OW33199   2.161   0.363   1.514
10767SOL    HW133200   2.199   0.271   1.500
10767SOL    HW233201   2.068   0.367   1.477
10768SOL     OW33202   5.017   5.152   1.351
10768SOL    HW133203   4.986   5.093   1.426
10768SOL    HW233204   4.996   5.108   1.263
10769SOL     OW33205   2.238   4.072   5.372
10769SOL    HW133206   2.300   4.068   5.294
10769SOL    HW233207   2.175   4.148   5.361
10770SOL     OW33208   5.069   6.567   4.372
10770SOL    HW133209   4.981   6.610   4.354
10770SOL    HW233210   5.055   6.480   4.420
10771SOL     OW33211   4.740   6.743   4.161
10771SOL    HW133212   4.791   6.685   4.097
10771SOL    HW233213   4.771   6.838   4.152
10772SOL     OW33214   6.507   0.174   4.679
10772SOL    HW133215   6.542   0.119   4.755
10772SOL    HW233216   6.477   0.113   4.606
10773SOL     OW33217   5.969   5.439   6.493
10773SOL    HW133218   5.928   5.361   6.446
10773SOL    HW233219   5.897   5.498   6.530
10774SOL     OW33220   2.188   1.598   6.154
10774SOL    HW133221   2.201   1.694   6.179
10774SOL    HW233222   2.100   1.566   6.189
10775SOL     OW33223   0.594   4.424   2.925
10775SOL    HW133224   0.542   4.451   3.005
10775SOL    HW233225   0.575   4.487   2.850
10776SOL     OW33226   0.516   0.860   6.189
10776SOL    HW133227   0.474   0.941   6.231
10776SOL    HW233228   0.497   0.860   6.091
10777SOL     OW33229   3.859   5.355   1.835
10777SOL    HW133230   3.870   5.255   1.829
10777SOL    HW233231   3.835   5.391   1.744
10778SOL     OW33232   4.646   0.014   3.506
10778SOL    HW133233   4.668   6.962   3.440
10778SOL    HW233234   4.728   0.040   3.557
10779SOL     OW33235   5.667   2.892   3.419
10779SOL    HW133236   5.736   2.937   3.362
10779SOL    HW233237   5.575   2.913   3.383
10780SOL     OW33238   1.774   0.542   4.528
10780SOL    HW133239   1.684   0.532   4.485
10780SOL    HW233240   1.763   0.550   4.627
10781SOL     OW33241   4.471   1.146   4.063
10781SOL    HW133242   4.524   1.062   4.051
10781SOL    HW233243   4.374   1.123   4.071
10782SOL     OW33244   0.144   0.554   2.996
10782SOL    HW133245   0.186   0.472   3.037
10782SOL    HW233246   0.045   0.547   3.002
10783SOL     OW33247   0.786   2.250   2.402
10783SOL    HW133248   0.841   2.193   2.462
10783SOL    HW233249   0.840   2.277   2.322
10784SOL     OW33250   4.005   0.633   4.404
10784SOL    HW133251   4.051   0.550   4.437
10784SOL    HW233252   3.919   0.645   4.452
10785SOL     OW33253   0.635   4.171   0.385
10785SOL    HW133254   0.673   4.226   0.459
10785SOL    HW233255   0.698   4.172   0.307
10786SOL     OW33256   6.557   5.161   3.205
10786SOL    HW133257   6.624   5.149   3.278
10786SOL    HW233258   6.485   5.092   3.215
10787SOL     OW33259   1.482   1.258   6.036
10787SOL    HW133260   1.527   1.311   6.107
10787SOL    HW233261   1.476   1.313   5.952
10788SOL     OW33262   1.183   4.187   0.001
10788SOL    HW133263   1.275   4.215   0.030
10788SOL    HW233264   1.180   4.087   7.011
10789SOL     OW33265   6.678   3.460   6.798
10789SOL    HW133266   6.726   3.462   6.885
10789SOL    HW233267   6.683   3.368   6.759
10790SOL     OW33268   0.758   6.605   1.775
10790SOL    HW133269   0.734   6.639   1.684
10790SOL    HW233270   0.844   6.647   1.804
10791SOL     OW33271   0.410   5.736   1.696
10791SOL    HW133272   0.375   5.808   1.636
10791SOL    HW233273   0.362   5.650   1.677
10792SOL     OW33274   3.161   3.081   4.880
10792SOL    HW133275   3.181   3.049   4.787
10792SOL    HW233276   3.233   3.051   4.942
10793SOL     OW33277   6.310   3.944   6.188
10793SOL    HW133278   6.313   3.849   6.158
10793SOL    HW233279   6.341   3.950   6.283
10794SOL     OW33280   4.065   3.790   4.239
10794SOL    HW133281   3.977   3.835   4.223
10794SOL    HW233282   4.079   3.719   4.170
10795SOL     OW33283   0.223   4.860   2.809
10795SOL    HW133284   0.250   4.856   2.712
10795SOL    HW233285   0.251   4.948   2.847
10796SOL     OW33286   6.614   0.116   5.440
10796SOL    HW133287   6.683   0.189   5.444
10796SOL    HW233288   6.631   0.050   5.512
10797SOL     OW33289   2.954   2.345   1.037
10797SOL    HW133290   2.971   2.338   0.938
10797SOL    HW233291   2.963   2.441   1.065
10798SOL     OW33292   2.455   0.921   0.591
10798SOL    HW133293   2.378   0.904   0.529
10798SOL    HW233294   2.461   0.846   0.658
10799SOL     OW33295   4.223   1.036   2.414
10799SOL    HW133296   4.290   1.021   2.488
10799SOL    HW233297   4.258   0.997   2.329
10800SOL     OW33298   0.911   5.924   5.681
10800SOL    HW133299   0.991   5.881   5.722
10800SOL    HW233300   0.926   5.936   5.583
10801SOL     OW33301   0.970   0.018   7.010
10801SOL    HW133302   0.975   0.024   0.091
10801SOL    HW233303   0.963   6.940   6.983
10802SOL     OW33304   0.675   0.492   2.256
10802SOL    HW133305   0.647   0.453   2.344
10802SOL    HW233306   0.722   0.422   2.202
10803SOL     OW33307   1.469   5.548   5.341
10803SOL    HW133308   1.526   5.584   5.415
10803SOL    HW233309   1.512   5.468   5.301
10804SOL     OW33310   6.117   3.278   2.591
10804SOL    HW133311   6.032   3.261   2.540
10804SOL    HW233312   6.150   3.370   2.570
10805SOL     OW33313   4.892   0.711   5.048
10805SOL    HW133314   4.802   0.728   5.006
10805SOL    HW233315   4.960   0.772   5.006
10806SOL     OW33316   3.367   3.998   6.089
10806SOL    HW133317   3.416   4.024   6.172
10806SOL    HW233318   3.377   3.900   6.074
10807SOL     OW33319   1.447   6.497   3.663
10807SOL    HW133320   1.476   6.583   3.624
10807SOL    HW233321   1.375   6.513   3.731
10808SOL     OW33322   6.996   2.379   5.822
10808SOL    HW133323   0.007   2.439   5.896
10808SOL    HW233324   0.054   2.323   5.791
10809SOL     OW33325   2.490   4.497   3.577
10809SOL    HW133326   2.484   4.562   3.653
10809SOL    HW233327   2.475   4.404   3.612
10810SOL     OW33328   0.259   0.065   3.950
10810SOL    HW133329   0.229   6.992   3.923
10810SOL    HW233330   0.180   0.119   3.979
10811SOL     OW33331   4.421   4.784   5.686
10811SOL    HW133332   4.396   4.785   5.782
10811SOL    HW233333   4.520   4.771   5.677
10812SOL     OW33334   6.907   3.711   6.878
10812SOL    HW133335   6.912   3.765   6.962
10812SOL    HW233336   6.999   3.690   6.846
10813SOL     OW33337   0.860   3.524   6.227
10813SOL    HW133338   0.916   3.455   6.274
10813SOL    HW233339   0.856   3.502   6.129
10814SOL     OW33340   2.059   6.883   6.573
10814SOL    HW133341   1.999   6.818   6.620
10814SOL    HW233342   2.061   6.969   6.624
10815SOL     OW33343   5.132   3.243   3.033
10815SOL    HW133344   5.076   3.268   3.112
10815SOL    HW233345   5.154   3.146   3.037
10816SOL     OW33346   3.401   3.440   2.631
10816SOL    HW133347   3.481   3.466   2.685
10816SOL    HW233348   3.327   3.504   2.649
10817SOL     OW33349   3.765   0.780   4.137
10817SOL    HW133350   3.773   0.686   4.106
10817SOL    HW233351   3.697   0.828   4.081
10818SOL     OW33352   4.639   4.492   5.726
10818SOL    HW133353   4.555   4.468   5.775
10818SOL    HW233354   4.640   4.591   5.708
10819SOL     OW33355   6.152   5.511   6.326
10819SOL    HW133356   6.076   5.485   6.386
10819SOL    HW233357   6.235   5.525   6.382
10820SOL     OW33358   6.966   5.230   4.304
10820SOL    HW133359   6.981   5.192   4.213
10820SOL    HW233360   0.000   5.179   4.371
10821SOL     OW33361   4.299   6.918   2.367
10821SOL    HW133362   4.210   6.902   2.324
10821SOL    HW233363   4.360   6.841   2.348
10822SOL     OW33364   6.705   1.662   2.110
10822SOL    HW133365   6.716   1.697   2.017
10822SOL    HW233366   6.730   1.733   2.175
10823SOL     OW33367   0.381   0.296   2.851
10823SOL    HW133368   0.480   0.304   2.847
10823SOL    HW233369   0.348   0.331   2.939
10824SOL     OW33370   0.577   0.924   2.249
10824SOL    HW133371   0.519   0.844   2.269
10824SOL    HW233372   0.538   0.975   2.173
10825SOL     OW33373   1.560   2.279   0.454
10825SOL    HW133374   1.613   2.345   0.506
10825SOL    HW233375   1.620   2.231   0.390
10826SOL     OW33376   0.681   1.510   2.507
10826SOL    HW133377   0.599   1.458   2.483
10826SOL    HW233378   0.734   1.528   2.424
10827SOL     OW33379   6.987   3.328   4.673
10827SOL    HW133380   7.006   3.384   4.593
10827SOL    HW233381   0.054   3.299   4.716
10828SOL     OW33382   0.911   4.141   0.844
10828SOL    HW133383   0.947   4.060   0.799
10828SOL    HW233384   0.960   4.156   0.930
10829SOL     OW33385   4.847   3.389   0.361
10829SOL    HW133386   4.901   3.358   0.283
10829SOL    HW233387   4.909   3.417   0.435
10830SOL     OW33388   4.598   1.936   3.278
10830SOL    HW133389   4.518   1.893   3.236
10830SOL    HW233390   4.631   1.879   3.353
10831SOL     OW33391   2.817   6.189   2.135
10831SOL    HW133392   2.834   6.269   2.078
10831SOL    HW233393   2.798   6.219   2.229
10832SOL     OW33394   6.448   3.903   6.924
10832SOL    HW133395   6.427   3.822   6.979
10832SOL    HW233396   6.540   3.894   6.885
10833SOL     OW33397   0.618   1.949   0.388
10833SOL    HW133398   0.712   1.972   0.412
10833SOL    HW233399   0.612   1.936   0.289
10834SOL     OW33400   6.686   1.704   6.896
10834SOL    HW133401   6.745   1.652   6.958
10834SOL    HW233402   6.665   1.793   6.935
10835SOL     OW33403   5.687   3.655   0.410
10835SOL    HW133404   5.616   3.591   0.438
10835SOL    HW233405   5.770   3.639   0.464
10836SOL     OW33406   0.287   1.094   2.548
10836SOL    HW133407   0.355   1.132   2.485
10836SOL    HW233408   0.315   1.003   2.578
10837SOL     OW33409   6.606   4.723   1.980
10837SOL    HW133410   6.584   4.799   1.919
10837SOL    HW233411   6.704   4.719   1.995
10838SOL     OW33412   5.658   6.503   3.924
10838SOL    HW133413   5.734   6.446   3.956
10838SOL    HW233414   5.686   6.599   3.925
10839SOL     OW33415   4.615   3.410   0.813
10839SOL    HW133416   4.714   3.420   0.811
10839SOL    HW233417   4.591   3.313   0.821
10840SOL     OW33418   3.636   6.741   2.262
10840SOL    HW133419   3.725   6.713   2.299
10840SOL    HW233420   3.630   6.840   2.259
10841SOL     OW33421   6.521   4.954   5.038
10841SOL    HW133422   6.619   4.936   5.032
10841SOL    HW233423   6.505   5.047   5.072
10842SOL     OW33424   5.045   2.196   1.494
10842SOL    HW133425   5.005   2.105   1.486
10842SOL    HW233426   5.050   2.239   1.404
10843SOL     OW33427   1.636   1.343   1.511
10843SOL    HW133428   1.657   1.268   1.447
10843SOL    HW233429   1.716   1.402   1.520
10844SOL     OW33430   6.793   4.717   3.089
10844SOL    HW133431   6.731   4.722   3.168
10844SOL    HW233432   6.748   4.668   3.015
10845SOL     OW33433   4.508   6.005   5.513
10845SOL    HW133434   4.479   5.921   5.560
10845SOL    HW233435   4.488   6.084   5.570
10846SOL     OW33436   5.325   0.554   6.937
10846SOL    HW133437   5.263   0.562   7.015
10846SOL    HW233438   5.314   0.633   6.877
10847SOL     OW33439   3.052   2.111   0.135
10847SOL    HW133440   3.011   2.166   0.062
10847SOL    HW233441   3.142   2.079   0.107
10848SOL     OW33442   0.574   3.937   0.598
10848SOL    HW133443   0.581   3.840   0.578
10848SOL    HW233444   0.570   3.989   0.513
10849SOL     OW33445   2.479   4.441   4.061
10849SOL    HW133446   2.523   4.460   4.148
10849SOL    HW233447   2.381   4.461   4.068
10850SOL     OW33448   3.251   6.389   6.692
10850SOL    HW133449   3.157   6.395   6.659
10850SOL    HW233450   3.256   6.324   6.768
10851SOL     OW33451   3.152   3.915   1.125
10851SOL    HW133452   3.196   3.877   1.206
10851SOL    HW233453   3.197   4.001   1.101
10852SOL     OW33454   1.796   1.132   6.686
10852SOL    HW133455   1.828   1.225   6.701
10852SOL    HW233456   1.843   1.070   6.750
10853SOL     OW33457   2.427   3.153   6.092
10853SOL    HW133458   2.459   3.207   6.170
10853SOL    HW233459   2.418   3.057   6.118
10854SOL     OW33460   4.543   5.118   5.400
10854SOL    HW133461   4.592   5.118   5.313
10854SOL    HW233462   4.477   5.043   5.402
10855SOL     OW33463   4.102   1.088   0.496
10855SOL    HW133464   4.149   1.007   0.460
10855SOL    HW233465   4.004   1.072   0.496
10856SOL     OW33466   6.727   1.201   6.947
10856SOL    HW133467   6.795   1.245   6.889
10856SOL    HW233468   6.685   1.270   7.006
10857SOL     OW33469   0.244   2.367   2.725
10857SOL    HW133470   0.237   2.286   2.667
10857SOL    HW233471   0.159   2.420   2.720
10858SOL     OW33472   1.054   0.079   0.546
10858SOL    HW133473   1.141   0.092   0.594
10858SOL    HW233474   0.991   0.029   0.606
10859SOL     OW33475   0.190   4.360   4.602
10859SOL    HW133476   0.260   4.292   4.580
10859SOL    HW233477   0.230   4.451   4.601
10860SOL     OW33478   0.546   3.096   4.503
10860SOL    HW133479   0.481   3.167   4.478
10860SOL    HW233480   0.528   3.066   4.596
10861SOL     OW33481   3.380   2.942   2.989
10861SOL    HW133482   3.383   2.961   2.890
10861SOL    HW233483   3.295   2.895   3.011
10862SOL     OW33484   1.660   0.838   5.432
10862SOL    HW133485   1.735   0.884   5.481
10862SOL    HW233486   1.693   0.751   5.396
10863SOL     OW33487   2.306   0.630   4.445
10863SOL    HW133488   2.349   0.563   4.505
10863SOL    HW233489   2.209   0.608   4.435
10864SOL     OW33490   3.099   6.480   0.407
10864SOL    HW133491   3.064   6.386   0.417
10864SOL    HW233492   3.024   6.544   0.417
10865SOL     OW33493   6.516   1.484   0.530
10865SOL    HW133494   6.610   1.485   0.565
10865SOL    HW233495   6.456   1.439   0.596
10866SOL     OW33496   5.490   4.977   0.756
10866SOL    HW133497   5.578   5.000   0.714
10866SOL    HW233498   5.503   4.907   0.826
10867SOL     OW33499   2.671   4.527   0.609
10867SOL    HW133500   2.768   4.513   0.629
10867SOL    HW233501   2.625   4.439   0.602
10868SOL     OW33502   5.136   1.747   3.648
10868SOL    HW133503   5.125   1.663   3.703
10868SOL    HW233504   5.096   1.824   3.698
10869NA      NA33505   6.489   3.074   5.458
10870NA      NA33506   4.558   4.566   5.115
10871NA      NA33507   1.627   3.010   1.531
10872NA      NA33508   5.081   3.955   5.308
10873NA      NA33509   4.120   2.292   5.189
10874NA      NA33510   3.676   4.860   1.770
10875NA      NA33511   6.656   4.970   6.488
10876NA      NA33512   3.100   3.593   4.858
10877NA      NA33513   4.396   6.112   6.798
10878NA      NA33514   4.054   6.418   5.400
10879NA      NA33515   6.626   5.169   2.401
10880NA      NA33516   2.409   0.217   3.484
10881NA      NA33517   4.162   5.638   1.931
10882NA      NA33518   3.904   3.640   2.480
   7.01861   7.01861   7.01861
