Generated by trjconv : CNT in water t= 195.00000
33518
    1C        C    1   2.840   2.767   4.744
    1C        C    2   2.893   2.714   4.864
    1C        C    3   2.835   2.764   4.981
    1C        C    4   2.847   2.776   4.258
    1C        C    5   2.897   2.722   4.379
    1C        C    6   2.841   2.767   4.501
    1C        C    7   3.009   2.637   4.624
    1C        C    8   2.893   2.718   4.623
    1C        C    9   3.072   2.599   4.744
    1C        C   10   3.001   2.624   4.864
    1C        C   11   3.185   2.497   4.980
    1C        C   12   3.059   2.559   4.974
    1C        C   13   2.849   2.769   3.771
    1C        C   14   2.899   2.718   3.893
    1C        C   15   2.847   2.769   4.014
    1C        C   16   3.020   2.648   4.138
    1C        C   17   2.905   2.730   4.137
    1C        C   18   3.079   2.612   4.261
    1C        C   19   3.015   2.646   4.383
    1C        C   20   3.208   2.556   4.504
    1C        C   21   3.075   2.603   4.504
    1C        C   22   3.279   2.539   4.625
    1C        C   23   3.205   2.549   4.745
    1C        C   24   3.411   2.489   4.866
    1C        C   25   3.269   2.509   4.865
    1C        C   26   3.488   2.481   4.983
    1C        C   27   2.852   2.768   3.281
    1C        C   28   2.903   2.722   3.405
    1C        C   29   2.848   2.766   3.527
    1C        C   30   3.016   2.637   3.650
    1C        C   31   2.902   2.721   3.649
    1C        C   32   3.077   2.605   3.773
    1C        C   33   3.016   2.639   3.896
    1C        C   34   3.208   2.546   4.015
    1C        C   35   3.079   2.604   4.018
    1C        C   36   3.274   2.528   4.138
    1C        C   37   3.207   2.553   4.261
    1C        C   38   3.416   2.511   4.382
    1C        C   39   3.277   2.536   4.382
    1C        C   40   3.487   2.508   4.504
    1C        C   41   3.417   2.510   4.627
    1C        C   42   3.630   2.486   4.743
    1C        C   43   3.488   2.485   4.747
    1C        C   44   3.705   2.488   4.862
    1C        C   45   3.627   2.478   4.978
    1C        C   46   2.836   2.755   2.791
    1C        C   47   2.893   2.713   2.913
    1C        C   48   2.844   2.758   3.037
    1C        C   49   3.011   2.628   3.162
    1C        C   50   2.898   2.712   3.159
    1C        C   51   3.073   2.593   3.284
    1C        C   52   3.015   2.636   3.406
    1C        C   53   3.206   2.545   3.527
    1C        C   54   3.077   2.603   3.528
    1C        C   55   3.273   2.523   3.649
    1C        C   56   3.206   2.546   3.771
    1C        C   57   3.415   2.503   3.894
    1C        C   58   3.275   2.524   3.893
    1C        C   59   3.485   2.497   4.016
    1C        C   60   3.413   2.502   4.137
    1C        C   61   3.625   2.498   4.258
    1C        C   62   3.484   2.495   4.259
    1C        C   63   3.699   2.505   4.378
    1C        C   64   3.628   2.503   4.501
    1C        C   65   3.835   2.547   4.621
    1C        C   66   3.700   2.507   4.622
    1C        C   67   3.899   2.572   4.744
    1C        C   68   3.839   2.533   4.866
    1C        C   69   4.052   2.583   4.978
    1C        C   70   3.921   2.534   4.979
    1C        C   71   2.826   2.737   2.310
    1C        C   72   2.880   2.689   2.431
    1C        C   73   2.829   2.744   2.550
    1C        C   74   3.005   2.620   2.672
    1C        C   75   2.889   2.701   2.671
    1C        C   76   3.069   2.592   2.794
    1C        C   77   3.010   2.633   2.915
    1C        C   78   3.200   2.540   3.039
    1C        C   79   3.069   2.594   3.038
    1C        C   80   3.270   2.519   3.160
    1C        C   81   3.204   2.540   3.283
    1C        C   82   3.411   2.497   3.401
    1C        C   83   3.271   2.517   3.405
    1C        C   84   3.481   2.496   3.524
    1C        C   85   3.413   2.502   3.648
    1C        C   86   3.625   2.500   3.769
    1C        C   87   3.484   2.494   3.771
    1C        C   88   3.698   2.509   3.889
    1C        C   89   3.626   2.503   4.011
    1C        C   90   3.830   2.544   4.136
    1C        C   91   3.694   2.507   4.135
    1C        C   92   3.900   2.568   4.257
    1C        C   93   3.834   2.545   4.380
    1C        C   94   4.026   2.644   4.500
    1C        C   95   3.903   2.574   4.500
    1C        C   96   4.088   2.677   4.622
    1C        C   97   4.029   2.629   4.742
    1C        C   98   4.190   2.765   4.862
    1C        C   99   4.099   2.655   4.863
    1C        C  100   4.212   2.843   4.976
    1C        C  101   2.818   2.729   2.070
    1C        C  102   2.986   2.591   2.191
    1C        C  103   2.873   2.679   2.189
    1C        C  104   3.059   2.569   2.311
    1C        C  105   2.995   2.606   2.432
    1C        C  106   3.196   2.528   2.551
    1C        C  107   3.064   2.578   2.551
    1C        C  108   3.267   2.516   2.673
    1C        C  109   3.199   2.536   2.795
    1C        C  110   3.407   2.495   2.916
    1C        C  111   3.267   2.517   2.917
    1C        C  112   3.478   2.488   3.037
    1C        C  113   3.409   2.493   3.160
    1C        C  114   3.624   2.502   3.279
    1C        C  115   3.484   2.492   3.280
    1C        C  116   3.693   2.513   3.402
    1C        C  117   3.622   2.500   3.524
    1C        C  118   3.831   2.539   3.646
    1C        C  119   3.693   2.510   3.646
    1C        C  120   3.899   2.567   3.767
    1C        C  121   3.833   2.549   3.891
    1C        C  122   4.020   2.642   4.010
    1C        C  123   3.896   2.575   4.015
    1C        C  124   4.083   2.675   4.132
    1C        C  125   4.025   2.634   4.254
    1C        C  126   4.195   2.765   4.375
    1C        C  127   4.083   2.678   4.375
    1C        C  128   4.244   2.817   4.497
    1C        C  129   4.196   2.767   4.620
    1C        C  130   4.332   2.932   4.742
    1C        C  131   4.245   2.819   4.742
    1C        C  132   4.362   3.001   4.861
    1C        C  133   4.290   2.959   4.974
    1C        C  134   3.173   2.474   2.080
    1C        C  135   3.038   2.511   2.085
    1C        C  136   3.256   2.480   2.193
    1C        C  137   3.191   2.517   2.312
    1C        C  138   3.405   2.480   2.427
    1C        C  139   3.265   2.497   2.431
    1C        C  140   3.476   2.478   2.549
    1C        C  141   3.406   2.488   2.671
    1C        C  142   3.618   2.496   2.790
    1C        C  143   3.477   2.488   2.793
    1C        C  144   3.688   2.505   2.913
    1C        C  145   3.619   2.497   3.036
    1C        C  146   3.830   2.544   3.156
    1C        C  147   3.693   2.509   3.156
    1C        C  148   3.898   2.567   3.277
    1C        C  149   3.830   2.546   3.400
    1C        C  150   4.021   2.633   3.522
    1C        C  151   3.895   2.568   3.523
    1C        C  152   4.082   2.670   3.644
    1C        C  153   4.021   2.638   3.767
    1C        C  154   4.197   2.759   3.888
    1C        C  155   4.079   2.682   3.889
    1C        C  156   4.248   2.809   4.010
    1C        C  157   4.195   2.761   4.132
    1C        C  158   4.336   2.922   4.253
    1C        C  159   4.246   2.813   4.253
    1C        C  160   4.374   2.983   4.374
    1C        C  161   4.331   2.928   4.497
    1C        C  162   4.440   3.112   4.616
    1C        C  163   4.369   2.990   4.619
    1C        C  164   4.468   3.183   4.735
    1C        C  165   4.434   3.122   4.858
    1C        C  166   4.519   3.317   4.973
    1C        C  167   4.488   3.182   4.973
    1C        C  168   3.472   2.431   2.075
    1C        C  169   3.395   2.451   2.189
    1C        C  170   3.616   2.466   2.307
    1C        C  171   3.474   2.458   2.306
    1C        C  172   3.689   2.490   2.426
    1C        C  173   3.618   2.482   2.547
    1C        C  174   3.824   2.542   2.667
    1C        C  175   3.688   2.504   2.668
    1C        C  176   3.890   2.567   2.790
    1C        C  177   3.825   2.540   2.912
    1C        C  178   4.024   2.624   3.030
    1C        C  179   3.896   2.563   3.032
    1C        C  180   4.084   2.664   3.152
    1C        C  181   4.023   2.632   3.276
    1C        C  182   4.195   2.753   3.398
    1C        C  183   4.079   2.671   3.399
    1C        C  184   4.246   2.805   3.520
    1C        C  185   4.191   2.760   3.642
    1C        C  186   4.331   2.919   3.764
    1C        C  187   4.245   2.807   3.764
    1C        C  188   4.376   2.977   3.885
    1C        C  189   4.334   2.921   4.008
    1C        C  190   4.446   3.102   4.128
    1C        C  191   4.376   2.979   4.130
    1C        C  192   4.473   3.168   4.250
    1C        C  193   4.440   3.108   4.374
    1C        C  194   4.509   3.313   4.492
    1C        C  195   4.469   3.177   4.494
    1C        C  196   4.524   3.386   4.612
    1C        C  197   4.509   3.319   4.735
    1C        C  198   4.552   3.533   4.848
    1C        C  199   4.536   3.390   4.855
    1C        C  200   4.581   3.617   4.960
    1C        C  201   3.612   2.418   2.072
    1C        C  202   3.823   2.511   2.183
    1C        C  203   3.688   2.461   2.185
    1C        C  204   3.896   2.540   2.302
    1C        C  205   3.826   2.525   2.423
    1C        C  206   4.021   2.614   2.542
    1C        C  207   3.891   2.559   2.544
    1C        C  208   4.083   2.651   2.664
    1C        C  209   4.018   2.628   2.787
    1C        C  210   4.196   2.748   2.908
    1C        C  211   4.081   2.665   2.908
    1C        C  212   4.247   2.798   3.029
    1C        C  213   4.196   2.750   3.152
    1C        C  214   4.334   2.909   3.274
    1C        C  215   4.247   2.797   3.275
    1C        C  216   4.372   2.970   3.395
    1C        C  217   4.335   2.915   3.520
    1C        C  218   4.435   3.103   3.636
    1C        C  219   4.372   2.976   3.642
    1C        C  220   4.465   3.165   3.758
    1C        C  221   4.438   3.104   3.883
    1C        C  222   4.505   3.304   4.004
    1C        C  223   4.466   3.169   4.005
    1C        C  224   4.518   3.374   4.125
    1C        C  225   4.511   3.304   4.248
    1C        C  226   4.518   3.520   4.365
    1C        C  227   4.517   3.379   4.367
    1C        C  228   4.517   3.594   4.485
    1C        C  229   4.531   3.527   4.608
    1C        C  230   4.497   3.741   4.723
    1C        C  231   4.533   3.604   4.727
    1C        C  232   4.485   3.812   4.845
    1C        C  233   4.540   3.750   4.959
    1C        C  234   4.019   2.599   2.060
    1C        C  235   3.893   2.541   2.066
    1C        C  236   4.084   2.643   2.176
    1C        C  237   4.022   2.606   2.298
    1C        C  238   4.195   2.731   2.421
    1C        C  239   4.083   2.643   2.419
    1C        C  240   4.244   2.785   2.541
    1C        C  241   4.190   2.744   2.665
    1C        C  242   4.334   2.904   2.781
    1C        C  243   4.247   2.792   2.784
    1C        C  244   4.376   2.962   2.903
    1C        C  245   4.338   2.907   3.027
    1C        C  246   4.440   3.090   3.148
    1C        C  247   4.376   2.964   3.151
    1C        C  248   4.465   3.158   3.269
    1C        C  249   4.440   3.094   3.392
    1C        C  250   4.502   3.300   3.513
    1C        C  251   4.463   3.165   3.512
    1C        C  252   4.515   3.370   3.635
    1C        C  253   4.501   3.302   3.758
    1C        C  254   4.524   3.513   3.877
    1C        C  255   4.517   3.372   3.880
    1C        C  256   4.517   3.585   3.999
    1C        C  257   4.519   3.516   4.122
    1C        C  258   4.481   3.727   4.238
    1C        C  259   4.512   3.589   4.242
    1C        C  260   4.464   3.797   4.359
    1C        C  261   4.485   3.732   4.483
    1C        C  262   4.415   3.937   4.602
    1C        C  263   4.469   3.806   4.601
    1C        C  264   4.394   4.006   4.724
    1C        C  265   4.428   3.941   4.844
    1C        C  266   4.316   4.128   4.958
    1C        C  267   4.386   4.008   4.960
    1C        C  268   4.260   2.771   2.062
    1C        C  269   4.193   2.732   2.179
    1C        C  270   4.344   2.885   2.299
    1C        C  271   4.250   2.778   2.299
    1C        C  272   4.381   2.949   2.419
    1C        C  273   4.336   2.893   2.540
    1C        C  274   4.448   3.080   2.660
    1C        C  275   4.380   2.956   2.658
    1C        C  276   4.474   3.148   2.781
    1C        C  277   4.448   3.083   2.904
    1C        C  278   4.506   3.289   3.022
    1C        C  279   4.472   3.152   3.025
    1C        C  280   4.518   3.361   3.143
    1C        C  281   4.498   3.295   3.267
    1C        C  282   4.513   3.507   3.387
    1C        C  283   4.512   3.366   3.388
    1C        C  284   4.509   3.579   3.509
    1C        C  285   4.516   3.512   3.632
    1C        C  286   4.490   3.721   3.750
    1C        C  287   4.516   3.583   3.755
    1C        C  288   4.475   3.791   3.872
    1C        C  289   4.489   3.724   3.996
    1C        C  290   4.418   3.928   4.114
    1C        C  291   4.467   3.796   4.115
    1C        C  292   4.389   3.995   4.235
    1C        C  293   4.421   3.932   4.357
    1C        C  294   4.322   4.123   4.476
    1C        C  295   4.392   4.000   4.478
    1C        C  296   4.280   4.184   4.596
    1C        C  297   4.321   4.128   4.719
    1C        C  298   4.192   4.306   4.837
    1C        C  299   4.276   4.190   4.839
    1C        C  300   4.169   4.398   4.944
    1C        C  301   4.345   2.882   2.062
    1C        C  302   4.466   3.066   2.175
    1C        C  303   4.395   2.942   2.179
    1C        C  304   4.473   3.140   2.296
    1C        C  305   4.447   3.074   2.418
    1C        C  306   4.514   3.280   2.536
    1C        C  307   4.480   3.143   2.537
    1C        C  308   4.519   3.354   2.656
    1C        C  309   4.507   3.285   2.779
    1C        C  310   4.525   3.499   2.897
    1C        C  311   4.518   3.358   2.900
    1C        C  312   4.518   3.572   3.018
    1C        C  313   4.517   3.503   3.141
    1C        C  314   4.487   3.714   3.259
    1C        C  315   4.509   3.574   3.263
    1C        C  316   4.471   3.784   3.381
    1C        C  317   4.489   3.719   3.505
    1C        C  318   4.416   3.919   3.625
    1C        C  319   4.468   3.788   3.627
    1C        C  320   4.387   3.983   3.748
    1C        C  321   4.421   3.921   3.870
    1C        C  322   4.314   4.110   3.988
    1C        C  323   4.386   3.988   3.990
    1C        C  324   4.272   4.170   4.109
    1C        C  325   4.317   4.116   4.232
    1C        C  326   4.181   4.278   4.350
    1C        C  327   4.283   4.180   4.353
    1C        C  328   4.134   4.335   4.470
    1C        C  329   4.190   4.293   4.593
    1C        C  330   4.025   4.433   4.711
    1C        C  331   4.140   4.350   4.713
    1C        C  332   3.971   4.489   4.829
    1C        C  333   4.049   4.471   4.943
    1C        C  334   4.552   3.262   2.062
    1C        C  335   4.529   3.124   2.060
    1C        C  336   4.537   3.346   2.173
    1C        C  337   4.513   3.277   2.294
    1C        C  338   4.528   3.491   2.410
    1C        C  339   4.525   3.350   2.414
    1C        C  340   4.519   3.566   2.530
    1C        C  341   4.523   3.495   2.651
    1C        C  342   4.493   3.706   2.773
    1C        C  343   4.520   3.567   2.773
    1C        C  344   4.473   3.777   2.893
    1C        C  345   4.490   3.710   3.016
    1C        C  346   4.417   3.912   3.135
    1C        C  347   4.475   3.783   3.137
    1C        C  348   4.386   3.976   3.257
    1C        C  349   4.419   3.916   3.381
    1C        C  350   4.311   4.101   3.502
    1C        C  351   4.388   3.982   3.502
    1C        C  352   4.265   4.159   3.622
    1C        C  353   4.309   4.100   3.743
    1C        C  354   4.175   4.265   3.864
    1C        C  355   4.275   4.165   3.864
    1C        C  356   4.120   4.316   3.984
    1C        C  357   4.174   4.271   4.106
    1C        C  358   4.008   4.404   4.229
    1C        C  359   4.122   4.320   4.229
    1C        C  360   3.949   4.445   4.350
    1C        C  361   4.018   4.415   4.469
    1C        C  362   3.830   4.518   4.592
    1C        C  363   3.958   4.460   4.589
    1C        C  364   3.763   4.549   4.713
    1C        C  365   3.840   4.544   4.831
    1C        C  366   3.628   4.594   4.948
    1C        C  367   3.765   4.574   4.945
    1C        C  368   4.508   3.558   2.051
    1C        C  369   4.522   3.486   2.170
    1C        C  370   4.498   3.702   2.284
    1C        C  371   4.517   3.562   2.288
    1C        C  372   4.482   3.773   2.405
    1C        C  373   4.496   3.706   2.528
    1C        C  374   4.417   3.903   2.645
    1C        C  375   4.471   3.772   2.650
    1C        C  376   4.387   3.968   2.767
    1C        C  377   4.423   3.909   2.890
    1C        C  378   4.308   4.089   3.010
    1C        C  379   4.389   3.974   3.011
    1C        C  380   4.267   4.146   3.132
    1C        C  381   4.310   4.094   3.256
    1C        C  382   4.172   4.256   3.373
    1C        C  383   4.267   4.152   3.378
    1C        C  384   4.118   4.304   3.495
    1C        C  385   4.169   4.262   3.620
    1C        C  386   4.006   4.395   3.740
    1C        C  387   4.120   4.312   3.743
    1C        C  388   3.944   4.435   3.860
    1C        C  389   4.007   4.401   3.982
    1C        C  390   3.820   4.495   4.107
    1C        C  391   3.947   4.435   4.106
    1C        C  392   3.752   4.521   4.228
    1C        C  393   3.824   4.512   4.350
    1C        C  394   3.618   4.559   4.474
    1C        C  395   3.758   4.538   4.472
    1C        C  396   3.545   4.567   4.595
    1C        C  397   3.622   4.564   4.713
    1C        C  398   3.410   4.555   4.838
    1C        C  399   3.550   4.574   4.834
    1C        C  400   3.339   4.517   4.953
    1C        C  401   4.502   3.697   2.046
    1C        C  402   4.450   3.909   2.165
    1C        C  403   4.490   3.773   2.163
    1C        C  404   4.407   3.972   2.283
    1C        C  405   4.428   3.904   2.405
    1C        C  406   4.315   4.090   2.524
    1C        C  407   4.389   3.969   2.524
    1C        C  408   4.269   4.144   2.645
    1C        C  409   4.313   4.088   2.767
    1C        C  410   4.170   4.250   2.887
    1C        C  411   4.267   4.147   2.887
    1C        C  412   4.116   4.295   3.009
    1C        C  413   4.169   4.248   3.132
    1C        C  414   4.001   4.383   3.251
    1C        C  415   4.117   4.302   3.252
    1C        C  416   3.941   4.422   3.373
    1C        C  417   4.003   4.386   3.495
    1C        C  418   3.816   4.486   3.617
    1C        C  419   3.943   4.425   3.617
    1C        C  420   3.748   4.511   3.739
    1C        C  421   3.814   4.491   3.862
    1C        C  422   3.613   4.545   3.987
    1C        C  423   3.752   4.519   3.985
    1C        C  424   3.541   4.546   4.109
    1C        C  425   3.613   4.544   4.230
    1C        C  426   3.404   4.554   4.357
    1C        C  427   3.545   4.560   4.353
    1C        C  428   3.331   4.543   4.477
    1C        C  429   3.404   4.558   4.598
    1C        C  430   3.195   4.517   4.720
    1C        C  431   3.334   4.546   4.719
    1C        C  432   3.125   4.493   4.842
    1C        C  433   3.203   4.488   4.958
    1C        C  434   4.381   4.119   2.050
    1C        C  435   4.444   3.994   2.054
    1C        C  436   4.296   4.154   2.160
    1C        C  437   4.323   4.087   2.282
    1C        C  438   4.177   4.249   2.402
    1C        C  439   4.273   4.145   2.401
    1C        C  440   4.123   4.298   2.523
    1C        C  441   4.175   4.249   2.645
    1C        C  442   4.002   4.378   2.763
    1C        C  443   4.120   4.300   2.765
    1C        C  444   3.941   4.418   2.884
    1C        C  445   4.003   4.380   3.005
    1C        C  446   3.810   4.467   3.127
    1C        C  447   3.940   4.413   3.127
    1C        C  448   3.746   4.497   3.250
    1C        C  449   3.812   4.478   3.373
    1C        C  450   3.607   4.529   3.496
    1C        C  451   3.746   4.503   3.496
    1C        C  452   3.538   4.543   3.618
    1C        C  453   3.609   4.540   3.740
    1C        C  454   3.401   4.549   3.864
    1C        C  455   3.542   4.547   3.864
    1C        C  456   3.333   4.536   3.987
    1C        C  457   3.400   4.540   4.112
    1C        C  458   3.196   4.500   4.236
    1C        C  459   3.333   4.535   4.236
    1C        C  460   3.130   4.479   4.359
    1C        C  461   3.194   4.511   4.481
    1C        C  462   2.995   4.433   4.603
    1C        C  463   3.123   4.491   4.601
    1C        C  464   2.930   4.396   4.723
    1C        C  465   2.991   4.442   4.842
    1C        C  466   2.802   4.335   4.958
    1C        C  467   2.908   4.427   4.958
    1C        C  468   4.128   4.289   2.042
    1C        C  469   4.188   4.248   2.162
    1C        C  470   4.005   4.373   2.277
    1C        C  471   4.127   4.300   2.280
    1C        C  472   3.941   4.407   2.398
    1C        C  473   4.005   4.376   2.520
    1C        C  474   3.814   4.475   2.640
    1C        C  475   3.941   4.412   2.641
    1C        C  476   3.744   4.497   2.761
    1C        C  477   3.813   4.477   2.883
    1C        C  478   3.607   4.529   3.009
    1C        C  479   3.744   4.496   3.005
    1C        C  480   3.534   4.535   3.129
    1C        C  481   3.607   4.525   3.250
    1C        C  482   3.397   4.535   3.377
    1C        C  483   3.538   4.536   3.372
    1C        C  484   3.325   4.531   3.498
    1C        C  485   3.397   4.541   3.620
    1C        C  486   3.193   4.496   3.746
    1C        C  487   3.329   4.535   3.743
    1C        C  488   3.129   4.476   3.870
    1C        C  489   3.197   4.499   3.991
    1C        C  490   3.006   4.409   4.115
    1C        C  491   3.132   4.472   4.114
    1C        C  492   2.943   4.377   4.237
    1C        C  493   3.005   4.413   4.359
    1C        C  494   2.830   4.295   4.481
    1C        C  495   2.940   4.384   4.481
    1C        C  496   2.774   4.253   4.603
    1C        C  497   2.817   4.309   4.725
    1C        C  498   2.664   4.160   4.845
    1C        C  499   2.752   4.271   4.844
    1C        C  500   2.588   4.118   4.955
    1C        C  501   4.005   4.355   2.040
    1C        C  502   3.813   4.462   2.156
    1C        C  503   3.938   4.398   2.155
    1C        C  504   3.746   4.494   2.276
    1C        C  505   3.815   4.469   2.397
    1C        C  506   3.607   4.516   2.521
    1C        C  507   3.747   4.495   2.518
    1C        C  508   3.533   4.526   2.641
    1C        C  509   3.605   4.522   2.762
    1C        C  510   3.396   4.531   2.886
    1C        C  511   3.538   4.530   2.886
    1C        C  512   3.324   4.524   3.006
    1C        C  513   3.393   4.533   3.129
    1C        C  514   3.190   4.493   3.258
    1C        C  515   3.327   4.526   3.254
    1C        C  516   3.121   4.469   3.379
    1C        C  517   3.188   4.498   3.500
    1C        C  518   3.001   4.409   3.625
    1C        C  519   3.123   4.479   3.624
    1C        C  520   2.947   4.366   3.748
    1C        C  521   3.007   4.404   3.870
    1C        C  522   2.837   4.279   3.992
    1C        C  523   2.946   4.369   3.993
    1C        C  524   2.787   4.233   4.116
    1C        C  525   2.833   4.288   4.238
    1C        C  526   2.693   4.131   4.363
    1C        C  527   2.779   4.242   4.361
    1C        C  528   2.651   4.074   4.485
    1C        C  529   2.688   4.141   4.604
    1C        C  530   2.588   3.955   4.730
    1C        C  531   2.640   4.088   4.726
    1C        C  532   2.543   3.898   4.851
    1C        C  533   2.529   3.991   4.959
    1C        C  534   3.617   4.552   2.037
    1C        C  535   3.750   4.510   2.040
    1C        C  536   3.536   4.537   2.155
    1C        C  537   3.607   4.522   2.277
    1C        C  538   3.395   4.523   2.398
    1C        C  539   3.536   4.524   2.399
    1C        C  540   3.322   4.518   2.519
    1C        C  541   3.392   4.526   2.642
    1C        C  542   3.186   4.486   2.767
    1C        C  543   3.323   4.520   2.765
    1C        C  544   3.120   4.463   2.890
    1C        C  545   3.188   4.484   3.012
    1C        C  546   3.001   4.396   3.135
    1C        C  547   3.125   4.463   3.136
    1C        C  548   2.940   4.361   3.258
    1C        C  549   2.996   4.403   3.380
    1C        C  550   2.837   4.270   3.506
    1C        C  551   2.941   4.365   3.505
    1C        C  552   2.783   4.224   3.628
    1C        C  553   2.838   4.276   3.748
    1C        C  554   2.698   4.118   3.876
    1C        C  555   2.788   4.227   3.871
    1C        C  556   2.657   4.062   3.999
    1C        C  557   2.700   4.122   4.119
    1C        C  558   2.595   3.940   4.244
    1C        C  559   2.658   4.067   4.242
    1C        C  560   2.569   3.878   4.368
    1C        C  561   2.587   3.948   4.490
    1C        C  562   2.527   3.746   4.615
    1C        C  563   2.557   3.884   4.612
    1C        C  564   2.516   3.678   4.738
    1C        C  565   2.520   3.756   4.856
    1C        C  566   2.527   3.547   4.976
    1C        C  567   2.518   3.685   4.977
    1C        C  568   3.326   4.478   2.040
    1C        C  569   3.396   4.512   2.157
    1C        C  570   3.184   4.477   2.280
    1C        C  571   3.322   4.512   2.278
    1C        C  572   3.119   4.452   2.403
    1C        C  573   3.185   4.484   2.524
    1C        C  574   2.991   4.400   2.648
    1C        C  575   3.117   4.464   2.646
    1C        C  576   2.931   4.359   2.769
    1C        C  577   2.994   4.399   2.889
    1C        C  578   2.828   4.272   3.015
    1C        C  579   2.941   4.358   3.013
    1C        C  580   2.785   4.218   3.138
    1C        C  581   2.833   4.270   3.260
    1C        C  582   2.698   4.109   3.385
    1C        C  583   2.786   4.219   3.384
    1C        C  584   2.659   4.052   3.508
    1C        C  585   2.694   4.114   3.631
    1C        C  586   2.594   3.932   3.756
    1C        C  587   2.656   4.059   3.755
    1C        C  588   2.570   3.869   3.880
    1C        C  589   2.596   3.934   4.003
    1C        C  590   2.530   3.733   4.128
    1C        C  591   2.569   3.869   4.125
    1C        C  592   2.523   3.668   4.253
    1C        C  593   2.531   3.742   4.373
    1C        C  594   2.509   3.531   4.496
    1C        C  595   2.515   3.672   4.495
    1C        C  596   2.513   3.462   4.619
    1C        C  597   2.516   3.535   4.740
    1C        C  598   2.528   3.324   4.863
    1C        C  599   2.523   3.465   4.862
    1C        C  600   2.524   3.244   4.978
    1C        C  601   3.194   4.441   2.042
    1C        C  602   2.983   4.395   2.159
    1C        C  603   3.117   4.445   2.159
    1C        C  604   2.929   4.353   2.284
    1C        C  605   2.991   4.393   2.404
    1C        C  606   2.821   4.270   2.526
    1C        C  607   2.930   4.361   2.528
    1C        C  608   2.774   4.216   2.647
    1C        C  609   2.824   4.266   2.770
    1C        C  610   2.692   4.107   2.895
    1C        C  611   2.776   4.221   2.895
    1C        C  612   2.653   4.051   3.018
    1C        C  613   2.694   4.109   3.140
    1C        C  614   2.591   3.926   3.266
    1C        C  615   2.654   4.052   3.263
    1C        C  616   2.567   3.862   3.390
    1C        C  617   2.594   3.927   3.513
    1C        C  618   2.531   3.727   3.637
    1C        C  619   2.566   3.864   3.636
    1C        C  620   2.520   3.662   3.762
    1C        C  621   2.529   3.733   3.883
    1C        C  622   2.502   3.523   4.010
    1C        C  623   2.516   3.664   4.006
    1C        C  624   2.509   3.454   4.133
    1C        C  625   2.509   3.527   4.254
    1C        C  626   2.532   3.317   4.380
    1C        C  627   2.510   3.456   4.376
    1C        C  628   2.554   3.251   4.503
    1C        C  629   2.533   3.322   4.624
    1C        C  630   2.588   3.113   4.743
    1C        C  631   2.548   3.250   4.744
    1C        C  632   2.608   3.043   4.865
    1C        C  633   2.552   3.107   4.981
    1C        C  634   2.779   4.307   2.054
    1C        C  635   2.893   4.387   2.047
    1C        C  636   2.747   4.229   2.166
    1C        C  637   2.812   4.272   2.283
    1C        C  638   2.681   4.108   2.407
    1C        C  639   2.763   4.223   2.406
    1C        C  640   2.642   4.049   2.529
    1C        C  641   2.687   4.105   2.651
    1C        C  642   2.587   3.920   2.777
    1C        C  643   2.650   4.046   2.774
    1C        C  644   2.559   3.857   2.901
    1C        C  645   2.590   3.925   3.021
    1C        C  646   2.534   3.722   3.147
    1C        C  647   2.569   3.859   3.144
    1C        C  648   2.516   3.655   3.270
    1C        C  649   2.531   3.726   3.392
    1C        C  650   2.511   3.516   3.517
    1C        C  651   2.518   3.658   3.515
    1C        C  652   2.512   3.450   3.642
    1C        C  653   2.510   3.521   3.764
    1C        C  654   2.530   3.314   3.887
    1C        C  655   2.505   3.453   3.888
    1C        C  656   2.551   3.248   4.011
    1C        C  657   2.532   3.315   4.134
    1C        C  658   2.603   3.119   4.257
    1C        C  659   2.546   3.248   4.258
    1C        C  660   2.637   3.058   4.380
    1C        C  661   2.597   3.116   4.502
    1C        C  662   2.703   2.930   4.623
    1C        C  663   2.625   3.048   4.623
    1C        C  664   2.744   2.872   4.745
    1C        C  665   2.693   2.927   4.865
    1C        C  666   2.737   2.864   4.982
    1C        C  667   2.688   4.021   2.052
    1C        C  668   2.685   4.103   2.165
    1C        C  669   2.591   3.912   2.289
    1C        C  670   2.644   4.044   2.287
    1C        C  671   2.564   3.851   2.413
    1C        C  672   2.584   3.920   2.534
    1C        C  673   2.520   3.717   2.658
    1C        C  674   2.558   3.854   2.656
    1C        C  675   2.510   3.648   2.780
    1C        C  676   2.529   3.719   2.901
    1C        C  677   2.504   3.511   3.027
    1C        C  678   2.524   3.651   3.025
    1C        C  679   2.504   3.443   3.151
    1C        C  680   2.504   3.514   3.273
    1C        C  681   2.531   3.305   3.398
    1C        C  682   2.507   3.445   3.396
    1C        C  683   2.549   3.239   3.521
    1C        C  684   2.530   3.309   3.642
    1C        C  685   2.607   3.115   3.768
    1C        C  686   2.547   3.243   3.766
    1C        C  687   2.641   3.055   3.891
    1C        C  688   2.607   3.118   4.012
    1C        C  689   2.714   2.938   4.136
    1C        C  690   2.641   3.058   4.135
    1C        C  691   2.754   2.882   4.260
    1C        C  692   2.711   2.937   4.382
    1C        C  693   2.747   2.873   4.502
    1C        C  694   2.632   3.892   2.052
    1C        C  695   2.522   3.708   2.176
    1C        C  696   2.582   3.836   2.170
    1C        C  697   2.503   3.639   2.298
    1C        C  698   2.522   3.716   2.414
    1C        C  699   2.489   3.506   2.541
    1C        C  700   2.504   3.647   2.536
    1C        C  701   2.500   3.435   2.662
    1C        C  702   2.502   3.507   2.784
    1C        C  703   2.528   3.298   2.910
    1C        C  704   2.504   3.437   2.907
    1C        C  705   2.547   3.233   3.034
    1C        C  706   2.529   3.304   3.155
    1C        C  707   2.598   3.103   3.276
    1C        C  708   2.547   3.235   3.277
    1C        C  709   2.635   3.046   3.400
    1C        C  710   2.604   3.109   3.523
    1C        C  711   2.713   2.930   3.648
    1C        C  712   2.637   3.049   3.647
    1C        C  713   2.755   2.875   3.771
    1C        C  714   2.718   2.936   3.893
    1C        C  715   2.756   2.877   4.015
    1C        C  716   2.454   3.501   2.062
    1C        C  717   2.493   3.635   2.060
    1C        C  718   2.466   3.423   2.181
    1C        C  719   2.478   3.499   2.301
    1C        C  720   2.513   3.291   2.425
    1C        C  721   2.482   3.429   2.423
    1C        C  722   2.539   3.223   2.546
    1C        C  723   2.522   3.296   2.666
    1C        C  724   2.594   3.097   2.788
    1C        C  725   2.537   3.227   2.789
    1C        C  726   2.624   3.034   2.911
    1C        C  727   2.596   3.100   3.032
    1C        C  728   2.708   2.921   3.158
    1C        C  729   2.629   3.038   3.155
    1C        C  730   2.757   2.873   3.282
    1C        C  731   2.715   2.929   3.404
    1C        C  732   2.752   2.870   3.526
    1C        C  733   2.491   3.201   2.071
    1C        C  734   2.484   3.281   2.185
    1C        C  735   2.572   3.083   2.306
    1C        C  736   2.520   3.215   2.306
    1C        C  737   2.601   3.014   2.427
    1C        C  738   2.579   3.087   2.545
    1C        C  739   2.699   2.912   2.668
    1C        C  740   2.619   3.028   2.667
    1C        C  741   2.739   2.858   2.792
    1C        C  742   2.696   2.913   2.915
    1C        C  743   2.746   2.861   3.036
    1C        C  744   2.545   3.072   2.073
    1C        C  745   2.678   2.895   2.185
    1C        C  746   2.601   3.013   2.187
    1C        C  747   2.729   2.841   2.306
    1C        C  748   2.681   2.898   2.425
    1C        C  749   2.733   2.847   2.547
    1C        C  750   2.733   2.839   2.069
    1C        C  751   3.659   2.309   1.984
    1C        O  752   3.608   2.194   1.983
    1C        O  753   3.705   2.349   1.858
    1C        C  754   4.627   3.052   1.976
    1C        O  755   4.608   3.053   1.851
    1C        O  756   4.760   3.053   2.019
    1C        C  757   4.414   4.212   1.940
    1C        O  758   4.512   4.289   1.953
    1C        O  759   4.392   4.184   1.805
    1C        C  760   3.577   4.640   1.925
    1C        O  761   3.578   4.764   1.944
    1C        O  762   3.609   4.592   1.797
    1C        C  763   2.892   4.480   1.931
    1C        O  764   2.938   4.453   1.817
    1C        O  765   2.804   4.588   1.933
    1C        C  766   2.342   3.482   1.967
    1C        O  767   2.359   3.513   1.846
    1C        O  768   2.211   3.507   2.008
    1C        C  769   4.707   3.590   5.033
    1C        O  770   4.717   3.556   5.154
    1C        O  771   4.822   3.645   4.976
    1C        C  772   4.279   4.443   5.033
    1C        O  773   4.281   4.431   5.158
    1C        O  774   4.410   4.461   4.985
    1C        C  775   4.151   2.515   5.065
    1C        O  776   4.257   2.462   5.022
    1C        O  777   4.167   2.532   5.203
    1C        C  778   2.887   4.534   5.057
    1C        O  779   2.837   4.646   5.028
    1C        O  780   2.915   4.527   5.195
    1C        C  781   2.481   3.037   5.090
    1C        O  782   2.362   2.994   5.083
    1C        O  783   2.529   3.051   5.220
    1C        C  784   2.414   3.979   5.052
    1C        O  785   2.332   4.074   5.037
    1C        O  786   2.452   3.961   5.185
    1C        C  787   2.945   2.422   2.013
    1C        O  788   2.888   2.460   1.907
    1C        O  789   2.902   2.299   2.062
    1C        C  790   3.158   2.363   5.037
    1C        O  791   3.114   2.270   4.964
    1C        O  792   3.139   2.333   5.172
    1C        H  793   4.281   3.018   5.063
    1C        H  794   4.172   2.813   5.071
    1C        H  795   4.551   3.126   5.039
    1C        H  796   4.489   3.368   5.062
    1C        H  797   4.544   3.800   5.053
    1C        H  798   4.431   3.977   5.052
    1C        H  799   4.270   4.157   5.049
    1C        H  800   4.045   4.552   5.013
    1C        H  801   3.811   4.582   5.041
    1C        H  802   3.579   4.621   5.040
    1C        H  803   3.396   4.489   5.039
    1C        H  804   3.186   4.410   5.029
    1C        H  805   3.873   2.525   5.075
    1C        H  806   3.677   2.489   5.072
    1C        H  807   3.012   2.572   5.069
    1C        H  808   3.441   2.431   5.066
    1C        H  809   2.884   2.747   5.075
    1C        H  810   2.728   2.917   5.074
    1C        H  811   2.438   3.267   5.036
    1C        H  812   2.573   3.503   5.062
    1C        H  813   2.470   3.734   5.060
    1C        H  814   2.576   4.187   5.035
    1C        H  815   2.766   4.312   5.056
    1C        H  816   2.694   2.871   1.975
    1C        H  817   2.827   2.669   1.982
    1C        H  818   3.219   2.511   1.990
    1C        H  819   3.425   2.445   1.980
    1C        H  820   3.834   2.561   1.979
    1C        H  821   4.080   2.557   1.982
    1C        H  822   4.268   2.702   1.982
    1C        H  823   4.353   2.930   1.967
    1C        H  824   4.629   3.300   1.997
    1C        H  825   4.479   3.502   1.964
    1C        H  826   4.461   3.730   1.953
    1C        H  827   3.811   4.548   1.960
    1C        H  828   3.960   4.369   1.944
    1C        H  829   4.178   4.273   1.949
    1C        H  830   4.523   3.977   1.984
    1C        H  831   2.656   3.830   1.968
    1C        H  832   2.737   4.055   1.963
    1C        H  833   2.697   4.335   1.991
    1C        H  834   3.366   4.511   1.946
    1C        H  835   3.145   4.446   1.947
    1C        H  836   2.493   3.003   2.010
    1C        H  837   2.497   3.249   1.975
    1C        H  838   2.536   3.670   1.969
    2V3OU   H29  839   2.810   3.553   1.987
    2V3OU   C27  840   2.785   3.499   2.083
    2V3OU   H27  841   2.727   3.569   2.148
    2V3OU   H28  842   2.729   3.403   2.067
    2V3OU   O11  843   2.908   3.478   2.153
    2V3OU   C15  844   2.927   3.397   2.263
    2V3OU   C13  845   3.050   3.372   2.327
    2V3OU   C14  846   3.077   3.267   2.415
    2V3OU   C16  847   2.974   3.183   2.455
    2V3OU    H6  848   2.993   3.093   2.514
    2V3OU   C12  849   3.212   3.219   2.454
    2V3OU    O2  850   3.232   3.127   2.536
    2V3OU   C10  851   3.322   3.311   2.419
    2V3OU    C8  852   3.453   3.271   2.442
    2V3OU   O10  853   3.489   3.155   2.503
    2V3OU   H26  854   3.409   3.111   2.537
    2V3OU    C6  855   3.565   3.346   2.393
    2V3OU    C5  856   3.537   3.466   2.329
    2V3OU    C4  857   3.704   3.292   2.398
    2V3OU    H4  858   3.724   3.227   2.488
    2V3OU    H5  859   3.713   3.230   2.304
    2V3OU    C2  860   3.813   3.399   2.392
    2V3OU    O6  861   3.809   3.473   2.514
    2V3OU   H21  862   3.762   3.556   2.496
    2V3OU    C3  863   3.778   3.499   2.282
    2V3OU    H2  864   3.862   3.573   2.278
    2V3OU    H3  865   3.779   3.440   2.187
    2V3OU   C25  866   3.944   3.326   2.363
    2V3OU    O7  867   3.989   3.296   2.253
    2V3OU   C26  868   4.029   3.285   2.482
    2V3OU   H22  869   4.067   3.380   2.528
    2V3OU   H23  870   4.116   3.223   2.448
    2V3OU    O8  871   3.962   3.213   2.584
    2V3OU   H24  872   3.926   3.267   2.656
    2V3OU    C1  873   3.643   3.567   2.298
    2V3OU    H1  874   3.618   3.617   2.200
    2V3OU    O3  875   3.656   3.656   2.409
    2V3OU   C19  876   3.614   3.792   2.399
    2V3OU    H9  877   3.515   3.794   2.345
    2V3OU    O4  878   3.711   3.854   2.318
    2V3OU   C20  879   3.844   3.874   2.368
    2V3OU   H10  880   3.892   3.772   2.372
    2V3OU   C24  881   3.608   3.853   2.539
    2V3OU   H16  882   3.544   3.792   2.609
    2V3OU   H17  883   3.565   3.954   2.517
    2V3OU   C23  884   3.748   3.876   2.596
    2V3OU   H15  885   3.789   3.772   2.619
    2V3OU    N1  886   3.733   3.959   2.714
    2V3OU   H19  887   3.798   3.926   2.783
    2V3OU   H20  888   3.644   3.932   2.749
    2V3OU   C21  889   3.851   3.947   2.503
    2V3OU   H11  890   3.954   3.927   2.545
    2V3OU    O5  891   3.826   4.086   2.498
    2V3OU   H18  892   3.788   4.094   2.587
    2V3OU   C22  893   3.912   3.947   2.254
    2V3OU   H12  894   3.855   4.041   2.233
    2V3OU   H13  895   3.903   3.889   2.158
    2V3OU   H14  896   4.022   3.954   2.272
    2V3OU   C11  897   3.160   3.465   2.300
    2V3OU    O1  898   3.132   3.583   2.270
    2V3OU    C9  899   3.297   3.426   2.340
    2V3OU    C7  900   3.403   3.507   2.300
    2V3OU    O9  901   3.384   3.620   2.223
    2V3OU   H25  902   3.287   3.629   2.223
    2V3OU   C17  903   2.823   3.312   2.307
    2V3OU    H7  904   2.723   3.345   2.280
    2V3OU   C18  905   2.849   3.211   2.399
    2V3OU    H8  906   2.770   3.167   2.461
    3SOL     OW  907   3.572   4.717   0.934
    3SOL    HW1  908   3.536   4.653   1.001
    3SOL    HW2  909   3.660   4.684   0.900
    4SOL     OW  910   6.749   5.959   1.718
    4SOL    HW1  911   6.704   5.874   1.690
    4SOL    HW2  912   6.820   5.938   1.785
    5SOL     OW  913   4.330   1.438   2.647
    5SOL    HW1  914   4.375   1.366   2.698
    5SOL    HW2  915   4.396   1.510   2.625
    6SOL     OW  916   4.126   1.343   0.850
    6SOL    HW1  917   4.115   1.260   0.905
    6SOL    HW2  918   4.100   1.323   0.755
    7SOL     OW  919   6.659   3.535   2.229
    7SOL    HW1  920   6.747   3.577   2.208
    7SOL    HW2  921   6.642   3.542   2.328
    8SOL     OW  922   2.619   0.246   6.271
    8SOL    HW1  923   2.706   0.209   6.302
    8SOL    HW2  924   2.547   0.176   6.281
    9SOL     OW  925   6.823   5.420   6.702
    9SOL    HW1  926   6.911   5.433   6.748
    9SOL    HW2  927   6.749   5.428   6.769
   10SOL     OW  928   0.865   5.230   5.879
   10SOL    HW1  929   0.908   5.308   5.833
   10SOL    HW2  930   0.787   5.198   5.825
   11SOL     OW  931   2.680   0.268   6.614
   11SOL    HW1  932   2.706   0.223   6.699
   11SOL    HW2  933   2.649   0.199   6.548
   12SOL     OW  934   3.797   6.418   4.278
   12SOL    HW1  935   3.826   6.451   4.188
   12SOL    HW2  936   3.817   6.320   4.285
   13SOL     OW  937   3.448   5.563   3.740
   13SOL    HW1  938   3.422   5.633   3.806
   13SOL    HW2  939   3.486   5.605   3.658
   14SOL     OW  940   4.859   4.801   6.321
   14SOL    HW1  941   4.944   4.843   6.352
   14SOL    HW2  942   4.854   4.802   6.221
   15SOL     OW  943   1.411   5.907   1.257
   15SOL    HW1  944   1.452   5.913   1.348
   15SOL    HW2  945   1.315   5.880   1.265
   16SOL     OW  946   5.403   2.971   5.711
   16SOL    HW1  947   5.354   3.059   5.709
   16SOL    HW2  948   5.501   2.988   5.725
   17SOL     OW  949   5.307   6.224   5.573
   17SOL    HW1  950   5.343   6.151   5.515
   17SOL    HW2  951   5.237   6.187   5.634
   18SOL     OW  952   3.384   0.926   6.009
   18SOL    HW1  953   3.406   0.860   5.937
   18SOL    HW2  954   3.345   1.008   5.967
   19SOL     OW  955   0.555   0.112   3.244
   19SOL    HW1  956   0.579   0.150   3.333
   19SOL    HW2  957   0.621   0.145   3.176
   20SOL     OW  958   5.408   2.735   4.768
   20SOL    HW1  959   5.357   2.676   4.830
   20SOL    HW2  960   5.474   2.789   4.820
   21SOL     OW  961   3.069   2.138   2.492
   21SOL    HW1  962   3.058   2.039   2.487
   21SOL    HW2  963   3.011   2.182   2.424
   22SOL     OW  964   2.233   6.834   6.842
   22SOL    HW1  965   2.292   6.837   6.923
   22SOL    HW2  966   2.156   6.896   6.855
   23SOL     OW  967   4.815   6.386   3.210
   23SOL    HW1  968   4.900   6.334   3.225
   23SOL    HW2  969   4.778   6.363   3.120
   24SOL     OW  970   4.867   1.110   3.397
   24SOL    HW1  971   4.855   1.035   3.333
   24SOL    HW2  972   4.936   1.085   3.465
   25SOL     OW  973   2.976   0.114   4.968
   25SOL    HW1  974   3.074   0.098   4.960
   25SOL    HW2  975   2.956   0.210   4.945
   26SOL     OW  976   6.387   0.931   0.304
   26SOL    HW1  977   6.310   0.963   0.248
   26SOL    HW2  978   6.409   1.000   0.373
   27SOL     OW  979   0.802   1.476   1.953
   27SOL    HW1  980   0.815   1.552   1.889
   27SOL    HW2  981   0.734   1.413   1.915
   28SOL     OW  982   3.610   1.518   6.525
   28SOL    HW1  983   3.667   1.492   6.603
   28SOL    HW2  984   3.613   1.617   6.514
   29SOL     OW  985   4.976   2.872   1.665
   29SOL    HW1  986   5.009   2.966   1.655
   29SOL    HW2  987   4.968   2.850   1.762
   30SOL     OW  988   3.481   1.019   4.429
   30SOL    HW1  989   3.504   1.004   4.332
   30SOL    HW2  990   3.553   0.980   4.486
   31SOL     OW  991   0.684   2.516   5.799
   31SOL    HW1  992   0.682   2.428   5.751
   31SOL    HW2  993   0.638   2.586   5.744
   32SOL     OW  994   0.274   1.838   3.196
   32SOL    HW1  995   0.234   1.916   3.149
   32SOL    HW2  996   0.255   1.754   3.146
   33SOL     OW  997   2.267   3.833   6.846
   33SOL    HW1  998   2.349   3.858   6.897
   33SOL    HW2  999   2.259   3.892   6.766
   34SOL     OW 1000   2.333   1.776   3.438
   34SOL    HW1 1001   2.254   1.736   3.485
   34SOL    HW2 1002   2.359   1.861   3.483
   35SOL     OW 1003   3.425   2.760   6.705
   35SOL    HW1 1004   3.418   2.844   6.650
   35SOL    HW2 1005   3.388   2.683   6.653
   36SOL     OW 1006   6.324   0.956   5.583
   36SOL    HW1 1007   6.290   0.997   5.668
   36SOL    HW2 1008   6.311   0.857   5.586
   37SOL     OW 1009   1.201   0.287   0.593
   37SOL    HW1 1010   1.287   0.238   0.578
   37SOL    HW2 1011   1.124   0.225   0.578
   38SOL     OW 1012   0.107   4.597   2.518
   38SOL    HW1 1013   0.042   4.673   2.518
   38SOL    HW2 1014   0.149   4.589   2.428
   39SOL     OW 1015   0.028   5.218   6.777
   39SOL    HW1 1016   6.966   5.207   6.830
   39SOL    HW2 1017   0.042   5.138   6.719
   40SOL     OW 1018   5.339   2.194   1.610
   40SOL    HW1 1019   5.254   2.143   1.601
   40SOL    HW2 1020   5.375   2.215   1.519
   41SOL     OW 1021   6.720   6.305   4.110
   41SOL    HW1 1022   6.803   6.361   4.117
   41SOL    HW2 1023   6.668   6.311   4.195
   42SOL     OW 1024   2.336   5.525   5.332
   42SOL    HW1 1025   2.336   5.426   5.315
   42SOL    HW2 1026   2.251   5.551   5.377
   43SOL     OW 1027   5.426   6.493   5.370
   43SOL    HW1 1028   5.395   6.407   5.410
   43SOL    HW2 1029   5.348   6.556   5.362
   44SOL     OW 1030   5.562   2.035   6.647
   44SOL    HW1 1031   5.513   2.109   6.600
   44SOL    HW2 1032   5.562   1.954   6.589
   45SOL     OW 1033   3.390   6.520   3.174
   45SOL    HW1 1034   3.391   6.540   3.076
   45SOL    HW2 1035   3.336   6.437   3.190
   46SOL     OW 1036   1.073   3.558   2.956
   46SOL    HW1 1037   1.102   3.519   3.044
   46SOL    HW2 1038   0.993   3.508   2.923
   47SOL     OW 1039   4.884   4.635   1.286
   47SOL    HW1 1040   4.968   4.689   1.298
   47SOL    HW2 1041   4.883   4.596   1.194
   48SOL     OW 1042   6.736   2.793   6.137
   48SOL    HW1 1043   6.806   2.807   6.207
   48SOL    HW2 1044   6.744   2.863   6.066
   49SOL     OW 1045   4.737   4.123   1.736
   49SOL    HW1 1046   4.699   4.031   1.746
   49SOL    HW2 1047   4.670   4.190   1.768
   50SOL     OW 1048   6.134   2.518   5.470
   50SOL    HW1 1049   6.081   2.443   5.509
   50SOL    HW2 1050   6.217   2.481   5.427
   51SOL     OW 1051   3.055   6.271   2.650
   51SOL    HW1 1052   2.965   6.258   2.608
   51SOL    HW2 1053   3.087   6.364   2.631
   52SOL     OW 1054   5.070   2.050   3.510
   52SOL    HW1 1055   5.152   2.013   3.468
   52SOL    HW2 1056   4.990   2.024   3.455
   53SOL     OW 1057   4.068   6.759   4.507
   53SOL    HW1 1058   4.158   6.727   4.475
   53SOL    HW2 1059   4.079   6.809   4.592
   54SOL     OW 1060   3.932   4.722   1.042
   54SOL    HW1 1061   4.030   4.731   1.023
   54SOL    HW2 1062   3.890   4.665   0.970
   55SOL     OW 1063   3.280   1.681   6.183
   55SOL    HW1 1064   3.324   1.620   6.249
   55SOL    HW2 1065   3.211   1.630   6.132
   56SOL     OW 1066   0.291   0.542   1.085
   56SOL    HW1 1067   0.256   0.457   1.126
   56SOL    HW2 1068   0.219   0.583   1.029
   57SOL     OW 1069   5.078   0.418   0.799
   57SOL    HW1 1070   5.173   0.410   0.828
   57SOL    HW2 1071   5.026   0.465   0.870
   58SOL     OW 1072   6.598   6.664   6.072
   58SOL    HW1 1073   6.698   6.656   6.076
   58SOL    HW2 1074   6.568   6.645   5.978
   59SOL     OW 1075   1.441   1.628   5.828
   59SOL    HW1 1076   1.509   1.625   5.754
   59SOL    HW2 1077   1.422   1.534   5.858
   60SOL     OW 1078   5.306   1.025   5.928
   60SOL    HW1 1079   5.298   1.122   5.950
   60SOL    HW2 1080   5.230   0.975   5.970
   61SOL     OW 1081   5.108   2.188   4.992
   61SOL    HW1 1082   5.065   2.105   5.027
   61SOL    HW2 1083   5.173   2.223   5.060
   62SOL     OW 1084   6.755   1.065   2.863
   62SOL    HW1 1085   6.852   1.053   2.844
   62SOL    HW2 1086   6.732   1.162   2.858
   63SOL     OW 1087   5.477   1.513   3.893
   63SOL    HW1 1088   5.378   1.499   3.895
   63SOL    HW2 1089   5.498   1.597   3.842
   64SOL     OW 1090   0.231   3.604   5.768
   64SOL    HW1 1091   0.299   3.674   5.746
   64SOL    HW2 1092   0.184   3.629   5.852
   65SOL     OW 1093   6.894   4.747   5.623
   65SOL    HW1 1094   6.968   4.801   5.665
   65SOL    HW2 1095   6.922   4.651   5.620
   66SOL     OW 1096   3.910   0.898   5.715
   66SOL    HW1 1097   3.855   0.824   5.677
   66SOL    HW2 1098   3.876   0.921   5.807
   67SOL     OW 1099   5.123   4.256   5.747
   67SOL    HW1 1100   5.171   4.173   5.720
   67SOL    HW2 1101   5.048   4.273   5.683
   68SOL     OW 1102   5.702   0.683   6.604
   68SOL    HW1 1103   5.625   0.736   6.640
   68SOL    HW2 1104   5.707   0.696   6.505
   69SOL     OW 1105   1.105   3.848   5.993
   69SOL    HW1 1106   1.017   3.841   5.945
   69SOL    HW2 1107   1.105   3.785   6.070
   70SOL     OW 1108   5.814   4.693   4.363
   70SOL    HW1 1109   5.821   4.620   4.432
   70SOL    HW2 1110   5.902   4.740   4.356
   71SOL     OW 1111   4.034   1.741   3.296
   71SOL    HW1 1112   4.127   1.765   3.269
   71SOL    HW2 1113   4.031   1.726   3.395
   72SOL     OW 1114   2.581   6.541   4.466
   72SOL    HW1 1115   2.556   6.450   4.432
   72SOL    HW2 1116   2.653   6.580   4.408
   73SOL     OW 1117   3.365   1.095   0.844
   73SOL    HW1 1118   3.371   1.162   0.771
   73SOL    HW2 1119   3.323   1.011   0.810
   74SOL     OW 1120   5.453   6.552   6.644
   74SOL    HW1 1121   5.391   6.556   6.722
   74SOL    HW2 1122   5.455   6.459   6.607
   75SOL     OW 1123   3.663   7.008   0.072
   75SOL    HW1 1124   3.736   6.963   0.124
   75SOL    HW2 1125   3.673   6.986   6.996
   76SOL     OW 1126   2.578   2.657   1.109
   76SOL    HW1 1127   2.616   2.565   1.116
   76SOL    HW2 1128   2.552   2.675   1.014
   77SOL     OW 1129   6.252   6.384   3.462
   77SOL    HW1 1130   6.174   6.445   3.480
   77SOL    HW2 1131   6.320   6.395   3.534
   78SOL     OW 1132   6.208   0.897   6.636
   78SOL    HW1 1133   6.221   0.800   6.616
   78SOL    HW2 1134   6.189   0.908   6.734
   79SOL     OW 1135   3.341   6.211   0.140
   79SOL    HW1 1136   3.383   6.133   0.094
   79SOL    HW2 1137   3.410   6.282   0.154
   80SOL     OW 1138   5.390   2.067   3.790
   80SOL    HW1 1139   5.462   2.030   3.849
   80SOL    HW2 1140   5.305   2.017   3.807
   81SOL     OW 1141   2.134   0.347   3.201
   81SOL    HW1 1142   2.093   0.386   3.284
   81SOL    HW2 1143   2.064   0.298   3.150
   82SOL     OW 1144   6.853   5.102   1.203
   82SOL    HW1 1145   6.774   5.047   1.177
   82SOL    HW2 1146   6.921   5.044   1.248
   83SOL     OW 1147   0.173   0.665   0.676
   83SOL    HW1 1148   0.232   0.586   0.655
   83SOL    HW2 1149   0.111   0.682   0.599
   84SOL     OW 1150   5.421   2.635   3.640
   84SOL    HW1 1151   5.394   2.731   3.644
   84SOL    HW2 1152   5.408   2.600   3.547
   85SOL     OW 1153   1.794   1.864   4.495
   85SOL    HW1 1154   1.881   1.873   4.447
   85SOL    HW2 1155   1.719   1.871   4.428
   86SOL     OW 1156   7.020   0.438   5.011
   86SOL    HW1 1157   7.019   0.442   4.911
   86SOL    HW2 1158   0.093   0.435   5.043
   87SOL     OW 1159   5.346   3.697   0.452
   87SOL    HW1 1160   5.281   3.766   0.420
   87SOL    HW2 1161   5.402   3.736   0.525
   88SOL     OW 1162   3.770   1.713   6.011
   88SOL    HW1 1163   3.688   1.720   5.953
   88SOL    HW2 1164   3.837   1.781   5.981
   89SOL     OW 1165   1.239   2.603   5.450
   89SOL    HW1 1166   1.144   2.619   5.477
   89SOL    HW2 1167   1.250   2.624   5.353
   90SOL     OW 1168   3.933   5.990   2.364
   90SOL    HW1 1169   3.877   5.927   2.418
   90SOL    HW2 1170   3.957   5.947   2.277
   91SOL     OW 1171   4.605   4.288   4.984
   91SOL    HW1 1172   4.597   4.201   4.935
   91SOL    HW2 1173   4.533   4.351   4.952
   92SOL     OW 1174   3.613   4.209   0.365
   92SOL    HW1 1175   3.602   4.308   0.374
   92SOL    HW2 1176   3.671   4.189   0.287
   93SOL     OW 1177   2.747   3.819   6.584
   93SOL    HW1 1178   2.698   3.772   6.658
   93SOL    HW2 1179   2.696   3.901   6.558
   94SOL     OW 1180   2.446   6.107   5.955
   94SOL    HW1 1181   2.452   6.025   5.898
   94SOL    HW2 1182   2.473   6.187   5.901
   95SOL     OW 1183   1.384   0.618   2.867
   95SOL    HW1 1184   1.294   0.631   2.826
   95SOL    HW2 1185   1.455   0.630   2.797
   96SOL     OW 1186   3.217   0.207   5.493
   96SOL    HW1 1187   3.171   0.122   5.468
   96SOL    HW2 1188   3.297   0.220   5.434
   97SOL     OW 1189   2.122   2.993   5.952
   97SOL    HW1 1190   2.128   2.917   5.887
   97SOL    HW2 1191   2.214   3.021   5.979
   98SOL     OW 1192   6.627   3.627   0.690
   98SOL    HW1 1193   6.725   3.621   0.671
   98SOL    HW2 1194   6.576   3.576   0.620
   99SOL     OW 1195   4.180   3.694   0.943
   99SOL    HW1 1196   4.251   3.637   0.984
   99SOL    HW2 1197   4.132   3.643   0.872
  100SOL     OW 1198   6.889   6.787   5.159
  100SOL    HW1 1199   6.972   6.828   5.123
  100SOL    HW2 1200   6.842   6.853   5.218
  101SOL     OW 1201   1.967   5.454   2.418
  101SOL    HW1 1202   1.957   5.364   2.377
  101SOL    HW2 1203   1.919   5.522   2.361
  102SOL     OW 1204   3.723   0.111   2.671
  102SOL    HW1 1205   3.749   0.110   2.768
  102SOL    HW2 1206   3.635   0.158   2.660
  103SOL     OW 1207   2.968   1.083   2.117
  103SOL    HW1 1208   2.970   0.985   2.100
  103SOL    HW2 1209   2.875   1.117   2.104
  104SOL     OW 1210   0.603   5.458   2.720
  104SOL    HW1 1211   0.512   5.478   2.757
  104SOL    HW2 1212   0.659   5.414   2.791
  105SOL     OW 1213   6.904   2.766   6.808
  105SOL    HW1 1214   6.885   2.685   6.753
  105SOL    HW2 1215   6.862   2.846   6.766
  106SOL     OW 1216   3.542   6.410   4.784
  106SOL    HW1 1217   3.443   6.417   4.800
  106SOL    HW2 1218   3.566   6.462   4.702
  107SOL     OW 1219   2.186   1.253   1.737
  107SOL    HW1 1220   2.131   1.333   1.761
  107SOL    HW2 1221   2.281   1.282   1.724
  108SOL     OW 1222   3.783   5.094   5.765
  108SOL    HW1 1223   3.815   5.052   5.850
  108SOL    HW2 1224   3.697   5.142   5.782
  109SOL     OW 1225   0.021   0.601   1.692
  109SOL    HW1 1226   7.014   0.535   1.622
  109SOL    HW2 1227   0.038   0.553   1.778
  110SOL     OW 1228   3.159   5.479   5.091
  110SOL    HW1 1229   3.257   5.481   5.110
  110SOL    HW2 1230   3.118   5.398   5.132
  111SOL     OW 1231   2.517   1.450   4.266
  111SOL    HW1 1232   2.557   1.518   4.329
  111SOL    HW2 1233   2.584   1.427   4.195
  112SOL     OW 1234   4.979   6.856   6.277
  112SOL    HW1 1235   5.039   6.911   6.219
  112SOL    HW2 1236   4.884   6.880   6.259
  113SOL     OW 1237   5.866   6.048   3.096
  113SOL    HW1 1238   5.843   5.952   3.083
  113SOL    HW2 1239   5.964   6.056   3.117
  114SOL     OW 1240   0.703   0.381   1.331
  114SOL    HW1 1241   0.642   0.458   1.313
  114SOL    HW2 1242   0.710   0.324   1.249
  115SOL     OW 1243   4.023   1.433   3.434
  115SOL    HW1 1244   3.942   1.461   3.486
  115SOL    HW2 1245   3.995   1.372   3.360
  116SOL     OW 1246   5.653   4.774   1.593
  116SOL    HW1 1247   5.616   4.854   1.641
  116SOL    HW2 1248   5.611   4.767   1.502
  117SOL     OW 1249   1.260   1.617   0.639
  117SOL    HW1 1250   1.342   1.642   0.691
  117SOL    HW2 1251   1.180   1.661   0.681
  118SOL     OW 1252   1.784   1.173   3.511
  118SOL    HW1 1253   1.758   1.266   3.485
  118SOL    HW2 1254   1.884   1.165   3.508
  119SOL     OW 1255   0.489   1.228   0.084
  119SOL    HW1 1256   0.490   1.161   0.010
  119SOL    HW2 1257   0.480   1.181   0.172
  120SOL     OW 1258   6.553   6.543   0.040
  120SOL    HW1 1259   6.587   6.615   0.100
  120SOL    HW2 1260   6.627   6.512   7.001
  121SOL     OW 1261   2.204   3.663   6.433
  121SOL    HW1 1262   2.114   3.620   6.445
  121SOL    HW2 1263   2.262   3.639   6.511
  122SOL     OW 1264   2.284   3.963   6.473
  122SOL    HW1 1265   2.186   3.984   6.477
  122SOL    HW2 1266   2.303   3.911   6.390
  123SOL     OW 1267   0.211   1.261   1.846
  123SOL    HW1 1268   0.282   1.262   1.916
  123SOL    HW2 1269   0.152   1.181   1.860
  124SOL     OW 1270   4.427   3.010   0.964
  124SOL    HW1 1271   4.476   2.943   0.909
  124SOL    HW2 1272   4.467   3.014   1.056
  125SOL     OW 1273   3.638   1.730   1.602
  125SOL    HW1 1274   3.600   1.823   1.611
  125SOL    HW2 1275   3.731   1.729   1.639
  126SOL     OW 1276   2.823   3.778   1.094
  126SOL    HW1 1277   2.836   3.690   1.138
  126SOL    HW2 1278   2.726   3.800   1.091
  127SOL     OW 1279   0.749   5.376   6.660
  127SOL    HW1 1280   0.832   5.321   6.655
  127SOL    HW2 1281   0.728   5.413   6.570
  128SOL     OW 1282   5.021   3.166   1.286
  128SOL    HW1 1283   5.059   3.105   1.216
  128SOL    HW2 1284   5.035   3.261   1.260
  129SOL     OW 1285   2.441   2.874   6.314
  129SOL    HW1 1286   2.401   2.917   6.233
  129SOL    HW2 1287   2.437   2.774   6.303
  130SOL     OW 1288   1.040   2.013   3.889
  130SOL    HW1 1289   1.019   1.919   3.918
  130SOL    HW2 1290   1.081   2.011   3.798
  131SOL     OW 1291   5.162   1.758   3.706
  131SOL    HW1 1292   5.124   1.849   3.721
  131SOL    HW2 1293   5.153   1.734   3.609
  132SOL     OW 1294   2.019   2.097   1.187
  132SOL    HW1 1295   1.996   2.182   1.235
  132SOL    HW2 1296   1.979   2.100   1.095
  133SOL     OW 1297   4.684   6.537   3.795
  133SOL    HW1 1298   4.696   6.628   3.833
  133SOL    HW2 1299   4.749   6.474   3.837
  134SOL     OW 1300   6.807   1.639   2.555
  134SOL    HW1 1301   6.727   1.687   2.592
  134SOL    HW2 1302   6.786   1.541   2.547
  135SOL     OW 1303   5.383   3.900   3.820
  135SOL    HW1 1304   5.306   3.838   3.804
  135SOL    HW2 1305   5.429   3.919   3.733
  136SOL     OW 1306   3.496   3.714   5.689
  136SOL    HW1 1307   3.504   3.787   5.757
  136SOL    HW2 1308   3.417   3.657   5.710
  137SOL     OW 1309   5.573   2.013   4.730
  137SOL    HW1 1310   5.526   1.993   4.645
  137SOL    HW2 1311   5.506   2.030   4.802
  138SOL     OW 1312   0.976   4.208   2.819
  138SOL    HW1 1313   0.981   4.245   2.726
  138SOL    HW2 1314   1.038   4.260   2.878
  139SOL     OW 1315   2.205   0.162   4.633
  139SOL    HW1 1316   2.154   0.247   4.628
  139SOL    HW2 1317   2.185   0.106   4.552
  140SOL     OW 1318   0.923   5.640   2.714
  140SOL    HW1 1319   0.949   5.692   2.632
  140SOL    HW2 1320   0.904   5.545   2.688
  141SOL     OW 1321   6.134   3.458   5.342
  141SOL    HW1 1322   6.130   3.383   5.408
  141SOL    HW2 1323   6.222   3.505   5.352
  142SOL     OW 1324   1.090   3.732   0.638
  142SOL    HW1 1325   1.060   3.727   0.733
  142SOL    HW2 1326   1.173   3.679   0.626
  143SOL     OW 1327   6.069   4.614   1.323
  143SOL    HW1 1328   6.149   4.577   1.370
  143SOL    HW2 1329   6.013   4.540   1.288
  144SOL     OW 1330   1.356   6.543   6.043
  144SOL    HW1 1331   1.319   6.599   5.968
  144SOL    HW2 1332   1.319   6.450   6.036
  145SOL     OW 1333   6.989   5.734   0.313
  145SOL    HW1 1334   6.935   5.651   0.325
  145SOL    HW2 1335   6.932   5.807   0.275
  146SOL     OW 1336   4.647   0.277   6.790
  146SOL    HW1 1337   4.654   0.220   6.872
  146SOL    HW2 1338   4.689   0.366   6.808
  147SOL     OW 1339   6.441   3.809   6.835
  147SOL    HW1 1340   6.392   3.865   6.769
  147SOL    HW2 1341   6.425   3.844   6.927
  148SOL     OW 1342   0.003   5.311   6.361
  148SOL    HW1 1343   7.005   5.258   6.278
  148SOL    HW2 1344   6.952   5.377   6.376
  149SOL     OW 1345   3.069   1.611   4.280
  149SOL    HW1 1346   3.133   1.539   4.306
  149SOL    HW2 1347   3.077   1.688   4.343
  150SOL     OW 1348   5.904   5.592   6.784
  150SOL    HW1 1349   5.905   5.691   6.798
  150SOL    HW2 1350   5.949   5.570   6.697
  151SOL     OW 1351   2.872   2.129   1.015
  151SOL    HW1 1352   2.784   2.122   0.968
  151SOL    HW2 1353   2.925   2.045   0.998
  152SOL     OW 1354   1.389   0.904   2.476
  152SOL    HW1 1355   1.323   0.964   2.521
  152SOL    HW2 1356   1.343   0.851   2.405
  153SOL     OW 1357   2.815   0.587   1.665
  153SOL    HW1 1358   2.741   0.647   1.636
  153SOL    HW2 1359   2.888   0.642   1.706
  154SOL     OW 1360   0.481   2.135   2.380
  154SOL    HW1 1361   0.511   2.150   2.285
  154SOL    HW2 1362   0.446   2.221   2.417
  155SOL     OW 1363   6.555   1.810   3.290
  155SOL    HW1 1364   6.509   1.801   3.201
  155SOL    HW2 1365   6.491   1.849   3.356
  156SOL     OW 1366   0.446   1.958   0.791
  156SOL    HW1 1367   0.500   2.041   0.775
  156SOL    HW2 1368   0.351   1.983   0.807
  157SOL     OW 1369   5.871   3.094   1.712
  157SOL    HW1 1370   5.861   3.178   1.765
  157SOL    HW2 1371   5.809   3.024   1.748
  158SOL     OW 1372   2.179   5.590   2.480
  158SOL    HW1 1373   2.100   5.531   2.466
  158SOL    HW2 1374   2.158   5.683   2.451
  159SOL     OW 1375   4.386   4.646   2.322
  159SOL    HW1 1376   4.377   4.598   2.409
  159SOL    HW2 1377   4.394   4.579   2.248
  160SOL     OW 1378   5.896   5.248   0.067
  160SOL    HW1 1379   5.883   5.178   7.018
  160SOL    HW2 1380   5.907   5.337   0.024
  161SOL     OW 1381   1.654   5.968   3.911
  161SOL    HW1 1382   1.593   5.927   3.844
  161SOL    HW2 1383   1.749   5.944   3.889
  162SOL     OW 1384   3.501   5.658   0.339
  162SOL    HW1 1385   3.414   5.686   0.298
  162SOL    HW2 1386   3.569   5.731   0.326
  163SOL     OW 1387   5.820   5.761   0.852
  163SOL    HW1 1388   5.730   5.804   0.863
  163SOL    HW2 1389   5.811   5.662   0.858
  164SOL     OW 1390   6.660   4.551   0.219
  164SOL    HW1 1391   6.713   4.470   0.245
  164SOL    HW2 1392   6.720   4.631   0.219
  165SOL     OW 1393   5.088   3.118   1.568
  165SOL    HW1 1394   5.105   3.150   1.474
  165SOL    HW2 1395   4.996   3.146   1.596
  166SOL     OW 1396   0.016   4.438   3.100
  166SOL    HW1 1397   0.018   4.385   3.186
  166SOL    HW2 1398   0.110   4.456   3.071
  167SOL     OW 1399   5.065   2.859   0.673
  167SOL    HW1 1400   5.139   2.923   0.652
  167SOL    HW2 1401   5.021   2.831   0.588
  168SOL     OW 1402   2.385   2.982   1.444
  168SOL    HW1 1403   2.374   3.013   1.349
  168SOL    HW2 1404   2.409   3.060   1.502
  169SOL     OW 1405   4.594   1.194   1.601
  169SOL    HW1 1406   4.677   1.150   1.633
  169SOL    HW2 1407   4.540   1.224   1.679
  170SOL     OW 1408   1.615   1.303   3.150
  170SOL    HW1 1409   1.703   1.329   3.190
  170SOL    HW2 1410   1.632   1.253   3.065
  171SOL     OW 1411   4.146   4.295   6.592
  171SOL    HW1 1412   4.146   4.338   6.501
  171SOL    HW2 1413   4.064   4.324   6.642
  172SOL     OW 1414   6.166   1.801   3.580
  172SOL    HW1 1415   6.103   1.879   3.578
  172SOL    HW2 1416   6.210   1.796   3.670
  173SOL     OW 1417   6.998   1.828   4.646
  173SOL    HW1 1418   6.919   1.800   4.700
  173SOL    HW2 1419   6.974   1.904   4.586
  174SOL     OW 1420   3.621   5.089   3.212
  174SOL    HW1 1421   3.685   5.013   3.206
  174SOL    HW2 1422   3.617   5.122   3.306
  175SOL     OW 1423   2.534   0.294   1.778
  175SOL    HW1 1424   2.502   0.208   1.739
  175SOL    HW2 1425   2.462   0.335   1.832
  176SOL     OW 1426   0.968   4.541   0.726
  176SOL    HW1 1427   0.924   4.588   0.649
  176SOL    HW2 1428   1.068   4.551   0.719
  177SOL     OW 1429   6.138   3.085   2.923
  177SOL    HW1 1430   6.058   3.144   2.917
  177SOL    HW2 1431   6.129   3.009   2.859
  178SOL     OW 1432   2.438   2.688   6.982
  178SOL    HW1 1433   2.425   2.720   0.055
  178SOL    HW2 1434   2.518   2.628   6.979
  179SOL     OW 1435   3.208   1.059   5.713
  179SOL    HW1 1436   3.151   0.985   5.751
  179SOL    HW2 1437   3.270   1.021   5.645
  180SOL     OW 1438   1.946   6.854   0.426
  180SOL    HW1 1439   1.885   6.776   0.413
  180SOL    HW2 1440   1.897   6.929   0.471
  181SOL     OW 1441   3.385   2.542   6.532
  181SOL    HW1 1442   3.382   2.575   6.437
  181SOL    HW2 1443   3.480   2.538   6.562
  182SOL     OW 1444   4.032   1.457   4.587
  182SOL    HW1 1445   3.947   1.406   4.579
  182SOL    HW2 1446   4.102   1.400   4.630
  183SOL     OW 1447   3.438   2.055   3.201
  183SOL    HW1 1448   3.475   2.107   3.279
  183SOL    HW2 1449   3.513   2.014   3.150
  184SOL     OW 1450   1.715   6.407   4.496
  184SOL    HW1 1451   1.680   6.441   4.409
  184SOL    HW2 1452   1.662   6.445   4.571
  185SOL     OW 1453   0.171   1.525   6.185
  185SOL    HW1 1454   0.244   1.521   6.253
  185SOL    HW2 1455   0.144   1.432   6.159
  186SOL     OW 1456   5.838   0.916   4.627
  186SOL    HW1 1457   5.772   0.853   4.669
  186SOL    HW2 1458   5.791   0.997   4.594
  187SOL     OW 1459   4.061   6.929   3.169
  187SOL    HW1 1460   4.147   6.951   3.215
  187SOL    HW2 1461   4.062   6.832   3.142
  188SOL     OW 1462   0.538   1.773   2.658
  188SOL    HW1 1463   0.514   1.676   2.647
  188SOL    HW2 1464   0.554   1.792   2.755
  189SOL     OW 1465   1.852   5.508   1.455
  189SOL    HW1 1466   1.821   5.422   1.496
  189SOL    HW2 1467   1.778   5.575   1.456
  190SOL     OW 1468   5.410   2.096   4.531
  190SOL    HW1 1469   5.334   2.088   4.595
  190SOL    HW2 1470   5.479   2.159   4.568
  191SOL     OW 1471   5.908   6.127   0.057
  191SOL    HW1 1472   5.926   6.038   0.099
  191SOL    HW2 1473   5.815   6.156   0.080
  192SOL     OW 1474   0.873   5.902   2.123
  192SOL    HW1 1475   0.913   5.989   2.098
  192SOL    HW2 1476   0.773   5.906   2.111
  193SOL     OW 1477   5.214   2.781   5.482
  193SOL    HW1 1478   5.282   2.725   5.529
  193SOL    HW2 1479   5.258   2.860   5.440
  194SOL     OW 1480   3.821   0.437   2.771
  194SOL    HW1 1481   3.727   0.444   2.802
  194SOL    HW2 1482   3.851   0.341   2.774
  195SOL     OW 1483   1.821   0.163   5.057
  195SOL    HW1 1484   1.789   0.161   4.962
  195SOL    HW2 1485   1.799   0.252   5.097
  196SOL     OW 1486   2.796   0.506   0.674
  196SOL    HW1 1487   2.810   0.443   0.597
  196SOL    HW2 1488   2.721   0.568   0.653
  197SOL     OW 1489   2.596   6.783   1.620
  197SOL    HW1 1490   2.676   6.832   1.652
  197SOL    HW2 1491   2.595   6.783   1.520
  198SOL     OW 1492   4.748   0.692   2.968
  198SOL    HW1 1493   4.758   0.600   2.931
  198SOL    HW2 1494   4.802   0.756   2.913
  199SOL     OW 1495   6.914   1.843   4.001
  199SOL    HW1 1496   6.844   1.824   3.932
  199SOL    HW2 1497   6.964   1.759   4.021
  200SOL     OW 1498   1.074   3.426   0.663
  200SOL    HW1 1499   0.980   3.433   0.697
  200SOL    HW2 1500   1.090   3.334   0.626
  201SOL     OW 1501   0.567   0.281   6.177
  201SOL    HW1 1502   0.555   0.306   6.081
  201SOL    HW2 1503   0.550   0.183   6.188
  202SOL     OW 1504   3.648   0.900   0.063
  202SOL    HW1 1505   3.687   0.808   0.067
  202SOL    HW2 1506   3.549   0.894   0.071
  203SOL     OW 1507   5.751   2.573   5.445
  203SOL    HW1 1508   5.785   2.583   5.539
  203SOL    HW2 1509   5.666   2.623   5.435
  204SOL     OW 1510   1.249   0.669   4.807
  204SOL    HW1 1511   1.170   0.612   4.829
  204SOL    HW2 1512   1.231   0.720   4.723
  205SOL     OW 1513   0.025   2.283   3.309
  205SOL    HW1 1514   6.976   2.277   3.237
  205SOL    HW2 1515   0.003   2.357   3.371
  206SOL     OW 1516   0.528   4.392   0.903
  206SOL    HW1 1517   0.474   4.472   0.876
  206SOL    HW2 1518   0.617   4.394   0.857
  207SOL     OW 1519   6.295   1.799   3.816
  207SOL    HW1 1520   6.309   1.735   3.891
  207SOL    HW2 1521   6.321   1.891   3.845
  208SOL     OW 1522   6.671   4.474   5.663
  208SOL    HW1 1523   6.625   4.477   5.752
  208SOL    HW2 1524   6.766   4.449   5.676
  209SOL     OW 1525   0.474   5.812   4.332
  209SOL    HW1 1526   0.448   5.898   4.377
  209SOL    HW2 1527   0.395   5.751   4.328
  210SOL     OW 1528   4.560   1.577   0.467
  210SOL    HW1 1529   4.653   1.559   0.499
  210SOL    HW2 1530   4.512   1.635   0.533
  211SOL     OW 1531   2.029   6.585   2.371
  211SOL    HW1 1532   1.972   6.514   2.413
  211SOL    HW2 1533   2.117   6.589   2.418
  212SOL     OW 1534   0.842   3.925   1.935
  212SOL    HW1 1535   0.809   4.017   1.913
  212SOL    HW2 1536   0.940   3.919   1.914
  213SOL     OW 1537   2.960   0.197   0.555
  213SOL    HW1 1538   2.884   0.132   0.558
  213SOL    HW2 1539   3.039   0.158   0.602
  214SOL     OW 1540   4.162   5.367   2.553
  214SOL    HW1 1541   4.187   5.327   2.641
  214SOL    HW2 1542   4.078   5.420   2.563
  215SOL     OW 1543   2.641   3.650   0.608
  215SOL    HW1 1544   2.686   3.733   0.642
  215SOL    HW2 1545   2.628   3.586   0.683
  216SOL     OW 1546   1.300   6.134   3.824
  216SOL    HW1 1547   1.234   6.209   3.827
  216SOL    HW2 1548   1.366   6.150   3.751
  217SOL     OW 1549   1.167   3.206   3.593
  217SOL    HW1 1550   1.089   3.199   3.655
  217SOL    HW2 1551   1.176   3.122   3.540
  218SOL     OW 1552   0.669   3.350   4.384
  218SOL    HW1 1553   0.740   3.419   4.367
  218SOL    HW2 1554   0.676   3.317   4.478
  219SOL     OW 1555   4.308   0.515   0.215
  219SOL    HW1 1556   4.382   0.583   0.206
  219SOL    HW2 1557   4.227   0.559   0.253
  220SOL     OW 1558   3.260   6.827   1.678
  220SOL    HW1 1559   3.169   6.791   1.659
  220SOL    HW2 1560   3.328   6.755   1.663
  221SOL     OW 1561   6.037   4.250   1.149
  221SOL    HW1 1562   6.105   4.259   1.076
  221SOL    HW2 1563   6.033   4.155   1.180
  222SOL     OW 1564   1.970   4.523   5.435
  222SOL    HW1 1565   2.042   4.475   5.385
  222SOL    HW2 1566   1.902   4.558   5.370
  223SOL     OW 1567   6.594   3.242   6.225
  223SOL    HW1 1568   6.524   3.258   6.155
  223SOL    HW2 1569   6.603   3.323   6.282
  224SOL     OW 1570   2.612   1.708   5.801
  224SOL    HW1 1571   2.692   1.738   5.750
  224SOL    HW2 1572   2.616   1.609   5.815
  225SOL     OW 1573   4.908   4.060   6.753
  225SOL    HW1 1574   4.866   4.101   6.673
  225SOL    HW2 1575   4.863   3.973   6.774
  226SOL     OW 1576   1.151   1.587   5.870
  226SOL    HW1 1577   1.078   1.649   5.843
  226SOL    HW2 1578   1.179   1.532   5.791
  227SOL     OW 1579   0.930   3.849   1.524
  227SOL    HW1 1580   0.875   3.843   1.440
  227SOL    HW2 1581   0.910   3.935   1.570
  228SOL     OW 1582   2.781   0.185   3.433
  228SOL    HW1 1583   2.843   0.195   3.512
  228SOL    HW2 1584   2.832   0.148   3.356
  229SOL     OW 1585   6.021   6.191   6.047
  229SOL    HW1 1586   6.013   6.282   6.088
  229SOL    HW2 1587   6.112   6.181   6.006
  230SOL     OW 1588   3.493   4.878   3.410
  230SOL    HW1 1589   3.524   4.898   3.503
  230SOL    HW2 1590   3.415   4.935   3.387
  231SOL     OW 1591   5.859   1.608   0.016
  231SOL    HW1 1592   5.816   1.555   6.964
  231SOL    HW2 1593   5.920   1.549   0.069
  232SOL     OW 1594   0.191   3.357   6.815
  232SOL    HW1 1595   0.248   3.294   6.763
  232SOL    HW2 1596   0.150   3.424   6.752
  233SOL     OW 1597   3.481   1.355   2.947
  233SOL    HW1 1598   3.520   1.446   2.958
  233SOL    HW2 1599   3.406   1.342   3.013
  234SOL     OW 1600   5.535   0.735   6.348
  234SOL    HW1 1601   5.581   0.648   6.328
  234SOL    HW2 1602   5.438   0.728   6.324
  235SOL     OW 1603   4.591   2.598   1.727
  235SOL    HW1 1604   4.589   2.696   1.707
  235SOL    HW2 1605   4.512   2.573   1.783
  236SOL     OW 1606   5.857   2.661   6.700
  236SOL    HW1 1607   5.766   2.688   6.668
  236SOL    HW2 1608   5.853   2.568   6.737
  237SOL     OW 1609   6.733   4.851   1.863
  237SOL    HW1 1610   6.769   4.931   1.815
  237SOL    HW2 1611   6.668   4.880   1.933
  238SOL     OW 1612   5.511   0.996   0.578
  238SOL    HW1 1613   5.449   0.925   0.612
  238SOL    HW2 1614   5.597   0.992   0.629
  239SOL     OW 1615   0.615   5.030   6.850
  239SOL    HW1 1616   0.649   5.123   6.867
  239SOL    HW2 1617   0.594   5.020   6.753
  240SOL     OW 1618   6.714   3.000   3.447
  240SOL    HW1 1619   6.645   2.996   3.519
  240SOL    HW2 1620   6.727   3.095   3.418
  241SOL     OW 1621   2.836   2.191   4.963
  241SOL    HW1 1622   2.930   2.213   4.935
  241SOL    HW2 1623   2.828   2.198   5.062
  242SOL     OW 1624   3.692   3.664   4.244
  242SOL    HW1 1625   3.603   3.710   4.248
  242SOL    HW2 1626   3.682   3.570   4.278
  243SOL     OW 1627   4.473   0.417   6.454
  243SOL    HW1 1628   4.397   0.480   6.445
  243SOL    HW2 1629   4.452   0.350   6.525
  244SOL     OW 1630   5.855   3.055   5.367
  244SOL    HW1 1631   5.838   3.001   5.284
  244SOL    HW2 1632   5.798   3.137   5.366
  245SOL     OW 1633   5.078   2.906   3.982
  245SOL    HW1 1634   5.044   2.971   4.050
  245SOL    HW2 1635   5.177   2.895   3.994
  246SOL     OW 1636   4.906   2.083   3.024
  246SOL    HW1 1637   4.890   2.174   3.063
  246SOL    HW2 1638   4.979   2.088   2.956
  247SOL     OW 1639   2.811   1.632   6.998
  247SOL    HW1 1640   2.894   1.658   6.949
  247SOL    HW2 1641   2.801   1.689   0.058
  248SOL     OW 1642   4.130   1.350   2.491
  248SOL    HW1 1643   4.102   1.257   2.514
  248SOL    HW2 1644   4.211   1.374   2.543
  249SOL     OW 1645   4.241   0.278   4.887
  249SOL    HW1 1646   4.235   0.327   4.975
  249SOL    HW2 1647   4.332   0.293   4.847
  250SOL     OW 1648   4.784   3.119   0.448
  250SOL    HW1 1649   4.717   3.184   0.413
  250SOL    HW2 1650   4.816   3.150   0.538
  251SOL     OW 1651   4.642   3.769   5.592
  251SOL    HW1 1652   4.665   3.674   5.613
  251SOL    HW2 1653   4.726   3.824   5.594
  252SOL     OW 1654   0.068   5.971   5.445
  252SOL    HW1 1655   7.013   6.025   5.480
  252SOL    HW2 1656   0.043   5.930   5.357
  253SOL     OW 1657   2.451   4.760   5.880
  253SOL    HW1 1658   2.518   4.820   5.924
  253SOL    HW2 1659   2.491   4.721   5.797
  254SOL     OW 1660   6.172   2.422   4.090
  254SOL    HW1 1661   6.191   2.399   4.185
  254SOL    HW2 1662   6.079   2.456   4.081
  255SOL     OW 1663   1.595   4.860   5.267
  255SOL    HW1 1664   1.582   4.913   5.351
  255SOL    HW2 1665   1.508   4.820   5.239
  256SOL     OW 1666   5.987   3.792   6.082
  256SOL    HW1 1667   5.976   3.873   6.024
  256SOL    HW2 1668   5.898   3.767   6.122
  257SOL     OW 1669   5.159   0.364   4.118
  257SOL    HW1 1670   5.112   0.331   4.199
  257SOL    HW2 1671   5.171   0.289   4.053
  258SOL     OW 1672   2.287   5.154   4.907
  258SOL    HW1 1673   2.202   5.152   4.961
  258SOL    HW2 1674   2.359   5.106   4.957
  259SOL     OW 1675   6.652   2.368   2.930
  259SOL    HW1 1676   6.672   2.449   2.874
  259SOL    HW2 1677   6.597   2.395   3.009
  260SOL     OW 1678   4.286   0.246   1.684
  260SOL    HW1 1679   4.285   0.346   1.687
  260SOL    HW2 1680   4.195   0.213   1.655
  261SOL     OW 1681   6.396   3.494   0.243
  261SOL    HW1 1682   6.341   3.535   0.170
  261SOL    HW2 1683   6.403   3.395   0.229
  262SOL     OW 1684   0.588   3.518   0.081
  262SOL    HW1 1685   0.628   3.456   0.148
  262SOL    HW2 1686   0.634   3.607   0.086
  263SOL     OW 1687   1.965   1.169   4.521
  263SOL    HW1 1688   1.877   1.204   4.553
  263SOL    HW2 1689   1.987   1.086   4.572
  264SOL     OW 1690   5.923   3.503   6.995
  264SOL    HW1 1691   5.828   3.528   7.016
  264SOL    HW2 1692   5.979   3.586   6.990
  265SOL     OW 1693   5.326   6.865   3.022
  265SOL    HW1 1694   5.316   6.784   3.081
  265SOL    HW2 1695   5.375   6.839   2.939
  266SOL     OW 1696   3.224   2.850   5.839
  266SOL    HW1 1697   3.174   2.842   5.753
  266SOL    HW2 1698   3.242   2.946   5.858
  267SOL     OW 1699   0.675   1.483   6.563
  267SOL    HW1 1700   0.585   1.448   6.539
  267SOL    HW2 1701   0.710   1.433   6.642
  268SOL     OW 1702   3.732   1.137   5.835
  268SOL    HW1 1703   3.649   1.176   5.875
  268SOL    HW2 1704   3.755   1.052   5.883
  269SOL     OW 1705   1.292   3.344   1.203
  269SOL    HW1 1706   1.235   3.426   1.193
  269SOL    HW2 1707   1.371   3.351   1.141
  270SOL     OW 1708   1.308   6.758   0.401
  270SOL    HW1 1709   1.278   6.702   0.478
  270SOL    HW2 1710   1.401   6.792   0.417
  271SOL     OW 1711   6.902   1.899   6.834
  271SOL    HW1 1712   6.897   1.882   6.735
  271SOL    HW2 1713   6.816   1.874   6.877
  272SOL     OW 1714   3.679   5.502   4.328
  272SOL    HW1 1715   3.635   5.561   4.261
  272SOL    HW2 1716   3.610   5.457   4.384
  273SOL     OW 1717   2.213   4.611   4.464
  273SOL    HW1 1718   2.289   4.550   4.486
  273SOL    HW2 1719   2.137   4.557   4.427
  274SOL     OW 1720   4.222   2.295   3.114
  274SOL    HW1 1721   4.180   2.208   3.141
  274SOL    HW2 1722   4.155   2.350   3.063
  275SOL     OW 1723   6.118   4.724   4.003
  275SOL    HW1 1724   6.119   4.670   3.919
  275SOL    HW2 1725   6.127   4.821   3.981
  276SOL     OW 1726   6.563   6.902   3.113
  276SOL    HW1 1727   6.658   6.891   3.085
  276SOL    HW2 1728   6.516   6.961   3.048
  277SOL     OW 1729   1.747   4.337   0.035
  277SOL    HW1 1730   1.787   4.409   0.093
  277SOL    HW2 1731   1.782   4.346   6.963
  278SOL     OW 1732   6.978   5.173   1.766
  278SOL    HW1 1733   6.912   5.108   1.728
  278SOL    HW2 1734   6.932   5.260   1.783
  279SOL     OW 1735   6.166   3.455   4.122
  279SOL    HW1 1736   6.067   3.463   4.129
  279SOL    HW2 1737   6.209   3.522   4.183
  280SOL     OW 1738   3.220   6.746   3.195
  280SOL    HW1 1739   3.285   6.672   3.178
  280SOL    HW2 1740   3.252   6.801   3.272
  281SOL     OW 1741   2.761   4.365   1.642
  281SOL    HW1 1742   2.825   4.359   1.565
  281SOL    HW2 1743   2.810   4.400   1.723
  282SOL     OW 1744   3.172   1.477   6.023
  282SOL    HW1 1745   3.075   1.488   6.001
  282SOL    HW2 1746   3.213   1.412   5.960
  283SOL     OW 1747   6.283   1.784   6.365
  283SOL    HW1 1748   6.204   1.766   6.423
  283SOL    HW2 1749   6.360   1.813   6.422
  284SOL     OW 1750   1.432   4.327   3.387
  284SOL    HW1 1751   1.419   4.233   3.356
  284SOL    HW2 1752   1.365   4.386   3.342
  285SOL     OW 1753   5.926   4.984   4.621
  285SOL    HW1 1754   5.970   4.975   4.710
  285SOL    HW2 1755   5.831   4.953   4.628
  286SOL     OW 1756   3.400   5.621   5.775
  286SOL    HW1 1757   3.387   5.696   5.710
  286SOL    HW2 1758   3.408   5.658   5.867
  287SOL     OW 1759   0.904   3.719   0.423
  287SOL    HW1 1760   0.837   3.771   0.476
  287SOL    HW2 1761   0.992   3.722   0.470
  288SOL     OW 1762   3.733   1.241   6.203
  288SOL    HW1 1763   3.681   1.160   6.229
  288SOL    HW2 1764   3.830   1.218   6.199
  289SOL     OW 1765   0.485   4.287   5.460
  289SOL    HW1 1766   0.442   4.377   5.448
  289SOL    HW2 1767   0.446   4.222   5.395
  290SOL     OW 1768   6.321   2.156   4.835
  290SOL    HW1 1769   6.401   2.096   4.833
  290SOL    HW2 1770   6.278   2.152   4.925
  291SOL     OW 1771   1.652   2.162   4.322
  291SOL    HW1 1772   1.642   2.063   4.332
  291SOL    HW2 1773   1.727   2.181   4.259
  292SOL     OW 1774   1.362   2.755   3.352
  292SOL    HW1 1775   1.460   2.743   3.367
  292SOL    HW2 1776   1.330   2.690   3.284
  293SOL     OW 1777   4.210   6.089   2.378
  293SOL    HW1 1778   4.114   6.067   2.395
  293SOL    HW2 1779   4.219   6.132   2.288
  294SOL     OW 1780   0.935   5.440   6.382
  294SOL    HW1 1781   1.005   5.446   6.311
  294SOL    HW2 1782   0.856   5.389   6.347
  295SOL     OW 1783   3.685   1.783   3.829
  295SOL    HW1 1784   3.698   1.754   3.923
  295SOL    HW2 1785   3.774   1.802   3.787
  296SOL     OW 1786   3.880   2.056   3.097
  296SOL    HW1 1787   3.866   2.097   3.007
  296SOL    HW2 1788   3.823   1.974   3.106
  297SOL     OW 1789   2.547   4.483   3.419
  297SOL    HW1 1790   2.469   4.544   3.408
  297SOL    HW2 1791   2.533   4.401   3.364
  298SOL     OW 1792   3.788   5.997   1.153
  298SOL    HW1 1793   3.731   6.079   1.159
  298SOL    HW2 1794   3.729   5.917   1.140
  299SOL     OW 1795   5.278   3.049   6.054
  299SOL    HW1 1796   5.283   3.049   6.153
  299SOL    HW2 1797   5.366   3.075   6.015
  300SOL     OW 1798   6.869   1.337   2.387
  300SOL    HW1 1799   6.782   1.307   2.348
  300SOL    HW2 1800   6.882   1.297   2.477
  301SOL     OW 1801   4.871   3.442   1.352
  301SOL    HW1 1802   4.921   3.495   1.283
  301SOL    HW2 1803   4.779   3.481   1.363
  302SOL     OW 1804   0.677   0.903   3.200
  302SOL    HW1 1805   0.634   0.916   3.289
  302SOL    HW2 1806   0.776   0.889   3.212
  303SOL     OW 1807   5.762   0.957   2.278
  303SOL    HW1 1808   5.771   0.984   2.182
  303SOL    HW2 1809   5.674   0.913   2.291
  304SOL     OW 1810   2.467   6.917   3.975
  304SOL    HW1 1811   2.452   6.831   3.927
  304SOL    HW2 1812   2.543   6.966   3.934
  305SOL     OW 1813   0.967   3.362   0.324
  305SOL    HW1 1814   1.009   3.301   0.392
  305SOL    HW2 1815   1.017   3.354   0.237
  306SOL     OW 1816   2.005   1.741   3.414
  306SOL    HW1 1817   1.997   1.784   3.324
  306SOL    HW2 1818   2.029   1.810   3.482
  307SOL     OW 1819   4.651   0.074   0.800
  307SOL    HW1 1820   4.728   0.017   0.826
  307SOL    HW2 1821   4.573   0.053   0.859
  308SOL     OW 1822   6.346   3.693   5.167
  308SOL    HW1 1823   6.306   3.744   5.243
  308SOL    HW2 1824   6.425   3.743   5.131
  309SOL     OW 1825   3.337   4.491   6.497
  309SOL    HW1 1826   3.307   4.441   6.416
  309SOL    HW2 1827   3.353   4.586   6.473
  310SOL     OW 1828   6.446   6.842   5.745
  310SOL    HW1 1829   6.529   6.898   5.743
  310SOL    HW2 1830   6.465   6.753   5.703
  311SOL     OW 1831   5.984   5.216   1.428
  311SOL    HW1 1832   5.953   5.215   1.333
  311SOL    HW2 1833   6.000   5.123   1.459
  312SOL     OW 1834   4.528   1.519   5.886
  312SOL    HW1 1835   4.549   1.501   5.982
  312SOL    HW2 1836   4.582   1.596   5.853
  313SOL     OW 1837   2.856   4.112   1.695
  313SOL    HW1 1838   2.952   4.138   1.701
  313SOL    HW2 1839   2.798   4.193   1.708
  314SOL     OW 1840   3.556   4.997   6.681
  314SOL    HW1 1841   3.458   4.987   6.662
  314SOL    HW2 1842   3.604   5.022   6.597
  315SOL     OW 1843   1.070   3.600   3.246
  315SOL    HW1 1844   1.063   3.516   3.299
  315SOL    HW2 1845   1.151   3.651   3.275
  316SOL     OW 1846   2.787   2.404   4.080
  316SOL    HW1 1847   2.861   2.363   4.133
  316SOL    HW2 1848   2.823   2.441   3.994
  317SOL     OW 1849   1.019   0.223   1.239
  317SOL    HW1 1850   0.932   0.181   1.265
  317SOL    HW2 1851   1.042   0.197   1.146
  318SOL     OW 1852   0.739   6.227   6.983
  318SOL    HW1 1853   0.668   6.261   0.023
  318SOL    HW2 1854   0.717   6.253   6.889
  319SOL     OW 1855   6.944   0.934   3.533
  319SOL    HW1 1856   6.994   0.888   3.606
  319SOL    HW2 1857   6.990   0.917   3.445
  320SOL     OW 1858   5.841   2.254   0.199
  320SOL    HW1 1859   5.862   2.163   0.163
  320SOL    HW2 1860   5.767   2.295   0.144
  321SOL     OW 1861   3.011   1.240   1.179
  321SOL    HW1 1862   3.058   1.153   1.160
  321SOL    HW2 1863   3.013   1.258   1.277
  322SOL     OW 1864   3.470   3.919   4.692
  322SOL    HW1 1865   3.402   3.866   4.641
  322SOL    HW2 1866   3.458   3.903   4.790
  323SOL     OW 1867   0.346   3.585   6.942
  323SOL    HW1 1868   0.421   3.552   6.999
  323SOL    HW2 1869   0.295   3.507   6.906
  324SOL     OW 1870   2.075   2.774   3.714
  324SOL    HW1 1871   2.079   2.834   3.794
  324SOL    HW2 1872   2.153   2.792   3.654
  325SOL     OW 1873   1.487   2.848   1.668
  325SOL    HW1 1874   1.480   2.859   1.767
  325SOL    HW2 1875   1.576   2.880   1.637
  326SOL     OW 1876   1.715   5.328   6.070
  326SOL    HW1 1877   1.779   5.404   6.078
  326SOL    HW2 1878   1.627   5.354   6.109
  327SOL     OW 1879   1.516   5.454   3.992
  327SOL    HW1 1880   1.452   5.530   3.983
  327SOL    HW2 1881   1.570   5.445   3.908
  328SOL     OW 1882   2.464   5.989   1.838
  328SOL    HW1 1883   2.534   6.001   1.768
  328SOL    HW2 1884   2.408   6.072   1.844
  329SOL     OW 1885   3.282   4.002   4.455
  329SOL    HW1 1886   3.264   4.033   4.362
  329SOL    HW2 1887   3.329   4.073   4.507
  330SOL     OW 1888   3.284   6.412   1.662
  330SOL    HW1 1889   3.356   6.480   1.668
  330SOL    HW2 1890   3.322   6.321   1.675
  331SOL     OW 1891   4.059   4.945   6.524
  331SOL    HW1 1892   4.030   4.853   6.497
  331SOL    HW2 1893   4.134   4.939   6.590
  332SOL     OW 1894   3.581   2.088   4.520
  332SOL    HW1 1895   3.482   2.100   4.527
  332SOL    HW2 1896   3.611   2.111   4.427
  333SOL     OW 1897   3.240   6.796   6.642
  333SOL    HW1 1898   3.183   6.877   6.653
  333SOL    HW2 1899   3.183   6.716   6.625
  334SOL     OW 1900   2.663   0.343   1.128
  334SOL    HW1 1901   2.697   0.251   1.108
  334SOL    HW2 1902   2.734   0.410   1.106
  335SOL     OW 1903   3.536   6.508   4.418
  335SOL    HW1 1904   3.450   6.461   4.398
  335SOL    HW2 1905   3.611   6.461   4.373
  336SOL     OW 1906   2.932   1.518   4.039
  336SOL    HW1 1907   2.990   1.569   4.104
  336SOL    HW2 1908   2.837   1.544   4.052
  337SOL     OW 1909   6.926   3.576   0.660
  337SOL    HW1 1910   6.940   3.507   0.590
  337SOL    HW2 1911   6.948   3.666   0.623
  338SOL     OW 1912   2.945   2.554   0.853
  338SOL    HW1 1913   2.856   2.538   0.811
  338SOL    HW2 1914   2.950   2.508   0.941
  339SOL     OW 1915   3.678   6.601   4.611
  339SOL    HW1 1916   3.612   6.551   4.554
  339SOL    HW2 1917   3.662   6.699   4.601
  340SOL     OW 1918   4.792   4.114   4.891
  340SOL    HW1 1919   4.768   4.105   4.795
  340SOL    HW2 1920   4.840   4.201   4.905
  341SOL     OW 1921   6.459   0.142   4.220
  341SOL    HW1 1922   6.377   0.090   4.244
  341SOL    HW2 1923   6.433   0.230   4.179
  342SOL     OW 1924   5.672   3.590   0.032
  342SOL    HW1 1925   5.651   3.638   0.117
  342SOL    HW2 1926   5.596   3.602   6.989
  343SOL     OW 1927   2.057   5.829   0.811
  343SOL    HW1 1928   2.102   5.768   0.876
  343SOL    HW2 1929   1.963   5.797   0.796
  344SOL     OW 1930   1.467   4.954   1.676
  344SOL    HW1 1931   1.507   4.910   1.756
  344SOL    HW2 1932   1.428   4.885   1.616
  345SOL     OW 1933   6.564   1.446   5.309
  345SOL    HW1 1934   6.566   1.369   5.372
  345SOL    HW2 1935   6.621   1.425   5.229
  346SOL     OW 1936   2.058   0.603   1.926
  346SOL    HW1 1937   2.149   0.644   1.920
  346SOL    HW2 1938   2.047   0.557   2.014
  347SOL     OW 1939   3.952   6.651   6.291
  347SOL    HW1 1940   3.861   6.683   6.318
  347SOL    HW2 1941   3.990   6.713   6.222
  348SOL     OW 1942   4.844   5.129   1.349
  348SOL    HW1 1943   4.820   5.208   1.292
  348SOL    HW2 1944   4.808   5.046   1.308
  349SOL     OW 1945   6.423   4.685   1.560
  349SOL    HW1 1946   6.347   4.623   1.542
  349SOL    HW2 1947   6.462   4.664   1.650
  350SOL     OW 1948   3.625   3.206   1.804
  350SOL    HW1 1949   3.671   3.133   1.753
  350SOL    HW2 1950   3.650   3.200   1.901
  351SOL     OW 1951   2.598   2.448   0.170
  351SOL    HW1 1952   2.505   2.482   0.181
  351SOL    HW2 1953   2.620   2.385   0.245
  352SOL     OW 1954   3.558   0.280   4.673
  352SOL    HW1 1955   3.558   0.297   4.574
  352SOL    HW2 1956   3.653   0.275   4.706
  353SOL     OW 1957   2.730   0.083   1.107
  353SOL    HW1 1958   2.806   0.042   1.056
  353SOL    HW2 1959   2.675   0.011   1.149
  354SOL     OW 1960   4.123   2.308   0.426
  354SOL    HW1 1961   4.042   2.253   0.407
  354SOL    HW2 1962   4.204   2.250   0.425
  355SOL     OW 1963   6.861   3.011   2.878
  355SOL    HW1 1964   6.844   2.915   2.900
  355SOL    HW2 1965   6.917   3.017   2.796
  356SOL     OW 1966   4.038   5.795   4.579
  356SOL    HW1 1967   4.033   5.792   4.679
  356SOL    HW2 1968   3.986   5.718   4.541
  357SOL     OW 1969   6.691   0.014   5.772
  357SOL    HW1 1970   6.696   0.052   5.865
  357SOL    HW2 1971   6.662   0.086   5.709
  358SOL     OW 1972   5.431   0.259   2.119
  358SOL    HW1 1973   5.413   0.342   2.170
  358SOL    HW2 1974   5.452   0.184   2.182
  359SOL     OW 1975   1.744   2.124   2.379
  359SOL    HW1 1976   1.817   2.062   2.351
  359SOL    HW2 1977   1.765   2.160   2.470
  360SOL     OW 1978   2.129   5.905   6.007
  360SOL    HW1 1979   2.214   5.930   6.052
  360SOL    HW2 1980   2.071   5.854   6.071
  361SOL     OW 1981   5.505   5.762   3.046
  361SOL    HW1 1982   5.467   5.702   2.975
  361SOL    HW2 1983   5.459   5.743   3.133
  362SOL     OW 1984   3.497   4.311   0.806
  362SOL    HW1 1985   3.577   4.257   0.777
  362SOL    HW2 1986   3.456   4.269   0.886
  363SOL     OW 1987   4.584   4.392   3.386
  363SOL    HW1 1988   4.644   4.399   3.465
  363SOL    HW2 1989   4.602   4.307   3.337
  364SOL     OW 1990   0.341   5.893   5.462
  364SOL    HW1 1991   0.363   5.881   5.365
  364SOL    HW2 1992   0.264   5.955   5.472
  365SOL     OW 1993   4.629   5.630   2.488
  365SOL    HW1 1994   4.575   5.546   2.479
  365SOL    HW2 1995   4.586   5.690   2.554
  366SOL     OW 1996   5.863   0.990   0.491
  366SOL    HW1 1997   5.952   0.975   0.533
  366SOL    HW2 1998   5.860   0.943   0.402
  367SOL     OW 1999   5.252   3.153   0.999
  367SOL    HW1 2000   5.280   3.248   0.986
  367SOL    HW2 2001   5.312   3.110   1.066
  368SOL     OW 2002   0.816   3.702   4.888
  368SOL    HW1 2003   0.740   3.714   4.952
  368SOL    HW2 2004   0.876   3.782   4.892
  369SOL     OW 2005   6.311   4.796   1.803
  369SOL    HW1 2006   6.296   4.771   1.708
  369SOL    HW2 2007   6.290   4.717   1.861
  370SOL     OW 2008   3.062   1.812   5.349
  370SOL    HW1 2009   3.161   1.798   5.350
  370SOL    HW2 2010   3.019   1.742   5.291
  371SOL     OW 2011   2.354   3.584   6.636
  371SOL    HW1 2012   2.446   3.613   6.660
  371SOL    HW2 2013   2.304   3.559   6.719
  372SOL     OW 2014   6.411   0.978   5.047
  372SOL    HW1 2015   6.478   1.002   4.977
  372SOL    HW2 2016   6.375   0.886   5.030
  373SOL     OW 2017   6.251   6.874   4.951
  373SOL    HW1 2018   6.180   6.929   4.907
  373SOL    HW2 2019   6.213   6.828   5.031
  374SOL     OW 2020   3.507   7.009   2.430
  374SOL    HW1 2021   3.566   0.053   2.476
  374SOL    HW2 2022   3.524   6.917   2.467
  375SOL     OW 2023   0.314   4.958   3.935
  375SOL    HW1 2024   0.378   5.032   3.915
  375SOL    HW2 2025   0.332   4.880   3.875
  376SOL     OW 2026   1.680   3.304   3.815
  376SOL    HW1 2027   1.636   3.283   3.727
  376SOL    HW2 2028   1.626   3.264   3.889
  377SOL     OW 2029   6.222   2.798   2.053
  377SOL    HW1 2030   6.174   2.791   1.966
  377SOL    HW2 2031   6.309   2.748   2.048
  378SOL     OW 2032   2.927   2.891   5.752
  378SOL    HW1 2033   2.916   2.792   5.744
  378SOL    HW2 2034   2.901   2.934   5.665
  379SOL     OW 2035   6.130   4.315   1.804
  379SOL    HW1 2036   6.067   4.388   1.779
  379SOL    HW2 2037   6.112   4.285   1.898
  380SOL     OW 2038   2.618   1.597   1.749
  380SOL    HW1 2039   2.591   1.661   1.677
  380SOL    HW2 2040   2.637   1.648   1.834
  381SOL     OW 2041   2.119   4.733   1.327
  381SOL    HW1 2042   2.041   4.677   1.299
  381SOL    HW2 2043   2.180   4.679   1.385
  382SOL     OW 2044   5.110   5.558   6.437
  382SOL    HW1 2045   5.048   5.566   6.359
  382SOL    HW2 2046   5.134   5.650   6.469
  383SOL     OW 2047   6.150   3.139   6.400
  383SOL    HW1 2048   6.111   3.130   6.492
  383SOL    HW2 2049   6.249   3.138   6.405
  384SOL     OW 2050   0.676   4.180   5.038
  384SOL    HW1 2051   0.601   4.133   5.084
  384SOL    HW2 2052   0.640   4.239   4.966
  385SOL     OW 2053   4.620   5.993   6.833
  385SOL    HW1 2054   4.635   5.933   6.754
  385SOL    HW2 2055   4.534   6.044   6.820
  386SOL     OW 2056   3.568   0.078   5.123
  386SOL    HW1 2057   3.499   0.146   5.096
  386SOL    HW2 2058   3.654   0.124   5.142
  387SOL     OW 2059   0.010   5.889   3.492
  387SOL    HW1 2060   6.982   5.845   3.418
  387SOL    HW2 2061   0.108   5.881   3.477
  388SOL     OW 2062   0.287   2.146   4.346
  388SOL    HW1 2063   0.275   2.059   4.394
  388SOL    HW2 2064   0.380   2.151   4.310
  389SOL     OW 2065   4.162   4.141   1.686
  389SOL    HW1 2066   4.139   4.050   1.720
  389SOL    HW2 2067   4.248   4.172   1.728
  390SOL     OW 2068   3.394   0.842   0.065
  390SOL    HW1 2069   3.317   0.796   0.110
  390SOL    HW2 2070   3.363   0.928   0.025
  391SOL     OW 2071   2.079   4.124   5.060
  391SOL    HW1 2072   2.042   4.160   4.974
  391SOL    HW2 2073   2.176   4.105   5.050
  392SOL     OW 2074   1.687   3.043   2.143
  392SOL    HW1 2075   1.632   3.072   2.221
  392SOL    HW2 2076   1.648   3.079   2.058
  393SOL     OW 2077   1.373   5.623   0.272
  393SOL    HW1 2078   1.392   5.711   0.227
  393SOL    HW2 2079   1.428   5.551   0.229
  394SOL     OW 2080   1.014   3.092   6.617
  394SOL    HW1 2081   1.071   3.093   6.535
  394SOL    HW2 2082   0.920   3.071   6.591
  395SOL     OW 2083   5.187   4.060   2.139
  395SOL    HW1 2084   5.103   4.008   2.121
  395SOL    HW2 2085   5.227   4.029   2.226
  396SOL     OW 2086   2.494   2.094   2.380
  396SOL    HW1 2087   2.409   2.046   2.401
  396SOL    HW2 2088   2.569   2.028   2.375
  397SOL     OW 2089   5.509   1.426   5.830
  397SOL    HW1 2090   5.592   1.399   5.878
  397SOL    HW2 2091   5.462   1.345   5.797
  398SOL     OW 2092   1.309   6.085   4.704
  398SOL    HW1 2093   1.338   6.009   4.646
  398SOL    HW2 2094   1.384   6.149   4.715
  399SOL     OW 2095   6.338   5.852   4.413
  399SOL    HW1 2096   6.337   5.919   4.487
  399SOL    HW2 2097   6.273   5.881   4.342
  400SOL     OW 2098   6.688   6.449   5.221
  400SOL    HW1 2099   6.595   6.449   5.183
  400SOL    HW2 2100   6.739   6.372   5.182
  401SOL     OW 2101   5.950   6.979   6.001
  401SOL    HW1 2102   5.900   6.957   5.917
  401SOL    HW2 2103   6.035   0.005   5.977
  402SOL     OW 2104   6.069   0.242   2.291
  402SOL    HW1 2105   6.098   0.183   2.216
  402SOL    HW2 2106   6.120   0.217   2.374
  403SOL     OW 2107   3.142   0.047   6.649
  403SOL    HW1 2108   3.071   0.022   6.583
  403SOL    HW2 2109   3.122   0.138   6.686
  404SOL     OW 2110   2.924   5.803   5.603
  404SOL    HW1 2111   2.951   5.774   5.511
  404SOL    HW2 2112   2.870   5.887   5.597
  405SOL     OW 2113   2.270   4.127   3.387
  405SOL    HW1 2114   2.300   4.179   3.466
  405SOL    HW2 2115   2.267   4.029   3.409
  406SOL     OW 2116   0.520   4.966   5.363
  406SOL    HW1 2117   0.567   5.054   5.358
  406SOL    HW2 2118   0.585   4.895   5.387
  407SOL     OW 2119   1.510   3.255   3.594
  407SOL    HW1 2120   1.438   3.304   3.643
  407SOL    HW2 2121   1.510   3.283   3.498
  408SOL     OW 2122   3.281   2.111   2.920
  408SOL    HW1 2123   3.312   2.052   2.994
  408SOL    HW2 2124   3.340   2.099   2.841
  409SOL     OW 2125   6.791   3.575   1.852
  409SOL    HW1 2126   6.726   3.537   1.786
  409SOL    HW2 2127   6.774   3.673   1.864
  410SOL     OW 2128   1.501   1.720   1.424
  410SOL    HW1 2129   1.594   1.686   1.437
  410SOL    HW2 2130   1.461   1.740   1.514
  411SOL     OW 2131   6.376   1.890   1.930
  411SOL    HW1 2132   6.379   1.990   1.923
  411SOL    HW2 2133   6.466   1.855   1.955
  412SOL     OW 2134   3.472   5.273   2.637
  412SOL    HW1 2135   3.382   5.291   2.677
  412SOL    HW2 2136   3.475   5.307   2.543
  413SOL     OW 2137   4.042   5.424   1.860
  413SOL    HW1 2138   3.992   5.355   1.808
  413SOL    HW2 2139   3.983   5.503   1.877
  414SOL     OW 2140   3.562   0.500   3.666
  414SOL    HW1 2141   3.495   0.565   3.629
  414SOL    HW2 2142   3.643   0.499   3.608
  415SOL     OW 2143   6.988   1.276   0.101
  415SOL    HW1 2144   0.001   1.344   0.166
  415SOL    HW2 2145   6.917   1.317   0.045
  416SOL     OW 2146   5.187   4.363   4.425
  416SOL    HW1 2147   5.159   4.270   4.400
  416SOL    HW2 2148   5.279   4.380   4.388
  417SOL     OW 2149   1.972   1.278   6.636
  417SOL    HW1 2150   1.889   1.225   6.621
  417SOL    HW2 2151   2.029   1.275   6.554
  418SOL     OW 2152   3.144   6.977   5.485
  418SOL    HW1 2153   3.151   6.972   5.386
  418SOL    HW2 2154   3.122   6.886   5.522
  419SOL     OW 2155   6.870   6.656   3.220
  419SOL    HW1 2156   6.818   6.690   3.299
  419SOL    HW2 2157   6.965   6.685   3.228
  420SOL     OW 2158   5.623   0.981   6.414
  420SOL    HW1 2159   5.564   1.052   6.453
  420SOL    HW2 2160   5.570   0.898   6.401
  421SOL     OW 2161   5.660   4.163   5.598
  421SOL    HW1 2162   5.579   4.204   5.639
  421SOL    HW2 2163   5.694   4.222   5.525
  422SOL     OW 2164   5.236   1.906   0.635
  422SOL    HW1 2165   5.311   1.844   0.613
  422SOL    HW2 2166   5.156   1.882   0.581
  423SOL     OW 2167   2.574   0.838   6.665
  423SOL    HW1 2168   2.591   0.937   6.659
  423SOL    HW2 2169   2.487   0.817   6.619
  424SOL     OW 2170   2.019   5.166   2.963
  424SOL    HW1 2171   1.923   5.187   2.944
  424SOL    HW2 2172   2.029   5.140   3.059
  425SOL     OW 2173   5.276   1.114   5.124
  425SOL    HW1 2174   5.316   1.123   5.215
  425SOL    HW2 2175   5.218   1.032   5.122
  426SOL     OW 2176   2.490   2.830   5.356
  426SOL    HW1 2177   2.432   2.868   5.428
  426SOL    HW2 2178   2.511   2.901   5.289
  427SOL     OW 2179   5.210   1.167   4.406
  427SOL    HW1 2180   5.215   1.177   4.505
  427SOL    HW2 2181   5.135   1.224   4.371
  428SOL     OW 2182   2.422   0.932   4.521
  428SOL    HW1 2183   2.452   0.958   4.612
  428SOL    HW2 2184   2.432   1.009   4.459
  429SOL     OW 2185   0.729   5.500   4.385
  429SOL    HW1 2186   0.716   5.542   4.475
  429SOL    HW2 2187   0.761   5.406   4.396
  430SOL     OW 2188   1.511   0.120   3.885
  430SOL    HW1 2189   1.607   0.135   3.910
  430SOL    HW2 2190   1.459   0.092   3.966
  431SOL     OW 2191   2.251   2.190   0.920
  431SOL    HW1 2192   2.328   2.132   0.945
  431SOL    HW2 2193   2.236   2.259   0.991
  432SOL     OW 2194   5.510   1.896   1.249
  432SOL    HW1 2195   5.555   1.814   1.283
  432SOL    HW2 2196   5.482   1.883   1.154
  433SOL     OW 2197   3.911   6.256   6.266
  433SOL    HW1 2198   3.864   6.236   6.353
  433SOL    HW2 2199   3.900   6.179   6.204
  434SOL     OW 2200   3.638   5.991   3.526
  434SOL    HW1 2201   3.646   6.018   3.430
  434SOL    HW2 2202   3.542   5.986   3.552
  435SOL     OW 2203   3.983   1.585   5.411
  435SOL    HW1 2204   3.890   1.558   5.389
  435SOL    HW2 2205   3.985   1.627   5.502
  436SOL     OW 2206   3.557   6.003   2.826
  436SOL    HW1 2207   3.630   6.015   2.759
  436SOL    HW2 2208   3.471   5.986   2.779
  437SOL     OW 2209   0.135   1.165   4.796
  437SOL    HW1 2210   0.222   1.115   4.801
  437SOL    HW2 2211   0.084   1.134   4.716
  438SOL     OW 2212   1.448   4.659   3.084
  438SOL    HW1 2213   1.418   4.635   2.992
  438SOL    HW2 2214   1.501   4.743   3.081
  439SOL     OW 2215   5.752   1.074   2.959
  439SOL    HW1 2216   5.738   1.068   3.058
  439SOL    HW2 2217   5.846   1.101   2.941
  440SOL     OW 2218   3.684   0.995   6.772
  440SOL    HW1 2219   3.665   0.985   6.869
  440SOL    HW2 2220   3.730   1.082   6.755
  441SOL     OW 2221   6.252   4.476   2.982
  441SOL    HW1 2222   6.183   4.520   3.040
  441SOL    HW2 2223   6.292   4.545   2.921
  442SOL     OW 2224   4.875   4.068   5.915
  442SOL    HW1 2225   4.921   4.150   5.879
  442SOL    HW2 2226   4.830   4.019   5.841
  443SOL     OW 2227   5.144   4.880   3.268
  443SOL    HW1 2228   5.096   4.794   3.252
  443SOL    HW2 2229   5.243   4.862   3.272
  444SOL     OW 2230   3.828   1.239   6.673
  444SOL    HW1 2231   3.858   1.265   6.581
  444SOL    HW2 2232   3.900   1.262   6.739
  445SOL     OW 2233   2.725   6.379   2.763
  445SOL    HW1 2234   2.653   6.415   2.704
  445SOL    HW2 2235   2.738   6.281   2.745
  446SOL     OW 2236   4.723   5.965   2.850
  446SOL    HW1 2237   4.814   5.995   2.819
  446SOL    HW2 2238   4.726   5.868   2.873
  447SOL     OW 2239   6.281   3.466   5.752
  447SOL    HW1 2240   6.378   3.470   5.730
  447SOL    HW2 2241   6.268   3.485   5.850
  448SOL     OW 2242   2.075   1.245   2.907
  448SOL    HW1 2243   2.011   1.169   2.895
  448SOL    HW2 2244   2.071   1.305   2.827
  449SOL     OW 2245   1.890   2.736   3.512
  449SOL    HW1 2246   1.939   2.727   3.599
  449SOL    HW2 2247   1.932   2.678   3.443
  450SOL     OW 2248   0.664   4.662   3.421
  450SOL    HW1 2249   0.626   4.574   3.449
  450SOL    HW2 2250   0.643   4.678   3.324
  451SOL     OW 2251   6.884   2.405   3.514
  451SOL    HW1 2252   6.826   2.351   3.575
  451SOL    HW2 2253   6.832   2.483   3.479
  452SOL     OW 2254   3.404   6.445   2.761
  452SOL    HW1 2255   3.484   6.385   2.754
  452SOL    HW2 2256   3.425   6.522   2.821
  453SOL     OW 2257   4.789   0.496   6.879
  453SOL    HW1 2258   4.833   0.487   6.789
  453SOL    HW2 2259   4.852   0.540   6.943
  454SOL     OW 2260   6.748   3.965   6.240
  454SOL    HW1 2261   6.778   4.025   6.166
  454SOL    HW2 2262   6.660   3.997   6.275
  455SOL     OW 2263   6.655   3.932   5.675
  455SOL    HW1 2264   6.666   3.979   5.587
  455SOL    HW2 2265   6.667   3.834   5.662
  456SOL     OW 2266   1.513   1.202   3.790
  456SOL    HW1 2267   1.610   1.194   3.813
  456SOL    HW2 2268   1.503   1.248   3.702
  457SOL     OW 2269   1.781   5.986   5.795
  457SOL    HW1 2270   1.759   5.907   5.853
  457SOL    HW2 2271   1.800   5.955   5.702
  458SOL     OW 2272   2.726   0.933   2.957
  458SOL    HW1 2273   2.815   0.978   2.961
  458SOL    HW2 2274   2.689   0.925   3.050
  459SOL     OW 2275   2.295   0.463   5.457
  459SOL    HW1 2276   2.367   0.393   5.464
  459SOL    HW2 2277   2.250   0.473   5.545
  460SOL     OW 2278   1.033   1.335   5.301
  460SOL    HW1 2279   1.119   1.385   5.318
  460SOL    HW2 2280   0.986   1.376   5.223
  461SOL     OW 2281   0.088   4.655   5.215
  461SOL    HW1 2282   0.139   4.696   5.290
  461SOL    HW2 2283   0.085   4.718   5.138
  462SOL     OW 2284   3.378   3.696   4.511
  462SOL    HW1 2285   3.433   3.613   4.516
  462SOL    HW2 2286   3.403   3.747   4.428
  463SOL     OW 2287   5.924   6.728   2.738
  463SOL    HW1 2288   5.934   6.755   2.834
  463SOL    HW2 2289   5.926   6.809   2.680
  464SOL     OW 2290   3.509   6.265   6.243
  464SOL    HW1 2291   3.550   6.327   6.309
  464SOL    HW2 2292   3.410   6.258   6.259
  465SOL     OW 2293   1.266   1.962   0.788
  465SOL    HW1 2294   1.275   2.001   0.879
  465SOL    HW2 2295   1.169   1.956   0.763
  466SOL     OW 2296   3.413   6.150   4.620
  466SOL    HW1 2297   3.446   6.124   4.529
  466SOL    HW2 2298   3.474   6.221   4.658
  467SOL     OW 2299   0.744   1.807   2.341
  467SOL    HW1 2300   0.650   1.779   2.360
  467SOL    HW2 2301   0.791   1.733   2.293
  468SOL     OW 2302   4.946   0.483   6.626
  468SOL    HW1 2303   4.872   0.437   6.577
  468SOL    HW2 2304   5.028   0.487   6.568
  469SOL     OW 2305   3.140   4.369   5.533
  469SOL    HW1 2306   3.048   4.342   5.561
  469SOL    HW2 2307   3.135   4.427   5.452
  470SOL     OW 2308   2.826   5.680   2.812
  470SOL    HW1 2309   2.793   5.729   2.893
  470SOL    HW2 2310   2.856   5.589   2.837
  471SOL     OW 2311   2.538   2.388   3.943
  471SOL    HW1 2312   2.611   2.384   4.011
  471SOL    HW2 2313   2.578   2.399   3.852
  472SOL     OW 2314   5.566   4.419   6.432
  472SOL    HW1 2315   5.623   4.356   6.484
  472SOL    HW2 2316   5.488   4.370   6.394
  473SOL     OW 2317   6.635   2.390   2.608
  473SOL    HW1 2318   6.634   2.459   2.534
  473SOL    HW2 2319   6.727   2.384   2.646
  474SOL     OW 2320   6.104   5.949   5.193
  474SOL    HW1 2321   6.049   5.997   5.124
  474SOL    HW2 2322   6.125   6.011   5.268
  475SOL     OW 2323   5.561   2.641   0.621
  475SOL    HW1 2324   5.590   2.565   0.564
  475SOL    HW2 2325   5.574   2.727   0.572
  476SOL     OW 2326   0.307   4.079   1.763
  476SOL    HW1 2327   0.208   4.066   1.757
  476SOL    HW2 2328   0.337   4.058   1.856
  477SOL     OW 2329   2.844   6.068   4.028
  477SOL    HW1 2330   2.918   6.038   4.088
  477SOL    HW2 2331   2.832   6.003   3.953
  478SOL     OW 2332   4.464   6.027   2.791
  478SOL    HW1 2333   4.405   6.101   2.821
  478SOL    HW2 2334   4.552   6.032   2.839
  479SOL     OW 2335   4.022   3.185   4.259
  479SOL    HW1 2336   3.950   3.254   4.264
  479SOL    HW2 2337   4.093   3.207   4.326
  480SOL     OW 2338   1.510   0.029   2.943
  480SOL    HW1 2339   1.543   6.961   2.913
  480SOL    HW2 2340   1.511   0.093   2.866
  481SOL     OW 2341   1.139   5.826   1.250
  481SOL    HW1 2342   1.063   5.839   1.187
  481SOL    HW2 2343   1.105   5.807   1.341
  482SOL     OW 2344   5.680   4.421   3.008
  482SOL    HW1 2345   5.684   4.352   3.081
  482SOL    HW2 2346   5.690   4.512   3.048
  483SOL     OW 2347   5.992   2.332   2.702
  483SOL    HW1 2348   5.905   2.284   2.710
  483SOL    HW2 2349   6.003   2.395   2.779
  484SOL     OW 2350   1.996   4.216   4.583
  484SOL    HW1 2351   1.975   4.277   4.506
  484SOL    HW2 2352   2.090   4.185   4.576
  485SOL     OW 2353   5.704   3.434   2.762
  485SOL    HW1 2354   5.684   3.466   2.670
  485SOL    HW2 2355   5.786   3.376   2.759
  486SOL     OW 2356   6.178   0.033   6.459
  486SOL    HW1 2357   6.083   0.064   6.467
  486SOL    HW2 2358   6.235   0.108   6.425
  487SOL     OW 2359   0.483   6.878   3.265
  487SOL    HW1 2360   0.510   6.975   3.266
  487SOL    HW2 2361   0.408   6.864   3.330
  488SOL     OW 2362   1.843   6.809   3.330
  488SOL    HW1 2363   1.821   6.877   3.261
  488SOL    HW2 2364   1.934   6.771   3.313
  489SOL     OW 2365   6.356   6.026   4.674
  489SOL    HW1 2366   6.362   5.992   4.768
  489SOL    HW2 2367   6.269   6.074   4.661
  490SOL     OW 2368   1.668   5.769   5.972
  490SOL    HW1 2369   1.581   5.733   6.004
  490SOL    HW2 2370   1.734   5.694   5.963
  491SOL     OW 2371   6.856   3.352   0.477
  491SOL    HW1 2372   6.814   3.262   0.466
  491SOL    HW2 2373   6.787   3.423   0.466
  492SOL     OW 2374   1.727   1.551   5.742
  492SOL    HW1 2375   1.761   1.481   5.805
  492SOL    HW2 2376   1.802   1.610   5.713
  493SOL     OW 2377   2.740   0.150   5.250
  493SOL    HW1 2378   2.780   0.061   5.226
  493SOL    HW2 2379   2.678   0.179   5.178
  494SOL     OW 2380   2.503   1.011   5.979
  494SOL    HW1 2381   2.498   0.912   5.971
  494SOL    HW2 2382   2.582   1.036   6.034
  495SOL     OW 2383   3.976   6.145   5.479
  495SOL    HW1 2384   4.059   6.175   5.525
  495SOL    HW2 2385   3.920   6.224   5.455
  496SOL     OW 2386   6.488   1.952   3.026
  496SOL    HW1 2387   6.490   2.017   2.950
  496SOL    HW2 2388   6.416   1.978   3.091
  497SOL     OW 2389   3.824   1.385   5.705
  497SOL    HW1 2390   3.804   1.295   5.746
  497SOL    HW2 2391   3.893   1.374   5.633
  498SOL     OW 2392   6.989   5.938   1.847
  498SOL    HW1 2393   0.044   5.873   1.840
  498SOL    HW2 2394   0.002   6.031   1.842
  499SOL     OW 2395   3.254   4.876   5.970
  499SOL    HW1 2396   3.286   4.781   5.971
  499SOL    HW2 2397   3.155   4.878   5.955
  500SOL     OW 2398   5.629   2.744   6.544
  500SOL    HW1 2399   5.550   2.795   6.510
  500SOL    HW2 2400   5.650   2.669   6.481
  501SOL     OW 2401   1.980   6.903   2.731
  501SOL    HW1 2402   2.009   6.808   2.744
  501SOL    HW2 2403   2.060   6.963   2.728
  502SOL     OW 2404   1.760   4.873   5.862
  502SOL    HW1 2405   1.826   4.805   5.896
  502SOL    HW2 2406   1.689   4.888   5.931
  503SOL     OW 2407   3.257   4.220   6.402
  503SOL    HW1 2408   3.329   4.151   6.392
  503SOL    HW2 2409   3.228   4.252   6.312
  504SOL     OW 2410   6.730   6.109   2.020
  504SOL    HW1 2411   6.802   6.154   1.967
  504SOL    HW2 2412   6.720   6.156   2.108
  505SOL     OW 2413   3.958   0.077   5.361
  505SOL    HW1 2414   3.988   0.051   5.270
  505SOL    HW2 2415   3.900   0.005   5.399
  506SOL     OW 2416   3.022   5.771   2.651
  506SOL    HW1 2417   2.939   5.755   2.705
  506SOL    HW2 2418   3.084   5.830   2.703
  507SOL     OW 2419   4.257   1.072   1.698
  507SOL    HW1 2420   4.286   1.059   1.603
  507SOL    HW2 2421   4.201   1.155   1.704
  508SOL     OW 2422   0.173   3.712   4.262
  508SOL    HW1 2423   0.257   3.669   4.230
  508SOL    HW2 2424   0.194   3.776   4.335
  509SOL     OW 2425   5.226   0.495   0.012
  509SOL    HW1 2426   5.127   0.495   0.025
  509SOL    HW2 2427   5.252   0.418   6.975
  510SOL     OW 2428   6.158   4.616   6.163
  510SOL    HW1 2429   6.090   4.555   6.203
  510SOL    HW2 2430   6.113   4.681   6.102
  511SOL     OW 2431   1.215   1.504   6.547
  511SOL    HW1 2432   1.309   1.538   6.537
  511SOL    HW2 2433   1.212   1.435   6.619
  512SOL     OW 2434   5.473   2.406   0.412
  512SOL    HW1 2435   5.562   2.451   0.422
  512SOL    HW2 2436   5.478   2.339   0.338
  513SOL     OW 2437   6.084   6.961   2.580
  513SOL    HW1 2438   6.116   6.897   2.511
  513SOL    HW2 2439   6.156   0.006   2.601
  514SOL     OW 2440   0.074   6.540   3.538
  514SOL    HW1 2441   0.164   6.581   3.553
  514SOL    HW2 2442   0.045   6.558   3.444
  515SOL     OW 2443   2.961   0.762   6.562
  515SOL    HW1 2444   2.981   0.679   6.615
  515SOL    HW2 2445   2.880   0.747   6.506
  516SOL     OW 2446   2.330   4.162   1.184
  516SOL    HW1 2447   2.283   4.081   1.219
  516SOL    HW2 2448   2.307   4.240   1.242
  517SOL     OW 2449   3.459   4.945   2.463
  517SOL    HW1 2450   3.411   4.858   2.457
  517SOL    HW2 2451   3.453   4.993   2.375
  518SOL     OW 2452   2.113   3.298   3.639
  518SOL    HW1 2453   2.131   3.266   3.732
  518SOL    HW2 2454   2.153   3.234   3.573
  519SOL     OW 2455   6.682   6.103   3.929
  519SOL    HW1 2456   6.705   6.175   3.995
  519SOL    HW2 2457   6.613   6.043   3.969
  520SOL     OW 2458   1.155   3.224   6.819
  520SOL    HW1 2459   1.108   3.185   6.740
  520SOL    HW2 2460   1.224   3.160   6.851
  521SOL     OW 2461   4.490   5.093   4.417
  521SOL    HW1 2462   4.522   5.187   4.404
  521SOL    HW2 2463   4.531   5.034   4.348
  522SOL     OW 2464   4.224   3.728   1.371
  522SOL    HW1 2465   4.291   3.785   1.323
  522SOL    HW2 2466   4.245   3.726   1.468
  523SOL     OW 2467   0.102   6.694   1.822
  523SOL    HW1 2468   0.044   6.765   1.863
  523SOL    HW2 2469   0.185   6.685   1.877
  524SOL     OW 2470   0.522   2.991   2.043
  524SOL    HW1 2471   0.571   3.070   2.007
  524SOL    HW2 2472   0.488   2.935   1.967
  525SOL     OW 2473   0.650   3.381   6.858
  525SOL    HW1 2474   0.617   3.447   6.926
  525SOL    HW2 2475   0.742   3.350   6.883
  526SOL     OW 2476   3.539   6.939   4.296
  526SOL    HW1 2477   3.477   6.861   4.296
  526SOL    HW2 2478   3.516   7.000   4.221
  527SOL     OW 2479   1.001   2.509   6.987
  527SOL    HW1 2480   0.982   2.607   6.986
  527SOL    HW2 2481   1.095   2.493   7.016
  528SOL     OW 2482   0.646   3.462   3.327
  528SOL    HW1 2483   0.647   3.363   3.308
  528SOL    HW2 2484   0.586   3.480   3.405
  529SOL     OW 2485   2.655   0.558   5.665
  529SOL    HW1 2486   2.743   0.577   5.708
  529SOL    HW2 2487   2.668   0.543   5.567
  530SOL     OW 2488   3.577   3.027   2.233
  530SOL    HW1 2489   3.491   3.066   2.200
  530SOL    HW2 2490   3.566   2.997   2.328
  531SOL     OW 2491   2.369   0.724   2.845
  531SOL    HW1 2492   2.389   0.698   2.751
  531SOL    HW2 2493   2.321   0.649   2.891
  532SOL     OW 2494   1.815   3.789   0.385
  532SOL    HW1 2495   1.845   3.842   0.464
  532SOL    HW2 2496   1.808   3.850   0.306
  533SOL     OW 2497   5.322   0.181   3.690
  533SOL    HW1 2498   5.399   0.141   3.640
  533SOL    HW2 2499   5.356   0.230   3.770
  534SOL     OW 2500   1.017   5.688   1.479
  534SOL    HW1 2501   0.929   5.717   1.518
  534SOL    HW2 2502   1.071   5.643   1.551
  535SOL     OW 2503   6.845   4.095   3.287
  535SOL    HW1 2504   6.807   4.124   3.199
  535SOL    HW2 2505   6.778   4.039   3.335
  536SOL     OW 2506   6.530   5.612   3.392
  536SOL    HW1 2507   6.619   5.594   3.349
  536SOL    HW2 2508   6.504   5.707   3.376
  537SOL     OW 2509   3.862   6.681   4.329
  537SOL    HW1 2510   3.825   6.590   4.343
  537SOL    HW2 2511   3.938   6.696   4.393
  538SOL     OW 2512   1.412   5.487   5.360
  538SOL    HW1 2513   1.457   5.397   5.368
  538SOL    HW2 2514   1.315   5.474   5.343
  539SOL     OW 2515   1.135   5.492   1.662
  539SOL    HW1 2516   1.082   5.441   1.730
  539SOL    HW2 2517   1.183   5.568   1.706
  540SOL     OW 2518   1.759   1.115   4.067
  540SOL    HW1 2519   1.793   1.029   4.029
  540SOL    HW2 2520   1.781   1.190   4.005
  541SOL     OW 2521   4.237   5.886   3.679
  541SOL    HW1 2522   4.261   5.944   3.757
  541SOL    HW2 2523   4.151   5.840   3.696
  542SOL     OW 2524   3.920   5.884   6.418
  542SOL    HW1 2525   3.961   5.795   6.437
  542SOL    HW2 2526   3.821   5.873   6.408
  543SOL     OW 2527   5.738   3.666   4.060
  543SOL    HW1 2528   5.728   3.674   3.961
  543SOL    HW2 2529   5.651   3.686   4.104
  544SOL     OW 2530   0.241   4.871   0.015
  544SOL    HW1 2531   0.193   4.852   6.951
  544SOL    HW2 2532   0.300   4.951   0.002
  545SOL     OW 2533   4.630   1.317   1.162
  545SOL    HW1 2534   4.536   1.333   1.132
  545SOL    HW2 2535   4.673   1.405   1.184
  546SOL     OW 2536   0.481   4.436   1.584
  546SOL    HW1 2537   0.482   4.529   1.620
  546SOL    HW2 2538   0.456   4.438   1.487
  547SOL     OW 2539   3.192   2.294   0.301
  547SOL    HW1 2540   3.226   2.234   0.374
  547SOL    HW2 2541   3.106   2.336   0.331
  548SOL     OW 2542   3.040   3.375   0.588
  548SOL    HW1 2543   3.109   3.445   0.568
  548SOL    HW2 2544   2.956   3.396   0.538
  549SOL     OW 2545   4.908   2.458   1.100
  549SOL    HW1 2546   4.809   2.458   1.088
  549SOL    HW2 2547   4.946   2.543   1.063
  550SOL     OW 2548   6.764   4.827   3.592
  550SOL    HW1 2549   6.761   4.727   3.599
  550SOL    HW2 2550   6.684   4.859   3.543
  551SOL     OW 2551   0.017   0.892   0.745
  551SOL    HW1 2552   0.024   0.982   0.788
  551SOL    HW2 2553   0.101   0.874   0.693
  552SOL     OW 2554   4.999   5.040   5.108
  552SOL    HW1 2555   4.980   5.064   5.204
  552SOL    HW2 2556   4.936   5.089   5.049
  553SOL     OW 2557   3.871   0.626   4.238
  553SOL    HW1 2558   3.917   0.599   4.323
  553SOL    HW2 2559   3.792   0.684   4.260
  554SOL     OW 2560   5.685   5.373   6.893
  554SOL    HW1 2561   5.632   5.338   6.970
  554SOL    HW2 2562   5.737   5.453   6.922
  555SOL     OW 2563   3.426   5.463   5.094
  555SOL    HW1 2564   3.479   5.454   5.179
  555SOL    HW2 2565   3.479   5.516   5.028
  556SOL     OW 2566   5.394   1.647   4.636
  556SOL    HW1 2567   5.336   1.710   4.584
  556SOL    HW2 2568   5.413   1.566   4.581
  557SOL     OW 2569   6.784   4.861   6.210
  557SOL    HW1 2570   6.783   4.859   6.110
  557SOL    HW2 2571   6.715   4.798   6.245
  558SOL     OW 2572   4.034   3.323   3.981
  558SOL    HW1 2573   3.971   3.312   4.058
  558SOL    HW2 2574   4.048   3.235   3.937
  559SOL     OW 2575   6.537   6.249   5.537
  559SOL    HW1 2576   6.469   6.252   5.463
  559SOL    HW2 2577   6.549   6.341   5.575
  560SOL     OW 2578   6.713   3.407   3.194
  560SOL    HW1 2579   6.662   3.490   3.171
  560SOL    HW2 2580   6.757   3.371   3.111
  561SOL     OW 2581   6.717   2.687   6.446
  561SOL    HW1 2582   6.745   2.779   6.418
  561SOL    HW2 2583   6.784   2.650   6.510
  562SOL     OW 2584   4.801   6.733   5.411
  562SOL    HW1 2585   4.855   6.653   5.437
  562SOL    HW2 2586   4.753   6.715   5.325
  563SOL     OW 2587   2.209   1.652   3.656
  563SOL    HW1 2588   2.259   1.612   3.733
  563SOL    HW2 2589   2.123   1.691   3.689
  564SOL     OW 2590   6.913   1.551   6.272
  564SOL    HW1 2591   6.900   1.647   6.298
  564SOL    HW2 2592   6.989   1.544   6.208
  565SOL     OW 2593   2.848   3.532   3.767
  565SOL    HW1 2594   2.865   3.566   3.859
  565SOL    HW2 2595   2.760   3.484   3.765
  566SOL     OW 2596   2.314   4.625   3.092
  566SOL    HW1 2597   2.299   4.604   3.189
  566SOL    HW2 2598   2.361   4.548   3.049
  567SOL     OW 2599   2.711   2.656   0.645
  567SOL    HW1 2600   2.635   2.708   0.683
  567SOL    HW2 2601   2.785   2.719   0.618
  568SOL     OW 2602   5.688   6.840   0.836
  568SOL    HW1 2603   5.746   6.857   0.916
  568SOL    HW2 2604   5.636   6.923   0.815
  569SOL     OW 2605   1.110   2.560   1.255
  569SOL    HW1 2606   1.151   2.559   1.346
  569SOL    HW2 2607   1.093   2.467   1.224
  570SOL     OW 2608   3.488   6.696   6.602
  570SOL    HW1 2609   3.399   6.739   6.618
  570SOL    HW2 2610   3.540   6.694   6.687
  571SOL     OW 2611   2.721   4.846   3.574
  571SOL    HW1 2612   2.763   4.807   3.492
  571SOL    HW2 2613   2.783   4.915   3.613
  572SOL     OW 2614   2.126   5.785   4.924
  572SOL    HW1 2615   2.061   5.850   4.885
  572SOL    HW2 2616   2.113   5.696   4.882
  573SOL     OW 2617   6.320   1.439   5.681
  573SOL    HW1 2618   6.344   1.521   5.629
  573SOL    HW2 2619   6.309   1.463   5.777
  574SOL     OW 2620   3.613   0.503   5.428
  574SOL    HW1 2621   3.516   0.487   5.412
  574SOL    HW2 2622   3.654   0.420   5.465
  575SOL     OW 2623   4.357   2.818   1.300
  575SOL    HW1 2624   4.282   2.792   1.239
  575SOL    HW2 2625   4.323   2.818   1.395
  576SOL     OW 2626   1.706   2.999   2.823
  576SOL    HW1 2627   1.701   3.097   2.843
  576SOL    HW2 2628   1.694   2.984   2.725
  577SOL     OW 2629   1.203   0.552   2.344
  577SOL    HW1 2630   1.187   0.501   2.260
  577SOL    HW2 2631   1.286   0.607   2.335
  578SOL     OW 2632   1.885   5.896   6.161
  578SOL    HW1 2633   1.798   5.857   6.129
  578SOL    HW2 2634   1.884   5.994   6.146
  579SOL     OW 2635   1.607   4.716   2.661
  579SOL    HW1 2636   1.681   4.776   2.633
  579SOL    HW2 2637   1.637   4.661   2.739
  580SOL     OW 2638   4.271   4.814   5.478
  580SOL    HW1 2639   4.366   4.834   5.454
  580SOL    HW2 2640   4.266   4.727   5.527
  581SOL     OW 2641   1.042   3.381   3.426
  581SOL    HW1 2642   0.949   3.377   3.463
  581SOL    HW2 2643   1.104   3.330   3.485
  582SOL     OW 2644   4.814   5.701   3.233
  582SOL    HW1 2645   4.842   5.628   3.295
  582SOL    HW2 2646   4.720   5.727   3.253
  583SOL     OW 2647   2.561   5.612   5.203
  583SOL    HW1 2648   2.525   5.644   5.115
  583SOL    HW2 2649   2.485   5.584   5.262
  584SOL     OW 2650   3.411   6.980   6.430
  584SOL    HW1 2651   3.339   0.005   6.481
  584SOL    HW2 2652   3.472   6.933   6.493
  585SOL     OW 2653   4.158   0.564   1.400
  585SOL    HW1 2654   4.185   0.502   1.326
  585SOL    HW2 2655   4.073   0.532   1.442
  586SOL     OW 2656   3.569   0.590   1.128
  586SOL    HW1 2657   3.615   0.514   1.173
  586SOL    HW2 2658   3.592   0.675   1.174
  587SOL     OW 2659   5.279   2.049   2.538
  587SOL    HW1 2660   5.229   1.992   2.604
  587SOL    HW2 2661   5.224   2.129   2.516
  588SOL     OW 2662   1.886   5.477   0.926
  588SOL    HW1 2663   1.937   5.547   0.976
  588SOL    HW2 2664   1.855   5.407   0.990
  589SOL     OW 2665   3.391   5.366   1.431
  589SOL    HW1 2666   3.374   5.287   1.372
  589SOL    HW2 2667   3.410   5.446   1.373
  590SOL     OW 2668   5.463   1.398   0.803
  590SOL    HW1 2669   5.396   1.380   0.731
  590SOL    HW2 2670   5.548   1.350   0.781
  591SOL     OW 2671   3.902   6.066   3.592
  591SOL    HW1 2672   3.942   6.011   3.519
  591SOL    HW2 2673   3.802   6.066   3.582
  592SOL     OW 2674   4.398   0.426   3.500
  592SOL    HW1 2675   4.418   0.506   3.442
  592SOL    HW2 2676   4.321   0.375   3.461
  593SOL     OW 2677   4.747   2.192   5.027
  593SOL    HW1 2678   4.776   2.286   5.045
  593SOL    HW2 2679   4.731   2.181   4.929
  594SOL     OW 2680   6.123   1.192   0.592
  594SOL    HW1 2681   6.157   1.107   0.632
  594SOL    HW2 2682   6.055   1.233   0.653
  595SOL     OW 2683   5.980   6.963   3.537
  595SOL    HW1 2684   5.984   6.867   3.562
  595SOL    HW2 2685   5.886   6.987   3.510
  596SOL     OW 2686   6.970   5.050   3.175
  596SOL    HW1 2687   6.870   5.045   3.179
  596SOL    HW2 2688   7.006   4.964   3.139
  597SOL     OW 2689   3.026   6.874   5.928
  597SOL    HW1 2690   3.100   6.809   5.941
  597SOL    HW2 2691   3.063   6.967   5.925
  598SOL     OW 2692   3.120   4.093   4.785
  598SOL    HW1 2693   3.200   4.128   4.834
  598SOL    HW2 2694   3.052   4.166   4.776
  599SOL     OW 2695   1.830   5.917   2.524
  599SOL    HW1 2696   1.763   5.983   2.490
  599SOL    HW2 2697   1.846   5.933   2.621
  600SOL     OW 2698   6.800   3.284   6.030
  600SOL    HW1 2699   6.759   3.232   6.106
  600SOL    HW2 2700   6.732   3.345   5.991
  601SOL     OW 2701   1.409   1.135   4.646
  601SOL    HW1 2702   1.479   1.161   4.579
  601SOL    HW2 2703   1.447   1.069   4.710
  602SOL     OW 2704   3.031   0.528   5.973
  602SOL    HW1 2705   3.027   0.619   6.015
  602SOL    HW2 2706   2.952   0.475   6.003
  603SOL     OW 2707   1.896   2.040   5.245
  603SOL    HW1 2708   1.977   2.081   5.288
  603SOL    HW2 2709   1.818   2.047   5.306
  604SOL     OW 2710   0.849   2.227   1.309
  604SOL    HW1 2711   0.817   2.225   1.404
  604SOL    HW2 2712   0.948   2.211   1.306
  605SOL     OW 2713   0.025   4.776   1.576
  605SOL    HW1 2714   0.072   4.841   1.636
  605SOL    HW2 2715   6.972   4.732   1.627
  606SOL     OW 2716   4.662   6.592   5.673
  606SOL    HW1 2717   4.645   6.521   5.741
  606SOL    HW2 2718   4.620   6.565   5.586
  607SOL     OW 2719   0.233   4.804   5.422
  607SOL    HW1 2720   0.217   4.781   5.518
  607SOL    HW2 2721   0.315   4.861   5.415
  608SOL     OW 2722   3.893   6.719   6.965
  608SOL    HW1 2723   3.899   6.621   6.983
  608SOL    HW2 2724   3.922   6.738   6.871
  609SOL     OW 2725   3.706   2.615   1.728
  609SOL    HW1 2726   3.614   2.626   1.692
  609SOL    HW2 2727   3.706   2.546   1.800
  610SOL     OW 2728   4.640   2.259   0.277
  610SOL    HW1 2729   4.732   2.276   0.241
  610SOL    HW2 2730   4.590   2.345   0.282
  611SOL     OW 2731   3.300   6.776   2.584
  611SOL    HW1 2732   3.354   6.760   2.501
  611SOL    HW2 2733   3.352   6.834   2.647
  612SOL     OW 2734   2.952   5.455   4.866
  612SOL    HW1 2735   3.002   5.442   4.951
  612SOL    HW2 2736   2.867   5.505   4.885
  613SOL     OW 2737   5.204   4.450   4.868
  613SOL    HW1 2738   5.152   4.535   4.870
  613SOL    HW2 2739   5.165   4.385   4.933
  614SOL     OW 2740   5.515   5.274   4.690
  614SOL    HW1 2741   5.455   5.280   4.610
  614SOL    HW2 2742   5.472   5.320   4.768
  615SOL     OW 2743   6.632   2.307   1.346
  615SOL    HW1 2744   6.677   2.335   1.431
  615SOL    HW2 2745   6.668   2.362   1.270
  616SOL     OW 2746   6.287   2.170   2.635
  616SOL    HW1 2747   6.304   2.146   2.539
  616SOL    HW2 2748   6.271   2.268   2.643
  617SOL     OW 2749   1.387   4.980   6.494
  617SOL    HW1 2750   1.343   5.060   6.454
  617SOL    HW2 2751   1.335   4.897   6.470
  618SOL     OW 2752   1.497   2.438   1.608
  618SOL    HW1 2753   1.540   2.440   1.698
  618SOL    HW2 2754   1.446   2.353   1.597
  619SOL     OW 2755   1.780   2.061   0.652
  619SOL    HW1 2756   1.868   2.086   0.612
  619SOL    HW2 2757   1.711   2.056   0.580
  620SOL     OW 2758   4.474   2.014   0.289
  620SOL    HW1 2759   4.528   2.080   0.238
  620SOL    HW2 2760   4.436   2.058   0.371
  621SOL     OW 2761   5.501   5.009   6.667
  621SOL    HW1 2762   5.489   4.988   6.570
  621SOL    HW2 2763   5.569   5.082   6.677
  622SOL     OW 2764   1.470   1.160   6.770
  622SOL    HW1 2765   1.505   1.224   6.701
  622SOL    HW2 2766   1.370   1.164   6.770
  623SOL     OW 2767   0.705   5.893   6.247
  623SOL    HW1 2768   0.659   5.804   6.241
  623SOL    HW2 2769   0.636   5.965   6.254
  624SOL     OW 2770   0.234   2.825   1.864
  624SOL    HW1 2771   0.325   2.843   1.827
  624SOL    HW2 2772   0.178   2.779   1.795
  625SOL     OW 2773   2.438   2.311   1.298
  625SOL    HW1 2774   2.426   2.215   1.321
  625SOL    HW2 2775   2.468   2.362   1.379
  626SOL     OW 2776   2.572   5.769   3.607
  626SOL    HW1 2777   2.672   5.760   3.599
  626SOL    HW2 2778   2.551   5.845   3.669
  627SOL     OW 2779   4.925   0.000   0.925
  627SOL    HW1 2780   4.954   0.040   1.012
  627SOL    HW2 2781   4.894   6.928   0.941
  628SOL     OW 2782   4.732   4.750   4.858
  628SOL    HW1 2783   4.732   4.845   4.828
  628SOL    HW2 2784   4.669   4.739   4.935
  629SOL     OW 2785   0.382   0.246   0.994
  629SOL    HW1 2786   0.312   0.195   1.043
  629SOL    HW2 2787   0.378   0.343   1.020
  630SOL     OW 2788   5.558   2.035   2.502
  630SOL    HW1 2789   5.559   1.957   2.440
  630SOL    HW2 2790   5.465   2.051   2.535
  631SOL     OW 2791   3.081   0.470   5.458
  631SOL    HW1 2792   3.153   0.420   5.506
  631SOL    HW2 2793   2.998   0.414   5.456
  632SOL     OW 2794   2.645   1.331   0.356
  632SOL    HW1 2795   2.738   1.362   0.340
  632SOL    HW2 2796   2.588   1.352   0.276
  633SOL     OW 2797   3.521   5.340   0.031
  633SOL    HW1 2798   3.495   5.378   0.119
  633SOL    HW2 2799   3.454   5.365   6.983
  634SOL     OW 2800   4.145   4.595   1.697
  634SOL    HW1 2801   4.195   4.554   1.621
  634SOL    HW2 2802   4.063   4.641   1.663
  635SOL     OW 2803   4.834   6.854   3.009
  635SOL    HW1 2804   4.924   6.894   3.024
  635SOL    HW2 2805   4.825   6.770   3.062
  636SOL     OW 2806   5.462   5.545   6.088
  636SOL    HW1 2807   5.457   5.496   6.175
  636SOL    HW2 2808   5.506   5.488   6.019
  637SOL     OW 2809   5.336   4.586   1.617
  637SOL    HW1 2810   5.366   4.503   1.569
  637SOL    HW2 2811   5.357   4.577   1.714
  638SOL     OW 2812   4.974   1.267   2.667
  638SOL    HW1 2813   5.038   1.314   2.606
  638SOL    HW2 2814   4.919   1.202   2.614
  639SOL     OW 2815   5.270   4.499   1.875
  639SOL    HW1 2816   5.202   4.504   1.802
  639SOL    HW2 2817   5.238   4.438   1.947
  640SOL     OW 2818   2.293   4.712   5.112
  640SOL    HW1 2819   2.305   4.654   5.192
  640SOL    HW2 2820   2.380   4.718   5.062
  641SOL     OW 2821   0.654   5.629   4.633
  641SOL    HW1 2822   0.576   5.688   4.651
  641SOL    HW2 2823   0.737   5.669   4.672
  642SOL     OW 2824   0.148   4.071   4.176
  642SOL    HW1 2825   0.239   4.033   4.192
  642SOL    HW2 2826   0.154   4.170   4.169
  643SOL     OW 2827   5.884   5.207   5.141
  643SOL    HW1 2828   5.842   5.117   5.131
  643SOL    HW2 2829   5.980   5.202   5.115
  644SOL     OW 2830   0.962   5.373   2.539
  644SOL    HW1 2831   0.973   5.335   2.631
  644SOL    HW2 2832   1.033   5.336   2.479
  645SOL     OW 2833   5.069   2.559   4.302
  645SOL    HW1 2834   5.049   2.648   4.343
  645SOL    HW2 2835   5.139   2.571   4.232
  646SOL     OW 2836   1.959   2.281   3.177
  646SOL    HW1 2837   1.997   2.211   3.238
  646SOL    HW2 2838   1.894   2.238   3.114
  647SOL     OW 2839   5.969   2.770   6.023
  647SOL    HW1 2840   5.958   2.671   6.017
  647SOL    HW2 2841   6.057   2.791   6.066
  648SOL     OW 2842   6.145   3.538   2.585
  648SOL    HW1 2843   6.082   3.503   2.516
  648SOL    HW2 2844   6.093   3.577   2.661
  649SOL     OW 2845   4.244   4.174   0.365
  649SOL    HW1 2846   4.220   4.212   0.455
  649SOL    HW2 2847   4.343   4.173   0.354
  650SOL     OW 2848   4.663   4.294   0.118
  650SOL    HW1 2849   4.624   4.367   0.062
  650SOL    HW2 2850   4.717   4.233   0.060
  651SOL     OW 2851   0.552   6.646   0.449
  651SOL    HW1 2852   0.629   6.695   0.490
  651SOL    HW2 2853   0.579   6.551   0.432
  652SOL     OW 2854   4.867   6.753   3.488
  652SOL    HW1 2855   4.831   6.846   3.490
  652SOL    HW2 2856   4.796   6.689   3.519
  653SOL     OW 2857   3.576   5.461   5.316
  653SOL    HW1 2858   3.525   5.438   5.399
  653SOL    HW2 2859   3.640   5.386   5.295
  654SOL     OW 2860   6.792   4.434   6.079
  654SOL    HW1 2861   6.873   4.492   6.068
  654SOL    HW2 2862   6.722   4.460   6.012
  655SOL     OW 2863   0.585   0.097   2.040
  655SOL    HW1 2864   0.587   0.194   2.062
  655SOL    HW2 2865   0.644   0.047   2.104
  656SOL     OW 2866   2.124   5.833   1.433
  656SOL    HW1 2867   2.131   5.903   1.504
  656SOL    HW2 2868   2.139   5.743   1.473
  657SOL     OW 2869   2.081   1.972   1.703
  657SOL    HW1 2870   2.165   2.018   1.674
  657SOL    HW2 2871   2.017   2.040   1.738
  658SOL     OW 2872   3.442   2.930   6.468
  658SOL    HW1 2873   3.502   2.923   6.388
  658SOL    HW2 2874   3.355   2.885   6.448
  659SOL     OW 2875   3.415   6.438   6.541
  659SOL    HW1 2876   3.435   6.348   6.578
  659SOL    HW2 2877   3.439   6.508   6.608
  660SOL     OW 2878   4.215   5.427   1.658
  660SOL    HW1 2879   4.180   5.480   1.581
  660SOL    HW2 2880   4.159   5.444   1.739
  661SOL     OW 2881   4.412   6.522   3.846
  661SOL    HW1 2882   4.510   6.509   3.857
  661SOL    HW2 2883   4.381   6.474   3.764
  662SOL     OW 2884   3.675   1.097   5.560
  662SOL    HW1 2885   3.752   1.081   5.499
  662SOL    HW2 2886   3.707   1.095   5.655
  663SOL     OW 2887   2.318   3.933   5.632
  663SOL    HW1 2888   2.282   3.844   5.661
  663SOL    HW2 2889   2.275   4.006   5.686
  664SOL     OW 2890   0.296   6.190   6.002
  664SOL    HW1 2891   0.309   6.277   6.050
  664SOL    HW2 2892   0.386   6.153   5.976
  665SOL     OW 2893   3.902   5.475   2.579
  665SOL    HW1 2894   3.884   5.479   2.678
  665SOL    HW2 2895   3.847   5.402   2.539
  666SOL     OW 2896   4.676   0.701   1.711
  666SOL    HW1 2897   4.736   0.693   1.631
  666SOL    HW2 2898   4.635   0.612   1.730
  667SOL     OW 2899   1.006   5.162   2.201
  667SOL    HW1 2900   1.105   5.159   2.209
  667SOL    HW2 2901   0.972   5.079   2.158
  668SOL     OW 2902   5.079   6.112   5.708
  668SOL    HW1 2903   5.076   6.041   5.638
  668SOL    HW2 2904   5.109   6.072   5.795
  669SOL     OW 2905   6.119   0.712   3.482
  669SOL    HW1 2906   6.176   0.630   3.468
  669SOL    HW2 2907   6.128   0.742   3.577
  670SOL     OW 2908   2.681   1.913   2.401
  670SOL    HW1 2909   2.660   1.816   2.416
  670SOL    HW2 2910   2.742   1.921   2.322
  671SOL     OW 2911   3.249   5.990   0.900
  671SOL    HW1 2912   3.329   6.024   0.851
  671SOL    HW2 2913   3.173   5.977   0.836
  672SOL     OW 2914   6.647   5.384   2.164
  672SOL    HW1 2915   6.625   5.294   2.124
  672SOL    HW2 2916   6.728   5.375   2.222
  673SOL     OW 2917   5.928   6.916   1.334
  673SOL    HW1 2918   5.898   6.849   1.402
  673SOL    HW2 2919   5.883   6.896   1.247
  674SOL     OW 2920   0.505   1.211   4.450
  674SOL    HW1 2921   0.555   1.224   4.535
  674SOL    HW2 2922   0.522   1.118   4.415
  675SOL     OW 2923   5.329   2.569   2.421
  675SOL    HW1 2924   5.262   2.582   2.348
  675SOL    HW2 2925   5.420   2.560   2.382
  676SOL     OW 2926   2.322   5.245   4.414
  676SOL    HW1 2927   2.301   5.219   4.508
  676SOL    HW2 2928   2.376   5.173   4.371
  677SOL     OW 2929   4.906   0.941   1.315
  677SOL    HW1 2930   4.843   0.955   1.239
  677SOL    HW2 2931   4.997   0.974   1.289
  678SOL     OW 2932   2.739   5.633   4.922
  678SOL    HW1 2933   2.645   5.667   4.923
  678SOL    HW2 2934   2.795   5.687   4.986
  679SOL     OW 2935   5.280   1.489   4.894
  679SOL    HW1 2936   5.269   1.565   4.830
  679SOL    HW2 2937   5.377   1.462   4.898
  680SOL     OW 2938   4.507   5.878   4.528
  680SOL    HW1 2939   4.593   5.930   4.528
  680SOL    HW2 2940   4.526   5.784   4.556
  681SOL     OW 2941   4.321   5.991   1.910
  681SOL    HW1 2942   4.368   5.985   1.998
  681SOL    HW2 2943   4.322   5.901   1.866
  682SOL     OW 2944   6.085   1.433   2.121
  682SOL    HW1 2945   6.113   1.481   2.038
  682SOL    HW2 2946   6.076   1.500   2.196
  683SOL     OW 2947   4.610   2.788   0.918
  683SOL    HW1 2948   4.689   2.737   0.882
  683SOL    HW2 2949   4.590   2.757   1.011
  684SOL     OW 2950   6.298   0.520   0.223
  684SOL    HW1 2951   6.396   0.539   0.213
  684SOL    HW2 2952   6.262   0.575   0.299
  685SOL     OW 2953   3.365   2.114   3.985
  685SOL    HW1 2954   3.279   2.150   4.020
  685SOL    HW2 2955   3.432   2.111   4.060
  686SOL     OW 2956   4.718   1.921   4.436
  686SOL    HW1 2957   4.758   1.989   4.375
  686SOL    HW2 2958   4.769   1.919   4.522
  687SOL     OW 2959   1.038   2.141   4.235
  687SOL    HW1 2960   1.075   2.135   4.142
  687SOL    HW2 2961   1.093   2.204   4.289
  688SOL     OW 2962   6.749   1.304   6.352
  688SOL    HW1 2963   6.806   1.374   6.308
  688SOL    HW2 2964   6.660   1.344   6.376
  689SOL     OW 2965   1.878   4.586   5.852
  689SOL    HW1 2966   1.879   4.502   5.907
  689SOL    HW2 2967   1.971   4.621   5.842
  690SOL     OW 2968   0.012   3.898   3.281
  690SOL    HW1 2969   6.962   3.965   3.302
  690SOL    HW2 2970   0.077   3.938   3.215
  691SOL     OW 2971   3.428   1.648   0.802
  691SOL    HW1 2972   3.480   1.603   0.875
  691SOL    HW2 2973   3.469   1.736   0.781
  692SOL     OW 2974   4.073   1.954   4.806
  692SOL    HW1 2975   4.130   2.024   4.848
  692SOL    HW2 2976   4.036   1.893   4.877
  693SOL     OW 2977   4.787   6.920   4.166
  693SOL    HW1 2978   4.695   6.958   4.151
  693SOL    HW2 2979   4.854   6.994   4.160
  694SOL     OW 2980   4.089   6.070   4.761
  694SOL    HW1 2981   4.003   6.093   4.807
  694SOL    HW2 2982   4.069   6.028   4.672
  695SOL     OW 2983   3.830   6.136   4.283
  695SOL    HW1 2984   3.858   6.064   4.219
  695SOL    HW2 2985   3.855   6.110   4.376
  696SOL     OW 2986   4.841   4.438   3.545
  696SOL    HW1 2987   4.908   4.416   3.616
  696SOL    HW2 2988   4.829   4.537   3.541
  697SOL     OW 2989   1.712   3.447   2.297
  697SOL    HW1 2990   1.781   3.402   2.240
  697SOL    HW2 2991   1.623   3.405   2.282
  698SOL     OW 2992   5.308   6.548   0.827
  698SOL    HW1 2993   5.231   6.499   0.867
  698SOL    HW2 2994   5.368   6.580   0.901
  699SOL     OW 2995   1.499   3.176   6.552
  699SOL    HW1 2996   1.525   3.202   6.458
  699SOL    HW2 2997   1.532   3.084   6.571
  700SOL     OW 2998   3.444   0.024   1.938
  700SOL    HW1 2999   3.503   0.020   2.019
  700SOL    HW2 3000   3.488   6.999   1.862
  701SOL     OW 3001   0.119   4.135   6.961
  701SOL    HW1 3002   0.060   4.190   7.019
  701SOL    HW2 3003   0.191   4.193   6.922
  702SOL     OW 3004   2.106   0.017   4.415
  702SOL    HW1 3005   2.100   0.107   4.371
  702SOL    HW2 3006   2.040   6.977   4.373
  703SOL     OW 3007   3.337   3.005   5.606
  703SOL    HW1 3008   3.378   3.014   5.515
  703SOL    HW2 3009   3.292   3.091   5.631
  704SOL     OW 3010   1.926   2.237   6.385
  704SOL    HW1 3011   2.012   2.284   6.367
  704SOL    HW2 3012   1.943   2.159   6.446
  705SOL     OW 3013   6.159   5.548   3.288
  705SOL    HW1 3014   6.074   5.559   3.340
  705SOL    HW2 3015   6.209   5.469   3.322
  706SOL     OW 3016   4.408   2.070   5.394
  706SOL    HW1 3017   4.316   2.043   5.366
  706SOL    HW2 3018   4.430   2.029   5.483
  707SOL     OW 3019   3.928   4.872   3.017
  707SOL    HW1 3020   3.988   4.859   2.937
  707SOL    HW2 3021   3.833   4.871   2.988
  708SOL     OW 3022   2.880   1.625   3.239
  708SOL    HW1 3023   2.881   1.628   3.339
  708SOL    HW2 3024   2.832   1.706   3.205
  709SOL     OW 3025   1.476   6.519   1.069
  709SOL    HW1 3026   1.379   6.502   1.090
  709SOL    HW2 3027   1.524   6.544   1.153
  710SOL     OW 3028   4.791   2.121   1.739
  710SOL    HW1 3029   4.817   2.039   1.790
  710SOL    HW2 3030   4.751   2.188   1.802
  711SOL     OW 3031   0.132   2.705   6.474
  711SOL    HW1 3032   0.197   2.770   6.433
  711SOL    HW2 3033   0.149   2.699   6.573
  712SOL     OW 3034   4.557   2.118   0.711
  712SOL    HW1 3035   4.633   2.098   0.649
  712SOL    HW2 3036   4.592   2.163   0.793
  713SOL     OW 3037   4.245   2.896   5.442
  713SOL    HW1 3038   4.231   2.978   5.386
  713SOL    HW2 3039   4.156   2.859   5.469
  714SOL     OW 3040   6.429   5.322   3.765
  714SOL    HW1 3041   6.477   5.248   3.718
  714SOL    HW2 3042   6.471   5.410   3.742
  715SOL     OW 3043   5.948   5.381   6.364
  715SOL    HW1 3044   6.008   5.332   6.301
  715SOL    HW2 3045   5.864   5.329   6.379
  716SOL     OW 3046   1.325   1.466   2.935
  716SOL    HW1 3047   1.389   1.396   2.904
  716SOL    HW2 3048   1.232   1.430   2.933
  717SOL     OW 3049   6.420   4.767   4.429
  717SOL    HW1 3050   6.325   4.766   4.462
  717SOL    HW2 3051   6.477   4.817   4.494
  718SOL     OW 3052   4.765   2.736   4.687
  718SOL    HW1 3053   4.709   2.755   4.607
  718SOL    HW2 3054   4.812   2.649   4.675
  719SOL     OW 3055   5.679   0.124   3.001
  719SOL    HW1 3056   5.654   0.060   3.074
  719SOL    HW2 3057   5.708   0.210   3.041
  720SOL     OW 3058   2.099   0.171   6.167
  720SOL    HW1 3059   2.096   0.075   6.139
  720SOL    HW2 3060   2.041   0.226   6.107
  721SOL     OW 3061   1.910   1.047   2.124
  721SOL    HW1 3062   1.950   0.956   2.137
  721SOL    HW2 3063   1.955   1.092   2.046
  722SOL     OW 3064   3.188   0.981   5.092
  722SOL    HW1 3065   3.133   1.039   5.153
  722SOL    HW2 3066   3.265   1.033   5.057
  723SOL     OW 3067   1.878   5.778   3.804
  723SOL    HW1 3068   1.961   5.722   3.809
  723SOL    HW2 3069   1.842   5.776   3.711
  724SOL     OW 3070   0.246   1.471   3.519
  724SOL    HW1 3071   0.215   1.543   3.458
  724SOL    HW2 3072   0.283   1.512   3.603
  725SOL     OW 3073   1.922   4.689   2.562
  725SOL    HW1 3074   1.868   4.676   2.479
  725SOL    HW2 3075   2.000   4.748   2.542
  726SOL     OW 3076   2.425   5.158   0.874
  726SOL    HW1 3077   2.400   5.081   0.815
  726SOL    HW2 3078   2.469   5.229   0.819
  727SOL     OW 3079   5.004   4.569   6.348
  727SOL    HW1 3080   4.948   4.651   6.338
  727SOL    HW2 3081   4.972   4.499   6.283
  728SOL     OW 3082   6.684   3.496   4.110
  728SOL    HW1 3083   6.778   3.499   4.074
  728SOL    HW2 3084   6.684   3.449   4.198
  729SOL     OW 3085   0.501   2.805   0.916
  729SOL    HW1 3086   0.432   2.812   0.988
  729SOL    HW2 3087   0.507   2.892   0.867
  730SOL     OW 3088   5.771   0.904   3.862
  730SOL    HW1 3089   5.763   0.951   3.775
  730SOL    HW2 3090   5.702   0.832   3.868
  731SOL     OW 3091   4.942   5.120   0.074
  731SOL    HW1 3092   4.913   5.216   0.067
  731SOL    HW2 3093   4.985   5.105   0.163
  732SOL     OW 3094   5.803   2.745   2.453
  732SOL    HW1 3095   5.864   2.703   2.520
  732SOL    HW2 3096   5.711   2.706   2.464
  733SOL     OW 3097   5.907   0.580   4.607
  733SOL    HW1 3098   5.885   0.637   4.686
  733SOL    HW2 3099   5.822   0.554   4.561
  734SOL     OW 3100   6.079   4.874   2.839
  734SOL    HW1 3101   6.153   4.850   2.776
  734SOL    HW2 3102   6.041   4.791   2.879
  735SOL     OW 3103   3.936   1.076   0.496
  735SOL    HW1 3104   3.901   1.170   0.497
  735SOL    HW2 3105   3.978   1.055   0.584
  736SOL     OW 3106   1.798   1.450   3.628
  736SOL    HW1 3107   1.825   1.386   3.700
  736SOL    HW2 3108   1.822   1.543   3.655
  737SOL     OW 3109   5.857   1.892   6.454
  737SOL    HW1 3110   5.758   1.891   6.466
  737SOL    HW2 3111   5.880   1.937   6.368
  738SOL     OW 3112   2.544   3.892   1.582
  738SOL    HW1 3113   2.620   3.883   1.646
  738SOL    HW2 3114   2.458   3.874   1.629
  739SOL     OW 3115   3.601   0.431   5.086
  739SOL    HW1 3116   3.654   0.506   5.125
  739SOL    HW2 3117   3.656   0.348   5.087
  740SOL     OW 3118   5.807   1.861   2.898
  740SOL    HW1 3119   5.848   1.925   2.963
  740SOL    HW2 3120   5.820   1.895   2.805
  741SOL     OW 3121   2.001   0.702   4.108
  741SOL    HW1 3122   1.955   0.613   4.113
  741SOL    HW2 3123   1.954   0.759   4.041
  742SOL     OW 3124   2.377   6.048   1.493
  742SOL    HW1 3125   2.335   6.122   1.440
  742SOL    HW2 3126   2.313   6.016   1.563
  743SOL     OW 3127   0.427   6.032   3.159
  743SOL    HW1 3128   0.504   5.996   3.107
  743SOL    HW2 3129   0.381   5.957   3.208
  744SOL     OW 3130   6.094   0.905   0.665
  744SOL    HW1 3131   6.119   0.809   0.679
  744SOL    HW2 3132   6.079   0.949   0.754
  745SOL     OW 3133   2.201   5.884   5.274
  745SOL    HW1 3134   2.119   5.896   5.219
  745SOL    HW2 3135   2.175   5.861   5.368
  746SOL     OW 3136   5.521   4.233   5.897
  746SOL    HW1 3137   5.601   4.218   5.954
  746SOL    HW2 3138   5.463   4.151   5.898
  747SOL     OW 3139   4.511   5.623   4.597
  747SOL    HW1 3140   4.546   5.556   4.531
  747SOL    HW2 3141   4.424   5.590   4.635
  748SOL     OW 3142   4.654   5.554   2.198
  748SOL    HW1 3143   4.724   5.596   2.256
  748SOL    HW2 3144   4.695   5.526   2.112
  749SOL     OW 3145   6.133   3.848   4.170
  749SOL    HW1 3146   6.034   3.851   4.175
  749SOL    HW2 3147   6.172   3.853   4.262
  750SOL     OW 3148   2.415   1.147   0.696
  750SOL    HW1 3149   2.452   1.234   0.662
  750SOL    HW2 3150   2.434   1.139   0.794
  751SOL     OW 3151   4.430   1.521   1.191
  751SOL    HW1 3152   4.377   1.534   1.107
  751SOL    HW2 3153   4.527   1.534   1.171
  752SOL     OW 3154   2.988   2.410   6.955
  752SOL    HW1 3155   2.983   2.363   6.866
  752SOL    HW2 3156   2.954   2.348   0.004
  753SOL     OW 3157   2.297   3.411   5.811
  753SOL    HW1 3158   2.247   3.382   5.730
  753SOL    HW2 3159   2.378   3.464   5.782
  754SOL     OW 3160   4.046   1.054   0.237
  754SOL    HW1 3161   4.023   1.061   0.334
  754SOL    HW2 3162   4.132   1.101   0.219
  755SOL     OW 3163   2.979   4.682   5.398
  755SOL    HW1 3164   3.073   4.661   5.426
  755SOL    HW2 3165   2.960   4.641   5.309
  756SOL     OW 3166   3.466   4.720   0.227
  756SOL    HW1 3167   3.399   4.763   0.165
  756SOL    HW2 3168   3.558   4.744   0.197
  757SOL     OW 3169   2.098   6.241   2.679
  757SOL    HW1 3170   2.127   6.147   2.665
  757SOL    HW2 3171   2.101   6.263   2.777
  758SOL     OW 3172   4.135   1.202   4.162
  758SOL    HW1 3173   4.145   1.109   4.198
  758SOL    HW2 3174   4.218   1.228   4.114
  759SOL     OW 3175   6.865   3.207   2.506
  759SOL    HW1 3176   6.958   3.210   2.470
  759SOL    HW2 3177   6.800   3.215   2.430
  760SOL     OW 3178   6.434   6.730   4.334
  760SOL    HW1 3179   6.405   6.716   4.239
  760SOL    HW2 3180   6.355   6.723   4.395
  761SOL     OW 3181   5.747   4.538   5.868
  761SOL    HW1 3182   5.743   4.627   5.913
  761SOL    HW2 3183   5.670   4.529   5.805
  762SOL     OW 3184   2.635   0.032   5.538
  762SOL    HW1 3185   2.717   7.019   5.583
  762SOL    HW2 3186   2.653   0.122   5.498
  763SOL     OW 3187   4.769   6.756   6.614
  763SOL    HW1 3188   4.782   6.844   6.569
  763SOL    HW2 3189   4.758   6.769   6.712
  764SOL     OW 3190   5.645   1.112   5.544
  764SOL    HW1 3191   5.708   1.053   5.493
  764SOL    HW2 3192   5.616   1.188   5.486
  765SOL     OW 3193   1.776   6.640   0.397
  765SOL    HW1 3194   1.816   6.549   0.409
  765SOL    HW2 3195   1.677   6.634   0.409
  766SOL     OW 3196   2.869   2.324   5.235
  766SOL    HW1 3197   2.875   2.253   5.306
  766SOL    HW2 3198   2.960   2.358   5.213
  767SOL     OW 3199   6.079   6.470   3.731
  767SOL    HW1 3200   6.085   6.544   3.665
  767SOL    HW2 3201   6.011   6.492   3.801
  768SOL     OW 3202   2.089   5.907   3.610
  768SOL    HW1 3203   2.100   5.830   3.674
  768SOL    HW2 3204   2.114   5.877   3.518
  769SOL     OW 3205   3.000   1.416   5.095
  769SOL    HW1 3206   3.098   1.400   5.084
  769SOL    HW2 3207   2.957   1.421   5.005
  770SOL     OW 3208   1.886   4.800   4.269
  770SOL    HW1 3209   1.901   4.734   4.195
  770SOL    HW2 3210   1.812   4.767   4.327
  771SOL     OW 3211   1.016   4.769   3.135
  771SOL    HW1 3212   1.104   4.808   3.105
  771SOL    HW2 3213   1.031   4.712   3.215
  772SOL     OW 3214   5.919   4.430   6.203
  772SOL    HW1 3215   5.840   4.443   6.144
  772SOL    HW2 3216   5.976   4.356   6.166
  773SOL     OW 3217   0.665   3.923   2.488
  773SOL    HW1 3218   0.585   3.965   2.446
  773SOL    HW2 3219   0.711   3.989   2.547
  774SOL     OW 3220   2.084   1.023   2.615
  774SOL    HW1 3221   2.084   1.062   2.523
  774SOL    HW2 3222   2.175   1.030   2.654
  775SOL     OW 3223   2.183   2.024   4.278
  775SOL    HW1 3224   2.207   2.073   4.362
  775SOL    HW2 3225   2.136   1.938   4.302
  776SOL     OW 3226   0.191   0.135   6.460
  776SOL    HW1 3227   0.256   0.064   6.434
  776SOL    HW2 3228   0.238   0.222   6.470
  777SOL     OW 3229   1.477   3.855   1.269
  777SOL    HW1 3230   1.442   3.765   1.298
  777SOL    HW2 3231   1.403   3.907   1.226
  778SOL     OW 3232   2.456   0.126   1.417
  778SOL    HW1 3233   2.438   0.100   1.323
  778SOL    HW2 3234   2.543   0.176   1.422
  779SOL     OW 3235   6.795   2.118   1.764
  779SOL    HW1 3236   6.775   2.033   1.715
  779SOL    HW2 3237   6.755   2.195   1.713
  780SOL     OW 3238   0.653   2.766   4.539
  780SOL    HW1 3239   0.629   2.689   4.599
  780SOL    HW2 3240   0.673   2.730   4.447
  781SOL     OW 3241   6.772   5.294   0.600
  781SOL    HW1 3242   6.764   5.248   0.688
  781SOL    HW2 3243   6.746   5.231   0.527
  782SOL     OW 3244   2.230   3.596   5.499
  782SOL    HW1 3245   2.245   3.671   5.435
  782SOL    HW2 3246   2.186   3.631   5.582
  783SOL     OW 3247   5.936   4.749   1.550
  783SOL    HW1 3248   5.910   4.740   1.453
  783SOL    HW2 3249   5.855   4.762   1.606
  784SOL     OW 3250   2.978   5.335   1.759
  784SOL    HW1 3251   3.013   5.374   1.844
  784SOL    HW2 3252   2.880   5.318   1.768
  785SOL     OW 3253   0.676   1.519   3.735
  785SOL    HW1 3254   0.608   1.592   3.729
  785SOL    HW2 3255   0.663   1.455   3.659
  786SOL     OW 3256   6.919   1.247   2.629
  786SOL    HW1 3257   6.862   1.301   2.691
  786SOL    HW2 3258   7.013   1.247   2.662
  787SOL     OW 3259   2.345   6.769   6.614
  787SOL    HW1 3260   2.329   6.684   6.564
  787SOL    HW2 3261   2.282   6.776   6.691
  788SOL     OW 3262   3.909   2.807   1.625
  788SOL    HW1 3263   3.852   2.746   1.680
  788SOL    HW2 3264   4.005   2.794   1.650
  789SOL     OW 3265   4.486   5.810   2.642
  789SOL    HW1 3266   4.405   5.753   2.657
  789SOL    HW2 3267   4.483   5.888   2.704
  790SOL     OW 3268   1.988   1.261   1.955
  790SOL    HW1 3269   1.906   1.318   1.948
  790SOL    HW2 3270   2.045   1.294   2.030
  791SOL     OW 3271   2.694   6.399   5.481
  791SOL    HW1 3272   2.650   6.474   5.531
  791SOL    HW2 3273   2.635   6.318   5.484
  792SOL     OW 3274   0.606   1.412   1.753
  792SOL    HW1 3275   0.514   1.443   1.730
  792SOL    HW2 3276   0.625   1.326   1.705
  793SOL     OW 3277   4.907   5.836   5.060
  793SOL    HW1 3278   4.907   5.881   5.149
  793SOL    HW2 3279   4.817   5.795   5.044
  794SOL     OW 3280   3.626   3.739   5.446
  794SOL    HW1 3281   3.563   3.715   5.519
  794SOL    HW2 3282   3.639   3.660   5.385
  795SOL     OW 3283   3.743   0.663   5.906
  795SOL    HW1 3284   3.769   0.568   5.893
  795SOL    HW2 3285   3.693   0.695   5.826
  796SOL     OW 3286   1.991   2.804   0.235
  796SOL    HW1 3287   2.083   2.767   0.247
  796SOL    HW2 3288   1.933   2.736   0.189
  797SOL     OW 3289   4.261   0.407   0.852
  797SOL    HW1 3290   4.174   0.409   0.804
  797SOL    HW2 3291   4.328   0.464   0.804
  798SOL     OW 3292   3.357   6.255   1.333
  798SOL    HW1 3293   3.275   6.210   1.298
  798SOL    HW2 3294   3.360   6.350   1.301
  799SOL     OW 3295   0.269   1.901   6.282
  799SOL    HW1 3296   0.291   1.984   6.334
  799SOL    HW2 3297   0.315   1.823   6.324
  800SOL     OW 3298   6.630   2.050   2.531
  800SOL    HW1 3299   6.553   2.095   2.576
  800SOL    HW2 3300   6.713   2.067   2.583
  801SOL     OW 3301   2.032   4.460   4.944
  801SOL    HW1 3302   2.035   4.551   4.902
  801SOL    HW2 3303   2.123   4.418   4.940
  802SOL     OW 3304   3.994   2.465   6.885
  802SOL    HW1 3305   4.000   2.451   6.984
  802SOL    HW2 3306   3.948   2.552   6.867
  803SOL     OW 3307   2.013   6.863   5.758
  803SOL    HW1 3308   1.947   6.801   5.717
  803SOL    HW2 3309   2.039   6.933   5.692
  804SOL     OW 3310   6.807   6.769   1.715
  804SOL    HW1 3311   6.722   6.727   1.746
  804SOL    HW2 3312   6.857   6.806   1.793
  805SOL     OW 3313   1.327   0.328   4.185
  805SOL    HW1 3314   1.389   0.249   4.189
  805SOL    HW2 3315   1.319   0.358   4.090
  806SOL     OW 3316   6.627   0.391   5.747
  806SOL    HW1 3317   6.686   0.328   5.798
  806SOL    HW2 3318   6.608   0.353   5.657
  807SOL     OW 3319   0.478   7.008   3.884
  807SOL    HW1 3320   0.470   6.918   3.840
  807SOL    HW2 3321   0.453   0.058   3.819
  808SOL     OW 3322   5.674   2.861   0.226
  808SOL    HW1 3323   5.731   2.932   0.185
  808SOL    HW2 3324   5.699   2.772   0.189
  809SOL     OW 3325   0.834   5.032   0.488
  809SOL    HW1 3326   0.744   5.020   0.530
  809SOL    HW2 3327   0.903   4.985   0.543
  810SOL     OW 3328   2.655   3.227   0.644
  810SOL    HW1 3329   2.657   3.181   0.732
  810SOL    HW2 3330   2.729   3.191   0.586
  811SOL     OW 3331   5.772   5.308   4.721
  811SOL    HW1 3332   5.811   5.231   4.771
  811SOL    HW2 3333   5.674   5.293   4.709
  812SOL     OW 3334   0.608   2.229   2.137
  812SOL    HW1 3335   0.690   2.189   2.095
  812SOL    HW2 3336   0.596   2.322   2.103
  813SOL     OW 3337   2.766   0.110   4.394
  813SOL    HW1 3338   2.762   0.093   4.493
  813SOL    HW2 3339   2.861   0.108   4.364
  814SOL     OW 3340   6.273   5.770   2.156
  814SOL    HW1 3341   6.365   5.736   2.175
  814SOL    HW2 3342   6.279   5.853   2.101
  815SOL     OW 3343   5.274   2.460   3.338
  815SOL    HW1 3344   5.220   2.533   3.296
  815SOL    HW2 3345   5.215   2.407   3.400
  816SOL     OW 3346   4.697   4.567   0.168
  816SOL    HW1 3347   4.668   4.651   0.123
  816SOL    HW2 3348   4.797   4.561   0.166
  817SOL     OW 3349   1.125   5.251   1.869
  817SOL    HW1 3350   1.068   5.333   1.868
  817SOL    HW2 3351   1.083   5.181   1.811
  818SOL     OW 3352   5.607   2.826   3.909
  818SOL    HW1 3353   5.627   2.911   3.859
  818SOL    HW2 3354   5.678   2.809   3.977
  819SOL     OW 3355   5.683   2.919   1.841
  819SOL    HW1 3356   5.628   2.965   1.911
  819SOL    HW2 3357   5.624   2.858   1.787
  820SOL     OW 3358   3.412   1.903   4.726
  820SOL    HW1 3359   3.506   1.935   4.710
  820SOL    HW2 3360   3.351   1.982   4.733
  821SOL     OW 3361   5.783   4.947   5.326
  821SOL    HW1 3362   5.745   4.916   5.413
  821SOL    HW2 3363   5.857   4.885   5.298
  822SOL     OW 3364   0.454   4.201   2.987
  822SOL    HW1 3365   0.410   4.132   3.044
  822SOL    HW2 3366   0.548   4.173   2.967
  823SOL     OW 3367   6.262   4.320   5.901
  823SOL    HW1 3368   6.323   4.286   5.830
  823SOL    HW2 3369   6.249   4.419   5.889
  824SOL     OW 3370   5.451   1.162   5.754
  824SOL    HW1 3371   5.529   1.134   5.699
  824SOL    HW2 3372   5.418   1.084   5.808
  825SOL     OW 3373   6.182   5.930   0.534
  825SOL    HW1 3374   6.249   5.883   0.591
  825SOL    HW2 3375   6.090   5.913   0.569
  826SOL     OW 3376   3.516   2.383   5.841
  826SOL    HW1 3377   3.556   2.464   5.798
  826SOL    HW2 3378   3.421   2.402   5.866
  827SOL     OW 3379   2.877   4.281   5.330
  827SOL    HW1 3380   2.797   4.249   5.381
  827SOL    HW2 3381   2.861   4.374   5.299
  828SOL     OW 3382   6.256   5.672   5.934
  828SOL    HW1 3383   6.234   5.769   5.944
  828SOL    HW2 3384   6.311   5.642   6.012
  829SOL     OW 3385   2.968   3.093   2.032
  829SOL    HW1 3386   2.976   3.028   2.108
  829SOL    HW2 3387   3.041   3.161   2.038
  830SOL     OW 3388   6.018   4.821   6.825
  830SOL    HW1 3389   6.057   4.771   6.902
  830SOL    HW2 3390   6.089   4.879   6.783
  831SOL     OW 3391   6.197   6.792   1.240
  831SOL    HW1 3392   6.260   6.822   1.168
  831SOL    HW2 3393   6.118   6.852   1.244
  832SOL     OW 3394   4.530   1.245   4.531
  832SOL    HW1 3395   4.511   1.340   4.556
  832SOL    HW2 3396   4.506   1.185   4.607
  833SOL     OW 3397   1.699   3.541   6.616
  833SOL    HW1 3398   1.725   3.509   6.525
  833SOL    HW2 3399   1.667   3.636   6.610
  834SOL     OW 3400   4.971   2.814   0.395
  834SOL    HW1 3401   4.963   2.907   0.359
  834SOL    HW2 3402   5.066   2.795   0.419
  835SOL     OW 3403   2.091   0.367   5.106
  835SOL    HW1 3404   2.154   0.439   5.138
  835SOL    HW2 3405   2.132   0.319   5.029
  836SOL     OW 3406   3.034   1.135   5.286
  836SOL    HW1 3407   3.116   1.177   5.326
  836SOL    HW2 3408   2.955   1.155   5.343
  837SOL     OW 3409   0.842   0.104   0.952
  837SOL    HW1 3410   0.937   0.079   0.970
  837SOL    HW2 3411   0.804   0.043   0.882
  838SOL     OW 3412   1.992   6.352   4.285
  838SOL    HW1 3413   1.908   6.343   4.231
  838SOL    HW2 3414   2.016   6.448   4.293
  839SOL     OW 3415   2.360   1.453   1.416
  839SOL    HW1 3416   2.412   1.514   1.356
  839SOL    HW2 3417   2.283   1.415   1.365
  840SOL     OW 3418   6.358   5.293   6.820
  840SOL    HW1 3419   6.326   5.382   6.852
  840SOL    HW2 3420   6.297   5.259   6.749
  841SOL     OW 3421   3.857   5.812   6.007
  841SOL    HW1 3422   3.863   5.733   6.068
  841SOL    HW2 3423   3.917   5.799   5.929
  842SOL     OW 3424   3.673   6.317   6.888
  842SOL    HW1 3425   3.576   6.338   6.901
  842SOL    HW2 3426   3.701   6.344   6.796
  843SOL     OW 3427   2.471   1.872   1.917
  843SOL    HW1 3428   2.414   1.791   1.899
  843SOL    HW2 3429   2.566   1.843   1.929
  844SOL     OW 3430   0.159   6.447   1.496
  844SOL    HW1 3431   0.235   6.393   1.459
  844SOL    HW2 3432   0.166   6.541   1.464
  845SOL     OW 3433   5.081   2.669   3.296
  845SOL    HW1 3434   5.079   2.683   3.395
  845SOL    HW2 3435   4.991   2.640   3.264
  846SOL     OW 3436   3.125   0.482   6.678
  846SOL    HW1 3437   3.141   0.554   6.746
  846SOL    HW2 3438   3.140   0.393   6.720
  847SOL     OW 3439   2.068   3.284   1.965
  847SOL    HW1 3440   2.135   3.357   1.978
  847SOL    HW2 3441   2.116   3.196   1.960
  848SOL     OW 3442   6.818   6.762   5.723
  848SOL    HW1 3443   6.837   6.774   5.626
  848SOL    HW2 3444   6.821   6.851   5.768
  849SOL     OW 3445   6.301   3.972   6.663
  849SOL    HW1 3446   6.331   4.068   6.659
  849SOL    HW2 3447   6.203   3.967   6.644
  850SOL     OW 3448   0.100   6.908   4.985
  850SOL    HW1 3449   0.076   6.927   4.890
  850SOL    HW2 3450   0.177   6.845   4.988
  851SOL     OW 3451   6.369   2.740   6.980
  851SOL    HW1 3452   6.390   2.664   0.020
  851SOL    HW2 3453   6.454   2.778   6.944
  852SOL     OW 3454   0.389   4.581   0.755
  852SOL    HW1 3455   0.316   4.638   0.793
  852SOL    HW2 3456   0.369   4.558   0.660
  853SOL     OW 3457   1.843   4.063   6.291
  853SOL    HW1 3458   1.857   3.974   6.334
  853SOL    HW2 3459   1.832   4.133   6.361
  854SOL     OW 3460   5.511   6.401   0.213
  854SOL    HW1 3461   5.477   6.472   0.275
  854SOL    HW2 3462   5.440   6.333   0.197
  855SOL     OW 3463   5.902   0.186   0.534
  855SOL    HW1 3464   5.820   0.200   0.590
  855SOL    HW2 3465   5.976   0.152   0.592
  856SOL     OW 3466   1.482   0.160   5.556
  856SOL    HW1 3467   1.439   0.070   5.550
  856SOL    HW2 3468   1.579   0.149   5.578
  857SOL     OW 3469   6.795   5.591   1.998
  857SOL    HW1 3470   6.728   5.521   2.024
  857SOL    HW2 3471   6.755   5.682   2.012
  858SOL     OW 3472   3.169   3.950   1.108
  858SOL    HW1 3473   3.232   3.945   1.030
  858SOL    HW2 3474   3.159   4.045   1.136
  859SOL     OW 3475   5.383   6.003   5.415
  859SOL    HW1 3476   5.336   5.915   5.412
  859SOL    HW2 3477   5.361   6.056   5.333
  860SOL     OW 3478   5.746   3.005   6.612
  860SOL    HW1 3479   5.718   2.915   6.578
  860SOL    HW2 3480   5.668   3.051   6.655
  861SOL     OW 3481   2.370   5.399   3.330
  861SOL    HW1 3482   2.347   5.476   3.391
  861SOL    HW2 3483   2.302   5.393   3.257
  862SOL     OW 3484   1.960   4.954   3.493
  862SOL    HW1 3485   1.954   4.863   3.535
  862SOL    HW2 3486   2.002   5.018   3.558
  863SOL     OW 3487   5.793   1.077   5.765
  863SOL    HW1 3488   5.736   1.096   5.685
  863SOL    HW2 3489   5.811   0.979   5.770
  864SOL     OW 3490   4.180   6.771   4.866
  864SOL    HW1 3491   4.171   6.739   4.960
  864SOL    HW2 3492   4.092   6.762   4.819
  865SOL     OW 3493   1.988   0.208   5.744
  865SOL    HW1 3494   2.038   0.294   5.756
  865SOL    HW2 3495   2.049   0.140   5.703
  866SOL     OW 3496   3.435   0.013   1.043
  866SOL    HW1 3497   3.489   7.006   1.122
  866SOL    HW2 3498   3.456   0.108   1.020
  867SOL     OW 3499   5.190   3.129   0.665
  867SOL    HW1 3500   5.272   3.098   0.617
  867SOL    HW2 3501   5.138   3.190   0.606
  868SOL     OW 3502   0.124   2.084   2.458
  868SOL    HW1 3503   0.201   2.118   2.511
  868SOL    HW2 3504   0.158   2.026   2.383
  869SOL     OW 3505   6.786   3.718   3.210
  869SOL    HW1 3506   6.864   3.757   3.260
  869SOL    HW2 3507   6.701   3.740   3.259
  870SOL     OW 3508   4.285   4.110   1.201
  870SOL    HW1 3509   4.231   4.147   1.277
  870SOL    HW2 3510   4.313   4.017   1.223
  871SOL     OW 3511   5.194   2.528   3.782
  871SOL    HW1 3512   5.281   2.553   3.740
  871SOL    HW2 3513   5.132   2.607   3.781
  872SOL     OW 3514   6.976   2.096   4.521
  872SOL    HW1 3515   7.016   2.167   4.464
  872SOL    HW2 3516   6.935   2.026   4.463
  873SOL     OW 3517   4.125   5.880   5.216
  873SOL    HW1 3518   4.125   5.979   5.201
  873SOL    HW2 3519   4.202   5.839   5.167
  874SOL     OW 3520   6.279   4.228   0.645
  874SOL    HW1 3521   6.195   4.191   0.686
  874SOL    HW2 3522   6.314   4.164   0.577
  875SOL     OW 3523   5.234   5.128   0.895
  875SOL    HW1 3524   5.201   5.210   0.848
  875SOL    HW2 3525   5.239   5.146   0.994
  876SOL     OW 3526   0.496   5.658   1.589
  876SOL    HW1 3527   0.424   5.592   1.567
  876SOL    HW2 3528   0.455   5.748   1.602
  877SOL     OW 3529   3.376   4.349   5.670
  877SOL    HW1 3530   3.393   4.253   5.691
  877SOL    HW2 3531   3.285   4.359   5.629
  878SOL     OW 3532   4.262   6.856   3.641
  878SOL    HW1 3533   4.237   6.882   3.548
  878SOL    HW2 3534   4.342   6.796   3.638
  879SOL     OW 3535   3.734   0.528   1.668
  879SOL    HW1 3536   3.700   0.564   1.755
  879SOL    HW2 3537   3.656   0.510   1.607
  880SOL     OW 3538   3.856   3.565   3.638
  880SOL    HW1 3539   3.876   3.662   3.621
  880SOL    HW2 3540   3.809   3.556   3.725
  881SOL     OW 3541   5.271   3.078   4.989
  881SOL    HW1 3542   5.194   3.129   5.026
  881SOL    HW2 3543   5.239   3.020   4.914
  882SOL     OW 3544   0.962   3.423   3.899
  882SOL    HW1 3545   0.879   3.423   3.955
  882SOL    HW2 3546   0.969   3.336   3.850
  883SOL     OW 3547   3.068   0.997   1.647
  883SOL    HW1 3548   3.045   0.906   1.682
  883SOL    HW2 3549   3.076   1.061   1.724
  884SOL     OW 3550   5.563   3.465   5.889
  884SOL    HW1 3551   5.550   3.388   5.951
  884SOL    HW2 3552   5.614   3.433   5.808
  885SOL     OW 3553   3.338   0.751   5.078
  885SOL    HW1 3554   3.282   0.828   5.106
  885SOL    HW2 3555   3.333   0.740   4.978
  886SOL     OW 3556   3.386   0.020   0.050
  886SOL    HW1 3557   3.368   0.107   0.004
  886SOL    HW2 3558   3.484   0.000   0.046
  887SOL     OW 3559   3.649   6.542   3.574
  887SOL    HW1 3560   3.588   6.498   3.640
  887SOL    HW2 3561   3.691   6.622   3.616
  888SOL     OW 3562   6.978   6.160   3.557
  888SOL    HW1 3563   6.981   6.063   3.533
  888SOL    HW2 3564   6.972   6.169   3.657
  889SOL     OW 3565   0.027   2.664   0.725
  889SOL    HW1 3566   7.019   2.582   0.676
  889SOL    HW2 3567   0.092   2.715   0.668
  890SOL     OW 3568   1.515   5.186   2.665
  890SOL    HW1 3569   1.532   5.176   2.763
  890SOL    HW2 3570   1.483   5.098   2.628
  891SOL     OW 3571   5.492   4.600   1.203
  891SOL    HW1 3572   5.546   4.604   1.119
  891SOL    HW2 3573   5.490   4.690   1.246
  892SOL     OW 3574   2.752   3.906   5.213
  892SOL    HW1 3575   2.812   3.963   5.156
  892SOL    HW2 3576   2.657   3.923   5.188
  893SOL     OW 3577   2.117   6.037   3.159
  893SOL    HW1 3578   2.172   6.002   3.083
  893SOL    HW2 3579   2.156   6.122   3.193
  894SOL     OW 3580   0.677   3.058   1.663
  894SOL    HW1 3581   0.644   3.044   1.570
  894SOL    HW2 3582   0.684   3.155   1.682
  895SOL     OW 3583   0.812   5.215   3.939
  895SOL    HW1 3584   0.830   5.248   4.032
  895SOL    HW2 3585   0.877   5.142   3.917
  896SOL     OW 3586   5.183   4.649   1.299
  896SOL    HW1 3587   5.262   4.684   1.350
  896SOL    HW2 3588   5.210   4.627   1.205
  897SOL     OW 3589   4.064   1.476   6.714
  897SOL    HW1 3590   3.998   1.489   6.640
  897SOL    HW2 3591   4.020   1.498   6.802
  898SOL     OW 3592   3.741   6.369   2.912
  898SOL    HW1 3593   3.684   6.311   2.971
  898SOL    HW2 3594   3.715   6.354   2.817
  899SOL     OW 3595   0.342   6.710   0.166
  899SOL    HW1 3596   0.380   6.617   0.170
  899SOL    HW2 3597   0.265   6.712   0.103
  900SOL     OW 3598   5.784   6.834   0.395
  900SOL    HW1 3599   5.819   6.908   0.338
  900SOL    HW2 3600   5.731   6.771   0.339
  901SOL     OW 3601   2.284   6.944   3.430
  901SOL    HW1 3602   2.252   6.970   3.521
  901SOL    HW2 3603   2.224   6.983   3.360
  902SOL     OW 3604   0.611   1.789   0.933
  902SOL    HW1 3605   0.580   1.830   0.848
  902SOL    HW2 3606   0.538   1.794   1.002
  903SOL     OW 3607   0.381   2.403   6.312
  903SOL    HW1 3608   0.446   2.467   6.273
  903SOL    HW2 3609   0.429   2.320   6.341
  904SOL     OW 3610   2.118   2.020   2.582
  904SOL    HW1 3611   2.157   1.969   2.506
  904SOL    HW2 3612   2.191   2.048   2.644
  905SOL     OW 3613   4.977   2.086   6.510
  905SOL    HW1 3614   4.958   2.183   6.495
  905SOL    HW2 3615   5.007   2.073   6.605
  906SOL     OW 3616   0.224   1.701   6.899
  906SOL    HW1 3617   0.160   1.757   6.951
  906SOL    HW2 3618   0.237   1.741   6.808
  907SOL     OW 3619   5.620   3.059   0.836
  907SOL    HW1 3620   5.643   3.126   0.765
  907SOL    HW2 3621   5.651   2.969   0.808
  908SOL     OW 3622   2.580   4.553   2.835
  908SOL    HW1 3623   2.593   4.636   2.889
  908SOL    HW2 3624   2.663   4.534   2.783
  909SOL     OW 3625   4.346   6.127   1.542
  909SOL    HW1 3626   4.337   6.162   1.449
  909SOL    HW2 3627   4.256   6.122   1.585
  910SOL     OW 3628   3.055   1.908   1.025
  910SOL    HW1 3629   3.135   1.933   1.079
  910SOL    HW2 3630   3.081   1.839   0.957
  911SOL     OW 3631   0.856   6.273   6.170
  911SOL    HW1 3632   0.807   6.313   6.247
  911SOL    HW2 3633   0.803   6.285   6.086
  912SOL     OW 3634   6.538   2.391   3.216
  912SOL    HW1 3635   6.525   2.486   3.187
  912SOL    HW2 3636   6.598   2.388   3.295
  913SOL     OW 3637   3.818   6.991   3.040
  913SOL    HW1 3638   3.837   6.939   2.957
  913SOL    HW2 3639   3.896   6.985   3.102
  914SOL     OW 3640   2.516   0.515   6.311
  914SOL    HW1 3641   2.460   0.510   6.394
  914SOL    HW2 3642   2.563   0.427   6.298
  915SOL     OW 3643   6.030   4.299   6.867
  915SOL    HW1 3644   5.988   4.214   6.836
  915SOL    HW2 3645   5.959   4.360   6.904
  916SOL     OW 3646   1.771   2.739   1.814
  916SOL    HW1 3647   1.741   2.771   1.904
  916SOL    HW2 3648   1.805   2.645   1.822
  917SOL     OW 3649   0.671   6.594   1.213
  917SOL    HW1 3650   0.618   6.513   1.188
  917SOL    HW2 3651   0.649   6.668   1.151
  918SOL     OW 3652   3.583   0.399   0.604
  918SOL    HW1 3653   3.537   0.365   0.522
  918SOL    HW2 3654   3.680   0.375   0.600
  919SOL     OW 3655   6.077   1.567   2.596
  919SOL    HW1 3656   6.040   1.626   2.525
  919SOL    HW2 3657   6.042   1.596   2.685
  920SOL     OW 3658   2.392   4.158   1.547
  920SOL    HW1 3659   2.298   4.125   1.549
  920SOL    HW2 3660   2.453   4.084   1.518
  921SOL     OW 3661   4.422   5.890   4.166
  921SOL    HW1 3662   4.333   5.929   4.188
  921SOL    HW2 3663   4.494   5.955   4.193
  922SOL     OW 3664   3.770   3.301   4.132
  922SOL    HW1 3665   3.735   3.215   4.169
  922SOL    HW2 3666   3.695   3.367   4.123
  923SOL     OW 3667   2.150   3.213   6.862
  923SOL    HW1 3668   2.060   3.208   6.818
  923SOL    HW2 3669   2.155   3.145   6.936
  924SOL     OW 3670   6.536   4.211   1.701
  924SOL    HW1 3671   6.485   4.186   1.618
  924SOL    HW2 3672   6.595   4.289   1.681
  925SOL     OW 3673   0.136   2.516   0.339
  925SOL    HW1 3674   0.140   2.614   0.359
  925SOL    HW2 3675   0.225   2.475   0.358
  926SOL     OW 3676   6.108   1.206   1.370
  926SOL    HW1 3677   6.125   1.126   1.428
  926SOL    HW2 3678   6.188   1.225   1.315
  927SOL     OW 3679   5.429   3.406   3.166
  927SOL    HW1 3680   5.430   3.349   3.247
  927SOL    HW2 3681   5.346   3.389   3.113
  928SOL     OW 3682   2.203   6.270   0.379
  928SOL    HW1 3683   2.201   6.193   0.442
  928SOL    HW2 3684   2.236   6.240   0.290
  929SOL     OW 3685   0.249   0.829   0.055
  929SOL    HW1 3686   0.232   0.923   0.083
  929SOL    HW2 3687   0.252   0.824   6.977
  930SOL     OW 3688   5.474   6.463   6.264
  930SOL    HW1 3689   5.443   6.370   6.243
  930SOL    HW2 3690   5.431   6.493   6.349
  931SOL     OW 3691   6.830   1.209   4.544
  931SOL    HW1 3692   6.891   1.129   4.541
  931SOL    HW2 3693   6.737   1.180   4.520
  932SOL     OW 3694   2.671   1.331   3.091
  932SOL    HW1 3695   2.733   1.322   3.169
  932SOL    HW2 3696   2.609   1.408   3.107
  933SOL     OW 3697   1.251   4.909   3.082
  933SOL    HW1 3698   1.306   4.943   3.158
  933SOL    HW2 3699   1.311   4.876   3.009
  934SOL     OW 3700   2.580   5.621   6.101
  934SOL    HW1 3701   2.653   5.660   6.155
  934SOL    HW2 3702   2.598   5.636   6.004
  935SOL     OW 3703   5.434   4.440   4.363
  935SOL    HW1 3704   5.516   4.407   4.316
  935SOL    HW2 3705   5.453   4.529   4.406
  936SOL     OW 3706   0.813   6.646   6.121
  936SOL    HW1 3707   0.742   6.630   6.053
  936SOL    HW2 3708   0.878   6.714   6.086
  937SOL     OW 3709   5.854   1.586   6.274
  937SOL    HW1 3710   5.776   1.648   6.281
  937SOL    HW2 3711   5.894   1.572   6.364
  938SOL     OW 3712   6.083   5.527   4.810
  938SOL    HW1 3713   6.119   5.616   4.840
  938SOL    HW2 3714   6.022   5.491   4.881
  939SOL     OW 3715   0.257   6.909   3.429
  939SOL    HW1 3716   0.163   6.940   3.444
  939SOL    HW2 3717   0.306   6.908   3.516
  940SOL     OW 3718   0.503   3.447   0.432
  940SOL    HW1 3719   0.579   3.401   0.388
  940SOL    HW2 3720   0.423   3.445   0.372
  941SOL     OW 3721   5.092   0.480   0.313
  941SOL    HW1 3722   5.176   0.519   0.351
  941SOL    HW2 3723   5.026   0.465   0.387
  942SOL     OW 3724   5.569   0.288   2.388
  942SOL    HW1 3725   5.579   0.189   2.386
  942SOL    HW2 3726   5.626   0.326   2.461
  943SOL     OW 3727   1.138   4.599   2.477
  943SOL    HW1 3728   1.128   4.550   2.391
  943SOL    HW2 3729   1.157   4.534   2.551
  944SOL     OW 3730   0.345   5.912   5.153
  944SOL    HW1 3731   0.411   5.983   5.126
  944SOL    HW2 3732   0.365   5.827   5.104
  945SOL     OW 3733   0.451   4.960   5.654
  945SOL    HW1 3734   0.395   5.016   5.594
  945SOL    HW2 3735   0.512   4.903   5.599
  946SOL     OW 3736   4.923   4.279   4.505
  946SOL    HW1 3737   4.858   4.284   4.580
  946SOL    HW2 3738   4.964   4.368   4.489
  947SOL     OW 3739   3.721   3.234   3.674
  947SOL    HW1 3740   3.752   3.299   3.604
  947SOL    HW2 3741   3.732   3.141   3.640
  948SOL     OW 3742   4.327   1.248   3.117
  948SOL    HW1 3743   4.354   1.196   3.198
  948SOL    HW2 3744   4.278   1.189   3.054
  949SOL     OW 3745   2.886   5.947   0.344
  949SOL    HW1 3746   2.809   5.914   0.289
  949SOL    HW2 3747   2.947   5.870   0.364
  950SOL     OW 3748   6.122   5.548   2.699
  950SOL    HW1 3749   6.083   5.552   2.607
  950SOL    HW2 3750   6.181   5.627   2.714
  951SOL     OW 3751   0.987   0.143   3.448
  951SOL    HW1 3752   1.022   0.049   3.447
  951SOL    HW2 3753   1.044   0.199   3.508
  952SOL     OW 3754   4.613   2.603   2.488
  952SOL    HW1 3755   4.661   2.521   2.520
  952SOL    HW2 3756   4.641   2.682   2.542
  953SOL     OW 3757   5.852   5.415   4.978
  953SOL    HW1 3758   5.847   5.328   5.027
  953SOL    HW2 3759   5.805   5.405   4.890
  954SOL     OW 3760   3.362   6.093   2.183
  954SOL    HW1 3761   3.378   6.112   2.087
  954SOL    HW2 3762   3.328   6.176   2.228
  955SOL     OW 3763   2.201   4.390   0.243
  955SOL    HW1 3764   2.101   4.389   0.240
  955SOL    HW2 3765   2.232   4.436   0.326
  956SOL     OW 3766   6.829   0.742   2.023
  956SOL    HW1 3767   6.824   0.808   1.948
  956SOL    HW2 3768   6.776   0.776   2.100
  957SOL     OW 3769   5.631   2.144   1.796
  957SOL    HW1 3770   5.550   2.197   1.820
  957SOL    HW2 3771   5.682   2.122   1.878
  958SOL     OW 3772   4.323   6.987   1.742
  958SOL    HW1 3773   4.368   0.053   1.724
  958SOL    HW2 3774   4.325   6.969   1.840
  959SOL     OW 3775   3.216   6.983   5.208
  959SOL    HW1 3776   3.299   6.960   5.259
  959SOL    HW2 3777   3.227   0.050   5.163
  960SOL     OW 3778   1.671   0.189   1.046
  960SOL    HW1 3779   1.598   0.257   1.034
  960SOL    HW2 3780   1.691   0.147   0.958
  961SOL     OW 3781   4.362   6.416   3.048
  961SOL    HW1 3782   4.372   6.516   3.055
  961SOL    HW2 3783   4.301   6.384   3.120
  962SOL     OW 3784   6.727   0.956   4.341
  962SOL    HW1 3785   6.709   1.022   4.269
  962SOL    HW2 3786   6.734   0.864   4.302
  963SOL     OW 3787   4.403   1.010   0.279
  963SOL    HW1 3788   4.342   1.023   0.357
  963SOL    HW2 3789   4.349   0.996   0.196
  964SOL     OW 3790   4.985   5.009   5.389
  964SOL    HW1 3791   4.976   4.912   5.414
  964SOL    HW2 3792   5.081   5.037   5.399
  965SOL     OW 3793   6.312   1.736   2.521
  965SOL    HW1 3794   6.247   1.810   2.535
  965SOL    HW2 3795   6.279   1.654   2.568
  966SOL     OW 3796   5.705   3.166   3.469
  966SOL    HW1 3797   5.642   3.101   3.426
  966SOL    HW2 3798   5.798   3.148   3.438
  967SOL     OW 3799   3.039   4.507   0.057
  967SOL    HW1 3800   2.949   4.507   0.099
  967SOL    HW2 3801   3.068   4.602   0.039
  968SOL     OW 3802   4.116   6.724   1.696
  968SOL    HW1 3803   4.125   6.823   1.687
  968SOL    HW2 3804   4.023   6.696   1.673
  969SOL     OW 3805   2.300   4.965   5.776
  969SOL    HW1 3806   2.330   4.876   5.812
  969SOL    HW2 3807   2.232   5.004   5.837
  970SOL     OW 3808   5.336   0.325   6.102
  970SOL    HW1 3809   5.272   0.314   6.026
  970SOL    HW2 3810   5.333   0.243   6.159
  971SOL     OW 3811   0.041   3.618   2.311
  971SOL    HW1 3812   0.139   3.630   2.298
  971SOL    HW2 3813   7.020   3.595   2.223
  972SOL     OW 3814   6.199   2.318   1.656
  972SOL    HW1 3815   6.105   2.353   1.645
  972SOL    HW2 3816   6.259   2.392   1.685
  973SOL     OW 3817   1.073   5.735   6.769
  973SOL    HW1 3818   0.993   5.795   6.771
  973SOL    HW2 3819   1.140   5.766   6.836
  974SOL     OW 3820   0.450   5.775   2.257
  974SOL    HW1 3821   0.415   5.868   2.270
  974SOL    HW2 3822   0.429   5.720   2.337
  975SOL     OW 3823   2.495   0.009   0.100
  975SOL    HW1 3824   2.550   0.004   0.184
  975SOL    HW2 3825   2.544   0.063   0.031
  976SOL     OW 3826   6.841   3.620   1.307
  976SOL    HW1 3827   6.855   3.643   1.404
  976SOL    HW2 3828   6.770   3.679   1.269
  977SOL     OW 3829   0.607   0.769   2.206
  977SOL    HW1 3830   0.557   0.801   2.287
  977SOL    HW2 3831   0.590   0.831   2.129
  978SOL     OW 3832   5.211   1.719   1.125
  978SOL    HW1 3833   5.177   1.655   1.193
  978SOL    HW2 3834   5.200   1.812   1.158
  979SOL     OW 3835   0.418   3.052   6.944
  979SOL    HW1 3836   0.423   2.964   6.897
  979SOL    HW2 3837   0.411   3.125   6.876
  980SOL     OW 3838   4.894   1.511   4.897
  980SOL    HW1 3839   4.956   1.567   4.840
  980SOL    HW2 3840   4.835   1.570   4.951
  981SOL     OW 3841   0.370   0.674   4.463
  981SOL    HW1 3842   0.355   0.638   4.555
  981SOL    HW2 3843   0.356   0.601   4.396
  982SOL     OW 3844   0.849   1.524   5.458
  982SOL    HW1 3845   0.904   1.608   5.448
  982SOL    HW2 3846   0.898   1.448   5.416
  983SOL     OW 3847   0.001   3.581   2.594
  983SOL    HW1 3848   0.056   3.541   2.668
  983SOL    HW2 3849   0.027   3.539   2.507
  984SOL     OW 3850   1.772   2.326   2.953
  984SOL    HW1 3851   1.692   2.386   2.964
  984SOL    HW2 3852   1.743   2.239   2.912
  985SOL     OW 3853   6.771   3.980   4.432
  985SOL    HW1 3854   6.750   4.075   4.410
  985SOL    HW2 3855   6.826   3.939   4.359
  986SOL     OW 3856   4.564   5.287   1.397
  986SOL    HW1 3857   4.468   5.276   1.425
  986SOL    HW2 3858   4.583   5.226   1.320
  987SOL     OW 3859   5.336   6.449   2.459
  987SOL    HW1 3860   5.307   6.355   2.438
  987SOL    HW2 3861   5.435   6.451   2.472
  988SOL     OW 3862   3.310   4.121   2.107
  988SOL    HW1 3863   3.223   4.074   2.100
  988SOL    HW2 3864   3.320   4.158   2.199
  989SOL     OW 3865   6.467   1.548   0.118
  989SOL    HW1 3866   6.488   1.627   0.059
  989SOL    HW2 3867   6.420   1.580   0.200
  990SOL     OW 3868   3.552   1.013   2.234
  990SOL    HW1 3869   3.520   1.099   2.193
  990SOL    HW2 3870   3.583   1.031   2.328
  991SOL     OW 3871   0.290   4.326   4.040
  991SOL    HW1 3872   0.246   4.362   3.957
  991SOL    HW2 3873   0.387   4.312   4.023
  992SOL     OW 3874   0.004   3.196   0.998
  992SOL    HW1 3875   6.992   3.279   0.952
  992SOL    HW2 3876   6.952   3.157   1.053
  993SOL     OW 3877   0.212   3.930   0.545
  993SOL    HW1 3878   0.203   4.027   0.568
  993SOL    HW2 3879   0.261   3.883   0.618
  994SOL     OW 3880   3.870   5.273   1.723
  994SOL    HW1 3881   3.771   5.271   1.739
  994SOL    HW2 3882   3.890   5.238   1.632
  995SOL     OW 3883   4.321   3.045   6.179
  995SOL    HW1 3884   4.274   2.964   6.213
  995SOL    HW2 3885   4.256   3.108   6.137
  996SOL     OW 3886   3.324   5.451   4.798
  996SOL    HW1 3887   3.405   5.393   4.801
  996SOL    HW2 3888   3.281   5.454   4.888
  997SOL     OW 3889   1.198   6.975   3.419
  997SOL    HW1 3890   1.204   6.938   3.326
  997SOL    HW2 3891   1.250   0.039   3.425
  998SOL     OW 3892   6.671   6.999   6.276
  998SOL    HW1 3893   6.590   6.957   6.318
  998SOL    HW2 3894   6.751   6.983   6.334
  999SOL     OW 3895   4.965   3.741   1.557
  999SOL    HW1 3896   4.887   3.679   1.553
  999SOL    HW2 3897   5.013   3.741   1.469
 1000SOL     OW 3898   4.360   1.421   1.446
 1000SOL    HW1 3899   4.373   1.468   1.359
 1000SOL    HW2 3900   4.381   1.324   1.435
 1001SOL     OW 3901   4.055   6.062   1.903
 1001SOL    HW1 3902   4.000   6.015   1.833
 1001SOL    HW2 3903   4.148   6.026   1.901
 1002SOL     OW 3904   5.595   2.492   1.190
 1002SOL    HW1 3905   5.547   2.420   1.139
 1002SOL    HW2 3906   5.685   2.509   1.147
 1003SOL     OW 3907   1.848   5.844   3.023
 1003SOL    HW1 3908   1.948   5.837   3.027
 1003SOL    HW2 3909   1.822   5.918   2.962
 1004SOL     OW 3910   6.993   1.084   2.214
 1004SOL    HW1 3911   6.951   1.174   2.201
 1004SOL    HW2 3912   7.010   1.042   2.125
 1005SOL     OW 3913   1.884   4.356   4.087
 1005SOL    HW1 3914   1.795   4.393   4.062
 1005SOL    HW2 3915   1.953   4.389   4.022
 1006SOL     OW 3916   1.591   4.078   0.360
 1006SOL    HW1 3917   1.615   4.152   0.422
 1006SOL    HW2 3918   1.604   4.108   0.265
 1007SOL     OW 3919   4.744   0.463   5.868
 1007SOL    HW1 3920   4.842   0.464   5.888
 1007SOL    HW2 3921   4.717   0.373   5.834
 1008SOL     OW 3922   6.915   3.355   5.201
 1008SOL    HW1 3923   6.900   3.257   5.186
 1008SOL    HW2 3924   6.899   3.404   5.116
 1009SOL     OW 3925   6.011   4.028   5.917
 1009SOL    HW1 3926   5.965   4.026   5.828
 1009SOL    HW2 3927   5.999   4.119   5.958
 1010SOL     OW 3928   2.635   2.441   1.477
 1010SOL    HW1 3929   2.653   2.443   1.575
 1010SOL    HW2 3930   2.616   2.534   1.445
 1011SOL     OW 3931   0.499   5.547   3.566
 1011SOL    HW1 3932   0.447   5.464   3.546
 1011SOL    HW2 3933   0.457   5.625   3.519
 1012SOL     OW 3934   6.754   6.468   2.190
 1012SOL    HW1 3935   6.853   6.478   2.185
 1012SOL    HW2 3936   6.731   6.387   2.244
 1013SOL     OW 3937   6.959   1.255   6.582
 1013SOL    HW1 3938   6.899   1.262   6.502
 1013SOL    HW2 3939   6.919   1.307   6.658
 1014SOL     OW 3940   0.660   3.801   5.107
 1014SOL    HW1 3941   0.756   3.793   5.133
 1014SOL    HW2 3942   0.606   3.732   5.154
 1015SOL     OW 3943   2.413   0.730   6.129
 1015SOL    HW1 3944   2.434   0.687   6.217
 1015SOL    HW2 3945   2.352   0.808   6.145
 1016SOL     OW 3946   4.533   5.164   1.163
 1016SOL    HW1 3947   4.595   5.094   1.129
 1016SOL    HW2 3948   4.439   5.131   1.160
 1017SOL     OW 3949   2.956   1.651   1.125
 1017SOL    HW1 3950   3.038   1.593   1.119
 1017SOL    HW2 3951   2.979   1.744   1.096
 1018SOL     OW 3952   0.576   5.067   3.976
 1018SOL    HW1 3953   0.622   5.151   3.948
 1018SOL    HW2 3954   0.579   5.059   4.075
 1019SOL     OW 3955   6.954   5.527   0.664
 1019SOL    HW1 3956   6.987   5.496   0.753
 1019SOL    HW2 3957   6.906   5.452   0.618
 1020SOL     OW 3958   5.850   1.266   1.387
 1020SOL    HW1 3959   5.943   1.251   1.353
 1020SOL    HW2 3960   5.833   1.203   1.463
 1021SOL     OW 3961   6.190   6.400   1.982
 1021SOL    HW1 3962   6.268   6.348   2.017
 1021SOL    HW2 3963   6.122   6.336   1.944
 1022SOL     OW 3964   2.907   5.345   5.879
 1022SOL    HW1 3965   2.823   5.335   5.826
 1022SOL    HW2 3966   2.945   5.437   5.866
 1023SOL     OW 3967   0.171   0.843   3.064
 1023SOL    HW1 3968   0.174   0.758   3.011
 1023SOL    HW2 3969   0.087   0.892   3.043
 1024SOL     OW 3970   0.752   1.650   4.114
 1024SOL    HW1 3971   0.764   1.672   4.211
 1024SOL    HW2 3972   0.667   1.690   4.080
 1025SOL     OW 3973   4.434   2.808   0.475
 1025SOL    HW1 3974   4.515   2.820   0.531
 1025SOL    HW2 3975   4.361   2.768   0.530
 1026SOL     OW 3976   2.770   3.032   1.379
 1026SOL    HW1 3977   2.711   3.012   1.301
 1026SOL    HW2 3978   2.816   2.947   1.408
 1027SOL     OW 3979   2.001   0.041   2.168
 1027SOL    HW1 3980   2.095   0.075   2.159
 1027SOL    HW2 3981   1.938   0.107   2.129
 1028SOL     OW 3982   1.176   6.927   2.896
 1028SOL    HW1 3983   1.219   6.951   2.983
 1028SOL    HW2 3984   1.232   6.960   2.821
 1029SOL     OW 3985   1.077   1.951   6.103
 1029SOL    HW1 3986   1.151   1.901   6.147
 1029SOL    HW2 3987   1.115   2.020   6.041
 1030SOL     OW 3988   3.250   3.062   1.816
 1030SOL    HW1 3989   3.320   3.064   1.745
 1030SOL    HW2 3990   3.262   3.142   1.876
 1031SOL     OW 3991   4.625   3.268   1.141
 1031SOL    HW1 3992   4.705   3.253   1.084
 1031SOL    HW2 3993   4.622   3.199   1.213
 1032SOL     OW 3994   2.193   1.356   5.255
 1032SOL    HW1 3995   2.246   1.412   5.192
 1032SOL    HW2 3996   2.179   1.406   5.341
 1033SOL     OW 3997   1.198   5.707   2.058
 1033SOL    HW1 3998   1.164   5.639   2.123
 1033SOL    HW2 3999   1.198   5.797   2.101
 1034SOL     OW 4000   1.359   5.941   4.007
 1034SOL    HW1 4001   1.371   6.012   3.938
 1034SOL    HW2 4002   1.338   5.854   3.961
 1035SOL     OW 4003   0.019   2.263   6.660
 1035SOL    HW1 4004   0.106   2.217   6.673
 1035SOL    HW2 4005   6.982   2.209   6.600
 1036SOL     OW 4006   4.292   1.102   1.418
 1036SOL    HW1 4007   4.216   1.075   1.359
 1036SOL    HW2 4008   4.378   1.092   1.368
 1037SOL     OW 4009   1.404   2.114   3.358
 1037SOL    HW1 4010   1.342   2.174   3.306
 1037SOL    HW2 4011   1.497   2.150   3.352
 1038SOL     OW 4012   1.543   0.902   5.734
 1038SOL    HW1 4013   1.543   0.872   5.829
 1038SOL    HW2 4014   1.556   0.822   5.675
 1039SOL     OW 4015   3.226   3.439   4.029
 1039SOL    HW1 4016   3.285   3.515   4.003
 1039SOL    HW2 4017   3.257   3.356   3.983
 1040SOL     OW 4018   4.848   1.282   2.293
 1040SOL    HW1 4019   4.906   1.363   2.300
 1040SOL    HW2 4020   4.854   1.244   2.200
 1041SOL     OW 4021   0.186   6.412   3.178
 1041SOL    HW1 4022   0.098   6.394   3.135
 1041SOL    HW2 4023   0.209   6.335   3.238
 1042SOL     OW 4024   4.574   5.547   3.061
 1042SOL    HW1 4025   4.494   5.565   3.004
 1042SOL    HW2 4026   4.648   5.511   3.004
 1043SOL     OW 4027   4.203   2.042   3.479
 1043SOL    HW1 4028   4.148   2.051   3.562
 1043SOL    HW2 4029   4.248   1.952   3.479
 1044SOL     OW 4030   6.000   5.663   1.809
 1044SOL    HW1 4031   6.034   5.570   1.824
 1044SOL    HW2 4032   5.929   5.683   1.877
 1045SOL     OW 4033   3.606   0.706   2.815
 1045SOL    HW1 4034   3.652   0.777   2.867
 1045SOL    HW2 4035   3.530   0.745   2.764
 1046SOL     OW 4036   1.634   1.820   6.952
 1046SOL    HW1 4037   1.617   1.902   6.898
 1046SOL    HW2 4038   1.621   1.840   0.027
 1047SOL     OW 4039   3.323   0.740   3.671
 1047SOL    HW1 4040   3.397   0.759   3.735
 1047SOL    HW2 4041   3.256   0.679   3.714
 1048SOL     OW 4042   2.760   5.699   2.061
 1048SOL    HW1 4043   2.836   5.732   2.116
 1048SOL    HW2 4044   2.747   5.601   2.076
 1049SOL     OW 4045   5.431   7.003   3.958
 1049SOL    HW1 4046   5.349   6.972   3.908
 1049SOL    HW2 4047   5.506   7.015   3.894
 1050SOL     OW 4048   3.742   5.756   2.143
 1050SOL    HW1 4049   3.730   5.660   2.117
 1050SOL    HW2 4050   3.733   5.766   2.242
 1051SOL     OW 4051   0.180   5.777   6.995
 1051SOL    HW1 4052   0.121   5.827   6.932
 1051SOL    HW2 4053   0.212   5.840   0.045
 1052SOL     OW 4054   4.681   0.981   5.586
 1052SOL    HW1 4055   4.738   0.903   5.563
 1052SOL    HW2 4056   4.587   0.950   5.604
 1053SOL     OW 4057   5.874   4.161   2.734
 1053SOL    HW1 4058   5.781   4.136   2.761
 1053SOL    HW2 4059   5.935   4.155   2.813
 1054SOL     OW 4060   2.672   3.454   0.793
 1054SOL    HW1 4061   2.676   3.372   0.736
 1054SOL    HW2 4062   2.691   3.430   0.888
 1055SOL     OW 4063   4.750   5.848   5.813
 1055SOL    HW1 4064   4.773   5.946   5.820
 1055SOL    HW2 4065   4.724   5.814   5.903
 1056SOL     OW 4066   0.653   3.818   0.052
 1056SOL    HW1 4067   0.744   3.793   0.020
 1056SOL    HW2 4068   0.611   3.881   7.008
 1057SOL     OW 4069   3.560   2.521   1.155
 1057SOL    HW1 4070   3.587   2.502   1.250
 1057SOL    HW2 4071   3.630   2.577   1.111
 1058SOL     OW 4072   5.076   2.834   3.528
 1058SOL    HW1 4073   5.011   2.909   3.516
 1058SOL    HW2 4074   5.043   2.773   3.599
 1059SOL     OW 4075   2.357   6.538   2.091
 1059SOL    HW1 4076   2.337   6.628   2.130
 1059SOL    HW2 4077   2.386   6.549   1.996
 1060SOL     OW 4078   0.563   5.100   4.255
 1060SOL    HW1 4079   0.585   5.191   4.290
 1060SOL    HW2 4080   0.464   5.090   4.246
 1061SOL     OW 4081   6.327   3.657   6.311
 1061SOL    HW1 4082   6.293   3.563   6.308
 1061SOL    HW2 4083   6.401   3.664   6.378
 1062SOL     OW 4084   4.188   5.726   5.450
 1062SOL    HW1 4085   4.195   5.787   5.530
 1062SOL    HW2 4086   4.199   5.780   5.367
 1063SOL     OW 4087   0.084   6.632   0.326
 1063SOL    HW1 4088   0.168   6.584   0.353
 1063SOL    HW2 4089   0.064   6.705   0.391
 1064SOL     OW 4090   0.886   4.101   1.612
 1064SOL    HW1 4091   0.964   4.149   1.653
 1064SOL    HW2 4092   0.859   4.148   1.528
 1065SOL     OW 4093   3.750   0.442   3.461
 1065SOL    HW1 4094   3.838   0.422   3.503
 1065SOL    HW2 4095   3.744   0.396   3.373
 1066SOL     OW 4096   4.472   6.875   2.251
 1066SOL    HW1 4097   4.550   6.830   2.295
 1066SOL    HW2 4098   4.461   6.967   2.289
 1067SOL     OW 4099   2.075   1.013   6.995
 1067SOL    HW1 4100   2.112   1.104   7.013
 1067SOL    HW2 4101   2.085   0.991   6.898
 1068SOL     OW 4102   6.366   4.120   1.525
 1068SOL    HW1 4103   6.289   4.086   1.579
 1068SOL    HW2 4104   6.347   4.104   1.428
 1069SOL     OW 4105   5.474   5.987   0.594
 1069SOL    HW1 4106   5.560   6.017   0.553
 1069SOL    HW2 4107   5.455   5.893   0.566
 1070SOL     OW 4108   2.290   6.658   2.511
 1070SOL    HW1 4109   2.368   6.637   2.451
 1070SOL    HW2 4110   2.251   6.746   2.486
 1071SOL     OW 4111   1.915   1.846   4.063
 1071SOL    HW1 4112   1.819   1.871   4.050
 1071SOL    HW2 4113   1.973   1.922   4.037
 1072SOL     OW 4114   2.279   0.926   1.390
 1072SOL    HW1 4115   2.287   0.826   1.394
 1072SOL    HW2 4116   2.357   0.968   1.436
 1073SOL     OW 4117   5.125   1.714   3.436
 1073SOL    HW1 4118   5.132   1.644   3.365
 1073SOL    HW2 4119   5.204   1.775   3.431
 1074SOL     OW 4120   2.343   4.814   1.867
 1074SOL    HW1 4121   2.331   4.848   1.960
 1074SOL    HW2 4122   2.290   4.871   1.804
 1075SOL     OW 4123   6.066   1.256   3.383
 1075SOL    HW1 4124   5.979   1.227   3.424
 1075SOL    HW2 4125   6.094   1.343   3.423
 1076SOL     OW 4126   0.391   2.710   5.101
 1076SOL    HW1 4127   0.395   2.621   5.055
 1076SOL    HW2 4128   0.320   2.766   5.058
 1077SOL     OW 4129   6.621   6.349   0.517
 1077SOL    HW1 4130   6.567   6.266   0.501
 1077SOL    HW2 4131   6.638   6.359   0.615
 1078SOL     OW 4132   6.519   0.489   2.764
 1078SOL    HW1 4133   6.493   0.583   2.745
 1078SOL    HW2 4134   6.464   0.427   2.707
 1079SOL     OW 4135   1.162   4.717   2.115
 1079SOL    HW1 4136   1.072   4.672   2.116
 1079SOL    HW2 4137   1.156   4.802   2.062
 1080SOL     OW 4138   2.517   5.962   3.783
 1080SOL    HW1 4139   2.568   6.033   3.734
 1080SOL    HW2 4140   2.419   5.981   3.777
 1081SOL     OW 4141   6.495   5.143   5.287
 1081SOL    HW1 4142   6.430   5.144   5.362
 1081SOL    HW2 4143   6.552   5.225   5.291
 1082SOL     OW 4144   5.819   2.062   6.205
 1082SOL    HW1 4145   5.725   2.095   6.208
 1082SOL    HW2 4146   5.836   2.018   6.117
 1083SOL     OW 4147   4.603   3.009   6.806
 1083SOL    HW1 4148   4.639   2.925   6.847
 1083SOL    HW2 4149   4.507   3.020   6.833
 1084SOL     OW 4150   6.722   6.755   6.651
 1084SOL    HW1 4151   6.812   6.720   6.676
 1084SOL    HW2 4152   6.715   6.761   6.551
 1085SOL     OW 4153   2.140   3.187   3.896
 1085SOL    HW1 4154   2.204   3.111   3.910
 1085SOL    HW2 4155   2.146   3.250   3.974
 1086SOL     OW 4156   6.746   5.226   6.499
 1086SOL    HW1 4157   6.723   5.140   6.544
 1086SOL    HW2 4158   6.801   5.282   6.561
 1087SOL     OW 4159   1.126   2.173   5.348
 1087SOL    HW1 4160   1.077   2.094   5.386
 1087SOL    HW2 4161   1.225   2.158   5.357
 1088SOL     OW 4162   0.388   4.750   3.258
 1088SOL    HW1 4163   0.402   4.657   3.289
 1088SOL    HW2 4164   0.447   4.768   3.179
 1089SOL     OW 4165   0.994   5.989   5.071
 1089SOL    HW1 4166   1.057   5.933   5.017
 1089SOL    HW2 4167   0.946   6.052   5.011
 1090SOL     OW 4168   4.317   2.035   2.612
 1090SOL    HW1 4169   4.350   2.053   2.704
 1090SOL    HW2 4170   4.272   1.945   2.609
 1091SOL     OW 4171   2.137   3.491   3.433
 1091SOL    HW1 4172   2.095   3.576   3.463
 1091SOL    HW2 4173   2.122   3.420   3.501
 1092SOL     OW 4174   0.752   5.565   0.671
 1092SOL    HW1 4175   0.708   5.555   0.581
 1092SOL    HW2 4176   0.768   5.474   0.710
 1093SOL     OW 4177   2.443   6.630   1.850
 1093SOL    HW1 4178   2.509   6.572   1.803
 1093SOL    HW2 4179   2.388   6.680   1.783
 1094SOL     OW 4180   0.917   6.550   2.661
 1094SOL    HW1 4181   0.898   6.577   2.755
 1094SOL    HW2 4182   0.975   6.619   2.617
 1095SOL     OW 4183   0.640   2.393   6.801
 1095SOL    HW1 4184   0.685   2.327   6.861
 1095SOL    HW2 4185   0.687   2.396   6.713
 1096SOL     OW 4186   3.570   4.191   1.363
 1096SOL    HW1 4187   3.610   4.278   1.394
 1096SOL    HW2 4188   3.549   4.198   1.266
 1097SOL     OW 4189   1.816   4.875   2.771
 1097SOL    HW1 4190   1.812   4.853   2.868
 1097SOL    HW2 4191   1.881   4.814   2.725
 1098SOL     OW 4192   6.114   3.839   6.326
 1098SOL    HW1 4193   6.061   3.794   6.254
 1098SOL    HW2 4194   6.204   3.796   6.334
 1099SOL     OW 4195   4.367   0.929   6.489
 1099SOL    HW1 4196   4.402   0.925   6.583
 1099SOL    HW2 4197   4.274   0.891   6.487
 1100SOL     OW 4198   3.991   1.596   4.898
 1100SOL    HW1 4199   3.981   1.550   4.809
 1100SOL    HW2 4200   4.085   1.583   4.931
 1101SOL     OW 4201   5.404   4.113   5.119
 1101SOL    HW1 4202   5.492   4.113   5.072
 1101SOL    HW2 4203   5.335   4.068   5.061
 1102SOL     OW 4204   2.026   1.262   4.871
 1102SOL    HW1 4205   1.984   1.208   4.799
 1102SOL    HW2 4206   2.061   1.348   4.833
 1103SOL     OW 4207   2.083   2.038   0.084
 1103SOL    HW1 4208   2.183   2.030   0.090
 1103SOL    HW2 4209   2.041   1.958   0.126
 1104SOL     OW 4210   1.916   4.090   3.790
 1104SOL    HW1 4211   1.900   4.009   3.734
 1104SOL    HW2 4212   1.840   4.102   3.854
 1105SOL     OW 4213   5.344   2.875   4.294
 1105SOL    HW1 4214   5.361   2.780   4.267
 1105SOL    HW2 4215   5.266   2.877   4.357
 1106SOL     OW 4216   0.455   1.661   1.131
 1106SOL    HW1 4217   0.522   1.599   1.089
 1106SOL    HW2 4218   0.366   1.615   1.136
 1107SOL     OW 4219   1.193   0.633   0.054
 1107SOL    HW1 4220   1.273   0.573   0.048
 1107SOL    HW2 4221   1.122   0.601   7.013
 1108SOL     OW 4222   3.306   6.664   5.375
 1108SOL    HW1 4223   3.367   6.737   5.344
 1108SOL    HW2 4224   3.211   6.686   5.350
 1109SOL     OW 4225   5.594   1.053   4.019
 1109SOL    HW1 4226   5.667   1.022   3.958
 1109SOL    HW2 4227   5.605   1.011   4.109
 1110SOL     OW 4228   3.738   1.172   3.473
 1110SOL    HW1 4229   3.640   1.180   3.452
 1110SOL    HW2 4230   3.784   1.258   3.451
 1111SOL     OW 4231   5.625   4.679   6.419
 1111SOL    HW1 4232   5.628   4.715   6.512
 1111SOL    HW2 4233   5.609   4.580   6.422
 1112SOL     OW 4234   6.505   0.621   3.193
 1112SOL    HW1 4235   6.433   0.688   3.212
 1112SOL    HW2 4236   6.514   0.559   3.271
 1113SOL     OW 4237   6.244   4.464   1.488
 1113SOL    HW1 4238   6.332   4.421   1.470
 1113SOL    HW2 4239   6.186   4.401   1.540
 1114SOL     OW 4240   2.930   2.013   6.229
 1114SOL    HW1 4241   2.957   2.022   6.133
 1114SOL    HW2 4242   2.941   1.918   6.258
 1115SOL     OW 4243   4.203   3.519   5.496
 1115SOL    HW1 4244   4.117   3.570   5.491
 1115SOL    HW2 4245   4.267   3.569   5.554
 1116SOL     OW 4246   5.952   7.005   0.260
 1116SOL    HW1 4247   5.952   0.067   0.316
 1116SOL    HW2 4248   6.045   6.969   0.254
 1117SOL     OW 4249   0.436   1.720   1.542
 1117SOL    HW1 4250   0.479   1.634   1.516
 1117SOL    HW2 4251   0.361   1.702   1.606
 1118SOL     OW 4252   2.626   5.194   0.494
 1118SOL    HW1 4253   2.585   5.284   0.511
 1118SOL    HW2 4254   2.719   5.206   0.459
 1119SOL     OW 4255   4.302   4.426   1.517
 1119SOL    HW1 4256   4.386   4.395   1.562
 1119SOL    HW2 4257   4.250   4.347   1.485
 1120SOL     OW 4258   6.627   5.704   1.210
 1120SOL    HW1 4259   6.600   5.659   1.125
 1120SOL    HW2 4260   6.723   5.683   1.229
 1121SOL     OW 4261   0.279   4.815   4.933
 1121SOL    HW1 4262   0.349   4.819   5.005
 1121SOL    HW2 4263   0.250   4.720   4.919
 1122SOL     OW 4264   6.032   2.907   2.209
 1122SOL    HW1 4265   6.110   2.884   2.151
 1122SOL    HW2 4266   5.978   2.824   2.226
 1123SOL     OW 4267   5.056   2.299   3.860
 1123SOL    HW1 4268   5.122   2.373   3.849
 1123SOL    HW2 4269   4.973   2.320   3.807
 1124SOL     OW 4270   0.198   4.479   5.870
 1124SOL    HW1 4271   0.256   4.407   5.834
 1124SOL    HW2 4272   0.251   4.563   5.881
 1125SOL     OW 4273   1.732   2.460   3.750
 1125SOL    HW1 4274   1.823   2.485   3.783
 1125SOL    HW2 4275   1.668   2.535   3.766
 1126SOL     OW 4276   5.732   6.280   5.578
 1126SOL    HW1 4277   5.799   6.309   5.510
 1126SOL    HW2 4278   5.684   6.199   5.546
 1127SOL     OW 4279   5.520   6.231   4.767
 1127SOL    HW1 4280   5.444   6.189   4.815
 1127SOL    HW2 4281   5.486   6.291   4.695
 1128SOL     OW 4282   6.319   1.559   4.820
 1128SOL    HW1 4283   6.292   1.654   4.835
 1128SOL    HW2 4284   6.249   1.498   4.856
 1129SOL     OW 4285   1.986   6.443   0.758
 1129SOL    HW1 4286   1.986   6.409   0.664
 1129SOL    HW2 4287   2.026   6.374   0.818
 1130SOL     OW 4288   1.907   4.822   1.115
 1130SOL    HW1 4289   2.002   4.849   1.103
 1130SOL    HW2 4290   1.891   4.734   1.069
 1131SOL     OW 4291   1.835   0.465   5.096
 1131SOL    HW1 4292   1.775   0.440   5.020
 1131SOL    HW2 4293   1.924   0.421   5.085
 1132SOL     OW 4294   3.881   0.265   3.218
 1132SOL    HW1 4295   3.949   0.218   3.162
 1132SOL    HW2 4296   3.838   0.201   3.281
 1133SOL     OW 4297   0.845   0.681   0.035
 1133SOL    HW1 4298   0.897   0.643   6.979
 1133SOL    HW2 4299   0.815   0.774   0.012
 1134SOL     OW 4300   5.333   0.120   2.854
 1134SOL    HW1 4301   5.295   0.181   2.924
 1134SOL    HW2 4302   5.352   0.031   2.894
 1135SOL     OW 4303   2.220   6.440   3.802
 1135SOL    HW1 4304   2.279   6.381   3.857
 1135SOL    HW2 4305   2.190   6.390   3.720
 1136SOL     OW 4306   3.694   5.007   2.627
 1136SOL    HW1 4307   3.761   4.937   2.602
 1136SOL    HW2 4308   3.615   5.001   2.566
 1137SOL     OW 4309   0.946   6.263   0.718
 1137SOL    HW1 4310   0.998   6.193   0.670
 1137SOL    HW2 4311   1.009   6.334   0.751
 1138SOL     OW 4312   0.518   1.550   4.988
 1138SOL    HW1 4313   0.561   1.580   5.073
 1138SOL    HW2 4314   0.452   1.478   5.007
 1139SOL     OW 4315   2.687   4.667   3.848
 1139SOL    HW1 4316   2.715   4.688   3.754
 1139SOL    HW2 4317   2.606   4.609   3.847
 1140SOL     OW 4318   2.570   0.244   2.825
 1140SOL    HW1 4319   2.600   0.337   2.847
 1140SOL    HW2 4320   2.650   0.188   2.805
 1141SOL     OW 4321   6.682   5.925   7.001
 1141SOL    HW1 4322   6.595   5.901   6.959
 1141SOL    HW2 4323   6.755   5.921   6.932
 1142SOL     OW 4324   3.503   0.029   3.867
 1142SOL    HW1 4325   3.496   6.951   3.876
 1142SOL    HW2 4326   3.432   0.062   3.805
 1143SOL     OW 4327   1.832   3.122   2.485
 1143SOL    HW1 4328   1.764   3.195   2.500
 1143SOL    HW2 4329   1.923   3.162   2.482
 1144SOL     OW 4330   5.704   4.270   3.250
 1144SOL    HW1 4331   5.670   4.181   3.281
 1144SOL    HW2 4332   5.668   4.342   3.309
 1145SOL     OW 4333   1.321   2.901   0.545
 1145SOL    HW1 4334   1.375   2.954   0.610
 1145SOL    HW2 4335   1.267   2.832   0.593
 1146SOL     OW 4336   0.853   1.788   1.538
 1146SOL    HW1 4337   0.900   1.718   1.485
 1146SOL    HW2 4338   0.781   1.829   1.483
 1147SOL     OW 4339   2.599   6.193   0.704
 1147SOL    HW1 4340   2.530   6.137   0.750
 1147SOL    HW2 4341   2.676   6.135   0.677
 1148SOL     OW 4342   4.239   6.288   0.745
 1148SOL    HW1 4343   4.224   6.370   0.690
 1148SOL    HW2 4344   4.211   6.208   0.692
 1149SOL     OW 4345   5.324   2.878   2.248
 1149SOL    HW1 4346   5.275   2.961   2.219
 1149SOL    HW2 4347   5.271   2.797   2.222
 1150SOL     OW 4348   0.611   3.900   0.336
 1150SOL    HW1 4349   0.530   3.959   0.338
 1150SOL    HW2 4350   0.620   3.858   0.246
 1151SOL     OW 4351   6.023   4.901   4.369
 1151SOL    HW1 4352   6.014   4.952   4.455
 1151SOL    HW2 4353   6.032   4.966   4.293
 1152SOL     OW 4354   5.116   6.185   6.313
 1152SOL    HW1 4355   5.127   6.193   6.213
 1152SOL    HW2 4356   5.069   6.266   6.348
 1153SOL     OW 4357   6.285   0.223   1.388
 1153SOL    HW1 4358   6.249   0.157   1.454
 1153SOL    HW2 4359   6.371   0.188   1.351
 1154SOL     OW 4360   0.571   3.902   0.699
 1154SOL    HW1 4361   0.493   3.857   0.742
 1154SOL    HW2 4362   0.592   3.858   0.612
 1155SOL     OW 4363   3.175   5.260   5.780
 1155SOL    HW1 4364   3.164   5.183   5.718
 1155SOL    HW2 4365   3.095   5.265   5.841
 1156SOL     OW 4366   4.683   2.291   4.764
 1156SOL    HW1 4367   4.708   2.378   4.807
 1156SOL    HW2 4368   4.587   2.271   4.784
 1157SOL     OW 4369   5.002   0.968   5.970
 1157SOL    HW1 4370   5.029   1.045   6.028
 1157SOL    HW2 4371   4.920   0.992   5.919
 1158SOL     OW 4372   6.430   5.699   5.015
 1158SOL    HW1 4373   6.356   5.765   5.025
 1158SOL    HW2 4374   6.498   5.734   4.951
 1159SOL     OW 4375   5.943   0.023   3.164
 1159SOL    HW1 4376   5.948   0.063   3.073
 1159SOL    HW2 4377   6.029   0.038   3.212
 1160SOL     OW 4378   4.334   5.332   2.028
 1160SOL    HW1 4379   4.280   5.416   2.035
 1160SOL    HW2 4380   4.334   5.300   1.933
 1161SOL     OW 4381   0.782   5.805   6.720
 1161SOL    HW1 4382   0.712   5.738   6.744
 1161SOL    HW2 4383   0.839   5.769   6.646
 1162SOL     OW 4384   2.398   2.570   5.639
 1162SOL    HW1 4385   2.491   2.597   5.613
 1162SOL    HW2 4386   2.339   2.573   5.558
 1163SOL     OW 4387   5.702   4.688   2.146
 1163SOL    HW1 4388   5.614   4.657   2.111
 1163SOL    HW2 4389   5.773   4.621   2.122
 1164SOL     OW 4390   5.197   2.755   5.150
 1164SOL    HW1 4391   5.100   2.768   5.168
 1164SOL    HW2 4392   5.249   2.828   5.194
 1165SOL     OW 4393   3.984   5.937   3.332
 1165SOL    HW1 4394   3.938   5.925   3.244
 1165SOL    HW2 4395   4.046   5.860   3.349
 1166SOL     OW 4396   2.415   5.875   7.019
 1166SOL    HW1 4397   2.318   5.895   7.006
 1166SOL    HW2 4398   2.462   5.885   6.931
 1167SOL     OW 4399   4.957   5.089   0.636
 1167SOL    HW1 4400   5.000   5.021   0.696
 1167SOL    HW2 4401   4.860   5.097   0.659
 1168SOL     OW 4402   6.384   2.682   1.215
 1168SOL    HW1 4403   6.411   2.778   1.223
 1168SOL    HW2 4404   6.395   2.636   1.303
 1169SOL     OW 4405   4.840   1.882   5.385
 1169SOL    HW1 4406   4.892   1.903   5.468
 1169SOL    HW2 4407   4.778   1.957   5.364
 1170SOL     OW 4408   5.563   0.323   3.459
 1170SOL    HW1 4409   5.640   0.313   3.396
 1170SOL    HW2 4410   5.478   0.304   3.411
 1171SOL     OW 4411   2.637   6.662   0.199
 1171SOL    HW1 4412   2.581   6.586   0.230
 1171SOL    HW2 4413   2.651   6.727   0.274
 1172SOL     OW 4414   5.334   4.118   0.779
 1172SOL    HW1 4415   5.310   4.027   0.813
 1172SOL    HW2 4416   5.307   4.187   0.846
 1173SOL     OW 4417   3.239   1.599   1.127
 1173SOL    HW1 4418   3.239   1.568   1.222
 1173SOL    HW2 4419   3.326   1.574   1.084
 1174SOL     OW 4420   3.534   3.898   2.110
 1174SOL    HW1 4421   3.604   3.859   2.170
 1174SOL    HW2 4422   3.535   3.998   2.118
 1175SOL     OW 4423   4.968   3.486   6.636
 1175SOL    HW1 4424   4.939   3.483   6.540
 1175SOL    HW2 4425   4.893   3.521   6.692
 1176SOL     OW 4426   5.019   3.331   0.528
 1176SOL    HW1 4427   4.931   3.309   0.485
 1176SOL    HW2 4428   5.046   3.424   0.501
 1177SOL     OW 4429   6.825   3.719   5.095
 1177SOL    HW1 4430   6.850   3.746   5.188
 1177SOL    HW2 4431   6.883   3.644   5.065
 1178SOL     OW 4432   2.555   4.041   0.703
 1178SOL    HW1 4433   2.638   3.985   0.702
 1178SOL    HW2 4434   2.551   4.096   0.621
 1179SOL     OW 4435   2.214   5.961   0.494
 1179SOL    HW1 4436   2.286   5.891   0.503
 1179SOL    HW2 4437   2.202   6.007   0.582
 1180SOL     OW 4438   2.828   6.393   3.801
 1180SOL    HW1 4439   2.785   6.374   3.713
 1180SOL    HW2 4440   2.767   6.363   3.875
 1181SOL     OW 4441   0.519   5.311   5.634
 1181SOL    HW1 4442   0.560   5.224   5.664
 1181SOL    HW2 4443   0.457   5.293   5.558
 1182SOL     OW 4444   4.014   5.032   3.218
 1182SOL    HW1 4445   4.053   5.113   3.174
 1182SOL    HW2 4446   3.956   4.983   3.153
 1183SOL     OW 4447   2.338   3.796   0.195
 1183SOL    HW1 4448   2.376   3.772   0.284
 1183SOL    HW2 4449   2.242   3.766   0.190
 1184SOL     OW 4450   6.826   0.846   4.653
 1184SOL    HW1 4451   6.795   0.767   4.706
 1184SOL    HW2 4452   6.747   0.899   4.622
 1185SOL     OW 4453   0.711   0.815   0.887
 1185SOL    HW1 4454   0.687   0.859   0.800
 1185SOL    HW2 4455   0.628   0.778   0.930
 1186SOL     OW 4456   5.758   6.820   5.827
 1186SOL    HW1 4457   5.678   6.880   5.824
 1186SOL    HW2 4458   5.728   6.725   5.830
 1187SOL     OW 4459   6.258   6.896   6.673
 1187SOL    HW1 4460   6.186   6.914   6.740
 1187SOL    HW2 4461   6.233   6.940   6.586
 1188SOL     OW 4462   3.653   6.091   5.557
 1188SOL    HW1 4463   3.744   6.051   5.570
 1188SOL    HW2 4464   3.599   6.033   5.496
 1189SOL     OW 4465   6.199   2.772   1.562
 1189SOL    HW1 4466   6.237   2.714   1.490
 1189SOL    HW2 4467   6.101   2.786   1.546
 1190SOL     OW 4468   3.111   5.252   3.598
 1190SOL    HW1 4469   3.155   5.224   3.683
 1190SOL    HW2 4470   3.080   5.347   3.605
 1191SOL     OW 4471   4.454   5.349   3.852
 1191SOL    HW1 4472   4.543   5.342   3.896
 1191SOL    HW2 4473   4.398   5.417   3.900
 1192SOL     OW 4474   4.481   5.422   2.472
 1192SOL    HW1 4475   4.385   5.423   2.502
 1192SOL    HW2 4476   4.491   5.360   2.394
 1193SOL     OW 4477   6.437   2.827   5.328
 1193SOL    HW1 4478   6.461   2.913   5.373
 1193SOL    HW2 4479   6.343   2.803   5.352
 1194SOL     OW 4480   6.046   0.175   1.821
 1194SOL    HW1 4481   6.020   0.269   1.799
 1194SOL    HW2 4482   5.972   0.113   1.795
 1195SOL     OW 4483   6.688   4.037   0.863
 1195SOL    HW1 4484   6.633   4.121   0.860
 1195SOL    HW2 4485   6.654   3.978   0.936
 1196SOL     OW 4486   0.352   5.540   2.783
 1196SOL    HW1 4487   0.269   5.551   2.729
 1196SOL    HW2 4488   0.331   5.555   2.880
 1197SOL     OW 4489   4.479   0.840   4.873
 1197SOL    HW1 4490   4.433   0.752   4.862
 1197SOL    HW2 4491   4.468   0.872   4.967
 1198SOL     OW 4492   1.167   2.714   2.401
 1198SOL    HW1 4493   1.240   2.647   2.395
 1198SOL    HW2 4494   1.088   2.684   2.347
 1199SOL     OW 4495   3.958   3.788   1.502
 1199SOL    HW1 4496   4.051   3.794   1.465
 1199SOL    HW2 4497   3.927   3.693   1.501
 1200SOL     OW 4498   3.264   3.579   4.245
 1200SOL    HW1 4499   3.194   3.573   4.316
 1200SOL    HW2 4500   3.242   3.516   4.170
 1201SOL     OW 4501   1.037   0.693   4.292
 1201SOL    HW1 4502   1.127   0.676   4.253
 1201SOL    HW2 4503   1.043   0.690   4.392
 1202SOL     OW 4504   0.306   5.620   5.584
 1202SOL    HW1 4505   0.304   5.716   5.556
 1202SOL    HW2 4506   0.392   5.601   5.632
 1203SOL     OW 4507   6.678   6.005   6.684
 1203SOL    HW1 4508   6.769   6.044   6.696
 1203SOL    HW2 4509   6.611   6.060   6.733
 1204SOL     OW 4510   3.394   6.685   1.417
 1204SOL    HW1 4511   3.425   6.617   1.351
 1204SOL    HW2 4512   3.343   6.757   1.369
 1205SOL     OW 4513   4.793   3.686   0.857
 1205SOL    HW1 4514   4.761   3.623   0.787
 1205SOL    HW2 4515   4.887   3.663   0.883
 1206SOL     OW 4516   2.703   2.899   5.502
 1206SOL    HW1 4517   2.772   2.861   5.442
 1206SOL    HW2 4518   2.613   2.891   5.459
 1207SOL     OW 4519   2.250   6.369   1.075
 1207SOL    HW1 4520   2.277   6.446   1.133
 1207SOL    HW2 4521   2.297   6.376   0.987
 1208SOL     OW 4522   3.243   3.787   1.317
 1208SOL    HW1 4523   3.186   3.835   1.250
 1208SOL    HW2 4524   3.202   3.697   1.337
 1209SOL     OW 4525   4.854   1.232   5.005
 1209SOL    HW1 4526   4.923   1.168   4.973
 1209SOL    HW2 4527   4.881   1.325   4.980
 1210SOL     OW 4528   3.046   0.622   3.487
 1210SOL    HW1 4529   3.044   0.709   3.440
 1210SOL    HW2 4530   3.012   0.633   3.581
 1211SOL     OW 4531   0.719   3.699   1.764
 1211SOL    HW1 4532   0.624   3.703   1.735
 1211SOL    HW2 4533   0.752   3.792   1.782
 1212SOL     OW 4534   6.125   0.325   0.134
 1212SOL    HW1 4535   6.193   0.388   0.170
 1212SOL    HW2 4536   6.058   0.303   0.205
 1213SOL     OW 4537   6.640   2.240   0.211
 1213SOL    HW1 4538   6.652   2.250   0.310
 1213SOL    HW2 4539   6.729   2.241   0.166
 1214SOL     OW 4540   0.929   2.716   6.520
 1214SOL    HW1 4541   0.908   2.633   6.573
 1214SOL    HW2 4542   1.014   2.702   6.470
 1215SOL     OW 4543   0.506   4.446   3.539
 1215SOL    HW1 4544   0.419   4.495   3.537
 1215SOL    HW2 4545   0.502   4.368   3.477
 1216SOL     OW 4546   4.774   0.533   0.843
 1216SOL    HW1 4547   4.822   0.450   0.870
 1216SOL    HW2 4548   4.702   0.553   0.910
 1217SOL     OW 4549   2.538   4.443   0.040
 1217SOL    HW1 4550   2.489   4.358   0.019
 1217SOL    HW2 4551   2.473   4.516   0.059
 1218SOL     OW 4552   2.343   4.229   4.651
 1218SOL    HW1 4553   2.311   4.171   4.576
 1218SOL    HW2 4554   2.427   4.191   4.689
 1219SOL     OW 4555   5.743   6.308   1.951
 1219SOL    HW1 4556   5.783   6.353   1.871
 1219SOL    HW2 4557   5.801   6.327   2.031
 1220SOL     OW 4558   1.288   4.810   3.441
 1220SOL    HW1 4559   1.259   4.731   3.387
 1220SOL    HW2 4560   1.225   4.886   3.425
 1221SOL     OW 4561   5.754   3.632   6.464
 1221SOL    HW1 4562   5.845   3.658   6.496
 1221SOL    HW2 4563   5.744   3.532   6.470
 1222SOL     OW 4564   6.451   6.888   6.389
 1222SOL    HW1 4565   6.362   6.851   6.418
 1222SOL    HW2 4566   6.488   6.946   6.461
 1223SOL     OW 4567   4.133   0.943   0.740
 1223SOL    HW1 4568   4.093   0.853   0.728
 1223SOL    HW2 4569   4.105   0.980   0.829
 1224SOL     OW 4570   3.462   5.386   0.292
 1224SOL    HW1 4571   3.496   5.478   0.314
 1224SOL    HW2 4572   3.362   5.389   0.287
 1225SOL     OW 4573   3.262   3.293   6.658
 1225SOL    HW1 4574   3.262   3.379   6.608
 1225SOL    HW2 4575   3.181   3.287   6.716
 1226SOL     OW 4576   2.264   5.190   1.188
 1226SOL    HW1 4577   2.265   5.272   1.245
 1226SOL    HW2 4578   2.242   5.111   1.245
 1227SOL     OW 4579   6.649   4.079   7.001
 1227SOL    HW1 4580   6.717   4.103   6.932
 1227SOL    HW2 4581   6.563   4.124   6.980
 1228SOL     OW 4582   3.919   1.878   6.398
 1228SOL    HW1 4583   3.924   1.793   6.345
 1228SOL    HW2 4584   3.823   1.900   6.415
 1229SOL     OW 4585   3.942   4.997   5.967
 1229SOL    HW1 4586   4.024   5.053   5.963
 1229SOL    HW2 4587   3.946   4.935   6.046
 1230SOL     OW 4588   4.591   0.258   3.218
 1230SOL    HW1 4589   4.673   0.204   3.200
 1230SOL    HW2 4590   4.582   0.273   3.316
 1231SOL     OW 4591   1.876   3.449   4.181
 1231SOL    HW1 4592   1.792   3.410   4.145
 1231SOL    HW2 4593   1.861   3.482   4.274
 1232SOL     OW 4594   0.575   2.208   5.337
 1232SOL    HW1 4595   0.670   2.237   5.331
 1232SOL    HW2 4596   0.552   2.186   5.432
 1233SOL     OW 4597   1.405   3.951   4.146
 1233SOL    HW1 4598   1.360   3.906   4.068
 1233SOL    HW2 4599   1.495   3.983   4.118
 1234SOL     OW 4600   6.569   3.810   5.060
 1234SOL    HW1 4601   6.646   3.758   5.099
 1234SOL    HW2 4602   6.596   3.905   5.048
 1235SOL     OW 4603   6.805   5.924   2.558
 1235SOL    HW1 4604   6.768   5.874   2.480
 1235SOL    HW2 4605   6.731   5.943   2.623
 1236SOL     OW 4606   5.113   0.878   0.402
 1236SOL    HW1 4607   5.105   0.875   0.502
 1236SOL    HW2 4608   5.159   0.962   0.375
 1237SOL     OW 4609   1.863   4.865   5.605
 1237SOL    HW1 4610   1.814   4.799   5.548
 1237SOL    HW2 4611   1.835   4.853   5.701
 1238SOL     OW 4612   2.678   0.788   0.356
 1238SOL    HW1 4613   2.640   0.880   0.363
 1238SOL    HW2 4614   2.674   0.743   0.445
 1239SOL     OW 4615   6.937   6.601   6.096
 1239SOL    HW1 4616   6.989   6.566   6.174
 1239SOL    HW2 4617   6.968   6.693   6.074
 1240SOL     OW 4618   5.414   5.974   2.035
 1240SOL    HW1 4619   5.506   5.966   1.996
 1240SOL    HW2 4620   5.357   6.032   1.977
 1241SOL     OW 4621   6.539   4.188   4.001
 1241SOL    HW1 4622   6.468   4.165   3.935
 1241SOL    HW2 4623   6.508   4.163   4.093
 1242SOL     OW 4624   6.444   3.317   1.481
 1242SOL    HW1 4625   6.388   3.378   1.537
 1242SOL    HW2 4626   6.401   3.227   1.474
 1243SOL     OW 4627   0.279   6.861   5.292
 1243SOL    HW1 4628   0.288   6.791   5.221
 1243SOL    HW2 4629   0.351   6.849   5.360
 1244SOL     OW 4630   6.683   6.627   3.840
 1244SOL    HW1 4631   6.729   6.646   3.753
 1244SOL    HW2 4632   6.625   6.546   3.830
 1245SOL     OW 4633   4.740   4.308   6.319
 1245SOL    HW1 4634   4.721   4.406   6.326
 1245SOL    HW2 4635   4.791   4.290   6.235
 1246SOL     OW 4636   2.358   6.318   1.354
 1246SOL    HW1 4637   2.444   6.326   1.304
 1246SOL    HW2 4638   2.282   6.312   1.289
 1247SOL     OW 4639   2.214   0.565   6.409
 1247SOL    HW1 4640   2.220   0.467   6.426
 1247SOL    HW2 4641   2.163   0.582   6.325
 1248SOL     OW 4642   2.325   0.391   4.323
 1248SOL    HW1 4643   2.389   0.446   4.376
 1248SOL    HW2 4644   2.355   0.295   4.323
 1249SOL     OW 4645   5.620   2.608   2.080
 1249SOL    HW1 4646   5.523   2.584   2.080
 1249SOL    HW2 4647   5.650   2.624   1.987
 1250SOL     OW 4648   6.582   5.208   4.516
 1250SOL    HW1 4649   6.500   5.206   4.459
 1250SOL    HW2 4650   6.585   5.294   4.567
 1251SOL     OW 4651   2.889   6.928   3.966
 1251SOL    HW1 4652   2.843   6.887   4.044
 1251SOL    HW2 4653   2.907   6.858   3.897
 1252SOL     OW 4654   3.807   3.433   5.563
 1252SOL    HW1 4655   3.873   3.359   5.552
 1252SOL    HW2 4656   3.731   3.401   5.621
 1253SOL     OW 4657   3.264   4.836   1.392
 1253SOL    HW1 4658   3.226   4.818   1.482
 1253SOL    HW2 4659   3.190   4.852   1.326
 1254SOL     OW 4660   6.725   3.014   2.628
 1254SOL    HW1 4661   6.706   2.976   2.719
 1254SOL    HW2 4662   6.772   3.101   2.638
 1255SOL     OW 4663   6.536   1.979   4.849
 1255SOL    HW1 4664   6.586   1.909   4.901
 1255SOL    HW2 4665   6.578   1.990   4.759
 1256SOL     OW 4666   6.522   6.743   3.340
 1256SOL    HW1 4667   6.477   6.657   3.317
 1256SOL    HW2 4668   6.521   6.804   3.261
 1257SOL     OW 4669   6.880   6.501   4.018
 1257SOL    HW1 4670   6.950   6.535   3.954
 1257SOL    HW2 4671   6.794   6.489   3.969
 1258SOL     OW 4672   1.580   5.184   3.644
 1258SOL    HW1 4673   1.572   5.194   3.545
 1258SOL    HW2 4674   1.489   5.190   3.685
 1259SOL     OW 4675   3.854   1.188   4.218
 1259SOL    HW1 4676   3.946   1.204   4.182
 1259SOL    HW2 4677   3.825   1.269   4.270
 1260SOL     OW 4678   1.588   1.387   6.694
 1260SOL    HW1 4679   1.551   1.472   6.731
 1260SOL    HW2 4680   1.558   1.376   6.600
 1261SOL     OW 4681   6.967   5.749   6.372
 1261SOL    HW1 4682   0.008   5.794   6.308
 1261SOL    HW2 4683   7.018   5.713   6.449
 1262SOL     OW 4684   5.480   5.231   1.096
 1262SOL    HW1 4685   5.390   5.217   1.138
 1262SOL    HW2 4686   5.537   5.285   1.158
 1263SOL     OW 4687   0.125   1.375   2.492
 1263SOL    HW1 4688   0.168   1.399   2.405
 1263SOL    HW2 4689   0.043   1.320   2.475
 1264SOL     OW 4690   0.472   4.642   5.873
 1264SOL    HW1 4691   0.505   4.647   5.779
 1264SOL    HW2 4692   0.428   4.729   5.897
 1265SOL     OW 4693   5.943   5.239   4.503
 1265SOL    HW1 4694   5.956   5.148   4.544
 1265SOL    HW2 4695   5.849   5.269   4.519
 1266SOL     OW 4696   0.510   0.626   4.128
 1266SOL    HW1 4697   0.446   0.563   4.084
 1266SOL    HW2 4698   0.604   0.601   4.102
 1267SOL     OW 4699   5.210   0.953   1.241
 1267SOL    HW1 4700   5.247   0.912   1.158
 1267SOL    HW2 4701   5.285   0.986   1.299
 1268SOL     OW 4702   2.900   3.066   6.935
 1268SOL    HW1 4703   2.998   3.063   6.953
 1268SOL    HW2 4704   2.872   2.984   6.885
 1269SOL     OW 4705   5.915   3.107   3.876
 1269SOL    HW1 4706   5.980   3.106   3.952
 1269SOL    HW2 4707   5.827   3.143   3.907
 1270SOL     OW 4708   2.171   4.870   2.575
 1270SOL    HW1 4709   2.240   4.877   2.504
 1270SOL    HW2 4710   2.206   4.814   2.651
 1271SOL     OW 4711   3.344   1.492   1.876
 1271SOL    HW1 4712   3.443   1.506   1.872
 1271SOL    HW2 4713   3.297   1.574   1.844
 1272SOL     OW 4714   6.097   4.555   6.678
 1272SOL    HW1 4715   6.036   4.559   6.758
 1272SOL    HW2 4716   6.043   4.542   6.595
 1273SOL     OW 4717   1.742   3.742   5.461
 1273SOL    HW1 4718   1.753   3.777   5.368
 1273SOL    HW2 4719   1.701   3.651   5.458
 1274SOL     OW 4720   0.228   4.199   0.607
 1274SOL    HW1 4721   0.157   4.180   0.674
 1274SOL    HW2 4722   0.318   4.201   0.652
 1275SOL     OW 4723   3.282   1.271   3.127
 1275SOL    HW1 4724   3.189   1.275   3.163
 1275SOL    HW2 4725   3.338   1.213   3.185
 1276SOL     OW 4726   5.367   5.209   4.917
 1276SOL    HW1 4727   5.339   5.128   4.865
 1276SOL    HW2 4728   5.297   5.230   4.985
 1277SOL     OW 4729   1.504   5.067   6.708
 1277SOL    HW1 4730   1.599   5.089   6.683
 1277SOL    HW2 4731   1.456   5.034   6.627
 1278SOL     OW 4732   1.591   0.340   4.551
 1278SOL    HW1 4733   1.524   0.271   4.580
 1278SOL    HW2 4734   1.545   0.414   4.502
 1279SOL     OW 4735   2.388   4.316   6.233
 1279SOL    HW1 4736   2.462   4.250   6.247
 1279SOL    HW2 4737   2.413   4.404   6.273
 1280SOL     OW 4738   4.250   0.038   3.836
 1280SOL    HW1 4739   4.346   0.034   3.863
 1280SOL    HW2 4740   4.226   6.977   3.785
 1281SOL     OW 4741   2.664   6.122   3.599
 1281SOL    HW1 4742   2.756   6.087   3.579
 1281SOL    HW2 4743   2.662   6.221   3.584
 1282SOL     OW 4744   6.908   2.568   0.060
 1282SOL    HW1 4745   6.905   2.647   7.021
 1282SOL    HW2 4746   6.957   2.493   0.015
 1283SOL     OW 4747   6.537   3.485   5.664
 1283SOL    HW1 4748   6.553   3.435   5.579
 1283SOL    HW2 4749   6.597   3.565   5.668
 1284SOL     OW 4750   3.864   0.922   1.360
 1284SOL    HW1 4751   3.865   0.901   1.458
 1284SOL    HW2 4752   3.808   0.855   1.312
 1285SOL     OW 4753   4.677   1.170   5.389
 1285SOL    HW1 4754   4.698   1.102   5.459
 1285SOL    HW2 4755   4.759   1.187   5.333
 1286SOL     OW 4756   4.290   2.225   0.842
 1286SOL    HW1 4757   4.290   2.216   0.942
 1286SOL    HW2 4758   4.381   2.206   0.807
 1287SOL     OW 4759   5.179   4.633   5.523
 1287SOL    HW1 4760   5.096   4.688   5.533
 1287SOL    HW2 4761   5.239   4.677   5.456
 1288SOL     OW 4762   4.038   4.886   5.681
 1288SOL    HW1 4763   4.108   4.857   5.616
 1288SOL    HW2 4764   4.045   4.984   5.696
 1289SOL     OW 4765   0.489   0.806   1.937
 1289SOL    HW1 4766   0.521   0.733   1.877
 1289SOL    HW2 4767   0.389   0.808   1.936
 1290SOL     OW 4768   1.806   6.905   0.750
 1290SOL    HW1 4769   1.730   6.956   0.709
 1290SOL    HW2 4770   1.808   6.813   0.710
 1291SOL     OW 4771   0.267   4.816   4.551
 1291SOL    HW1 4772   0.289   4.730   4.596
 1291SOL    HW2 4773   0.179   4.809   4.505
 1292SOL     OW 4774   0.831   5.503   2.342
 1292SOL    HW1 4775   0.873   5.594   2.340
 1292SOL    HW2 4776   0.867   5.452   2.420
 1293SOL     OW 4777   2.755   2.064   0.295
 1293SOL    HW1 4778   2.796   2.046   0.205
 1293SOL    HW2 4779   2.759   1.981   0.350
 1294SOL     OW 4780   1.266   3.960   6.442
 1294SOL    HW1 4781   1.325   3.911   6.378
 1294SOL    HW2 4782   1.315   4.038   6.480
 1295SOL     OW 4783   0.085   2.995   0.843
 1295SOL    HW1 4784   0.081   2.907   0.891
 1295SOL    HW2 4785   0.070   3.069   0.908
 1296SOL     OW 4786   4.679   6.712   5.140
 1296SOL    HW1 4787   4.744   6.719   5.064
 1296SOL    HW2 4788   4.624   6.795   5.145
 1297SOL     OW 4789   1.384   6.383   1.807
 1297SOL    HW1 4790   1.422   6.472   1.830
 1297SOL    HW2 4791   1.351   6.383   1.712
 1298SOL     OW 4792   5.048   6.316   3.528
 1298SOL    HW1 4793   4.965   6.325   3.472
 1298SOL    HW2 4794   5.075   6.220   3.532
 1299SOL     OW 4795   2.023   2.385   3.612
 1299SOL    HW1 4796   2.080   2.326   3.554
 1299SOL    HW2 4797   2.026   2.479   3.577
 1300SOL     OW 4798   1.551   3.239   1.675
 1300SOL    HW1 4799   1.628   3.271   1.730
 1300SOL    HW2 4800   1.522   3.149   1.709
 1301SOL     OW 4801   0.950   6.487   1.812
 1301SOL    HW1 4802   0.945   6.452   1.905
 1301SOL    HW2 4803   0.885   6.438   1.754
 1302SOL     OW 4804   5.464   0.209   5.428
 1302SOL    HW1 4805   5.555   0.167   5.433
 1302SOL    HW2 4806   5.466   0.297   5.477
 1303SOL     OW 4807   4.031   0.959   1.763
 1303SOL    HW1 4808   4.102   1.004   1.709
 1303SOL    HW2 4809   3.970   1.027   1.802
 1304SOL     OW 4810   1.850   0.563   1.448
 1304SOL    HW1 4811   1.851   0.609   1.360
 1304SOL    HW2 4812   1.882   0.626   1.519
 1305SOL     OW 4813   5.450   4.086   6.648
 1305SOL    HW1 4814   5.497   4.143   6.715
 1305SOL    HW2 4815   5.507   4.006   6.626
 1306SOL     OW 4816   1.662   5.992   4.428
 1306SOL    HW1 4817   1.619   6.031   4.347
 1306SOL    HW2 4818   1.685   5.896   4.411
 1307SOL     OW 4819   2.137   3.326   4.136
 1307SOL    HW1 4820   2.173   3.320   4.229
 1307SOL    HW2 4821   2.051   3.377   4.137
 1308SOL     OW 4822   0.056   6.860   6.057
 1308SOL    HW1 4823   0.031   6.940   6.111
 1308SOL    HW2 4824   0.105   6.888   5.975
 1309SOL     OW 4825   5.373   4.205   5.523
 1309SOL    HW1 4826   5.347   4.130   5.583
 1309SOL    HW2 4827   5.294   4.264   5.508
 1310SOL     OW 4828   0.283   4.424   3.007
 1310SOL    HW1 4829   0.243   4.450   2.919
 1310SOL    HW2 4830   0.339   4.342   2.995
 1311SOL     OW 4831   6.663   5.836   6.438
 1311SOL    HW1 4832   6.753   5.802   6.412
 1311SOL    HW2 4833   6.657   5.841   6.538
 1312SOL     OW 4834   2.008   6.975   6.904
 1312SOL    HW1 4835   2.021   6.981   7.003
 1312SOL    HW2 4836   1.919   7.013   6.880
 1313SOL     OW 4837   6.458   5.076   2.459
 1313SOL    HW1 4838   6.380   5.118   2.504
 1313SOL    HW2 4839   6.533   5.066   2.525
 1314SOL     OW 4840   3.313   2.102   4.541
 1314SOL    HW1 4841   3.245   2.135   4.607
 1314SOL    HW2 4842   3.269   2.091   4.452
 1315SOL     OW 4843   6.860   0.989   3.148
 1315SOL    HW1 4844   6.850   1.086   3.168
 1315SOL    HW2 4845   6.850   0.975   3.049
 1316SOL     OW 4846   3.109   0.532   5.183
 1316SOL    HW1 4847   3.204   0.504   5.198
 1316SOL    HW2 4848   3.059   0.527   5.270
 1317SOL     OW 4849   1.573   4.063   4.898
 1317SOL    HW1 4850   1.637   4.089   4.970
 1317SOL    HW2 4851   1.484   4.104   4.917
 1318SOL     OW 4852   1.571   2.855   6.894
 1318SOL    HW1 4853   1.568   2.868   6.993
 1318SOL    HW2 4854   1.602   2.762   6.874
 1319SOL     OW 4855   0.249   5.406   0.251
 1319SOL    HW1 4856   0.177   5.453   0.199
 1319SOL    HW2 4857   0.226   5.309   0.259
 1320SOL     OW 4858   3.220   3.105   6.906
 1320SOL    HW1 4859   3.280   3.113   6.827
 1320SOL    HW2 4860   3.273   3.079   6.986
 1321SOL     OW 4861   4.898   2.300   6.726
 1321SOL    HW1 4862   4.938   2.216   6.765
 1321SOL    HW2 4863   4.868   2.360   6.800
 1322SOL     OW 4864   4.166   1.888   4.426
 1322SOL    HW1 4865   4.190   1.896   4.523
 1322SOL    HW2 4866   4.159   1.792   4.401
 1323SOL     OW 4867   3.505   6.398   0.254
 1323SOL    HW1 4868   3.508   6.483   0.202
 1323SOL    HW2 4869   3.515   6.418   0.351
 1324SOL     OW 4870   0.687   3.311   0.262
 1324SOL    HW1 4871   0.666   3.219   0.229
 1324SOL    HW2 4872   0.784   3.315   0.289
 1325SOL     OW 4873   3.961   6.379   5.022
 1325SOL    HW1 4874   3.944   6.477   5.029
 1325SOL    HW2 4875   3.878   6.333   4.989
 1326SOL     OW 4876   4.796   3.922   5.087
 1326SOL    HW1 4877   4.808   3.985   5.010
 1326SOL    HW2 4878   4.816   3.829   5.057
 1327SOL     OW 4879   1.105   6.183   1.263
 1327SOL    HW1 4880   1.053   6.219   1.340
 1327SOL    HW2 4881   1.068   6.095   1.235
 1328SOL     OW 4882   2.132   3.050   0.061
 1328SOL    HW1 4883   2.157   2.954   0.067
 1328SOL    HW2 4884   2.163   3.099   0.142
 1329SOL     OW 4885   7.018   2.477   2.402
 1329SOL    HW1 4886   0.080   2.498   2.453
 1329SOL    HW2 4887   6.997   2.380   2.413
 1330SOL     OW 4888   1.067   1.886   1.191
 1330SOL    HW1 4889   1.058   1.912   1.288
 1330SOL    HW2 4890   0.977   1.865   1.154
 1331SOL     OW 4891   4.511   2.557   2.942
 1331SOL    HW1 4892   4.511   2.608   3.028
 1331SOL    HW2 4893   4.495   2.460   2.960
 1332SOL     OW 4894   2.864   6.783   0.846
 1332SOL    HW1 4895   2.781   6.835   0.826
 1332SOL    HW2 4896   2.938   6.814   0.786
 1333SOL     OW 4897   2.877   3.517   2.984
 1333SOL    HW1 4898   2.778   3.509   2.992
 1333SOL    HW2 4899   2.918   3.425   2.984
 1334SOL     OW 4900   6.851   1.459   4.152
 1334SOL    HW1 4901   6.911   1.433   4.228
 1334SOL    HW2 4902   6.847   1.384   4.085
 1335SOL     OW 4903   2.325   2.214   2.149
 1335SOL    HW1 4904   2.410   2.192   2.198
 1335SOL    HW2 4905   2.248   2.212   2.213
 1336SOL     OW 4906   4.120   1.728   5.215
 1336SOL    HW1 4907   4.065   1.667   5.272
 1336SOL    HW2 4908   4.164   1.675   5.143
 1337SOL     OW 4909   6.929   1.601   3.164
 1337SOL    HW1 4910   6.927   1.698   3.139
 1337SOL    HW2 4911   6.939   1.546   3.081
 1338SOL     OW 4912   0.064   3.740   3.790
 1338SOL    HW1 4913   0.100   3.796   3.864
 1338SOL    HW2 4914   0.087   3.644   3.806
 1339SOL     OW 4915   6.192   1.187   6.901
 1339SOL    HW1 4916   6.265   1.252   6.921
 1339SOL    HW2 4917   6.231   1.097   6.885
 1340SOL     OW 4918   5.379   1.253   2.577
 1340SOL    HW1 4919   5.394   1.231   2.481
 1340SOL    HW2 4920   5.450   1.210   2.633
 1341SOL     OW 4921   4.720   6.249   0.361
 1341SOL    HW1 4922   4.714   6.219   0.265
 1341SOL    HW2 4923   4.815   6.272   0.382
 1342SOL     OW 4924   2.855   5.654   6.381
 1342SOL    HW1 4925   2.843   5.639   6.479
 1342SOL    HW2 4926   2.913   5.582   6.343
 1343SOL     OW 4927   5.365   5.557   2.885
 1343SOL    HW1 4928   5.270   5.527   2.894
 1343SOL    HW2 4929   5.407   5.512   2.806
 1344SOL     OW 4930   0.506   6.644   4.199
 1344SOL    HW1 4931   0.439   6.588   4.151
 1344SOL    HW2 4932   0.463   6.729   4.230
 1345SOL     OW 4933   0.767   4.882   1.847
 1345SOL    HW1 4934   0.714   4.830   1.913
 1345SOL    HW2 4935   0.777   4.976   1.878
 1346SOL     OW 4936   2.655   5.683   5.830
 1346SOL    HW1 4937   2.746   5.663   5.866
 1346SOL    HW2 4938   2.640   5.634   5.745
 1347SOL     OW 4939   0.744   6.544   6.840
 1347SOL    HW1 4940   0.781   6.474   6.780
 1347SOL    HW2 4941   0.819   6.583   6.895
 1348SOL     OW 4942   0.028   6.557   5.198
 1348SOL    HW1 4943   7.008   6.638   5.156
 1348SOL    HW2 4944   6.996   6.531   5.278
 1349SOL     OW 4945   5.189   2.747   4.591
 1349SOL    HW1 4946   5.155   2.662   4.632
 1349SOL    HW2 4947   5.286   2.757   4.612
 1350SOL     OW 4948   4.714   5.072   5.446
 1350SOL    HW1 4949   4.641   5.134   5.417
 1350SOL    HW2 4950   4.798   5.096   5.397
 1351SOL     OW 4951   5.237   2.594   4.070
 1351SOL    HW1 4952   5.274   2.516   4.021
 1351SOL    HW2 4953   5.266   2.679   4.025
 1352SOL     OW 4954   6.602   6.362   4.375
 1352SOL    HW1 4955   6.700   6.350   4.392
 1352SOL    HW2 4956   6.579   6.459   4.375
 1353SOL     OW 4957   0.848   1.999   0.378
 1353SOL    HW1 4958   0.909   1.939   0.429
 1353SOL    HW2 4959   0.829   2.081   0.432
 1354SOL     OW 4960   6.769   4.516   2.216
 1354SOL    HW1 4961   6.687   4.458   2.223
 1354SOL    HW2 4962   6.786   4.538   2.120
 1355SOL     OW 4963   6.146   4.193   3.940
 1355SOL    HW1 4964   6.184   4.286   3.948
 1355SOL    HW2 4965   6.176   4.139   4.018
 1356SOL     OW 4966   3.701   3.212   2.085
 1356SOL    HW1 4967   3.791   3.211   2.043
 1356SOL    HW2 4968   3.684   3.125   2.130
 1357SOL     OW 4969   6.975   4.835   6.415
 1357SOL    HW1 4970   0.021   4.799   6.350
 1357SOL    HW2 4971   6.900   4.878   6.365
 1358SOL     OW 4972   6.249   6.654   6.996
 1358SOL    HW1 4973   6.295   6.740   7.017
 1358SOL    HW2 4974   6.302   6.604   6.927
 1359SOL     OW 4975   5.967   4.370   2.359
 1359SOL    HW1 4976   6.025   4.421   2.423
 1359SOL    HW2 4977   5.883   4.343   2.406
 1360SOL     OW 4978   2.215   3.156   0.293
 1360SOL    HW1 4979   2.301   3.207   0.297
 1360SOL    HW2 4980   2.223   3.074   0.350
 1361SOL     OW 4981   6.632   4.500   4.479
 1361SOL    HW1 4982   6.708   4.496   4.544
 1361SOL    HW2 4983   6.649   4.573   4.413
 1362SOL     OW 4984   3.945   3.779   2.885
 1362SOL    HW1 4985   3.993   3.748   2.967
 1362SOL    HW2 4986   4.005   3.765   2.805
 1363SOL     OW 4987   0.251   5.614   4.305
 1363SOL    HW1 4988   0.253   5.514   4.299
 1363SOL    HW2 4989   0.171   5.643   4.357
 1364SOL     OW 4990   5.228   4.155   0.343
 1364SOL    HW1 4991   5.301   4.212   0.382
 1364SOL    HW2 4992   5.141   4.205   0.347
 1365SOL     OW 4993   1.027   4.460   6.313
 1365SOL    HW1 4994   1.094   4.459   6.238
 1365SOL    HW2 4995   0.976   4.546   6.310
 1366SOL     OW 4996   1.775   6.391   6.312
 1366SOL    HW1 4997   1.708   6.459   6.343
 1366SOL    HW2 4998   1.726   6.310   6.280
 1367SOL     OW 4999   2.270   0.258   2.348
 1367SOL    HW1 5000   2.202   0.295   2.412
 1367SOL    HW2 5001   2.347   0.220   2.400
 1368SOL     OW 5002   5.146   6.989   4.935
 1368SOL    HW1 5003   5.175   0.064   4.933
 1368SOL    HW2 5004   5.214   6.933   4.888
 1369SOL     OW 5005   1.693   6.641   3.002
 1369SOL    HW1 5006   1.661   6.691   2.921
 1369SOL    HW2 5007   1.634   6.561   3.017
 1370SOL     OW 5008   3.478   0.932   1.796
 1370SOL    HW1 5009   3.417   0.867   1.752
 1370SOL    HW2 5010   3.430   1.018   1.811
 1371SOL     OW 5011   4.769   1.370   4.679
 1371SOL    HW1 5012   4.804   1.414   4.762
 1371SOL    HW2 5013   4.759   1.439   4.607
 1372SOL     OW 5014   1.695   3.236   1.315
 1372SOL    HW1 5015   1.639   3.171   1.366
 1372SOL    HW2 5016   1.649   3.260   1.230
 1373SOL     OW 5017   6.523   4.244   0.758
 1373SOL    HW1 5018   6.517   4.284   0.849
 1373SOL    HW2 5019   6.433   4.245   0.715
 1374SOL     OW 5020   4.056   2.078   0.782
 1374SOL    HW1 5021   3.984   2.126   0.732
 1374SOL    HW2 5022   4.123   2.144   0.816
 1375SOL     OW 5023   0.099   5.261   6.027
 1375SOL    HW1 5024   0.032   5.329   5.998
 1375SOL    HW2 5025   0.188   5.306   6.041
 1376SOL     OW 5026   4.658   2.798   3.406
 1376SOL    HW1 5027   4.639   2.748   3.491
 1376SOL    HW2 5028   4.730   2.865   3.423
 1377SOL     OW 5029   6.853   4.165   6.057
 1377SOL    HW1 5030   6.799   4.246   6.079
 1377SOL    HW2 5031   6.875   4.165   5.959
 1378SOL     OW 5032   0.435   2.482   4.967
 1378SOL    HW1 5033   0.533   2.499   4.961
 1378SOL    HW2 5034   0.408   2.417   4.896
 1379SOL     OW 5035   3.144   6.542   2.691
 1379SOL    HW1 5036   3.224   6.488   2.718
 1379SOL    HW2 5037   3.169   6.639   2.685
 1380SOL     OW 5038   6.781   6.944   2.660
 1380SOL    HW1 5039   6.749   6.949   2.565
 1380SOL    HW2 5040   6.778   6.848   2.690
 1381SOL     OW 5041   5.307   2.641   0.193
 1381SOL    HW1 5042   5.267   2.686   0.273
 1381SOL    HW2 5043   5.324   2.545   0.214
 1382SOL     OW 5044   6.238   4.811   6.366
 1382SOL    HW1 5045   6.242   4.732   6.305
 1382SOL    HW2 5046   6.176   4.879   6.328
 1383SOL     OW 5047   0.723   1.347   0.126
 1383SOL    HW1 5048   0.638   1.345   0.074
 1383SOL    HW2 5049   0.737   1.259   0.172
 1384SOL     OW 5050   3.419   1.413   3.753
 1384SOL    HW1 5051   3.353   1.374   3.689
 1384SOL    HW2 5052   3.372   1.436   3.839
 1385SOL     OW 5053   6.847   2.801   3.296
 1385SOL    HW1 5054   6.785   2.871   3.331
 1385SOL    HW2 5055   6.941   2.824   3.320
 1386SOL     OW 5056   2.074   2.873   4.141
 1386SOL    HW1 5057   2.076   2.961   4.093
 1386SOL    HW2 5058   2.155   2.864   4.199
 1387SOL     OW 5059   3.353   0.743   4.084
 1387SOL    HW1 5060   3.356   0.715   4.180
 1387SOL    HW2 5061   3.439   0.788   4.059
 1388SOL     OW 5062   6.177   6.941   4.110
 1388SOL    HW1 5063   6.197   6.843   4.106
 1388SOL    HW2 5064   6.225   6.988   4.036
 1389SOL     OW 5065   6.837   0.476   4.481
 1389SOL    HW1 5066   6.779   0.546   4.522
 1389SOL    HW2 5067   6.793   0.386   4.490
 1390SOL     OW 5068   4.024   1.479   0.057
 1390SOL    HW1 5069   3.947   1.498   0.118
 1390SOL    HW2 5070   4.051   1.562   0.009
 1391SOL     OW 5071   6.228   1.161   5.311
 1391SOL    HW1 5072   6.287   1.192   5.386
 1391SOL    HW2 5073   6.268   1.190   5.224
 1392SOL     OW 5074   4.951   5.662   5.786
 1392SOL    HW1 5075   4.883   5.730   5.813
 1392SOL    HW2 5076   4.939   5.579   5.840
 1393SOL     OW 5077   6.391   1.737   6.675
 1393SOL    HW1 5078   6.454   1.718   6.600
 1393SOL    HW2 5079   6.401   1.833   6.704
 1394SOL     OW 5080   3.978   6.354   3.219
 1394SOL    HW1 5081   3.926   6.438   3.209
 1394SOL    HW2 5082   3.915   6.278   3.236
 1395SOL     OW 5083   0.406   3.998   2.383
 1395SOL    HW1 5084   0.332   3.957   2.330
 1395SOL    HW2 5085   0.376   4.084   2.424
 1396SOL     OW 5086   1.603   1.150   4.448
 1396SOL    HW1 5087   1.648   1.062   4.433
 1396SOL    HW2 5088   1.586   1.194   4.360
 1397SOL     OW 5089   0.090   5.433   4.886
 1397SOL    HW1 5090   0.015   5.494   4.864
 1397SOL    HW2 5091   0.138   5.466   4.967
 1398SOL     OW 5092   2.210   1.315   0.065
 1398SOL    HW1 5093   2.300   1.356   0.048
 1398SOL    HW2 5094   2.139   1.375   0.029
 1399SOL     OW 5095   4.483   6.927   0.387
 1399SOL    HW1 5096   4.538   7.002   0.423
 1399SOL    HW2 5097   4.396   6.963   0.353
 1400SOL     OW 5098   6.681   0.491   4.046
 1400SOL    HW1 5099   6.719   0.533   4.128
 1400SOL    HW2 5100   6.611   0.551   4.006
 1401SOL     OW 5101   5.487   0.055   4.648
 1401SOL    HW1 5102   5.535   0.138   4.675
 1401SOL    HW2 5103   5.399   0.079   4.607
 1402SOL     OW 5104   5.743   3.953   0.636
 1402SOL    HW1 5105   5.733   3.867   0.687
 1402SOL    HW2 5106   5.653   3.993   0.620
 1403SOL     OW 5107   3.261   3.432   0.328
 1403SOL    HW1 5108   3.320   3.377   0.269
 1403SOL    HW2 5109   3.303   3.522   0.342
 1404SOL     OW 5110   4.778   0.548   1.233
 1404SOL    HW1 5111   4.852   0.532   1.168
 1404SOL    HW2 5112   4.693   0.509   1.198
 1405SOL     OW 5113   1.926   3.722   1.074
 1405SOL    HW1 5114   1.924   3.623   1.079
 1405SOL    HW2 5115   1.832   3.757   1.072
 1406SOL     OW 5116   2.563   3.517   1.439
 1406SOL    HW1 5117   2.480   3.570   1.452
 1406SOL    HW2 5118   2.560   3.474   1.348
 1407SOL     OW 5119   0.747   3.604   1.486
 1407SOL    HW1 5120   0.673   3.640   1.429
 1407SOL    HW2 5121   0.740   3.642   1.578
 1408SOL     OW 5122   6.377   5.650   6.554
 1408SOL    HW1 5123   6.342   5.565   6.516
 1408SOL    HW2 5124   6.408   5.709   6.480
 1409SOL     OW 5125   0.197   1.316   5.714
 1409SOL    HW1 5126   0.164   1.223   5.700
 1409SOL    HW2 5127   0.296   1.314   5.730
 1410SOL     OW 5128   2.720   2.932   5.980
 1410SOL    HW1 5129   2.738   2.889   5.891
 1410SOL    HW2 5130   2.631   2.903   6.014
 1411SOL     OW 5131   3.952   5.856   6.828
 1411SOL    HW1 5132   3.896   5.800   6.766
 1411SOL    HW2 5133   4.047   5.856   6.795
 1412SOL     OW 5134   1.176   2.719   0.726
 1412SOL    HW1 5135   1.176   2.623   0.696
 1412SOL    HW2 5136   1.216   2.725   0.818
 1413SOL     OW 5137   2.115   2.145   5.357
 1413SOL    HW1 5138   2.178   2.221   5.337
 1413SOL    HW2 5139   2.132   2.112   5.450
 1414SOL     OW 5140   0.776   3.313   2.266
 1414SOL    HW1 5141   0.711   3.320   2.341
 1414SOL    HW2 5142   0.869   3.303   2.303
 1415SOL     OW 5143   2.471   2.236   4.482
 1415SOL    HW1 5144   2.527   2.289   4.546
 1415SOL    HW2 5145   2.443   2.294   4.406
 1416SOL     OW 5146   4.275   0.023   5.710
 1416SOL    HW1 5147   4.237   0.069   5.630
 1416SOL    HW2 5148   4.206   6.983   5.748
 1417SOL     OW 5149   2.893   3.148   5.996
 1417SOL    HW1 5150   2.836   3.067   5.988
 1417SOL    HW2 5151   2.949   3.142   6.079
 1418SOL     OW 5152   3.529   3.943   0.133
 1418SOL    HW1 5153   3.501   4.038   0.118
 1418SOL    HW2 5154   3.626   3.940   0.158
 1419SOL     OW 5155   1.956   4.682   4.032
 1419SOL    HW1 5156   2.025   4.610   4.022
 1419SOL    HW2 5157   1.992   4.769   3.998
 1420SOL     OW 5158   3.890   4.833   2.594
 1420SOL    HW1 5159   3.971   4.829   2.653
 1420SOL    HW2 5160   3.858   4.740   2.577
 1421SOL     OW 5161   1.087   4.600   5.219
 1421SOL    HW1 5162   1.037   4.675   5.176
 1421SOL    HW2 5163   1.127   4.542   5.148
 1422SOL     OW 5164   2.341   4.133   6.025
 1422SOL    HW1 5165   2.320   4.174   5.937
 1422SOL    HW2 5166   2.366   4.205   6.090
 1423SOL     OW 5167   4.254   1.811   4.674
 1423SOL    HW1 5168   4.201   1.873   4.732
 1423SOL    HW2 5169   4.226   1.717   4.691
 1424SOL     OW 5170   6.222   2.998   6.783
 1424SOL    HW1 5171   6.220   2.899   6.792
 1424SOL    HW2 5172   6.314   3.027   6.755
 1425SOL     OW 5173   3.745   6.044   4.777
 1425SOL    HW1 5174   3.780   6.062   4.685
 1425SOL    HW2 5175   3.647   6.023   4.772
 1426SOL     OW 5176   2.642   1.790   6.427
 1426SOL    HW1 5177   2.658   1.747   6.516
 1426SOL    HW2 5178   2.689   1.737   6.356
 1427SOL     OW 5179   1.130   1.246   2.855
 1427SOL    HW1 5180   1.184   1.192   2.919
 1427SOL    HW2 5181   1.034   1.243   2.883
 1428SOL     OW 5182   0.141   2.832   2.536
 1428SOL    HW1 5183   0.177   2.739   2.544
 1428SOL    HW2 5184   0.119   2.850   2.441
 1429SOL     OW 5185   6.391   1.643   0.395
 1429SOL    HW1 5186   6.341   1.567   0.437
 1429SOL    HW2 5187   6.345   1.729   0.415
 1430SOL     OW 5188   2.421   4.386   3.916
 1430SOL    HW1 5189   2.436   4.420   3.823
 1430SOL    HW2 5190   2.447   4.290   3.921
 1431SOL     OW 5191   2.607   1.459   5.846
 1431SOL    HW1 5192   2.594   1.398   5.769
 1431SOL    HW2 5193   2.610   1.406   5.931
 1432SOL     OW 5194   2.314   1.065   1.157
 1432SOL    HW1 5195   2.322   1.164   1.166
 1432SOL    HW2 5196   2.260   1.029   1.234
 1433SOL     OW 5197   3.092   0.795   3.997
 1433SOL    HW1 5198   3.068   0.874   3.941
 1433SOL    HW2 5199   3.191   0.796   4.015
 1434SOL     OW 5200   0.109   2.466   6.291
 1434SOL    HW1 5201   0.195   2.414   6.293
 1434SOL    HW2 5202   0.120   2.551   6.343
 1435SOL     OW 5203   0.594   0.637   3.557
 1435SOL    HW1 5204   0.661   0.693   3.606
 1435SOL    HW2 5205   0.541   0.696   3.495
 1436SOL     OW 5206   6.053   2.470   0.682
 1436SOL    HW1 5207   5.988   2.462   0.607
 1436SOL    HW2 5208   6.036   2.556   0.732
 1437SOL     OW 5209   4.575   1.175   6.060
 1437SOL    HW1 5210   4.562   1.077   6.043
 1437SOL    HW2 5211   4.671   1.199   6.047
 1438SOL     OW 5212   2.512   1.077   1.407
 1438SOL    HW1 5213   2.535   1.173   1.394
 1438SOL    HW2 5214   2.563   1.022   1.341
 1439SOL     OW 5215   0.032   5.499   6.848
 1439SOL    HW1 5216   0.046   5.523   6.944
 1439SOL    HW2 5217   0.107   5.440   6.817
 1440SOL     OW 5218   3.177   3.003   4.054
 1440SOL    HW1 5219   3.132   3.029   3.969
 1440SOL    HW2 5220   3.239   3.076   4.084
 1441SOL     OW 5221   6.324   3.079   4.370
 1441SOL    HW1 5222   6.350   3.104   4.463
 1441SOL    HW2 5223   6.332   3.160   4.311
 1442SOL     OW 5224   5.801   4.191   0.410
 1442SOL    HW1 5225   5.876   4.165   0.471
 1442SOL    HW2 5226   5.826   4.274   0.361
 1443SOL     OW 5227   0.941   0.873   3.240
 1443SOL    HW1 5228   0.965   0.940   3.310
 1443SOL    HW2 5229   1.024   0.839   3.197
 1444SOL     OW 5230   4.589   0.248   3.542
 1444SOL    HW1 5231   4.675   0.290   3.569
 1444SOL    HW2 5232   4.521   0.320   3.525
 1445SOL     OW 5233   7.009   2.422   1.334
 1445SOL    HW1 5234   7.015   2.353   1.407
 1445SOL    HW2 5235   0.068   2.481   1.338
 1446SOL     OW 5236   3.709   2.063   1.311
 1446SOL    HW1 5237   3.808   2.075   1.309
 1446SOL    HW2 5238   3.673   2.104   1.395
 1447SOL     OW 5239   6.746   0.767   5.129
 1447SOL    HW1 5240   6.741   0.858   5.171
 1447SOL    HW2 5241   6.834   0.758   5.081
 1448SOL     OW 5242   5.437   1.699   0.587
 1448SOL    HW1 5243   5.378   1.631   0.631
 1448SOL    HW2 5244   5.509   1.653   0.535
 1449SOL     OW 5245   5.539   6.435   0.726
 1449SOL    HW1 5246   5.449   6.462   0.760
 1449SOL    HW2 5247   5.529   6.387   0.639
 1450SOL     OW 5248   5.755   2.821   2.903
 1450SOL    HW1 5249   5.744   2.893   2.971
 1450SOL    HW2 5250   5.691   2.836   2.828
 1451SOL     OW 5251   2.171   6.640   3.044
 1451SOL    HW1 5252   2.111   6.623   2.966
 1451SOL    HW2 5253   2.235   6.714   3.021
 1452SOL     OW 5254   5.104   0.617   4.991
 1452SOL    HW1 5255   5.032   0.586   5.054
 1452SOL    HW2 5256   5.175   0.547   4.986
 1453SOL     OW 5257   5.584   4.223   4.589
 1453SOL    HW1 5258   5.512   4.282   4.625
 1453SOL    HW2 5259   5.544   4.139   4.553
 1454SOL     OW 5260   5.551   3.068   2.120
 1454SOL    HW1 5261   5.528   3.121   2.039
 1454SOL    HW2 5262   5.477   3.004   2.141
 1455SOL     OW 5263   1.166   0.841   1.908
 1455SOL    HW1 5264   1.160   0.749   1.870
 1455SOL    HW2 5265   1.216   0.900   1.844
 1456SOL     OW 5266   6.766   0.014   4.321
 1456SOL    HW1 5267   6.691   0.046   4.264
 1456SOL    HW2 5268   6.760   6.937   4.335
 1457SOL     OW 5269   1.150   0.328   3.578
 1457SOL    HW1 5270   1.249   0.338   3.591
 1457SOL    HW2 5271   1.116   0.404   3.523
 1458SOL     OW 5272   5.140   6.834   5.656
 1458SOL    HW1 5273   5.051   6.789   5.647
 1458SOL    HW2 5274   5.152   6.864   5.751
 1459SOL     OW 5275   2.980   6.392   6.782
 1459SOL    HW1 5276   3.002   6.401   6.879
 1459SOL    HW2 5277   2.883   6.370   6.772
 1460SOL     OW 5278   0.795   6.420   0.201
 1460SOL    HW1 5279   0.706   6.377   0.217
 1460SOL    HW2 5280   0.797   6.459   0.109
 1461SOL     OW 5281   5.902   4.210   3.551
 1461SOL    HW1 5282   5.823   4.172   3.503
 1461SOL    HW2 5283   5.974   4.231   3.485
 1462SOL     OW 5284   6.161   1.286   0.991
 1462SOL    HW1 5285   6.246   1.338   0.993
 1462SOL    HW2 5286   6.092   1.332   1.047
 1463SOL     OW 5287   0.925   0.488   5.091
 1463SOL    HW1 5288   1.007   0.468   5.039
 1463SOL    HW2 5289   0.883   0.402   5.121
 1464SOL     OW 5290   0.228   6.765   0.563
 1464SOL    HW1 5291   0.181   6.852   0.581
 1464SOL    HW2 5292   0.314   6.784   0.515
 1465SOL     OW 5293   0.179   0.384   3.657
 1465SOL    HW1 5294   0.181   0.453   3.585
 1465SOL    HW2 5295   0.270   0.379   3.700
 1466SOL     OW 5296   6.600   5.557   2.717
 1466SOL    HW1 5297   6.684   5.513   2.685
 1466SOL    HW2 5298   6.533   5.487   2.741
 1467SOL     OW 5299   1.863   0.986   3.233
 1467SOL    HW1 5300   1.838   0.961   3.327
 1467SOL    HW2 5301   1.784   0.975   3.173
 1468SOL     OW 5302   5.702   5.186   3.518
 1468SOL    HW1 5303   5.731   5.202   3.423
 1468SOL    HW2 5304   5.678   5.273   3.561
 1469SOL     OW 5305   0.540   0.510   2.883
 1469SOL    HW1 5306   0.637   0.485   2.877
 1469SOL    HW2 5307   0.520   0.582   2.818
 1470SOL     OW 5308   1.521   0.979   2.784
 1470SOL    HW1 5309   1.496   0.924   2.705
 1470SOL    HW2 5310   1.579   1.055   2.755
 1471SOL     OW 5311   6.829   0.282   0.091
 1471SOL    HW1 5312   6.926   0.276   0.114
 1471SOL    HW2 5313   6.818   0.283   7.013
 1472SOL     OW 5314   4.590   0.192   4.940
 1472SOL    HW1 5315   4.566   0.218   4.847
 1472SOL    HW2 5316   4.659   0.254   4.975
 1473SOL     OW 5317   6.170   5.606   3.010
 1473SOL    HW1 5318   6.168   5.605   3.110
 1473SOL    HW2 5319   6.252   5.559   2.978
 1474SOL     OW 5320   6.336   5.392   4.007
 1474SOL    HW1 5321   6.409   5.432   4.062
 1474SOL    HW2 5322   6.371   5.372   3.915
 1475SOL     OW 5323   0.174   0.422   2.487
 1475SOL    HW1 5324   0.095   0.388   2.539
 1475SOL    HW2 5325   0.250   0.359   2.497
 1476SOL     OW 5326   1.548   0.790   1.886
 1476SOL    HW1 5327   1.612   0.713   1.895
 1476SOL    HW2 5328   1.526   0.826   1.976
 1477SOL     OW 5329   3.363   0.460   5.677
 1477SOL    HW1 5330   3.434   0.399   5.642
 1477SOL    HW2 5331   3.308   0.412   5.745
 1478SOL     OW 5332   6.423   5.381   0.783
 1478SOL    HW1 5333   6.457   5.287   0.780
 1478SOL    HW2 5334   6.497   5.444   0.761
 1479SOL     OW 5335   1.959   4.786   0.356
 1479SOL    HW1 5336   2.052   4.804   0.323
 1479SOL    HW2 5337   1.896   4.850   0.313
 1480SOL     OW 5338   2.137   1.327   6.345
 1480SOL    HW1 5339   2.163   1.422   6.326
 1480SOL    HW2 5340   2.208   1.284   6.401
 1481SOL     OW 5341   5.890   2.115   5.806
 1481SOL    HW1 5342   5.985   2.143   5.794
 1481SOL    HW2 5343   5.834   2.194   5.829
 1482SOL     OW 5344   5.276   0.828   1.018
 1482SOL    HW1 5345   5.346   0.766   1.053
 1482SOL    HW2 5346   5.207   0.776   0.967
 1483SOL     OW 5347   6.441   2.420   0.153
 1483SOL    HW1 5348   6.400   2.391   0.067
 1483SOL    HW2 5349   6.517   2.360   0.177
 1484SOL     OW 5350   6.446   4.674   2.502
 1484SOL    HW1 5351   6.538   4.636   2.499
 1484SOL    HW2 5352   6.383   4.606   2.540
 1485SOL     OW 5353   5.686   2.494   2.786
 1485SOL    HW1 5354   5.673   2.574   2.845
 1485SOL    HW2 5355   5.627   2.501   2.706
 1486SOL     OW 5356   4.463   2.273   2.969
 1486SOL    HW1 5357   4.462   2.177   2.941
 1486SOL    HW2 5358   4.387   2.291   3.032
 1487SOL     OW 5359   6.128   1.351   6.200
 1487SOL    HW1 5360   6.090   1.405   6.125
 1487SOL    HW2 5361   6.165   1.411   6.270
 1488SOL     OW 5362   4.672   1.275   3.309
 1488SOL    HW1 5363   4.743   1.220   3.354
 1488SOL    HW2 5364   4.584   1.228   3.317
 1489SOL     OW 5365   3.517   4.937   4.640
 1489SOL    HW1 5366   3.591   4.871   4.626
 1489SOL    HW2 5367   3.493   4.980   4.553
 1490SOL     OW 5368   1.312   1.490   0.181
 1490SOL    HW1 5369   1.338   1.397   0.208
 1490SOL    HW2 5370   1.335   1.504   0.085
 1491SOL     OW 5371   6.962   3.685   2.995
 1491SOL    HW1 5372   0.031   3.659   3.029
 1491SOL    HW2 5373   6.893   3.666   3.065
 1492SOL     OW 5374   5.098   2.070   1.550
 1492SOL    HW1 5375   5.057   2.013   1.622
 1492SOL    HW2 5376   5.029   2.133   1.515
 1493SOL     OW 5377   4.463   0.376   4.765
 1493SOL    HW1 5378   4.438   0.359   4.670
 1493SOL    HW2 5379   4.409   0.452   4.801
 1494SOL     OW 5380   3.848   2.448   5.915
 1494SOL    HW1 5381   3.782   2.377   5.892
 1494SOL    HW2 5382   3.824   2.489   6.002
 1495SOL     OW 5383   0.461   3.537   3.128
 1495SOL    HW1 5384   0.373   3.560   3.170
 1495SOL    HW2 5385   0.529   3.519   3.199
 1496SOL     OW 5386   6.573   0.158   2.048
 1496SOL    HW1 5387   6.578   0.175   2.147
 1496SOL    HW2 5388   6.600   0.241   1.999
 1497SOL     OW 5389   0.231   5.382   4.092
 1497SOL    HW1 5390   0.280   5.325   4.157
 1497SOL    HW2 5391   0.295   5.440   4.043
 1498SOL     OW 5392   2.789   4.494   6.002
 1498SOL    HW1 5393   2.728   4.520   5.927
 1498SOL    HW2 5394   2.764   4.544   6.085
 1499SOL     OW 5395   1.195   3.640   5.192
 1499SOL    HW1 5396   1.210   3.559   5.248
 1499SOL    HW2 5397   1.227   3.721   5.241
 1500SOL     OW 5398   5.364   0.014   0.563
 1500SOL    HW1 5399   5.381   6.944   0.599
 1500SOL    HW2 5400   5.363   0.080   0.638
 1501SOL     OW 5401   4.148   0.305   6.567
 1501SOL    HW1 5402   4.241   0.281   6.592
 1501SOL    HW2 5403   4.094   0.322   6.650
 1502SOL     OW 5404   6.430   6.348   6.873
 1502SOL    HW1 5405   6.401   6.399   6.954
 1502SOL    HW2 5406   6.530   6.345   6.870
 1503SOL     OW 5407   2.176   2.573   0.168
 1503SOL    HW1 5408   2.192   2.651   0.107
 1503SOL    HW2 5409   2.164   2.490   0.113
 1504SOL     OW 5410   3.119   0.072   4.670
 1504SOL    HW1 5411   3.128   0.086   4.572
 1504SOL    HW2 5412   3.030   0.104   4.701
 1505SOL     OW 5413   5.856   0.333   5.268
 1505SOL    HW1 5414   5.871   0.426   5.237
 1505SOL    HW2 5415   5.809   0.334   5.357
 1506SOL     OW 5416   1.154   5.049   3.430
 1506SOL    HW1 5417   1.067   5.039   3.478
 1506SOL    HW2 5418   1.175   5.146   3.419
 1507SOL     OW 5419   1.787   2.089   4.660
 1507SOL    HW1 5420   1.851   2.152   4.616
 1507SOL    HW2 5421   1.759   2.019   4.593
 1508SOL     OW 5422   4.294   0.149   0.892
 1508SOL    HW1 5423   4.344   0.109   0.969
 1508SOL    HW2 5424   4.279   0.246   0.909
 1509SOL     OW 5425   4.580   3.075   6.135
 1509SOL    HW1 5426   4.612   3.046   6.045
 1509SOL    HW2 5427   4.482   3.060   6.143
 1510SOL     OW 5428   6.611   2.321   4.636
 1510SOL    HW1 5429   6.547   2.364   4.699
 1510SOL    HW2 5430   6.680   2.388   4.609
 1511SOL     OW 5431   2.736   1.661   6.700
 1511SOL    HW1 5432   2.815   1.602   6.686
 1511SOL    HW2 5433   2.678   1.623   6.772
 1512SOL     OW 5434   0.260   0.428   1.487
 1512SOL    HW1 5435   0.257   0.522   1.453
 1512SOL    HW2 5436   0.355   0.397   1.491
 1513SOL     OW 5437   3.817   0.109   3.982
 1513SOL    HW1 5438   3.784   0.030   4.033
 1513SOL    HW2 5439   3.910   0.132   4.012
 1514SOL     OW 5440   5.610   1.734   5.247
 1514SOL    HW1 5441   5.691   1.718   5.303
 1514SOL    HW2 5442   5.557   1.649   5.242
 1515SOL     OW 5443   0.094   4.020   5.389
 1515SOL    HW1 5444   0.035   4.006   5.310
 1515SOL    HW2 5445   0.132   3.932   5.418
 1516SOL     OW 5446   0.587   0.992   0.697
 1516SOL    HW1 5447   0.491   1.020   0.707
 1516SOL    HW2 5448   0.643   1.072   0.677
 1517SOL     OW 5449   4.527   5.220   3.583
 1517SOL    HW1 5450   4.465   5.277   3.529
 1517SOL    HW2 5451   4.566   5.275   3.657
 1518SOL     OW 5452   6.360   4.175   0.229
 1518SOL    HW1 5453   6.382   4.175   0.131
 1518SOL    HW2 5454   6.444   4.182   0.282
 1519SOL     OW 5455   0.018   4.660   1.269
 1519SOL    HW1 5456   0.053   4.578   1.313
 1519SOL    HW2 5457   6.940   4.667   1.284
 1520SOL     OW 5458   2.128   3.564   2.246
 1520SOL    HW1 5459   2.161   3.557   2.152
 1520SOL    HW2 5460   2.141   3.477   2.293
 1521SOL     OW 5461   1.613   3.328   0.216
 1521SOL    HW1 5462   1.638   3.422   0.238
 1521SOL    HW2 5463   1.588   3.280   0.300
 1522SOL     OW 5464   6.880   1.819   6.276
 1522SOL    HW1 5465   6.927   1.842   6.191
 1522SOL    HW2 5466   6.792   1.867   6.280
 1523SOL     OW 5467   6.006   2.969   0.178
 1523SOL    HW1 5468   5.999   2.870   0.171
 1523SOL    HW2 5469   5.916   3.010   0.163
 1524SOL     OW 5470   0.644   1.539   1.483
 1524SOL    HW1 5471   0.713   1.538   1.555
 1524SOL    HW2 5472   0.657   1.460   1.423
 1525SOL     OW 5473   4.169   1.496   5.747
 1525SOL    HW1 5474   4.256   1.543   5.760
 1525SOL    HW2 5475   4.094   1.555   5.777
 1526SOL     OW 5476   6.885   1.780   1.386
 1526SOL    HW1 5477   6.982   1.789   1.411
 1526SOL    HW2 5478   6.846   1.701   1.433
 1527SOL     OW 5479   3.340   1.648   5.036
 1527SOL    HW1 5480   3.310   1.660   4.942
 1527SOL    HW2 5481   3.315   1.728   5.090
 1528SOL     OW 5482   4.817   6.308   2.780
 1528SOL    HW1 5483   4.870   6.225   2.798
 1528SOL    HW2 5484   4.762   6.331   2.860
 1529SOL     OW 5485   4.354   0.893   5.950
 1529SOL    HW1 5486   4.439   0.841   5.939
 1529SOL    HW2 5487   4.278   0.843   5.908
 1530SOL     OW 5488   2.958   6.458   2.035
 1530SOL    HW1 5489   3.010   6.419   1.959
 1530SOL    HW2 5490   2.862   6.432   2.026
 1531SOL     OW 5491   6.198   0.619   4.592
 1531SOL    HW1 5492   6.102   0.594   4.608
 1531SOL    HW2 5493   6.204   0.678   4.511
 1532SOL     OW 5494   3.215   2.366   5.417
 1532SOL    HW1 5495   3.203   2.365   5.318
 1532SOL    HW2 5496   3.148   2.307   5.460
 1533SOL     OW 5497   6.616   3.310   6.639
 1533SOL    HW1 5498   6.627   3.408   6.654
 1533SOL    HW2 5499   6.692   3.261   6.682
 1534SOL     OW 5500   1.634   5.707   0.427
 1534SOL    HW1 5501   1.591   5.625   0.388
 1534SOL    HW2 5502   1.611   5.713   0.524
 1535SOL     OW 5503   5.394   5.266   4.381
 1535SOL    HW1 5504   5.347   5.312   4.306
 1535SOL    HW2 5505   5.492   5.267   4.365
 1536SOL     OW 5506   2.433   5.385   4.196
 1536SOL    HW1 5507   2.395   5.320   4.262
 1536SOL    HW2 5508   2.491   5.451   4.244
 1537SOL     OW 5509   3.095   5.517   3.633
 1537SOL    HW1 5510   3.073   5.562   3.720
 1537SOL    HW2 5511   3.167   5.568   3.587
 1538SOL     OW 5512   2.975   3.982   6.565
 1538SOL    HW1 5513   2.998   3.990   6.468
 1538SOL    HW2 5514   2.917   3.901   6.578
 1539SOL     OW 5515   3.803   4.463   1.679
 1539SOL    HW1 5516   3.823   4.373   1.719
 1539SOL    HW2 5517   3.727   4.505   1.729
 1540SOL     OW 5518   0.864   0.397   4.245
 1540SOL    HW1 5519   0.863   0.467   4.174
 1540SOL    HW2 5520   0.952   0.398   4.292
 1541SOL     OW 5521   3.685   3.067   1.391
 1541SOL    HW1 5522   3.653   3.024   1.307
 1541SOL    HW2 5523   3.642   3.157   1.401
 1542SOL     OW 5524   0.406   5.914   1.520
 1542SOL    HW1 5525   0.494   5.946   1.485
 1542SOL    HW2 5526   0.344   5.897   1.444
 1543SOL     OW 5527   3.310   3.252   3.850
 1543SOL    HW1 5528   3.314   3.322   3.779
 1543SOL    HW2 5529   3.401   3.214   3.865
 1544SOL     OW 5530   2.956   3.763   2.420
 1544SOL    HW1 5531   2.864   3.758   2.383
 1544SOL    HW2 5532   3.012   3.689   2.382
 1545SOL     OW 5533   6.141   0.843   5.256
 1545SOL    HW1 5534   6.179   0.926   5.296
 1545SOL    HW2 5535   6.095   0.866   5.170
 1546SOL     OW 5536   6.274   0.272   6.406
 1546SOL    HW1 5537   6.216   0.301   6.330
 1546SOL    HW2 5538   6.369   0.299   6.389
 1547SOL     OW 5539   2.517   4.740   2.550
 1547SOL    HW1 5540   2.549   4.744   2.456
 1547SOL    HW2 5541   2.506   4.832   2.586
 1548SOL     OW 5542   3.838   4.550   5.380
 1548SOL    HW1 5543   3.835   4.551   5.480
 1548SOL    HW2 5544   3.752   4.513   5.344
 1549SOL     OW 5545   6.280   1.641   1.601
 1549SOL    HW1 5546   6.310   1.609   1.691
 1549SOL    HW2 5547   6.320   1.731   1.582
 1550SOL     OW 5548   2.575   6.581   5.223
 1550SOL    HW1 5549   2.561   6.633   5.138
 1550SOL    HW2 5550   2.644   6.627   5.279
 1551SOL     OW 5551   1.742   2.840   1.289
 1551SOL    HW1 5552   1.839   2.862   1.281
 1551SOL    HW2 5553   1.717   2.835   1.386
 1552SOL     OW 5554   1.227   7.006   1.232
 1552SOL    HW1 5555   1.145   0.033   1.261
 1552SOL    HW2 5556   1.308   0.038   1.256
 1553SOL     OW 5557   6.098   1.426   7.010
 1553SOL    HW1 5558   6.085   1.328   6.995
 1553SOL    HW2 5559   6.142   1.440   0.078
 1554SOL     OW 5560   4.218   2.283   2.540
 1554SOL    HW1 5561   4.241   2.191   2.569
 1554SOL    HW2 5562   4.283   2.348   2.580
 1555SOL     OW 5563   4.918   1.988   5.122
 1555SOL    HW1 5564   4.891   1.947   5.209
 1555SOL    HW2 5565   4.863   2.070   5.106
 1556SOL     OW 5566   4.008   0.368   0.780
 1556SOL    HW1 5567   3.962   0.381   0.692
 1556SOL    HW2 5568   3.988   0.276   0.814
 1557SOL     OW 5569   1.971   2.344   1.268
 1557SOL    HW1 5570   1.925   2.362   1.181
 1557SOL    HW2 5571   1.951   2.419   1.332
 1558SOL     OW 5572   6.681   2.678   5.354
 1558SOL    HW1 5573   6.583   2.679   5.331
 1558SOL    HW2 5574   6.717   2.586   5.341
 1559SOL     OW 5575   0.834   4.053   2.263
 1559SOL    HW1 5576   0.834   3.956   2.239
 1559SOL    HW2 5577   0.895   4.103   2.201
 1560SOL     OW 5578   3.799   1.609   0.215
 1560SOL    HW1 5579   3.812   1.708   0.221
 1560SOL    HW2 5580   3.752   1.576   0.296
 1561SOL     OW 5581   5.900   6.359   2.151
 1561SOL    HW1 5582   5.972   6.308   2.199
 1561SOL    HW2 5583   5.864   6.430   2.211
 1562SOL     OW 5584   3.008   6.751   2.438
 1562SOL    HW1 5585   2.980   6.703   2.521
 1562SOL    HW2 5586   3.040   6.684   2.371
 1563SOL     OW 5587   3.070   2.144   4.724
 1563SOL    HW1 5588   3.112   2.205   4.792
 1563SOL    HW2 5589   3.081   2.049   4.754
 1564SOL     OW 5590   1.648   1.681   2.304
 1564SOL    HW1 5591   1.633   1.777   2.329
 1564SOL    HW2 5592   1.563   1.630   2.311
 1565SOL     OW 5593   4.214   6.306   3.954
 1565SOL    HW1 5594   4.153   6.320   3.876
 1565SOL    HW2 5595   4.166   6.327   4.039
 1566SOL     OW 5596   5.120   4.780   3.793
 1566SOL    HW1 5597   5.097   4.820   3.705
 1566SOL    HW2 5598   5.215   4.748   3.792
 1567SOL     OW 5599   6.052   5.545   6.548
 1567SOL    HW1 5600   6.020   5.486   6.473
 1567SOL    HW2 5601   6.036   5.641   6.523
 1568SOL     OW 5602   2.034   6.556   3.998
 1568SOL    HW1 5603   2.100   6.537   3.925
 1568SOL    HW2 5604   2.070   6.626   4.058
 1569SOL     OW 5605   3.278   0.353   2.869
 1569SOL    HW1 5606   3.364   0.383   2.828
 1569SOL    HW2 5607   3.254   0.263   2.833
 1570SOL     OW 5608   3.191   6.601   0.030
 1570SOL    HW1 5609   3.187   6.690   7.005
 1570SOL    HW2 5610   3.131   6.603   0.110
 1571SOL     OW 5611   1.305   2.241   3.711
 1571SOL    HW1 5612   1.294   2.307   3.785
 1571SOL    HW2 5613   1.304   2.287   3.623
 1572SOL     OW 5614   1.745   5.285   1.540
 1572SOL    HW1 5615   1.650   5.261   1.518
 1572SOL    HW2 5616   1.794   5.204   1.569
 1573SOL     OW 5617   5.006   5.219   1.716
 1573SOL    HW1 5618   5.091   5.272   1.727
 1573SOL    HW2 5619   4.938   5.276   1.671
 1574SOL     OW 5620   6.335   3.226   2.244
 1574SOL    HW1 5621   6.380   3.283   2.175
 1574SOL    HW2 5622   6.402   3.199   2.313
 1575SOL     OW 5623   1.461   0.572   1.582
 1575SOL    HW1 5624   1.433   0.592   1.488
 1575SOL    HW2 5625   1.396   0.508   1.623
 1576SOL     OW 5626   0.461   6.155   2.604
 1576SOL    HW1 5627   0.386   6.090   2.614
 1576SOL    HW2 5628   0.430   6.235   2.554
 1577SOL     OW 5629   3.116   0.335   6.391
 1577SOL    HW1 5630   3.063   0.367   6.470
 1577SOL    HW2 5631   3.141   0.414   6.335
 1578SOL     OW 5632   4.052   0.763   0.237
 1578SOL    HW1 5633   4.061   0.862   0.225
 1578SOL    HW2 5634   4.065   0.717   0.149
 1579SOL     OW 5635   0.905   2.658   1.760
 1579SOL    HW1 5636   0.934   2.749   1.730
 1579SOL    HW2 5637   0.830   2.666   1.825
 1580SOL     OW 5638   3.163   3.618   3.421
 1580SOL    HW1 5639   3.111   3.572   3.350
 1580SOL    HW2 5640   3.230   3.680   3.380
 1581SOL     OW 5641   0.260   4.780   5.701
 1581SOL    HW1 5642   0.334   4.846   5.716
 1581SOL    HW2 5643   0.187   4.797   5.766
 1582SOL     OW 5644   4.488   5.926   5.277
 1582SOL    HW1 5645   4.420   5.883   5.218
 1582SOL    HW2 5646   4.443   5.976   5.350
 1583SOL     OW 5647   0.923   6.185   4.889
 1583SOL    HW1 5648   0.841   6.241   4.899
 1583SOL    HW2 5649   1.003   6.244   4.875
 1584SOL     OW 5650   1.260   5.422   6.519
 1584SOL    HW1 5651   1.265   5.516   6.485
 1584SOL    HW2 5652   1.227   5.421   6.613
 1585SOL     OW 5653   3.823   1.159   3.791
 1585SOL    HW1 5654   3.848   1.147   3.695
 1585SOL    HW2 5655   3.723   1.154   3.801
 1586SOL     OW 5656   3.103   5.285   3.002
 1586SOL    HW1 5657   3.143   5.344   3.072
 1586SOL    HW2 5658   3.046   5.340   2.941
 1587SOL     OW 5659   2.199   5.771   5.788
 1587SOL    HW1 5660   2.143   5.837   5.837
 1587SOL    HW2 5661   2.236   5.704   5.853
 1588SOL     OW 5662   4.781   0.214   2.714
 1588SOL    HW1 5663   4.711   0.212   2.642
 1588SOL    HW2 5664   4.870   0.193   2.674
 1589SOL     OW 5665   6.326   3.782   2.907
 1589SOL    HW1 5666   6.308   3.771   3.005
 1589SOL    HW2 5667   6.417   3.745   2.886
 1590SOL     OW 5668   5.289   1.970   3.392
 1590SOL    HW1 5669   5.266   1.963   3.295
 1590SOL    HW2 5670   5.380   2.010   3.401
 1591SOL     OW 5671   6.886   5.613   1.528
 1591SOL    HW1 5672   6.882   5.582   1.433
 1591SOL    HW2 5673   6.972   5.661   1.543
 1592SOL     OW 5674   1.477   4.444   6.478
 1592SOL    HW1 5675   1.492   4.481   6.570
 1592SOL    HW2 5676   1.540   4.489   6.414
 1593SOL     OW 5677   1.172   0.171   6.379
 1593SOL    HW1 5678   1.209   0.081   6.355
 1593SOL    HW2 5679   1.144   0.170   6.475
 1594SOL     OW 5680   0.061   0.170   1.884
 1594SOL    HW1 5681   7.008   0.171   1.818
 1594SOL    HW2 5682   0.146   0.198   1.840
 1595SOL     OW 5683   1.841   3.939   6.780
 1595SOL    HW1 5684   1.896   3.858   6.799
 1595SOL    HW2 5685   1.750   3.929   6.820
 1596SOL     OW 5686   5.905   3.823   3.391
 1596SOL    HW1 5687   5.881   3.734   3.428
 1596SOL    HW2 5688   5.959   3.812   3.308
 1597SOL     OW 5689   2.615   5.558   0.570
 1597SOL    HW1 5690   2.663   5.542   0.484
 1597SOL    HW2 5691   2.680   5.591   0.639
 1598SOL     OW 5692   1.575   5.645   6.565
 1598SOL    HW1 5693   1.494   5.671   6.513
 1598SOL    HW2 5694   1.597   5.717   6.631
 1599SOL     OW 5695   3.812   5.233   4.320
 1599SOL    HW1 5696   3.777   5.320   4.287
 1599SOL    HW2 5697   3.801   5.228   4.419
 1600SOL     OW 5698   3.274   0.771   2.948
 1600SOL    HW1 5699   3.320   0.809   2.867
 1600SOL    HW2 5700   3.175   0.781   2.938
 1601SOL     OW 5701   6.677   6.347   3.760
 1601SOL    HW1 5702   6.700   6.304   3.847
 1601SOL    HW2 5703   6.606   6.294   3.714
 1602SOL     OW 5704   4.700   5.370   3.964
 1602SOL    HW1 5705   4.738   5.298   4.023
 1602SOL    HW2 5706   4.774   5.411   3.911
 1603SOL     OW 5707   2.803   5.499   4.188
 1603SOL    HW1 5708   2.767   5.474   4.278
 1603SOL    HW2 5709   2.767   5.588   4.161
 1604SOL     OW 5710   4.190   4.917   2.003
 1604SOL    HW1 5711   4.222   4.975   2.078
 1604SOL    HW2 5712   4.115   4.963   1.955
 1605SOL     OW 5713   5.647   5.679   1.599
 1605SOL    HW1 5714   5.627   5.585   1.573
 1605SOL    HW2 5715   5.743   5.699   1.579
 1606SOL     OW 5716   3.766   5.522   5.096
 1606SOL    HW1 5717   3.829   5.450   5.125
 1606SOL    HW2 5718   3.804   5.611   5.119
 1607SOL     OW 5719   4.037   0.194   2.261
 1607SOL    HW1 5720   3.996   0.155   2.179
 1607SOL    HW2 5721   4.039   0.126   2.334
 1608SOL     OW 5722   0.147   0.973   3.317
 1608SOL    HW1 5723   0.157   0.915   3.236
 1608SOL    HW2 5724   0.168   1.068   3.293
 1609SOL     OW 5725   3.190   6.046   0.496
 1609SOL    HW1 5726   3.159   5.972   0.437
 1609SOL    HW2 5727   3.184   6.133   0.447
 1610SOL     OW 5728   4.976   6.282   0.420
 1610SOL    HW1 5729   5.005   6.377   0.428
 1610SOL    HW2 5730   5.035   6.234   0.355
 1611SOL     OW 5731   1.291   3.948   1.103
 1611SOL    HW1 5732   1.191   3.948   1.110
 1611SOL    HW2 5733   1.319   3.895   1.022
 1612SOL     OW 5734   3.287   5.916   1.290
 1612SOL    HW1 5735   3.235   5.997   1.261
 1612SOL    HW2 5736   3.315   5.863   1.210
 1613SOL     OW 5737   0.553   5.535   2.374
 1613SOL    HW1 5738   0.517   5.457   2.425
 1613SOL    HW2 5739   0.652   5.528   2.368
 1614SOL     OW 5740   5.438   2.197   6.485
 1614SOL    HW1 5741   5.479   2.227   6.399
 1614SOL    HW2 5742   5.356   2.250   6.503
 1615SOL     OW 5743   0.200   5.135   6.495
 1615SOL    HW1 5744   0.117   5.159   6.444
 1615SOL    HW2 5745   0.277   5.190   6.463
 1616SOL     OW 5746   3.735   0.629   5.207
 1616SOL    HW1 5747   3.721   0.600   5.301
 1616SOL    HW2 5748   3.703   0.723   5.196
 1617SOL     OW 5749   4.808   0.462   3.511
 1617SOL    HW1 5750   4.780   0.553   3.481
 1617SOL    HW2 5751   4.896   0.439   3.470
 1618SOL     OW 5752   1.560   6.007   2.553
 1618SOL    HW1 5753   1.461   6.001   2.562
 1618SOL    HW2 5754   1.604   5.956   2.627
 1619SOL     OW 5755   1.148   5.148   6.967
 1619SOL    HW1 5756   1.071   5.169   6.907
 1619SOL    HW2 5757   1.116   5.094   0.024
 1620SOL     OW 5758   2.708   5.140   1.061
 1620SOL    HW1 5759   2.740   5.165   0.970
 1620SOL    HW2 5760   2.785   5.110   1.117
 1621SOL     OW 5761   6.100   6.510   1.590
 1621SOL    HW1 5762   6.092   6.526   1.688
 1621SOL    HW2 5763   6.141   6.590   1.546
 1622SOL     OW 5764   0.462   4.424   6.074
 1622SOL    HW1 5765   0.430   4.499   6.017
 1622SOL    HW2 5766   0.542   4.382   6.032
 1623SOL     OW 5767   0.489   2.507   4.409
 1623SOL    HW1 5768   0.397   2.506   4.448
 1623SOL    HW2 5769   0.483   2.520   4.310
 1624SOL     OW 5770   3.754   1.299   0.235
 1624SOL    HW1 5771   3.713   1.353   0.161
 1624SOL    HW2 5772   3.804   1.222   0.197
 1625SOL     OW 5773   1.543   5.045   0.167
 1625SOL    HW1 5774   1.508   5.086   0.083
 1625SOL    HW2 5775   1.490   4.963   0.188
 1626SOL     OW 5776   2.755   1.752   2.724
 1626SOL    HW1 5777   2.757   1.698   2.640
 1626SOL    HW2 5778   2.704   1.836   2.709
 1627SOL     OW 5779   5.340   2.797   3.923
 1627SOL    HW1 5780   5.313   2.825   3.831
 1627SOL    HW2 5781   5.440   2.786   3.927
 1628SOL     OW 5782   5.162   5.970   6.558
 1628SOL    HW1 5783   5.243   6.009   6.514
 1628SOL    HW2 5784   5.184   5.943   6.651
 1629SOL     OW 5785   2.797   1.870   3.224
 1629SOL    HW1 5786   2.795   1.911   3.315
 1629SOL    HW2 5787   2.774   1.939   3.155
 1630SOL     OW 5788   0.032   3.995   6.527
 1630SOL    HW1 5789   0.126   4.023   6.504
 1630SOL    HW2 5790   0.034   3.933   6.606
 1631SOL     OW 5791   6.410   3.469   1.181
 1631SOL    HW1 5792   6.315   3.442   1.164
 1631SOL    HW2 5793   6.415   3.519   1.268
 1632SOL     OW 5794   4.993   4.266   2.943
 1632SOL    HW1 5795   4.995   4.320   3.027
 1632SOL    HW2 5796   5.010   4.326   2.865
 1633SOL     OW 5797   4.738   4.141   4.143
 1633SOL    HW1 5798   4.643   4.148   4.173
 1633SOL    HW2 5799   4.792   4.099   4.216
 1634SOL     OW 5800   4.029   0.565   4.494
 1634SOL    HW1 5801   3.943   0.570   4.544
 1634SOL    HW2 5802   4.048   0.470   4.470
 1635SOL     OW 5803   2.642   4.961   6.422
 1635SOL    HW1 5804   2.590   4.947   6.338
 1635SOL    HW2 5805   2.579   4.962   6.500
 1636SOL     OW 5806   3.775   5.982   0.831
 1636SOL    HW1 5807   3.758   6.019   0.740
 1636SOL    HW2 5808   3.870   6.000   0.857
 1637SOL     OW 5809   6.760   6.717   3.483
 1637SOL    HW1 5810   6.670   6.723   3.439
 1637SOL    HW2 5811   6.786   6.620   3.492
 1638SOL     OW 5812   0.324   2.986   1.321
 1638SOL    HW1 5813   0.329   3.064   1.258
 1638SOL    HW2 5814   0.302   2.903   1.269
 1639SOL     OW 5815   6.458   4.227   1.947
 1639SOL    HW1 5816   6.501   4.213   1.857
 1639SOL    HW2 5817   6.372   4.177   1.951
 1640SOL     OW 5818   6.354   6.845   1.021
 1640SOL    HW1 5819   6.337   6.942   1.006
 1640SOL    HW2 5820   6.450   6.831   1.045
 1641SOL     OW 5821   6.861   2.122   3.663
 1641SOL    HW1 5822   6.935   2.116   3.596
 1641SOL    HW2 5823   6.805   2.038   3.658
 1642SOL     OW 5824   6.546   2.441   6.696
 1642SOL    HW1 5825   6.603   2.425   6.776
 1642SOL    HW2 5826   6.603   2.444   6.614
 1643SOL     OW 5827   3.369   5.059   3.060
 1643SOL    HW1 5828   3.462   5.073   3.094
 1643SOL    HW2 5829   3.304   5.094   3.127
 1644SOL     OW 5830   6.017   2.662   0.182
 1644SOL    HW1 5831   6.094   2.599   0.183
 1644SOL    HW2 5832   5.991   2.683   0.276
 1645SOL     OW 5833   3.008   0.247   6.131
 1645SOL    HW1 5834   2.916   0.287   6.129
 1645SOL    HW2 5835   3.037   0.235   6.225
 1646SOL     OW 5836   1.847   6.381   6.580
 1646SOL    HW1 5837   1.814   6.475   6.591
 1646SOL    HW2 5838   1.848   6.357   6.483
 1647SOL     OW 5839   5.402   2.599   4.292
 1647SOL    HW1 5840   5.342   2.577   4.215
 1647SOL    HW2 5841   5.494   2.564   4.274
 1648SOL     OW 5842   5.692   6.413   6.853
 1648SOL    HW1 5843   5.702   6.332   6.910
 1648SOL    HW2 5844   5.611   6.464   6.881
 1649SOL     OW 5845   3.223   0.910   3.464
 1649SOL    HW1 5846   3.175   0.853   3.398
 1649SOL    HW2 5847   3.267   0.852   3.532
 1650SOL     OW 5848   1.440   5.341   6.133
 1650SOL    HW1 5849   1.471   5.331   6.228
 1650SOL    HW2 5850   1.398   5.256   6.102
 1651SOL     OW 5851   0.017   2.498   3.020
 1651SOL    HW1 5852   6.982   2.419   3.043
 1651SOL    HW2 5853   0.074   2.522   3.099
 1652SOL     OW 5854   0.892   3.206   1.431
 1652SOL    HW1 5855   0.957   3.130   1.436
 1652SOL    HW2 5856   0.904   3.255   1.344
 1653SOL     OW 5857   0.021   5.656   2.458
 1653SOL    HW1 5858   7.011   5.751   2.463
 1653SOL    HW2 5859   6.963   5.596   2.449
 1654SOL     OW 5860   0.335   3.321   1.374
 1654SOL    HW1 5861   0.321   3.268   1.290
 1654SOL    HW2 5862   0.338   3.259   1.452
 1655SOL     OW 5863   0.028   0.867   4.264
 1655SOL    HW1 5864   0.016   0.963   4.241
 1655SOL    HW2 5865   0.079   0.859   4.350
 1656SOL     OW 5866   2.793   5.582   3.818
 1656SOL    HW1 5867   2.730   5.521   3.770
 1656SOL    HW2 5868   2.872   5.530   3.851
 1657SOL     OW 5869   6.545   1.348   4.803
 1657SOL    HW1 5870   6.644   1.358   4.797
 1657SOL    HW2 5871   6.503   1.438   4.815
 1658SOL     OW 5872   6.876   0.197   0.523
 1658SOL    HW1 5873   6.845   0.167   0.433
 1658SOL    HW2 5874   6.856   0.125   0.590
 1659SOL     OW 5875   4.089   6.973   0.306
 1659SOL    HW1 5876   4.166   6.947   0.248
 1659SOL    HW2 5877   4.004   6.969   0.253
 1660SOL     OW 5878   1.657   6.905   2.122
 1660SOL    HW1 5879   1.710   6.959   2.187
 1660SOL    HW2 5880   1.560   6.911   2.144
 1661SOL     OW 5881   2.581   5.196   2.091
 1661SOL    HW1 5882   2.519   5.190   2.170
 1661SOL    HW2 5883   2.600   5.104   2.057
 1662SOL     OW 5884   6.764   1.023   5.263
 1662SOL    HW1 5885   6.760   1.082   5.183
 1662SOL    HW2 5886   6.689   1.046   5.325
 1663SOL     OW 5887   5.021   5.270   2.716
 1663SOL    HW1 5888   5.109   5.224   2.719
 1663SOL    HW2 5889   4.952   5.213   2.761
 1664SOL     OW 5890   1.632   0.651   5.141
 1664SOL    HW1 5891   1.635   0.710   5.222
 1664SOL    HW2 5892   1.700   0.578   5.151
 1665SOL     OW 5893   1.129   3.688   1.576
 1665SOL    HW1 5894   1.048   3.746   1.562
 1665SOL    HW2 5895   1.115   3.630   1.656
 1666SOL     OW 5896   5.767   6.682   6.919
 1666SOL    HW1 5897   5.677   6.718   6.941
 1666SOL    HW2 5898   5.760   6.584   6.898
 1667SOL     OW 5899   6.933   6.321   1.389
 1667SOL    HW1 5900   7.018   6.361   1.422
 1667SOL    HW2 5901   6.858   6.387   1.400
 1668SOL     OW 5902   5.090   4.899   3.556
 1668SOL    HW1 5903   5.119   4.879   3.462
 1668SOL    HW2 5904   5.115   4.993   3.579
 1669SOL     OW 5905   7.013   4.462   5.670
 1669SOL    HW1 5906   0.026   4.369   5.655
 1669SOL    HW2 5907   0.044   4.505   5.744
 1670SOL     OW 5908   1.164   4.871   5.704
 1670SOL    HW1 5909   1.151   4.780   5.744
 1670SOL    HW2 5910   1.260   4.898   5.714
 1671SOL     OW 5911   5.589   1.765   3.059
 1671SOL    HW1 5912   5.637   1.831   3.001
 1671SOL    HW2 5913   5.565   1.684   3.005
 1672SOL     OW 5914   1.091   3.967   6.674
 1672SOL    HW1 5915   1.102   3.929   6.582
 1672SOL    HW2 5916   1.060   3.895   6.736
 1673SOL     OW 5917   2.242   1.821   4.907
 1673SOL    HW1 5918   2.175   1.802   4.979
 1673SOL    HW2 5919   2.264   1.735   4.860
 1674SOL     OW 5920   6.143   2.551   2.342
 1674SOL    HW1 5921   6.050   2.574   2.314
 1674SOL    HW2 5922   6.202   2.632   2.335
 1675SOL     OW 5923   4.792   0.299   1.036
 1675SOL    HW1 5924   4.812   0.269   1.130
 1675SOL    HW2 5925   4.738   0.229   0.990
 1676SOL     OW 5926   2.101   2.243   2.277
 1676SOL    HW1 5927   2.043   2.223   2.356
 1676SOL    HW2 5928   2.136   2.337   2.285
 1677SOL     OW 5929   3.947   3.973   3.105
 1677SOL    HW1 5930   4.047   3.981   3.104
 1677SOL    HW2 5931   3.920   3.898   3.045
 1678SOL     OW 5932   0.641   6.032   1.415
 1678SOL    HW1 5933   0.664   6.096   1.488
 1678SOL    HW2 5934   0.611   6.082   1.334
 1679SOL     OW 5935   1.280   1.217   5.007
 1679SOL    HW1 5936   1.256   1.169   5.091
 1679SOL    HW2 5937   1.269   1.156   4.929
 1680SOL     OW 5938   5.435   3.316   4.919
 1680SOL    HW1 5939   5.399   3.387   4.980
 1680SOL    HW2 5940   5.430   3.227   4.965
 1681SOL     OW 5941   1.836   5.590   4.824
 1681SOL    HW1 5942   1.919   5.552   4.784
 1681SOL    HW2 5943   1.823   5.684   4.791
 1682SOL     OW 5944   2.245   0.422   6.128
 1682SOL    HW1 5945   2.335   0.452   6.159
 1682SOL    HW2 5946   2.222   0.335   6.172
 1683SOL     OW 5947   5.458   6.137   3.139
 1683SOL    HW1 5948   5.555   6.132   3.162
 1683SOL    HW2 5949   5.404   6.102   3.216
 1684SOL     OW 5950   0.873   4.651   1.391
 1684SOL    HW1 5951   0.842   4.646   1.486
 1684SOL    HW2 5952   0.821   4.586   1.336
 1685SOL     OW 5953   1.817   2.333   5.652
 1685SOL    HW1 5954   1.753   2.334   5.729
 1685SOL    HW2 5955   1.894   2.394   5.672
 1686SOL     OW 5956   3.823   5.589   3.601
 1686SOL    HW1 5957   3.789   5.531   3.675
 1686SOL    HW2 5958   3.797   5.548   3.513
 1687SOL     OW 5959   0.452   4.128   1.511
 1687SOL    HW1 5960   0.416   4.110   1.602
 1687SOL    HW2 5961   0.505   4.213   1.513
 1688SOL     OW 5962   1.469   2.669   3.674
 1688SOL    HW1 5963   1.414   2.611   3.613
 1688SOL    HW2 5964   1.514   2.740   3.620
 1689SOL     OW 5965   6.581   0.805   2.436
 1689SOL    HW1 5966   6.543   0.777   2.524
 1689SOL    HW2 5967   6.507   0.833   2.376
 1690SOL     OW 5968   1.182   3.344   4.242
 1690SOL    HW1 5969   1.258   3.320   4.302
 1690SOL    HW2 5970   1.166   3.443   4.246
 1691SOL     OW 5971   4.926   3.542   4.230
 1691SOL    HW1 5972   4.995   3.606   4.194
 1691SOL    HW2 5973   4.926   3.545   4.330
 1692SOL     OW 5974   5.650   5.359   1.240
 1692SOL    HW1 5975   5.649   5.432   1.308
 1692SOL    HW2 5976   5.743   5.347   1.204
 1693SOL     OW 5977   0.115   1.600   4.527
 1693SOL    HW1 5978   0.080   1.683   4.569
 1693SOL    HW2 5979   0.209   1.616   4.495
 1694SOL     OW 5980   6.172   1.110   4.698
 1694SOL    HW1 5981   6.136   1.132   4.607
 1694SOL    HW2 5982   6.107   1.141   4.768
 1695SOL     OW 5983   3.496   0.351   6.981
 1695SOL    HW1 5984   3.532   0.386   6.894
 1695SOL    HW2 5985   3.559   0.284   7.018
 1696SOL     OW 5986   4.095   5.730   0.902
 1696SOL    HW1 5987   4.096   5.642   0.854
 1696SOL    HW2 5988   4.072   5.716   0.998
 1697SOL     OW 5989   5.862   2.223   0.717
 1697SOL    HW1 5990   5.933   2.293   0.732
 1697SOL    HW2 5991   5.833   2.226   0.621
 1698SOL     OW 5992   3.602   0.674   1.847
 1698SOL    HW1 5993   3.531   0.627   1.899
 1698SOL    HW2 5994   3.575   0.769   1.832
 1699SOL     OW 5995   2.490   2.024   6.108
 1699SOL    HW1 5996   2.492   2.114   6.065
 1699SOL    HW2 5997   2.557   2.021   6.182
 1700SOL     OW 5998   5.702   3.313   3.701
 1700SOL    HW1 5999   5.749   3.392   3.661
 1700SOL    HW2 6000   5.700   3.238   3.635
 1701SOL     OW 6001   6.116   5.234   4.725
 1701SOL    HW1 6002   6.038   5.242   4.664
 1701SOL    HW2 6003   6.145   5.326   4.753
 1702SOL     OW 6004   1.660   1.031   6.328
 1702SOL    HW1 6005   1.592   0.964   6.296
 1702SOL    HW2 6006   1.747   0.984   6.345
 1703SOL     OW 6007   4.029   1.244   5.912
 1703SOL    HW1 6008   4.083   1.320   5.876
 1703SOL    HW2 6009   3.934   1.255   5.883
 1704SOL     OW 6010   1.141   1.716   6.842
 1704SOL    HW1 6011   1.171   1.621   6.832
 1704SOL    HW2 6012   1.076   1.738   6.770
 1705SOL     OW 6013   3.907   1.796   2.234
 1705SOL    HW1 6014   3.868   1.879   2.195
 1705SOL    HW2 6015   3.846   1.719   2.216
 1706SOL     OW 6016   3.991   1.686   0.928
 1706SOL    HW1 6017   3.939   1.722   1.006
 1706SOL    HW2 6018   4.038   1.762   0.882
 1707SOL     OW 6019   4.744   1.811   2.894
 1707SOL    HW1 6020   4.768   1.883   2.958
 1707SOL    HW2 6021   4.799   1.820   2.811
 1708SOL     OW 6022   3.876   5.628   1.897
 1708SOL    HW1 6023   3.839   5.570   1.969
 1708SOL    HW2 6024   3.808   5.641   1.825
 1709SOL     OW 6025   4.512   6.596   0.584
 1709SOL    HW1 6026   4.553   6.638   0.504
 1709SOL    HW2 6027   4.496   6.666   0.654
 1710SOL     OW 6028   4.222   4.840   3.258
 1710SOL    HW1 6029   4.283   4.917   3.238
 1710SOL    HW2 6030   4.129   4.863   3.228
 1711SOL     OW 6031   2.664   4.786   5.626
 1711SOL    HW1 6032   2.734   4.839   5.674
 1711SOL    HW2 6033   2.627   4.841   5.551
 1712SOL     OW 6034   0.343   2.317   4.791
 1712SOL    HW1 6035   0.256   2.274   4.766
 1712SOL    HW2 6036   0.411   2.299   4.719
 1713SOL     OW 6037   3.673   1.416   2.139
 1713SOL    HW1 6038   3.653   1.505   2.180
 1713SOL    HW2 6039   3.589   1.362   2.135
 1714SOL     OW 6040   2.849   2.033   0.018
 1714SOL    HW1 6041   2.771   1.992   6.991
 1714SOL    HW2 6042   2.934   1.993   7.003
 1715SOL     OW 6043   1.885   5.654   2.227
 1715SOL    HW1 6044   1.963   5.610   2.183
 1715SOL    HW2 6045   1.853   5.731   2.170
 1716SOL     OW 6046   4.968   0.091   4.124
 1716SOL    HW1 6047   4.960   0.156   4.199
 1716SOL    HW2 6048   5.062   0.090   4.090
 1717SOL     OW 6049   3.962   5.373   5.244
 1717SOL    HW1 6050   4.019   5.294   5.265
 1717SOL    HW2 6051   3.981   5.446   5.308
 1718SOL     OW 6052   2.608   1.991   2.691
 1718SOL    HW1 6053   2.656   2.069   2.732
 1718SOL    HW2 6054   2.600   2.006   2.593
 1719SOL     OW 6055   1.494   4.994   1.120
 1719SOL    HW1 6056   1.457   5.085   1.139
 1719SOL    HW2 6057   1.507   4.945   1.205
 1720SOL     OW 6058   0.282   3.160   5.829
 1720SOL    HW1 6059   0.379   3.173   5.848
 1720SOL    HW2 6060   0.228   3.222   5.886
 1721SOL     OW 6061   1.286   0.324   1.958
 1721SOL    HW1 6062   1.208   0.328   1.895
 1721SOL    HW2 6063   1.256   0.287   2.046
 1722SOL     OW 6064   3.059   1.953   3.247
 1722SOL    HW1 6065   2.979   1.896   3.230
 1722SOL    HW2 6066   3.119   1.907   3.313
 1723SOL     OW 6067   4.935   1.958   7.012
 1723SOL    HW1 6068   4.927   1.860   6.993
 1723SOL    HW2 6069   4.977   2.004   6.933
 1724SOL     OW 6070   6.136   2.107   1.495
 1724SOL    HW1 6071   6.099   2.021   1.528
 1724SOL    HW2 6072   6.181   2.155   1.570
 1725SOL     OW 6073   2.011   4.430   6.737
 1725SOL    HW1 6074   2.042   4.502   6.800
 1725SOL    HW2 6075   2.070   4.350   6.745
 1726SOL     OW 6076   5.538   4.024   4.024
 1726SOL    HW1 6077   5.472   3.966   3.976
 1726SOL    HW2 6078   5.609   4.053   3.960
 1727SOL     OW 6079   3.564   3.405   3.231
 1727SOL    HW1 6080   3.577   3.330   3.296
 1727SOL    HW2 6081   3.561   3.492   3.280
 1728SOL     OW 6082   4.562   4.161   5.642
 1728SOL    HW1 6083   4.563   4.175   5.543
 1728SOL    HW2 6084   4.514   4.076   5.663
 1729SOL     OW 6085   0.919   3.809   2.545
 1729SOL    HW1 6086   0.948   3.866   2.621
 1729SOL    HW2 6087   0.823   3.829   2.523
 1730SOL     OW 6088   2.940   6.451   5.397
 1730SOL    HW1 6089   3.020   6.402   5.432
 1730SOL    HW2 6090   2.857   6.409   5.434
 1731SOL     OW 6091   5.420   4.791   3.784
 1731SOL    HW1 6092   5.492   4.818   3.720
 1731SOL    HW2 6093   5.457   4.784   3.876
 1732SOL     OW 6094   2.121   4.323   6.187
 1732SOL    HW1 6095   2.080   4.358   6.271
 1732SOL    HW2 6096   2.220   4.322   6.196
 1733SOL     OW 6097   2.527   4.181   0.463
 1733SOL    HW1 6098   2.542   4.280   0.464
 1733SOL    HW2 6099   2.596   4.138   0.404
 1734SOL     OW 6100   6.257   3.070   1.362
 1734SOL    HW1 6101   6.231   3.060   1.458
 1734SOL    HW2 6102   6.187   3.027   1.305
 1735SOL     OW 6103   4.877   5.250   6.588
 1735SOL    HW1 6104   4.861   5.151   6.587
 1735SOL    HW2 6105   4.789   5.297   6.592
 1736SOL     OW 6106   4.435   3.886   1.271
 1736SOL    HW1 6107   4.502   3.862   1.340
 1736SOL    HW2 6108   4.466   3.855   1.181
 1737SOL     OW 6109   5.732   0.717   4.139
 1737SOL    HW1 6110   5.671   0.794   4.124
 1737SOL    HW2 6111   5.757   0.677   4.050
 1738SOL     OW 6112   2.083   3.518   4.470
 1738SOL    HW1 6113   2.124   3.430   4.449
 1738SOL    HW2 6114   2.088   3.535   4.568
 1739SOL     OW 6115   5.955   0.312   4.307
 1739SOL    HW1 6116   5.994   0.403   4.320
 1739SOL    HW2 6117   5.935   0.272   4.396
 1740SOL     OW 6118   0.196   1.903   4.816
 1740SOL    HW1 6119   0.186   2.003   4.812
 1740SOL    HW2 6120   0.155   1.863   4.734
 1741SOL     OW 6121   1.727   1.748   3.488
 1741SOL    HW1 6122   1.669   1.685   3.436
 1741SOL    HW2 6123   1.813   1.762   3.440
 1742SOL     OW 6124   5.933   0.542   6.411
 1742SOL    HW1 6125   5.955   0.567   6.505
 1742SOL    HW2 6126   6.006   0.485   6.373
 1743SOL     OW 6127   1.284   1.890   3.021
 1743SOL    HW1 6128   1.184   1.891   3.019
 1743SOL    HW2 6129   1.320   1.890   2.928
 1744SOL     OW 6130   4.861   2.392   3.667
 1744SOL    HW1 6131   4.957   2.389   3.640
 1744SOL    HW2 6132   4.804   2.368   3.588
 1745SOL     OW 6133   6.195   6.092   1.296
 1745SOL    HW1 6134   6.218   6.186   1.269
 1745SOL    HW2 6135   6.257   6.029   1.251
 1746SOL     OW 6136   2.192   3.822   3.702
 1746SOL    HW1 6137   2.179   3.723   3.708
 1746SOL    HW2 6138   2.140   3.857   3.624
 1747SOL     OW 6139   3.646   1.659   2.323
 1747SOL    HW1 6140   3.614   1.694   2.235
 1747SOL    HW2 6141   3.579   1.594   2.359
 1748SOL     OW 6142   6.632   1.599   4.458
 1748SOL    HW1 6143   6.618   1.513   4.409
 1748SOL    HW2 6144   6.687   1.661   4.402
 1749SOL     OW 6145   2.998   6.264   0.581
 1749SOL    HW1 6146   3.032   6.259   0.487
 1749SOL    HW2 6147   2.920   6.203   0.591
 1750SOL     OW 6148   3.884   0.526   4.966
 1750SOL    HW1 6149   3.814   0.573   5.020
 1750SOL    HW2 6150   3.969   0.522   5.018
 1751SOL     OW 6151   5.908   2.653   4.903
 1751SOL    HW1 6152   6.000   2.614   4.909
 1751SOL    HW2 6153   5.840   2.580   4.907
 1752SOL     OW 6154   6.361   1.268   1.229
 1752SOL    HW1 6155   6.436   1.210   1.262
 1752SOL    HW2 6156   6.330   1.328   1.303
 1753SOL     OW 6157   6.877   1.737   1.862
 1753SOL    HW1 6158   6.907   1.715   1.955
 1753SOL    HW2 6159   6.885   1.835   1.846
 1754SOL     OW 6160   3.039   5.927   5.903
 1754SOL    HW1 6161   3.135   5.909   5.924
 1754SOL    HW2 6162   2.983   5.852   5.937
 1755SOL     OW 6163   6.493   6.765   5.023
 1755SOL    HW1 6164   6.507   6.668   5.007
 1755SOL    HW2 6165   6.416   6.798   4.969
 1756SOL     OW 6166   5.056   0.233   6.141
 1756SOL    HW1 6167   4.978   0.250   6.201
 1756SOL    HW2 6168   5.082   0.137   6.147
 1757SOL     OW 6169   2.229   5.136   4.051
 1757SOL    HW1 6170   2.289   5.197   3.999
 1757SOL    HW2 6171   2.283   5.080   4.113
 1758SOL     OW 6172   1.904   6.734   5.077
 1758SOL    HW1 6173   1.873   6.649   5.034
 1758SOL    HW2 6174   2.004   6.739   5.072
 1759SOL     OW 6175   1.621   6.197   6.222
 1759SOL    HW1 6176   1.566   6.200   6.139
 1759SOL    HW2 6177   1.562   6.179   6.301
 1760SOL     OW 6178   6.032   0.928   5.021
 1760SOL    HW1 6179   6.077   0.899   4.937
 1760SOL    HW2 6180   5.976   1.009   5.003
 1761SOL     OW 6181   6.612   1.102   0.992
 1761SOL    HW1 6182   6.600   1.170   1.064
 1761SOL    HW2 6183   6.710   1.087   0.977
 1762SOL     OW 6184   0.727   1.364   4.890
 1762SOL    HW1 6185   0.688   1.296   4.952
 1762SOL    HW2 6186   0.659   1.434   4.870
 1763SOL     OW 6187   1.303   4.194   4.892
 1763SOL    HW1 6188   1.241   4.151   4.957
 1763SOL    HW2 6189   1.288   4.155   4.801
 1764SOL     OW 6190   1.162   3.960   2.133
 1764SOL    HW1 6191   1.169   3.865   2.102
 1764SOL    HW2 6192   1.079   4.002   2.094
 1765SOL     OW 6193   4.911   2.689   1.461
 1765SOL    HW1 6194   4.983   2.620   1.451
 1765SOL    HW2 6195   4.940   2.757   1.528
 1766SOL     OW 6196   4.601   4.508   3.731
 1766SOL    HW1 6197   4.510   4.534   3.698
 1766SOL    HW2 6198   4.591   4.442   3.806
 1767SOL     OW 6199   0.271   5.277   2.477
 1767SOL    HW1 6200   0.368   5.285   2.450
 1767SOL    HW2 6201   0.265   5.261   2.576
 1768SOL     OW 6202   4.379   6.634   1.243
 1768SOL    HW1 6203   4.298   6.597   1.288
 1768SOL    HW2 6204   4.448   6.562   1.233
 1769SOL     OW 6205   6.106   0.590   6.642
 1769SOL    HW1 6206   6.161   0.599   6.560
 1769SOL    HW2 6207   6.115   0.498   6.679
 1770SOL     OW 6208   1.219   4.523   5.460
 1770SOL    HW1 6209   1.139   4.569   5.420
 1770SOL    HW2 6210   1.250   4.451   5.399
 1771SOL     OW 6211   1.007   4.354   6.569
 1771SOL    HW1 6212   1.082   4.308   6.616
 1771SOL    HW2 6213   1.038   4.387   6.480
 1772SOL     OW 6214   3.698   5.436   3.812
 1772SOL    HW1 6215   3.604   5.468   3.803
 1772SOL    HW2 6216   3.737   5.471   3.897
 1773SOL     OW 6217   0.972   0.933   5.011
 1773SOL    HW1 6218   0.900   0.887   4.958
 1773SOL    HW2 6219   0.974   0.894   5.103
 1774SOL     OW 6220   6.061   6.798   1.994
 1774SOL    HW1 6221   6.011   6.792   2.080
 1774SOL    HW2 6222   6.158   6.812   2.012
 1775SOL     OW 6223   2.200   5.220   6.264
 1775SOL    HW1 6224   2.213   5.226   6.165
 1775SOL    HW2 6225   2.102   5.212   6.284
 1776SOL     OW 6226   5.199   1.169   5.691
 1776SOL    HW1 6227   5.172   1.256   5.650
 1776SOL    HW2 6228   5.294   1.174   5.721
 1777SOL     OW 6229   4.589   6.666   6.329
 1777SOL    HW1 6230   4.597   6.674   6.428
 1777SOL    HW2 6231   4.501   6.702   6.299
 1778SOL     OW 6232   5.386   1.366   4.128
 1778SOL    HW1 6233   5.326   1.436   4.166
 1778SOL    HW2 6234   5.450   1.408   4.063
 1779SOL     OW 6235   4.839   0.324   5.044
 1779SOL    HW1 6236   4.899   0.248   5.073
 1779SOL    HW2 6237   4.872   0.409   5.085
 1780SOL     OW 6238   1.446   5.490   4.556
 1780SOL    HW1 6239   1.527   5.530   4.513
 1780SOL    HW2 6240   1.466   5.395   4.582
 1781SOL     OW 6241   4.634   0.210   4.466
 1781SOL    HW1 6242   4.598   0.298   4.497
 1781SOL    HW2 6243   4.624   0.142   4.540
 1782SOL     OW 6244   1.767   1.405   2.772
 1782SOL    HW1 6245   1.722   1.495   2.772
 1782SOL    HW2 6246   1.864   1.417   2.754
 1783SOL     OW 6247   2.217   3.514   6.055
 1783SOL    HW1 6248   2.219   3.482   5.960
 1783SOL    HW2 6249   2.228   3.613   6.057
 1784SOL     OW 6250   2.577   0.686   1.294
 1784SOL    HW1 6251   2.562   0.603   1.348
 1784SOL    HW2 6252   2.494   0.708   1.244
 1785SOL     OW 6253   0.332   6.417   4.288
 1785SOL    HW1 6254   0.363   6.453   4.376
 1785SOL    HW2 6255   0.408   6.372   4.242
 1786SOL     OW 6256   1.825   5.691   0.770
 1786SOL    HW1 6257   1.834   5.601   0.812
 1786SOL    HW2 6258   1.735   5.698   0.726
 1787SOL     OW 6259   1.533   2.458   5.554
 1787SOL    HW1 6260   1.475   2.397   5.501
 1787SOL    HW2 6261   1.482   2.539   5.581
 1788SOL     OW 6262   4.331   3.867   0.556
 1788SOL    HW1 6263   4.413   3.912   0.591
 1788SOL    HW2 6264   4.322   3.886   0.458
 1789SOL     OW 6265   6.346   3.520   1.843
 1789SOL    HW1 6266   6.370   3.449   1.909
 1789SOL    HW2 6267   6.342   3.481   1.751
 1790SOL     OW 6268   2.862   1.758   4.625
 1790SOL    HW1 6269   2.961   1.766   4.640
 1790SOL    HW2 6270   2.821   1.849   4.624
 1791SOL     OW 6271   6.363   0.987   3.700
 1791SOL    HW1 6272   6.459   1.014   3.712
 1791SOL    HW2 6273   6.304   1.067   3.705
 1792SOL     OW 6274   0.128   2.190   5.396
 1792SOL    HW1 6275   0.188   2.236   5.330
 1792SOL    HW2 6276   0.041   2.168   5.352
 1793SOL     OW 6277   0.111   1.224   5.050
 1793SOL    HW1 6278   0.122   1.191   4.956
 1793SOL    HW2 6279   0.077   1.150   5.108
 1794SOL     OW 6280   6.752   0.309   6.515
 1794SOL    HW1 6281   6.825   0.243   6.532
 1794SOL    HW2 6282   6.789   0.402   6.521
 1795SOL     OW 6283   5.985   4.900   0.354
 1795SOL    HW1 6284   5.909   4.835   0.352
 1795SOL    HW2 6285   5.950   4.989   0.383
 1796SOL     OW 6286   1.734   0.130   5.619
 1796SOL    HW1 6287   1.759   0.124   5.523
 1796SOL    HW2 6288   1.796   0.193   5.666
 1797SOL     OW 6289   1.877   6.492   4.890
 1797SOL    HW1 6290   1.801   6.555   4.872
 1797SOL    HW2 6291   1.850   6.400   4.863
 1798SOL     OW 6292   3.699   3.147   4.482
 1798SOL    HW1 6293   3.738   3.059   4.509
 1798SOL    HW2 6294   3.616   3.164   4.534
 1799SOL     OW 6295   3.533   0.296   6.682
 1799SOL    HW1 6296   3.481   0.353   6.618
 1799SOL    HW2 6297   3.619   0.343   6.704
 1800SOL     OW 6298   5.261   4.375   3.938
 1800SOL    HW1 6299   5.198   4.442   3.978
 1800SOL    HW2 6300   5.344   4.421   3.908
 1801SOL     OW 6301   1.328   1.116   1.795
 1801SOL    HW1 6302   1.373   1.146   1.879
 1801SOL    HW2 6303   1.386   1.139   1.717
 1802SOL     OW 6304   6.554   4.601   3.600
 1802SOL    HW1 6305   6.515   4.657   3.673
 1802SOL    HW2 6306   6.627   4.544   3.638
 1803SOL     OW 6307   6.710   6.143   2.299
 1803SOL    HW1 6308   6.713   6.048   2.330
 1803SOL    HW2 6309   6.685   6.203   2.375
 1804SOL     OW 6310   3.436   3.526   6.020
 1804SOL    HW1 6311   3.425   3.622   6.047
 1804SOL    HW2 6312   3.371   3.503   5.948
 1805SOL     OW 6313   1.018   6.865   6.347
 1805SOL    HW1 6314   1.052   6.801   6.416
 1805SOL    HW2 6315   1.095   6.906   6.298
 1806SOL     OW 6316   6.443   2.415   2.343
 1806SOL    HW1 6317   6.379   2.425   2.419
 1806SOL    HW2 6318   6.400   2.447   2.259
 1807SOL     OW 6319   6.609   3.863   1.062
 1807SOL    HW1 6320   6.571   3.778   1.027
 1807SOL    HW2 6321   6.583   3.874   1.158
 1808SOL     OW 6322   5.009   2.592   5.472
 1808SOL    HW1 6323   5.090   2.651   5.475
 1808SOL    HW2 6324   4.930   2.645   5.442
 1809SOL     OW 6325   3.906   2.308   5.371
 1809SOL    HW1 6326   3.859   2.245   5.309
 1809SOL    HW2 6327   3.944   2.257   5.448
 1810SOL     OW 6328   0.125   0.115   3.804
 1810SOL    HW1 6329   0.223   0.136   3.811
 1810SOL    HW2 6330   0.090   0.149   3.717
 1811SOL     OW 6331   3.833   5.158   2.201
 1811SOL    HW1 6332   3.833   5.058   2.207
 1811SOL    HW2 6333   3.913   5.195   2.248
 1812SOL     OW 6334   4.078   0.067   6.203
 1812SOL    HW1 6335   4.085   0.148   6.262
 1812SOL    HW2 6336   4.163   0.056   6.152
 1813SOL     OW 6337   4.971   4.783   2.691
 1813SOL    HW1 6338   5.053   4.765   2.637
 1813SOL    HW2 6339   4.912   4.849   2.643
 1814SOL     OW 6340   0.118   0.002   0.602
 1814SOL    HW1 6341   0.018   7.012   0.596
 1814SOL    HW2 6342   0.149   0.060   0.527
 1815SOL     OW 6343   5.783   5.631   2.469
 1815SOL    HW1 6344   5.717   5.569   2.429
 1815SOL    HW2 6345   5.761   5.725   2.442
 1816SOL     OW 6346   4.339   6.001   5.502
 1816SOL    HW1 6347   4.383   5.968   5.586
 1816SOL    HW2 6348   4.267   6.065   5.526
 1817SOL     OW 6349   3.137   1.636   3.033
 1817SOL    HW1 6350   3.064   1.678   2.979
 1817SOL    HW2 6351   3.129   1.666   3.128
 1818SOL     OW 6352   1.690   6.542   6.908
 1818SOL    HW1 6353   1.620   6.477   6.880
 1818SOL    HW2 6354   1.781   6.503   6.891
 1819SOL     OW 6355   0.770   4.724   2.688
 1819SOL    HW1 6356   0.775   4.714   2.589
 1819SOL    HW2 6357   0.677   4.703   2.719
 1820SOL     OW 6358   3.715   0.120   3.385
 1820SOL    HW1 6359   3.709   0.021   3.371
 1820SOL    HW2 6360   3.706   0.141   3.482
 1821SOL     OW 6361   3.703   1.030   1.973
 1821SOL    HW1 6362   3.614   1.017   1.928
 1821SOL    HW2 6363   3.690   1.068   2.064
 1822SOL     OW 6364   0.741   3.173   1.989
 1822SOL    HW1 6365   0.827   3.125   1.974
 1822SOL    HW2 6366   0.746   3.226   2.074
 1823SOL     OW 6367   3.778   6.608   2.506
 1823SOL    HW1 6368   3.836   6.535   2.542
 1823SOL    HW2 6369   3.800   6.625   2.411
 1824SOL     OW 6370   4.158   4.225   1.409
 1824SOL    HW1 6371   4.145   4.189   1.501
 1824SOL    HW2 6372   4.076   4.207   1.354
 1825SOL     OW 6373   1.717   2.373   4.951
 1825SOL    HW1 6374   1.804   2.347   4.993
 1825SOL    HW2 6375   1.714   2.472   4.938
 1826SOL     OW 6376   3.581   2.133   1.531
 1826SOL    HW1 6377   3.651   2.138   1.602
 1826SOL    HW2 6378   3.497   2.176   1.563
 1827SOL     OW 6379   5.428   4.952   0.806
 1827SOL    HW1 6380   5.350   4.962   0.868
 1827SOL    HW2 6381   5.500   5.016   0.834
 1828SOL     OW 6382   1.420   3.382   6.081
 1828SOL    HW1 6383   1.359   3.439   6.137
 1828SOL    HW2 6384   1.491   3.439   6.041
 1829SOL     OW 6385   4.007   0.400   4.087
 1829SOL    HW1 6386   4.080   0.425   4.024
 1829SOL    HW2 6387   3.959   0.483   4.117
 1830SOL     OW 6388   5.916   7.009   4.867
 1830SOL    HW1 6389   5.829   0.033   4.847
 1830SOL    HW2 6390   5.978   0.052   4.912
 1831SOL     OW 6391   5.099   5.479   2.909
 1831SOL    HW1 6392   5.070   5.403   2.852
 1831SOL    HW2 6393   5.026   5.547   2.915
 1832SOL     OW 6394   2.135   3.825   0.572
 1832SOL    HW1 6395   2.179   3.876   0.498
 1832SOL    HW2 6396   2.132   3.728   0.549
 1833SOL     OW 6397   4.924   0.174   2.030
 1833SOL    HW1 6398   4.882   0.127   2.108
 1833SOL    HW2 6399   4.919   0.273   2.046
 1834SOL     OW 6400   2.823   2.267   0.121
 1834SOL    HW1 6401   2.836   2.175   0.083
 1834SOL    HW2 6402   2.820   2.261   0.221
 1835SOL     OW 6403   0.439   4.921   1.253
 1835SOL    HW1 6404   0.378   4.958   1.183
 1835SOL    HW2 6405   0.521   4.884   1.211
 1836SOL     OW 6406   5.596   1.562   2.049
 1836SOL    HW1 6407   5.675   1.600   2.000
 1836SOL    HW2 6408   5.625   1.482   2.101
 1837SOL     OW 6409   2.683   0.707   6.046
 1837SOL    HW1 6410   2.734   0.621   6.051
 1837SOL    HW2 6411   2.586   0.690   6.066
 1838SOL     OW 6412   6.244   0.703   0.478
 1838SOL    HW1 6413   6.318   0.644   0.510
 1838SOL    HW2 6414   6.277   0.797   0.470
 1839SOL     OW 6415   5.932   1.629   0.385
 1839SOL    HW1 6416   5.979   1.702   0.335
 1839SOL    HW2 6417   5.959   1.632   0.481
 1840SOL     OW 6418   3.662   0.430   3.087
 1840SOL    HW1 6419   3.758   0.403   3.095
 1840SOL    HW2 6420   3.651   0.524   3.119
 1841SOL     OW 6421   2.249   0.145   2.093
 1841SOL    HW1 6422   2.271   0.188   2.181
 1841SOL    HW2 6423   2.330   0.098   2.058
 1842SOL     OW 6424   1.862   4.845   0.606
 1842SOL    HW1 6425   1.900   4.808   0.522
 1842SOL    HW2 6426   1.776   4.798   0.628
 1843SOL     OW 6427   3.494   1.160   4.708
 1843SOL    HW1 6428   3.525   1.255   4.705
 1843SOL    HW2 6429   3.472   1.128   4.616
 1844SOL     OW 6430   5.289   1.270   6.088
 1844SOL    HW1 6431   5.253   1.362   6.068
 1844SOL    HW2 6432   5.232   1.228   6.159
 1845SOL     OW 6433   2.459   1.012   3.392
 1845SOL    HW1 6434   2.535   1.007   3.327
 1845SOL    HW2 6435   2.373   1.009   3.343
 1846SOL     OW 6436   4.539   0.928   3.155
 1846SOL    HW1 6437   4.614   0.917   3.220
 1846SOL    HW2 6438   4.565   0.993   3.084
 1847SOL     OW 6439   2.204   0.839   4.393
 1847SOL    HW1 6440   2.294   0.857   4.433
 1847SOL    HW2 6441   2.163   0.925   4.364
 1848SOL     OW 6442   1.915   5.870   4.280
 1848SOL    HW1 6443   1.871   5.798   4.333
 1848SOL    HW2 6444   1.929   5.950   4.338
 1849SOL     OW 6445   4.872   2.676   2.326
 1849SOL    HW1 6446   4.919   2.763   2.306
 1849SOL    HW2 6447   4.775   2.694   2.339
 1850SOL     OW 6448   5.133   2.260   2.443
 1850SOL    HW1 6449   5.063   2.315   2.488
 1850SOL    HW2 6450   5.097   2.221   2.359
 1851SOL     OW 6451   0.343   2.853   6.334
 1851SOL    HW1 6452   0.408   2.821   6.264
 1851SOL    HW2 6453   0.392   2.907   6.402
 1852SOL     OW 6454   1.400   4.118   2.189
 1852SOL    HW1 6455   1.393   4.183   2.266
 1852SOL    HW2 6456   1.308   4.100   2.154
 1853SOL     OW 6457   0.189   3.339   4.702
 1853SOL    HW1 6458   0.285   3.311   4.709
 1853SOL    HW2 6459   0.149   3.344   4.793
 1854SOL     OW 6460   0.620   5.659   3.227
 1854SOL    HW1 6461   0.686   5.595   3.266
 1854SOL    HW2 6462   0.617   5.647   3.128
 1855SOL     OW 6463   5.210   3.254   4.431
 1855SOL    HW1 6464   5.130   3.271   4.373
 1855SOL    HW2 6465   5.273   3.331   4.423
 1856SOL     OW 6466   3.705   3.352   0.317
 1856SOL    HW1 6467   3.650   3.335   0.398
 1856SOL    HW2 6468   3.723   3.450   0.309
 1857SOL     OW 6469   4.900   0.839   0.246
 1857SOL    HW1 6470   4.869   0.914   0.187
 1857SOL    HW2 6471   4.986   0.865   0.290
 1858SOL     OW 6472   4.346   1.987   4.196
 1858SOL    HW1 6473   4.286   1.959   4.271
 1858SOL    HW2 6474   4.401   1.909   4.166
 1859SOL     OW 6475   5.663   1.981   5.140
 1859SOL    HW1 6476   5.663   1.881   5.142
 1859SOL    HW2 6477   5.755   2.014   5.118
 1860SOL     OW 6478   0.816   1.789   4.981
 1860SOL    HW1 6479   0.743   1.833   5.034
 1860SOL    HW2 6480   0.783   1.700   4.948
 1861SOL     OW 6481   6.154   0.564   2.437
 1861SOL    HW1 6482   6.107   0.617   2.508
 1861SOL    HW2 6483   6.108   0.476   2.425
 1862SOL     OW 6484   2.053   6.496   0.032
 1862SOL    HW1 6485   1.984   6.434   7.016
 1862SOL    HW2 6486   2.054   6.581   7.002
 1863SOL     OW 6487   0.291   3.173   1.129
 1863SOL    HW1 6488   0.348   3.222   1.063
 1863SOL    HW2 6489   0.198   3.165   1.094
 1864SOL     OW 6490   2.772   5.757   4.162
 1864SOL    HW1 6491   2.789   5.812   4.080
 1864SOL    HW2 6492   2.815   5.802   4.241
 1865SOL     OW 6493   5.016   1.130   6.820
 1865SOL    HW1 6494   4.958   1.205   6.854
 1865SOL    HW2 6495   4.983   1.043   6.858
 1866SOL     OW 6496   0.680   4.104   4.264
 1866SOL    HW1 6497   0.667   4.021   4.318
 1866SOL    HW2 6498   0.769   4.144   4.286
 1867SOL     OW 6499   2.382   2.054   1.372
 1867SOL    HW1 6500   2.316   1.981   1.355
 1867SOL    HW2 6501   2.392   2.067   1.470
 1868SOL     OW 6502   5.524   4.250   5.317
 1868SOL    HW1 6503   5.465   4.261   5.396
 1868SOL    HW2 6504   5.484   4.182   5.255
 1869SOL     OW 6505   4.660   2.090   4.007
 1869SOL    HW1 6506   4.562   2.106   3.990
 1869SOL    HW2 6507   4.714   2.145   3.943
 1870SOL     OW 6508   1.278   4.658   4.231
 1870SOL    HW1 6509   1.219   4.734   4.202
 1870SOL    HW2 6510   1.327   4.684   4.314
 1871SOL     OW 6511   0.865   6.874   0.305
 1871SOL    HW1 6512   0.871   6.816   0.386
 1871SOL    HW2 6513   0.952   6.872   0.256
 1872SOL     OW 6514   3.214   1.797   0.364
 1872SOL    HW1 6515   3.209   1.866   0.436
 1872SOL    HW2 6516   3.177   1.710   0.398
 1873SOL     OW 6517   6.463   0.622   6.578
 1873SOL    HW1 6518   6.467   0.522   6.578
 1873SOL    HW2 6519   6.390   0.652   6.516
 1874SOL     OW 6520   0.983   6.533   6.619
 1874SOL    HW1 6521   1.006   6.437   6.638
 1874SOL    HW2 6522   0.930   6.538   6.534
 1875SOL     OW 6523   6.611   5.380   6.893
 1875SOL    HW1 6524   6.528   5.324   6.891
 1875SOL    HW2 6525   6.586   5.474   6.917
 1876SOL     OW 6526   5.611   6.603   6.092
 1876SOL    HW1 6527   5.554   6.547   6.152
 1876SOL    HW2 6528   5.704   6.608   6.130
 1877SOL     OW 6529   0.268   1.069   2.256
 1877SOL    HW1 6530   0.169   1.055   2.261
 1877SOL    HW2 6531   0.290   1.165   2.268
 1878SOL     OW 6532   0.527   4.264   3.354
 1878SOL    HW1 6533   0.598   4.245   3.286
 1878SOL    HW2 6534   0.531   4.196   3.427
 1879SOL     OW 6535   2.807   5.261   4.994
 1879SOL    HW1 6536   2.869   5.252   4.916
 1879SOL    HW2 6537   2.809   5.176   5.048
 1880SOL     OW 6538   0.186   2.540   3.243
 1880SOL    HW1 6539   0.278   2.510   3.267
 1880SOL    HW2 6540   0.166   2.627   3.289
 1881SOL     OW 6541   0.592   2.305   4.007
 1881SOL    HW1 6542   0.628   2.241   3.940
 1881SOL    HW2 6543   0.668   2.342   4.061
 1882SOL     OW 6544   0.935   6.113   0.279
 1882SOL    HW1 6545   1.031   6.139   0.294
 1882SOL    HW2 6546   0.878   6.159   0.347
 1883SOL     OW 6547   1.017   3.957   2.766
 1883SOL    HW1 6548   0.986   4.047   2.798
 1883SOL    HW2 6549   1.043   3.902   2.845
 1884SOL     OW 6550   3.433   0.902   0.389
 1884SOL    HW1 6551   3.382   0.845   0.454
 1884SOL    HW2 6552   3.448   0.851   0.305
 1885SOL     OW 6553   6.994   2.470   0.543
 1885SOL    HW1 6554   6.972   2.375   0.523
 1885SOL    HW2 6555   0.032   2.507   0.472
 1886SOL     OW 6556   2.002   1.729   6.557
 1886SOL    HW1 6557   2.085   1.695   6.601
 1886SOL    HW2 6558   1.924   1.671   6.582
 1887SOL     OW 6559   0.638   5.678   5.812
 1887SOL    HW1 6560   0.613   5.643   5.721
 1887SOL    HW2 6561   0.680   5.768   5.802
 1888SOL     OW 6562   1.987   1.711   5.665
 1888SOL    HW1 6563   1.999   1.787   5.730
 1888SOL    HW2 6564   2.021   1.738   5.575
 1889SOL     OW 6565   4.236   3.130   0.513
 1889SOL    HW1 6566   4.290   3.077   0.448
 1889SOL    HW2 6567   4.256   3.100   0.606
 1890SOL     OW 6568   1.115   5.717   6.016
 1890SOL    HW1 6569   1.072   5.799   6.054
 1890SOL    HW2 6570   1.116   5.724   5.916
 1891SOL     OW 6571   5.696   3.365   5.640
 1891SOL    HW1 6572   5.789   3.377   5.674
 1891SOL    HW2 6573   5.699   3.347   5.542
 1892SOL     OW 6574   3.788   5.672   1.125
 1892SOL    HW1 6575   3.887   5.669   1.109
 1892SOL    HW2 6576   3.770   5.653   1.222
 1893SOL     OW 6577   3.848   2.132   4.008
 1893SOL    HW1 6578   3.781   2.156   3.937
 1893SOL    HW2 6579   3.936   2.172   3.984
 1894SOL     OW 6580   4.465   3.963   1.657
 1894SOL    HW1 6581   4.387   3.903   1.645
 1894SOL    HW2 6582   4.438   4.044   1.709
 1895SOL     OW 6583   6.539   1.005   2.126
 1895SOL    HW1 6584   6.624   0.965   2.161
 1895SOL    HW2 6585   6.468   0.997   2.196
 1896SOL     OW 6586   6.131   1.594   4.368
 1896SOL    HW1 6587   6.219   1.599   4.414
 1896SOL    HW2 6588   6.075   1.522   4.410
 1897SOL     OW 6589   5.979   5.006   3.332
 1897SOL    HW1 6590   6.018   5.059   3.407
 1897SOL    HW2 6591   6.051   4.985   3.266
 1898SOL     OW 6592   5.559   5.931   0.976
 1898SOL    HW1 6593   5.538   5.871   1.052
 1898SOL    HW2 6594   5.480   5.939   0.916
 1899SOL     OW 6595   0.068   3.054   3.070
 1899SOL    HW1 6596   0.040   3.109   3.149
 1899SOL    HW2 6597   7.008   3.018   3.024
 1900SOL     OW 6598   1.346   6.430   6.598
 1900SOL    HW1 6599   1.401   6.397   6.675
 1900SOL    HW2 6600   1.287   6.356   6.565
 1901SOL     OW 6601   1.664   0.550   6.959
 1901SOL    HW1 6602   1.601   0.568   6.884
 1901SOL    HW2 6603   1.613   0.524   0.019
 1902SOL     OW 6604   0.825   3.392   4.124
 1902SOL    HW1 6605   0.887   3.314   4.128
 1902SOL    HW2 6606   0.742   3.366   4.077
 1903SOL     OW 6607   6.347   4.468   3.508
 1903SOL    HW1 6608   6.354   4.444   3.412
 1903SOL    HW2 6609   6.431   4.512   3.538
 1904SOL     OW 6610   0.360   6.849   4.301
 1904SOL    HW1 6611   0.330   6.921   4.364
 1904SOL    HW2 6612   0.313   6.861   4.213
 1905SOL     OW 6613   6.903   2.527   4.312
 1905SOL    HW1 6614   6.842   2.555   4.386
 1905SOL    HW2 6615   6.968   2.460   4.345
 1906SOL     OW 6616   2.139   7.018   5.957
 1906SOL    HW1 6617   2.209   0.057   5.919
 1906SOL    HW2 6618   2.129   6.937   5.900
 1907SOL     OW 6619   3.268   6.913   3.408
 1907SOL    HW1 6620   3.200   6.947   3.474
 1907SOL    HW2 6621   3.357   6.904   3.454
 1908SOL     OW 6622   4.555   0.651   5.932
 1908SOL    HW1 6623   4.622   0.579   5.918
 1908SOL    HW2 6624   4.528   0.654   6.028
 1909SOL     OW 6625   2.539   4.660   4.693
 1909SOL    HW1 6626   2.487   4.589   4.645
 1909SOL    HW2 6627   2.475   4.726   4.734
 1910SOL     OW 6628   5.171   2.337   6.963
 1910SOL    HW1 6629   5.136   2.421   7.004
 1910SOL    HW2 6630   5.159   2.261   0.005
 1911SOL     OW 6631   6.732   2.414   5.335
 1911SOL    HW1 6632   6.698   2.396   5.428
 1911SOL    HW2 6633   6.772   2.330   5.298
 1912SOL     OW 6634   3.273   6.357   2.270
 1912SOL    HW1 6635   3.204   6.427   2.253
 1912SOL    HW2 6636   3.337   6.388   2.340
 1913SOL     OW 6637   2.123   6.106   4.952
 1913SOL    HW1 6638   2.116   6.202   4.980
 1913SOL    HW2 6639   2.216   6.073   4.967
 1914SOL     OW 6640   2.485   2.546   6.209
 1914SOL    HW1 6641   2.411   2.559   6.275
 1914SOL    HW2 6642   2.545   2.473   6.240
 1915SOL     OW 6643   3.887   0.778   6.244
 1915SOL    HW1 6644   3.883   0.726   6.330
 1915SOL    HW2 6645   3.965   0.747   6.190
 1916SOL     OW 6646   4.067   5.693   1.181
 1916SOL    HW1 6647   4.049   5.777   1.233
 1916SOL    HW2 6648   4.166   5.680   1.172
 1917SOL     OW 6649   3.475   4.196   4.552
 1917SOL    HW1 6650   3.479   4.117   4.613
 1917SOL    HW2 6651   3.494   4.279   4.603
 1918SOL     OW 6652   5.977   6.418   5.823
 1918SOL    HW1 6653   5.880   6.421   5.845
 1918SOL    HW2 6654   6.030   6.449   5.902
 1919SOL     OW 6655   0.662   5.771   2.508
 1919SOL    HW1 6656   0.597   5.705   2.469
 1919SOL    HW2 6657   0.632   5.798   2.599
 1920SOL     OW 6658   0.647   4.805   3.987
 1920SOL    HW1 6659   0.639   4.904   3.971
 1920SOL    HW2 6660   0.563   4.760   3.957
 1921SOL     OW 6661   1.135   5.957   0.024
 1921SOL    HW1 6662   1.175   5.988   6.959
 1921SOL    HW2 6663   1.038   5.981   0.026
 1922SOL     OW 6664   4.290   3.209   1.340
 1922SOL    HW1 6665   4.223   3.281   1.325
 1922SOL    HW2 6666   4.243   3.120   1.345
 1923SOL     OW 6667   2.766   1.160   0.559
 1923SOL    HW1 6668   2.709   1.183   0.480
 1923SOL    HW2 6669   2.727   1.200   0.641
 1924SOL     OW 6670   6.474   4.480   2.063
 1924SOL    HW1 6671   6.480   4.397   2.008
 1924SOL    HW2 6672   6.438   4.457   2.154
 1925SOL     OW 6673   3.318   3.820   1.995
 1925SOL    HW1 6674   3.276   3.891   1.939
 1925SOL    HW2 6675   3.401   3.856   2.039
 1926SOL     OW 6676   1.728   0.587   4.667
 1926SOL    HW1 6677   1.652   0.525   4.645
 1926SOL    HW2 6678   1.694   0.680   4.676
 1927SOL     OW 6679   4.372   3.446   6.851
 1927SOL    HW1 6680   4.293   3.455   6.791
 1927SOL    HW2 6681   4.343   3.460   6.946
 1928SOL     OW 6682   6.489   3.719   6.022
 1928SOL    HW1 6683   6.501   3.781   5.944
 1928SOL    HW2 6684   6.518   3.765   6.105
 1929SOL     OW 6685   1.543   6.372   2.160
 1929SOL    HW1 6686   1.642   6.378   2.152
 1929SOL    HW2 6687   1.502   6.452   2.117
 1930SOL     OW 6688   6.520   4.349   6.587
 1930SOL    HW1 6689   6.514   4.447   6.602
 1930SOL    HW2 6690   6.594   4.329   6.523
 1931SOL     OW 6691   0.334   3.911   3.075
 1931SOL    HW1 6692   0.434   3.919   3.070
 1931SOL    HW2 6693   0.309   3.814   3.075
 1932SOL     OW 6694   4.895   3.815   2.404
 1932SOL    HW1 6695   4.868   3.881   2.334
 1932SOL    HW2 6696   4.989   3.786   2.387
 1933SOL     OW 6697   3.114   4.494   0.518
 1933SOL    HW1 6698   3.102   4.408   0.567
 1933SOL    HW2 6699   3.206   4.529   0.535
 1934SOL     OW 6700   1.258   0.128   5.811
 1934SOL    HW1 6701   1.218   0.200   5.869
 1934SOL    HW2 6702   1.298   0.057   5.869
 1935SOL     OW 6703   2.459   0.157   4.413
 1935SOL    HW1 6704   2.550   0.142   4.374
 1935SOL    HW2 6705   2.450   0.104   4.497
 1936SOL     OW 6706   5.533   5.671   4.360
 1936SOL    HW1 6707   5.597   5.596   4.342
 1936SOL    HW2 6708   5.464   5.641   4.425
 1937SOL     OW 6709   3.727   6.536   1.548
 1937SOL    HW1 6710   3.645   6.511   1.600
 1937SOL    HW2 6711   3.806   6.489   1.587
 1938SOL     OW 6712   3.742   1.462   3.487
 1938SOL    HW1 6713   3.691   1.441   3.404
 1938SOL    HW2 6714   3.679   1.499   3.556
 1939SOL     OW 6715   1.293   1.018   3.540
 1939SOL    HW1 6716   1.373   1.043   3.487
 1939SOL    HW2 6717   1.313   1.028   3.638
 1940SOL     OW 6718   5.421   5.564   6.891
 1940SOL    HW1 6719   5.368   5.558   6.806
 1940SOL    HW2 6720   5.485   5.487   6.895
 1941SOL     OW 6721   6.628   4.023   3.469
 1941SOL    HW1 6722   6.595   4.054   3.558
 1941SOL    HW2 6723   6.637   3.924   3.470
 1942SOL     OW 6724   5.866   5.792   2.045
 1942SOL    HW1 6725   5.777   5.763   2.008
 1942SOL    HW2 6726   5.914   5.714   2.083
 1943SOL     OW 6727   2.922   5.375   2.817
 1943SOL    HW1 6728   2.846   5.312   2.835
 1943SOL    HW2 6729   2.956   5.360   2.724
 1944SOL     OW 6730   5.583   1.831   6.462
 1944SOL    HW1 6731   5.555   1.753   6.518
 1944SOL    HW2 6732   5.528   1.833   6.378
 1945SOL     OW 6733   4.776   5.450   2.896
 1945SOL    HW1 6734   4.809   5.365   2.938
 1945SOL    HW2 6735   4.741   5.429   2.805
 1946SOL     OW 6736   1.492   0.363   0.974
 1946SOL    HW1 6737   1.517   0.440   0.916
 1946SOL    HW2 6738   1.412   0.386   1.029
 1947SOL     OW 6739   5.382   6.570   4.954
 1947SOL    HW1 6740   5.291   6.597   4.924
 1947SOL    HW2 6741   5.425   6.647   5.003
 1948SOL     OW 6742   0.228   5.492   4.666
 1948SOL    HW1 6743   0.197   5.444   4.584
 1948SOL    HW2 6744   0.163   5.477   4.740
 1949SOL     OW 6745   3.981   4.182   6.065
 1949SOL    HW1 6746   4.057   4.221   6.013
 1949SOL    HW2 6747   3.904   4.164   6.004
 1950SOL     OW 6748   3.555   3.532   6.745
 1950SOL    HW1 6749   3.494   3.589   6.690
 1950SOL    HW2 6750   3.631   3.588   6.778
 1951SOL     OW 6751   5.986   2.442   0.390
 1951SOL    HW1 6752   5.965   2.365   0.331
 1951SOL    HW2 6753   6.081   2.470   0.377
 1952SOL     OW 6754   3.251   2.184   0.740
 1952SOL    HW1 6755   3.303   2.196   0.824
 1952SOL    HW2 6756   3.292   2.240   0.667
 1953SOL     OW 6757   6.730   2.369   6.915
 1953SOL    HW1 6758   6.827   2.356   6.896
 1953SOL    HW2 6759   6.720   2.424   6.998
 1954SOL     OW 6760   5.388   1.817   4.053
 1954SOL    HW1 6761   5.404   1.853   4.145
 1954SOL    HW2 6762   5.461   1.848   3.992
 1955SOL     OW 6763   1.555   0.034   1.760
 1955SOL    HW1 6764   1.567   0.112   1.821
 1955SOL    HW2 6765   1.622   6.985   1.782
 1956SOL     OW 6766   5.307   6.376   2.846
 1956SOL    HW1 6767   5.263   6.327   2.921
 1956SOL    HW2 6768   5.237   6.422   2.791
 1957SOL     OW 6769   6.682   5.905   5.260
 1957SOL    HW1 6770   6.588   5.877   5.276
 1957SOL    HW2 6771   6.745   5.838   5.301
 1958SOL     OW 6772   5.773   3.603   4.454
 1958SOL    HW1 6773   5.793   3.657   4.372
 1958SOL    HW2 6774   5.777   3.506   4.432
 1959SOL     OW 6775   0.532   2.686   5.661
 1959SOL    HW1 6776   0.442   2.730   5.651
 1959SOL    HW2 6777   0.573   2.673   5.571
 1960SOL     OW 6778   6.487   5.107   0.834
 1960SOL    HW1 6779   6.567   5.047   0.833
 1960SOL    HW2 6780   6.404   5.053   0.845
 1961SOL     OW 6781   5.598   4.750   4.626
 1961SOL    HW1 6782   5.498   4.751   4.627
 1961SOL    HW2 6783   5.630   4.660   4.597
 1962SOL     OW 6784   1.598   6.081   4.169
 1962SOL    HW1 6785   1.513   6.051   4.213
 1962SOL    HW2 6786   1.605   6.039   4.079
 1963SOL     OW 6787   0.842   0.600   1.713
 1963SOL    HW1 6788   0.864   0.504   1.695
 1963SOL    HW2 6789   0.918   0.643   1.762
 1964SOL     OW 6790   4.690   2.452   1.513
 1964SOL    HW1 6791   4.648   2.510   1.582
 1964SOL    HW2 6792   4.759   2.504   1.463
 1965SOL     OW 6793   0.496   2.819   2.766
 1965SOL    HW1 6794   0.476   2.724   2.745
 1965SOL    HW2 6795   0.581   2.825   2.819
 1966SOL     OW 6796   0.776   5.213   4.980
 1966SOL    HW1 6797   0.790   5.293   4.921
 1966SOL    HW2 6798   0.687   5.173   4.960
 1967SOL     OW 6799   4.575   2.099   5.909
 1967SOL    HW1 6800   4.476   2.092   5.916
 1967SOL    HW2 6801   4.612   2.141   5.992
 1968SOL     OW 6802   3.009   5.943   6.823
 1968SOL    HW1 6803   3.003   5.949   6.922
 1968SOL    HW2 6804   3.015   6.035   6.784
 1969SOL     OW 6805   6.433   1.895   1.554
 1969SOL    HW1 6806   6.447   1.909   1.456
 1969SOL    HW2 6807   6.411   1.982   1.597
 1970SOL     OW 6808   2.287   0.573   5.909
 1970SOL    HW1 6809   2.269   0.521   5.993
 1970SOL    HW2 6810   2.351   0.647   5.929
 1971SOL     OW 6811   0.169   6.852   6.623
 1971SOL    HW1 6812   0.206   6.925   6.565
 1971SOL    HW2 6813   0.230   6.838   6.702
 1972SOL     OW 6814   0.482   3.275   2.989
 1972SOL    HW1 6815   0.396   3.224   2.986
 1972SOL    HW2 6816   0.463   3.372   3.006
 1973SOL     OW 6817   3.733   2.891   2.049
 1973SOL    HW1 6818   3.731   2.792   2.063
 1973SOL    HW2 6819   3.682   2.936   2.123
 1974SOL     OW 6820   6.379   6.138   3.812
 1974SOL    HW1 6821   6.280   6.142   3.824
 1974SOL    HW2 6822   6.415   6.054   3.853
 1975SOL     OW 6823   2.472   1.021   3.686
 1975SOL    HW1 6824   2.443   0.950   3.750
 1975SOL    HW2 6825   2.486   0.980   3.595
 1976SOL     OW 6826   0.522   6.067   0.330
 1976SOL    HW1 6827   0.591   6.050   0.400
 1976SOL    HW2 6828   0.431   6.046   0.365
 1977SOL     OW 6829   0.965   3.199   3.765
 1977SOL    HW1 6830   1.007   3.146   3.840
 1977SOL    HW2 6831   0.920   3.136   3.702
 1978SOL     OW 6832   1.580   1.571   4.126
 1978SOL    HW1 6833   1.541   1.494   4.076
 1978SOL    HW2 6834   1.556   1.656   4.081
 1979SOL     OW 6835   6.867   4.522   5.048
 1979SOL    HW1 6836   6.950   4.555   5.093
 1979SOL    HW2 6837   6.889   4.445   4.989
 1980SOL     OW 6838   3.431   6.876   0.545
 1980SOL    HW1 6839   3.438   6.783   0.581
 1980SOL    HW2 6840   3.364   6.879   0.471
 1981SOL     OW 6841   5.388   2.275   2.316
 1981SOL    HW1 6842   5.390   2.179   2.290
 1981SOL    HW2 6843   5.313   2.290   2.381
 1982SOL     OW 6844   6.171   4.888   5.057
 1982SOL    HW1 6845   6.194   4.978   5.096
 1982SOL    HW2 6846   6.250   4.828   5.063
 1983SOL     OW 6847   0.821   2.574   3.149
 1983SOL    HW1 6848   0.766   2.555   3.231
 1983SOL    HW2 6849   0.896   2.636   3.173
 1984SOL     OW 6850   4.663   1.489   6.110
 1984SOL    HW1 6851   4.728   1.564   6.121
 1984SOL    HW2 6852   4.642   1.449   6.199
 1985SOL     OW 6853   1.089   1.280   2.279
 1985SOL    HW1 6854   1.036   1.275   2.194
 1985SOL    HW2 6855   1.173   1.332   2.262
 1986SOL     OW 6856   1.460   1.542   6.975
 1986SOL    HW1 6857   1.507   1.469   0.004
 1986SOL    HW2 6858   1.518   1.623   6.972
 1987SOL     OW 6859   2.724   2.908   1.689
 1987SOL    HW1 6860   2.813   2.873   1.660
 1987SOL    HW2 6861   2.735   3.001   1.726
 1988SOL     OW 6862   4.946   4.466   0.445
 1988SOL    HW1 6863   4.951   4.495   0.350
 1988SOL    HW2 6864   4.918   4.543   0.502
 1989SOL     OW 6865   2.016   0.911   4.609
 1989SOL    HW1 6866   2.086   0.936   4.676
 1989SOL    HW2 6867   2.060   0.877   4.526
 1990SOL     OW 6868   3.076   0.402   2.081
 1990SOL    HW1 6869   3.134   0.339   2.029
 1990SOL    HW2 6870   3.036   0.353   2.159
 1991SOL     OW 6871   3.385   5.477   5.545
 1991SOL    HW1 6872   3.395   5.526   5.631
 1991SOL    HW2 6873   3.296   5.433   5.541
 1992SOL     OW 6874   3.102   0.116   5.906
 1992SOL    HW1 6875   3.198   0.095   5.923
 1992SOL    HW2 6876   3.062   0.161   5.986
 1993SOL     OW 6877   3.925   3.675   5.580
 1993SOL    HW1 6878   3.875   3.590   5.571
 1993SOL    HW2 6879   3.883   3.745   5.522
 1994SOL     OW 6880   1.006   2.058   2.303
 1994SOL    HW1 6881   1.058   2.142   2.318
 1994SOL    HW2 6882   0.941   2.045   2.378
 1995SOL     OW 6883   6.325   2.096   2.369
 1995SOL    HW1 6884   6.362   2.013   2.326
 1995SOL    HW2 6885   6.347   2.176   2.314
 1996SOL     OW 6886   2.981   2.809   1.367
 1996SOL    HW1 6887   3.047   2.884   1.368
 1996SOL    HW2 6888   3.024   2.725   1.399
 1997SOL     OW 6889   5.142   0.893   5.666
 1997SOL    HW1 6890   5.149   0.989   5.693
 1997SOL    HW2 6891   5.197   0.837   5.728
 1998SOL     OW 6892   3.058   3.921   6.308
 1998SOL    HW1 6893   3.099   3.841   6.264
 1998SOL    HW2 6894   2.989   3.961   6.247
 1999SOL     OW 6895   2.803   0.347   1.775
 1999SOL    HW1 6896   2.703   0.340   1.774
 1999SOL    HW2 6897   2.830   0.434   1.733
 2000SOL     OW 6898   3.906   1.871   5.041
 2000SOL    HW1 6899   3.952   1.826   5.118
 2000SOL    HW2 6900   3.863   1.802   4.983
 2001SOL     OW 6901   3.480   2.321   1.725
 2001SOL    HW1 6902   3.568   2.326   1.772
 2001SOL    HW2 6903   3.442   2.412   1.712
 2002SOL     OW 6904   1.446   6.074   6.410
 2002SOL    HW1 6905   1.349   6.098   6.420
 2002SOL    HW2 6906   1.454   5.982   6.371
 2003SOL     OW 6907   4.503   0.077   3.900
 2003SOL    HW1 6908   4.562   0.148   3.938
 2003SOL    HW2 6909   4.545   0.039   3.818
 2004SOL     OW 6910   5.164   1.247   4.700
 2004SOL    HW1 6911   5.228   1.175   4.725
 2004SOL    HW2 6912   5.175   1.325   4.761
 2005SOL     OW 6913   1.599   5.797   6.828
 2005SOL    HW1 6914   1.589   5.873   6.892
 2005SOL    HW2 6915   1.646   5.721   6.874
 2006SOL     OW 6916   5.050   4.462   3.735
 2006SOL    HW1 6917   4.999   4.423   3.812
 2006SOL    HW2 6918   5.053   4.562   3.744
 2007SOL     OW 6919   4.817   5.772   0.715
 2007SOL    HW1 6920   4.733   5.724   0.692
 2007SOL    HW2 6921   4.794   5.863   0.752
 2008SOL     OW 6922   0.374   5.890   3.895
 2008SOL    HW1 6923   0.330   5.820   3.952
 2008SOL    HW2 6924   0.338   5.886   3.803
 2009SOL     OW 6925   6.499   0.294   1.640
 2009SOL    HW1 6926   6.544   0.211   1.605
 2009SOL    HW2 6927   6.532   0.374   1.589
 2010SOL     OW 6928   1.863   1.102   0.950
 2010SOL    HW1 6929   1.879   1.046   0.868
 2010SOL    HW2 6930   1.769   1.135   0.951
 2011SOL     OW 6931   6.556   2.503   5.075
 2011SOL    HW1 6932   6.499   2.582   5.051
 2011SOL    HW2 6933   6.640   2.535   5.119
 2012SOL     OW 6934   0.473   3.548   1.254
 2012SOL    HW1 6935   0.439   3.544   1.160
 2012SOL    HW2 6936   0.432   3.474   1.308
 2013SOL     OW 6937   5.664   1.325   3.043
 2013SOL    HW1 6938   5.741   1.362   3.096
 2013SOL    HW2 6939   5.686   1.232   3.013
 2014SOL     OW 6940   1.141   5.330   3.365
 2014SOL    HW1 6941   1.114   5.363   3.456
 2014SOL    HW2 6942   1.215   5.387   3.329
 2015SOL     OW 6943   2.913   1.474   6.683
 2015SOL    HW1 6944   2.918   1.386   6.635
 2015SOL    HW2 6945   2.968   1.470   6.766
 2016SOL     OW 6946   0.336   5.762   4.724
 2016SOL    HW1 6947   0.291   5.676   4.697
 2016SOL    HW2 6948   0.369   5.753   4.818
 2017SOL     OW 6949   3.537   6.880   3.511
 2017SOL    HW1 6950   3.583   6.944   3.573
 2017SOL    HW2 6951   3.603   6.814   3.476
 2018SOL     OW 6952   6.868   5.808   5.722
 2018SOL    HW1 6953   6.844   5.887   5.665
 2018SOL    HW2 6954   6.820   5.727   5.688
 2019SOL     OW 6955   5.188   3.015   1.845
 2019SOL    HW1 6956   5.103   3.061   1.873
 2019SOL    HW2 6957   5.187   2.921   1.880
 2020SOL     OW 6958   1.468   5.437   5.068
 2020SOL    HW1 6959   1.466   5.391   5.157
 2020SOL    HW2 6960   1.383   5.418   5.019
 2021SOL     OW 6961   2.091   7.007   2.972
 2021SOL    HW1 6962   2.111   0.038   2.890
 2021SOL    HW2 6963   2.004   6.959   2.961
 2022SOL     OW 6964   1.824   3.648   2.012
 2022SOL    HW1 6965   1.911   3.697   2.002
 2022SOL    HW2 6966   1.785   3.633   1.921
 2023SOL     OW 6967   0.320   1.894   0.192
 2023SOL    HW1 6968   0.285   1.968   0.250
 2023SOL    HW2 6969   0.266   1.890   0.108
 2024SOL     OW 6970   6.876   0.979   2.595
 2024SOL    HW1 6971   6.909   1.071   2.613
 2024SOL    HW2 6972   6.776   0.978   2.596
 2025SOL     OW 6973   1.661   2.459   1.858
 2025SOL    HW1 6974   1.650   2.360   1.846
 2025SOL    HW2 6975   1.754   2.479   1.889
 2026SOL     OW 6976   1.658   2.114   6.031
 2026SOL    HW1 6977   1.730   2.088   6.096
 2026SOL    HW2 6978   1.580   2.151   6.081
 2027SOL     OW 6979   0.873   1.310   0.979
 2027SOL    HW1 6980   0.852   1.322   0.882
 2027SOL    HW2 6981   0.807   1.249   1.021
 2028SOL     OW 6982   3.356   1.444   0.073
 2028SOL    HW1 6983   3.349   1.542   0.060
 2028SOL    HW2 6984   3.453   1.418   0.078
 2029SOL     OW 6985   0.553   0.378   6.874
 2029SOL    HW1 6986   0.490   0.340   6.943
 2029SOL    HW2 6987   0.640   0.328   6.877
 2030SOL     OW 6988   1.679   2.214   3.370
 2030SOL    HW1 6989   1.732   2.214   3.455
 2030SOL    HW2 6990   1.732   2.170   3.298
 2031SOL     OW 6991   5.511   6.200   2.308
 2031SOL    HW1 6992   5.564   6.242   2.234
 2031SOL    HW2 6993   5.563   6.203   2.393
 2032SOL     OW 6994   5.614   6.090   1.210
 2032SOL    HW1 6995   5.700   6.067   1.255
 2032SOL    HW2 6996   5.621   6.068   1.113
 2033SOL     OW 6997   4.154   4.369   6.930
 2033SOL    HW1 6998   4.165   4.452   6.875
 2033SOL    HW2 6999   4.139   4.291   6.869
 2034SOL     OW 7000   1.893   6.668   3.720
 2034SOL    HW1 7001   1.922   6.601   3.651
 2034SOL    HW2 7002   1.849   6.620   3.796
 2035SOL     OW 7003   6.858   1.816   2.912
 2035SOL    HW1 7004   6.849   1.717   2.900
 2035SOL    HW2 7005   6.952   1.844   2.893
 2036SOL     OW 7006   0.346   5.962   1.898
 2036SOL    HW1 7007   0.317   6.042   1.950
 2036SOL    HW2 7008   0.273   5.894   1.897
 2037SOL     OW 7009   6.486   2.240   5.808
 2037SOL    HW1 7010   6.454   2.171   5.873
 2037SOL    HW2 7011   6.578   2.217   5.777
 2038SOL     OW 7012   0.521   2.021   6.926
 2038SOL    HW1 7013   0.523   1.928   6.889
 2038SOL    HW2 7014   0.555   2.020   7.020
 2039SOL     OW 7015   0.251   5.850   3.358
 2039SOL    HW1 7016   0.191   5.845   3.279
 2039SOL    HW2 7017   0.287   5.760   3.379
 2040SOL     OW 7018   3.364   2.742   5.243
 2040SOL    HW1 7019   3.455   2.700   5.245
 2040SOL    HW2 7020   3.294   2.671   5.240
 2041SOL     OW 7021   6.639   5.662   6.671
 2041SOL    HW1 7022   6.595   5.583   6.630
 2041SOL    HW2 7023   6.569   5.727   6.701
 2042SOL     OW 7024   5.715   5.161   6.734
 2042SOL    HW1 7025   5.777   5.103   6.787
 2042SOL    HW2 7026   5.707   5.251   6.778
 2043SOL     OW 7027   6.296   5.341   2.202
 2043SOL    HW1 7028   6.394   5.354   2.214
 2043SOL    HW2 7029   6.261   5.279   2.272
 2044SOL     OW 7030   4.829   0.443   2.130
 2044SOL    HW1 7031   4.749   0.388   2.155
 2044SOL    HW2 7032   4.814   0.486   2.041
 2045SOL     OW 7033   1.780   4.467   5.066
 2045SOL    HW1 7034   1.874   4.449   5.095
 2045SOL    HW2 7035   1.781   4.518   4.979
 2046SOL     OW 7036   0.091   0.775   3.985
 2046SOL    HW1 7037   0.098   0.678   3.962
 2046SOL    HW2 7038   0.067   0.785   4.081
 2047SOL     OW 7039   4.142   1.923   0.535
 2047SOL    HW1 7040   4.123   1.997   0.600
 2047SOL    HW2 7041   4.224   1.945   0.483
 2048SOL     OW 7042   4.156   6.250   6.923
 2048SOL    HW1 7043   4.120   6.342   6.939
 2048SOL    HW2 7044   4.089   6.182   6.953
 2049SOL     OW 7045   4.667   1.996   6.680
 2049SOL    HW1 7046   4.583   1.962   6.637
 2049SOL    HW2 7047   4.680   2.092   6.656
 2050SOL     OW 7048   5.903   2.877   3.734
 2050SOL    HW1 7049   5.891   2.966   3.778
 2050SOL    HW2 7050   6.000   2.855   3.729
 2051SOL     OW 7051   6.641   4.680   6.808
 2051SOL    HW1 7052   6.579   4.696   6.731
 2051SOL    HW2 7053   6.735   4.671   6.774
 2052SOL     OW 7054   0.134   3.385   0.050
 2052SOL    HW1 7055   0.152   3.383   6.973
 2052SOL    HW2 7056   0.041   3.420   0.066
 2053SOL     OW 7057   6.270   0.643   0.866
 2053SOL    HW1 7058   6.353   0.690   0.836
 2053SOL    HW2 7059   6.230   0.693   0.943
 2054SOL     OW 7060   5.486   2.738   1.686
 2054SOL    HW1 7061   5.411   2.764   1.625
 2054SOL    HW2 7062   5.514   2.643   1.667
 2055SOL     OW 7063   5.875   3.242   2.927
 2055SOL    HW1 7064   5.840   3.226   3.019
 2055SOL    HW2 7065   5.949   3.309   2.930
 2056SOL     OW 7066   2.164   1.609   2.334
 2056SOL    HW1 7067   2.192   1.667   2.258
 2056SOL    HW2 7068   2.079   1.644   2.373
 2057SOL     OW 7069   5.477   2.412   3.875
 2057SOL    HW1 7070   5.556   2.448   3.825
 2057SOL    HW2 7071   5.402   2.398   3.810
 2058SOL     OW 7072   1.018   1.764   2.963
 2058SOL    HW1 7073   1.051   1.733   2.873
 2058SOL    HW2 7074   1.010   1.685   3.024
 2059SOL     OW 7075   2.541   6.453   6.262
 2059SOL    HW1 7076   2.452   6.407   6.258
 2059SOL    HW2 7077   2.528   6.552   6.257
 2060SOL     OW 7078   6.526   4.357   1.005
 2060SOL    HW1 7079   6.584   4.312   1.073
 2060SOL    HW2 7080   6.494   4.444   1.042
 2061SOL     OW 7081   0.626   1.873   2.912
 2061SOL    HW1 7082   0.636   1.816   2.993
 2061SOL    HW2 7083   0.610   1.968   2.939
 2062SOL     OW 7084   5.287   0.697   3.246
 2062SOL    HW1 7085   5.369   0.641   3.242
 2062SOL    HW2 7086   5.304   0.784   3.200
 2063SOL     OW 7087   0.742   1.109   6.672
 2063SOL    HW1 7088   0.721   1.060   6.588
 2063SOL    HW2 7089   0.817   1.173   6.656
 2064SOL     OW 7090   0.632   1.806   5.385
 2064SOL    HW1 7091   0.578   1.757   5.453
 2064SOL    HW2 7092   0.659   1.743   5.312
 2065SOL     OW 7093   6.191   4.046   2.240
 2065SOL    HW1 7094   6.275   4.050   2.295
 2065SOL    HW2 7095   6.122   3.993   2.289
 2066SOL     OW 7096   0.874   5.938   4.499
 2066SOL    HW1 7097   0.938   5.961   4.572
 2066SOL    HW2 7098   0.923   5.904   4.419
 2067SOL     OW 7099   0.429   6.610   0.801
 2067SOL    HW1 7100   0.357   6.680   0.797
 2067SOL    HW2 7101   0.387   6.519   0.805
 2068SOL     OW 7102   1.211   1.367   5.622
 2068SOL    HW1 7103   1.271   1.295   5.658
 2068SOL    HW2 7104   1.212   1.364   5.522
 2069SOL     OW 7105   0.650   2.860   3.736
 2069SOL    HW1 7106   0.690   2.785   3.789
 2069SOL    HW2 7107   0.572   2.826   3.684
 2070SOL     OW 7108   1.904   6.845   2.351
 2070SOL    HW1 7109   1.955   6.760   2.358
 2070SOL    HW2 7110   1.946   6.904   2.281
 2071SOL     OW 7111   6.994   6.340   4.686
 2071SOL    HW1 7112   0.008   6.396   4.611
 2071SOL    HW2 7113   0.015   6.369   4.772
 2072SOL     OW 7114   4.532   6.518   1.858
 2072SOL    HW1 7115   4.492   6.586   1.920
 2072SOL    HW2 7116   4.585   6.452   1.912
 2073SOL     OW 7117   3.609   6.912   4.559
 2073SOL    HW1 7118   3.602   6.931   4.461
 2073SOL    HW2 7119   3.531   6.952   4.606
 2074SOL     OW 7120   0.795   2.379   6.576
 2074SOL    HW1 7121   0.790   2.386   6.477
 2074SOL    HW2 7122   0.879   2.423   6.608
 2075SOL     OW 7123   5.038   2.333   1.311
 2075SOL    HW1 7124   5.008   2.245   1.347
 2075SOL    HW2 7125   4.981   2.358   1.233
 2076SOL     OW 7126   5.120   6.114   6.864
 2076SOL    HW1 7127   5.064   6.050   6.916
 2076SOL    HW2 7128   5.061   6.184   6.823
 2077SOL     OW 7129   4.872   2.812   1.932
 2077SOL    HW1 7130   4.828   2.727   1.963
 2077SOL    HW2 7131   4.816   2.890   1.960
 2078SOL     OW 7132   2.408   5.857   6.397
 2078SOL    HW1 7133   2.506   5.849   6.415
 2078SOL    HW2 7134   2.393   5.925   6.324
 2079SOL     OW 7135   6.173   1.188   3.671
 2079SOL    HW1 7136   6.183   1.245   3.753
 2079SOL    HW2 7137   6.102   1.226   3.612
 2080SOL     OW 7138   1.781   1.575   4.907
 2080SOL    HW1 7139   1.821   1.591   4.817
 2080SOL    HW2 7140   1.834   1.626   4.976
 2081SOL     OW 7141   1.819   5.837   4.713
 2081SOL    HW1 7142   1.886   5.911   4.710
 2081SOL    HW2 7143   1.736   5.869   4.759
 2082SOL     OW 7144   6.401   7.000   2.404
 2082SOL    HW1 7145   6.363   0.070   2.420
 2082SOL    HW2 7146   6.375   6.969   2.313
 2083SOL     OW 7147   4.209   4.147   6.245
 2083SOL    HW1 7148   4.222   4.052   6.272
 2083SOL    HW2 7149   4.122   4.156   6.196
 2084SOL     OW 7150   6.950   4.325   3.923
 2084SOL    HW1 7151   6.870   4.352   3.871
 2084SOL    HW2 7152   6.943   4.360   4.017
 2085SOL     OW 7153   5.372   0.979   0.011
 2085SOL    HW1 7154   5.328   0.893   0.033
 2085SOL    HW2 7155   5.365   1.042   0.089
 2086SOL     OW 7156   3.282   5.839   6.013
 2086SOL    HW1 7157   3.373   5.878   6.003
 2086SOL    HW2 7158   3.289   5.744   6.041
 2087SOL     OW 7159   4.589   6.941   1.859
 2087SOL    HW1 7160   4.553   6.878   1.789
 2087SOL    HW2 7161   4.527   6.942   1.937
 2088SOL     OW 7162   2.558   5.342   0.725
 2088SOL    HW1 7163   2.566   5.433   0.684
 2088SOL    HW2 7164   2.648   5.299   0.729
 2089SOL     OW 7165   3.994   1.269   6.896
 2089SOL    HW1 7166   3.973   1.182   6.941
 2089SOL    HW2 7167   3.984   1.344   6.960
 2090SOL     OW 7168   4.088   3.591   4.707
 2090SOL    HW1 7169   4.072   3.567   4.611
 2090SOL    HW2 7170   4.081   3.690   4.719
 2091SOL     OW 7171   6.945   6.167   6.992
 2091SOL    HW1 7172   6.853   6.196   7.017
 2091SOL    HW2 7173   6.941   6.076   6.952
 2092SOL     OW 7174   5.190   5.447   0.505
 2092SOL    HW1 7175   5.266   5.463   0.569
 2092SOL    HW2 7176   5.218   5.476   0.414
 2093SOL     OW 7177   1.679   2.200   1.772
 2093SOL    HW1 7178   1.662   2.133   1.700
 2093SOL    HW2 7179   1.774   2.195   1.801
 2094SOL     OW 7180   5.734   1.844   1.506
 2094SOL    HW1 7181   5.702   1.769   1.448
 2094SOL    HW2 7182   5.702   1.931   1.469
 2095SOL     OW 7183   5.592   0.334   4.273
 2095SOL    HW1 7184   5.644   0.278   4.209
 2095SOL    HW2 7185   5.521   0.384   4.224
 2096SOL     OW 7186   4.818   3.928   2.861
 2096SOL    HW1 7187   4.855   3.980   2.939
 2096SOL    HW2 7188   4.853   3.967   2.776
 2097SOL     OW 7189   1.233   2.918   0.082
 2097SOL    HW1 7190   1.294   2.863   0.139
 2097SOL    HW2 7191   1.286   2.986   0.030
 2098SOL     OW 7192   4.145   5.712   3.311
 2098SOL    HW1 7193   4.128   5.619   3.344
 2098SOL    HW2 7194   4.170   5.708   3.214
 2099SOL     OW 7195   2.475   2.512   4.983
 2099SOL    HW1 7196   2.515   2.555   5.063
 2099SOL    HW2 7197   2.419   2.434   5.011
 2100SOL     OW 7198   3.856   3.102   6.015
 2100SOL    HW1 7199   3.953   3.077   6.014
 2100SOL    HW2 7200   3.846   3.196   5.984
 2101SOL     OW 7201   1.608   6.618   2.580
 2101SOL    HW1 7202   1.561   6.691   2.531
 2101SOL    HW2 7203   1.614   6.537   2.522
 2102SOL     OW 7204   0.609   5.633   2.085
 2102SOL    HW1 7205   0.600   5.703   2.155
 2102SOL    HW2 7206   0.545   5.558   2.104
 2103SOL     OW 7207   3.129   3.651   6.137
 2103SOL    HW1 7208   3.044   3.607   6.167
 2103SOL    HW2 7209   3.148   3.625   6.042
 2104SOL     OW 7210   0.854   3.803   6.887
 2104SOL    HW1 7211   0.939   3.752   6.875
 2104SOL    HW2 7212   0.794   3.786   6.809
 2105SOL     OW 7213   5.087   5.067   4.070
 2105SOL    HW1 7214   5.186   5.054   4.068
 2105SOL    HW2 7215   5.042   4.982   4.044
 2106SOL     OW 7216   4.281   4.729   0.383
 2106SOL    HW1 7217   4.319   4.651   0.333
 2106SOL    HW2 7218   4.208   4.771   0.330
 2107SOL     OW 7219   4.583   2.610   5.663
 2107SOL    HW1 7220   4.579   2.643   5.757
 2107SOL    HW2 7221   4.556   2.513   5.661
 2108SOL     OW 7222   0.283   6.301   5.727
 2108SOL    HW1 7223   0.258   6.227   5.790
 2108SOL    HW2 7224   0.217   6.306   5.653
 2109SOL     OW 7225   4.821   0.001   3.536
 2109SOL    HW1 7226   4.918   7.009   3.553
 2109SOL    HW2 7227   4.773   0.006   3.624
 2110SOL     OW 7228   3.189   3.225   5.690
 2110SOL    HW1 7229   3.184   3.316   5.731
 2110SOL    HW2 7230   3.120   3.217   5.619
 2111SOL     OW 7231   0.984   2.000   6.532
 2111SOL    HW1 7232   1.000   1.905   6.559
 2111SOL    HW2 7233   1.065   2.054   6.554
 2112SOL     OW 7234   4.111   2.063   1.168
 2112SOL    HW1 7235   4.071   2.090   1.255
 2112SOL    HW2 7236   4.188   2.123   1.146
 2113SOL     OW 7237   1.482   0.563   4.404
 2113SOL    HW1 7238   1.408   0.541   4.341
 2113SOL    HW2 7239   1.461   0.648   4.452
 2114SOL     OW 7240   1.569   2.880   0.387
 2114SOL    HW1 7241   1.649   2.865   0.444
 2114SOL    HW2 7242   1.487   2.851   0.436
 2115SOL     OW 7243   2.042   4.217   2.489
 2115SOL    HW1 7244   2.042   4.265   2.401
 2115SOL    HW2 7245   1.980   4.263   2.552
 2116SOL     OW 7246   0.017   4.783   3.517
 2116SOL    HW1 7247   0.079   4.790   3.439
 2116SOL    HW2 7248   6.945   4.800   3.486
 2117SOL     OW 7249   0.230   4.573   1.068
 2117SOL    HW1 7250   0.165   4.516   1.017
 2117SOL    HW2 7251   0.184   4.657   1.097
 2118SOL     OW 7252   6.967   3.888   2.192
 2118SOL    HW1 7253   6.939   3.955   2.124
 2118SOL    HW2 7254   6.925   3.800   2.172
 2119SOL     OW 7255   2.183   5.643   1.010
 2119SOL    HW1 7256   2.276   5.636   1.047
 2119SOL    HW2 7257   2.119   5.659   1.084
 2120SOL     OW 7258   0.104   5.149   3.967
 2120SOL    HW1 7259   0.182   5.088   3.951
 2120SOL    HW2 7260   0.137   5.241   3.987
 2121SOL     OW 7261   0.915   4.496   5.923
 2121SOL    HW1 7262   0.943   4.451   5.838
 2121SOL    HW2 7263   0.993   4.546   5.960
 2122SOL     OW 7264   6.080   4.076   5.564
 2122SOL    HW1 7265   6.074   4.077   5.465
 2122SOL    HW2 7266   5.991   4.099   5.603
 2123SOL     OW 7267   0.121   4.778   1.965
 2123SOL    HW1 7268   0.050   4.747   2.028
 2123SOL    HW2 7269   0.140   4.707   1.898
 2124SOL     OW 7270   2.367   1.486   1.697
 2124SOL    HW1 7271   2.465   1.505   1.705
 2124SOL    HW2 7272   2.341   1.486   1.600
 2125SOL     OW 7273   1.658   0.320   0.373
 2125SOL    HW1 7274   1.720   0.267   0.315
 2125SOL    HW2 7275   1.711   0.364   0.446
 2126SOL     OW 7276   2.689   0.966   1.230
 2126SOL    HW1 7277   2.771   0.929   1.274
 2126SOL    HW2 7278   2.635   0.892   1.191
 2127SOL     OW 7279   6.348   3.315   4.259
 2127SOL    HW1 7280   6.279   3.332   4.189
 2127SOL    HW2 7281   6.371   3.401   4.304
 2128SOL     OW 7282   6.605   4.039   4.651
 2128SOL    HW1 7283   6.561   3.971   4.709
 2128SOL    HW2 7284   6.659   3.992   4.581
 2129SOL     OW 7285   4.452   3.178   5.340
 2129SOL    HW1 7286   4.355   3.193   5.327
 2129SOL    HW2 7287   4.486   3.235   5.415
 2130SOL     OW 7288   4.162   0.122   2.807
 2130SOL    HW1 7289   4.216   0.204   2.823
 2130SOL    HW2 7290   4.065   0.142   2.824
 2131SOL     OW 7291   6.837   1.047   1.259
 2131SOL    HW1 7292   6.898   0.992   1.201
 2131SOL    HW2 7293   6.885   1.129   1.289
 2132SOL     OW 7294   4.188   2.400   1.585
 2132SOL    HW1 7295   4.144   2.406   1.495
 2132SOL    HW2 7296   4.189   2.305   1.615
 2133SOL     OW 7297   2.433   2.914   6.014
 2133SOL    HW1 7298   2.438   3.001   5.966
 2133SOL    HW2 7299   2.386   2.847   5.956
 2134SOL     OW 7300   0.490   2.616   0.630
 2134SOL    HW1 7301   0.484   2.716   0.627
 2134SOL    HW2 7302   0.582   2.590   0.661
 2135SOL     OW 7303   1.007   3.904   4.861
 2135SOL    HW1 7304   1.102   3.884   4.835
 2135SOL    HW2 7305   0.953   3.917   4.778
 2136SOL     OW 7306   2.296   4.720   2.795
 2136SOL    HW1 7307   2.390   4.717   2.761
 2136SOL    HW2 7308   2.288   4.665   2.878
 2137SOL     OW 7309   2.893   5.209   5.407
 2137SOL    HW1 7310   2.953   5.258   5.343
 2137SOL    HW2 7311   2.893   5.112   5.385
 2138SOL     OW 7312   6.335   6.837   2.825
 2138SOL    HW1 7313   6.352   6.792   2.738
 2138SOL    HW2 7314   6.270   6.782   2.879
 2139SOL     OW 7315   4.399   0.664   4.109
 2139SOL    HW1 7316   4.401   0.595   4.036
 2139SOL    HW2 7317   4.305   0.673   4.144
 2140SOL     OW 7318   2.747   6.538   4.183
 2140SOL    HW1 7319   2.777   6.447   4.209
 2140SOL    HW2 7320   2.664   6.531   4.127
 2141SOL     OW 7321   6.553   2.712   2.436
 2141SOL    HW1 7322   6.617   2.645   2.472
 2141SOL    HW2 7323   6.603   2.784   2.388
 2142SOL     OW 7324   0.568   1.585   3.403
 2142SOL    HW1 7325   0.652   1.540   3.434
 2142SOL    HW2 7326   0.557   1.671   3.453
 2143SOL     OW 7327   2.565   5.040   1.304
 2143SOL    HW1 7328   2.636   4.977   1.273
 2143SOL    HW2 7329   2.494   4.989   1.352
 2144SOL     OW 7330   0.892   5.477   4.848
 2144SOL    HW1 7331   0.968   5.429   4.804
 2144SOL    HW2 7332   0.884   5.569   4.810
 2145SOL     OW 7333   4.002   6.434   4.471
 2145SOL    HW1 7334   3.925   6.422   4.409
 2145SOL    HW2 7335   3.971   6.483   4.553
 2146SOL     OW 7336   2.217   2.389   1.085
 2146SOL    HW1 7337   2.124   2.388   1.123
 2146SOL    HW2 7338   2.282   2.411   1.157
 2147SOL     OW 7339   6.019   1.288   6.703
 2147SOL    HW1 7340   6.001   1.211   6.642
 2147SOL    HW2 7341   6.086   1.260   6.772
 2148SOL     OW 7342   6.153   3.409   6.364
 2148SOL    HW1 7343   6.184   3.314   6.357
 2148SOL    HW2 7344   6.107   3.436   6.280
 2149SOL     OW 7345   1.848   1.486   1.289
 2149SOL    HW1 7346   1.889   1.538   1.214
 2149SOL    HW2 7347   1.892   1.396   1.295
 2150SOL     OW 7348   2.323   2.401   1.906
 2150SOL    HW1 7349   2.315   2.338   1.983
 2150SOL    HW2 7350   2.312   2.495   1.939
 2151SOL     OW 7351   1.202   6.159   6.454
 2151SOL    HW1 7352   1.140   6.178   6.530
 2151SOL    HW2 7353   1.168   6.203   6.371
 2152SOL     OW 7354   4.461   4.523   2.562
 2152SOL    HW1 7355   4.510   4.444   2.525
 2152SOL    HW2 7356   4.450   4.512   2.660
 2153SOL     OW 7357   4.749   2.022   2.117
 2153SOL    HW1 7358   4.782   1.954   2.052
 2153SOL    HW2 7359   4.808   2.102   2.114
 2154SOL     OW 7360   3.466   0.117   4.115
 2154SOL    HW1 7361   3.475   0.216   4.103
 2154SOL    HW2 7362   3.491   0.071   4.030
 2155SOL     OW 7363   4.105   0.202   1.158
 2155SOL    HW1 7364   4.159   0.162   1.233
 2155SOL    HW2 7365   4.084   0.132   1.091
 2156SOL     OW 7366   0.029   6.936   4.713
 2156SOL    HW1 7367   7.014   7.016   4.665
 2156SOL    HW2 7368   0.114   6.906   4.670
 2157SOL     OW 7369   5.371   6.208   3.791
 2157SOL    HW1 7370   5.347   6.254   3.877
 2157SOL    HW2 7371   5.457   6.158   3.803
 2158SOL     OW 7372   4.117   5.741   0.312
 2158SOL    HW1 7373   4.113   5.838   0.286
 2158SOL    HW2 7374   4.058   5.726   0.391
 2159SOL     OW 7375   1.420   0.394   5.028
 2159SOL    HW1 7376   1.450   0.349   5.112
 2159SOL    HW2 7377   1.496   0.449   4.991
 2160SOL     OW 7378   5.162   4.718   6.870
 2160SOL    HW1 7379   5.226   4.668   6.812
 2160SOL    HW2 7380   5.093   4.655   6.905
 2161SOL     OW 7381   6.575   4.616   1.789
 2161SOL    HW1 7382   6.521   4.597   1.871
 2161SOL    HW2 7383   6.645   4.684   1.811
 2162SOL     OW 7384   2.753   0.078   2.709
 2162SOL    HW1 7385   2.735   0.030   2.623
 2162SOL    HW2 7386   2.795   0.015   2.774
 2163SOL     OW 7387   1.280   4.597   0.735
 2163SOL    HW1 7388   1.325   4.664   0.793
 2163SOL    HW2 7389   1.325   4.508   0.745
 2164SOL     OW 7390   2.462   2.104   6.733
 2164SOL    HW1 7391   2.538   2.121   6.670
 2164SOL    HW2 7392   2.473   2.160   6.815
 2165SOL     OW 7393   0.319   2.348   4.021
 2165SOL    HW1 7394   0.415   2.329   4.000
 2165SOL    HW2 7395   0.269   2.261   4.027
 2166SOL     OW 7396   0.453   3.679   4.229
 2166SOL    HW1 7397   0.542   3.681   4.183
 2166SOL    HW2 7398   0.439   3.589   4.270
 2167SOL     OW 7399   0.334   3.421   4.048
 2167SOL    HW1 7400   0.242   3.460   4.042
 2167SOL    HW2 7401   0.363   3.419   4.144
 2168SOL     OW 7402   0.989   1.490   3.067
 2168SOL    HW1 7403   0.926   1.428   3.019
 2168SOL    HW2 7404   1.006   1.455   3.159
 2169SOL     OW 7405   6.430   0.899   1.474
 2169SOL    HW1 7406   6.332   0.902   1.452
 2169SOL    HW2 7407   6.445   0.832   1.547
 2170SOL     OW 7408   6.993   3.970   5.139
 2170SOL    HW1 7409   6.904   3.964   5.094
 2170SOL    HW2 7410   0.040   3.923   5.083
 2171SOL     OW 7411   1.144   5.295   1.312
 2171SOL    HW1 7412   1.147   5.211   1.258
 2171SOL    HW2 7413   1.195   5.282   1.397
 2172SOL     OW 7414   2.251   2.367   5.756
 2172SOL    HW1 7415   2.315   2.438   5.727
 2172SOL    HW2 7416   2.286   2.278   5.729
 2173SOL     OW 7417   4.624   0.323   5.351
 2173SOL    HW1 7418   4.645   0.375   5.434
 2173SOL    HW2 7419   4.527   0.300   5.349
 2174SOL     OW 7420   6.771   6.226   5.043
 2174SOL    HW1 7421   6.756   6.257   4.949
 2174SOL    HW2 7422   6.704   6.156   5.067
 2175SOL     OW 7423   1.568   3.545   4.525
 2175SOL    HW1 7424   1.641   3.556   4.458
 2175SOL    HW2 7425   1.577   3.455   4.570
 2176SOL     OW 7426   5.360   1.793   1.482
 2176SOL    HW1 7427   5.413   1.853   1.422
 2176SOL    HW2 7428   5.379   1.817   1.577
 2177SOL     OW 7429   6.995   0.138   2.136
 2177SOL    HW1 7430   6.924   0.069   2.127
 2177SOL    HW2 7431   0.015   0.156   2.047
 2178SOL     OW 7432   1.688   1.012   1.684
 2178SOL    HW1 7433   1.659   0.945   1.752
 2178SOL    HW2 7434   1.774   1.054   1.712
 2179SOL     OW 7435   2.221   3.794   6.207
 2179SOL    HW1 7436   2.146   3.858   6.191
 2179SOL    HW2 7437   2.197   3.734   6.283
 2180SOL     OW 7438   1.361   2.863   2.218
 2180SOL    HW1 7439   1.389   2.955   2.247
 2180SOL    HW2 7440   1.272   2.842   2.258
 2181SOL     OW 7441   4.232   5.258   3.701
 2181SOL    HW1 7442   4.301   5.299   3.760
 2181SOL    HW2 7443   4.267   5.172   3.663
 2182SOL     OW 7444   1.019   5.057   3.884
 2182SOL    HW1 7445   1.068   5.143   3.897
 2182SOL    HW2 7446   1.078   4.991   3.837
 2183SOL     OW 7447   2.257   4.056   0.436
 2183SOL    HW1 7448   2.205   4.106   0.366
 2183SOL    HW2 7449   2.353   4.082   0.430
 2184SOL     OW 7450   4.040   6.824   6.109
 2184SOL    HW1 7451   4.040   6.821   6.009
 2184SOL    HW2 7452   4.061   6.916   6.140
 2185SOL     OW 7453   0.797   1.359   6.829
 2185SOL    HW1 7454   0.819   1.378   6.925
 2185SOL    HW2 7455   0.798   1.261   6.813
 2186SOL     OW 7456   6.857   5.730   6.820
 2186SOL    HW1 7457   6.774   5.705   6.771
 2186SOL    HW2 7458   6.889   5.652   6.874
 2187SOL     OW 7459   0.129   5.921   2.390
 2187SOL    HW1 7460   0.189   5.867   2.449
 2187SOL    HW2 7461   0.176   6.006   2.364
 2188SOL     OW 7462   1.735   5.707   5.489
 2188SOL    HW1 7463   1.737   5.735   5.393
 2188SOL    HW2 7464   1.734   5.607   5.495
 2189SOL     OW 7465   1.207   6.772   1.560
 2189SOL    HW1 7466   1.238   6.768   1.465
 2189SOL    HW2 7467   1.276   6.819   1.615
 2190SOL     OW 7468   6.430   2.985   1.869
 2190SOL    HW1 7469   6.456   2.904   1.818
 2190SOL    HW2 7470   6.500   3.005   1.938
 2191SOL     OW 7471   2.274   1.796   5.410
 2191SOL    HW1 7472   2.304   1.735   5.484
 2191SOL    HW2 7473   2.246   1.884   5.449
 2192SOL     OW 7474   5.128   0.643   2.888
 2192SOL    HW1 7475   5.128   0.743   2.898
 2192SOL    HW2 7476   5.080   0.602   2.964
 2193SOL     OW 7477   6.955   0.295   6.039
 2193SOL    HW1 7478   6.954   0.369   6.107
 2193SOL    HW2 7479   6.960   0.335   5.947
 2194SOL     OW 7480   2.097   4.015   6.717
 2194SOL    HW1 7481   2.002   4.023   6.747
 2194SOL    HW2 7482   2.139   4.106   6.717
 2195SOL     OW 7483   6.921   6.670   5.442
 2195SOL    HW1 7484   6.828   6.638   5.423
 2195SOL    HW2 7485   6.926   6.769   5.428
 2196SOL     OW 7486   3.030   6.720   4.237
 2196SOL    HW1 7487   3.014   6.717   4.336
 2196SOL    HW2 7488   2.942   6.729   4.190
 2197SOL     OW 7489   3.192   3.510   5.865
 2197SOL    HW1 7490   3.211   3.553   5.777
 2197SOL    HW2 7491   3.098   3.475   5.865
 2198SOL     OW 7492   6.005   0.421   1.637
 2198SOL    HW1 7493   6.057   0.491   1.588
 2198SOL    HW2 7494   5.974   0.457   1.725
 2199SOL     OW 7495   5.068   6.800   4.050
 2199SOL    HW1 7496   5.034   6.712   4.082
 2199SOL    HW2 7497   5.123   6.843   4.122
 2200SOL     OW 7498   2.248   1.616   4.232
 2200SOL    HW1 7499   2.322   1.682   4.249
 2200SOL    HW2 7500   2.283   1.523   4.246
 2201SOL     OW 7501   6.111   2.495   2.903
 2201SOL    HW1 7502   6.198   2.476   2.950
 2201SOL    HW2 7503   6.049   2.542   2.966
 2202SOL     OW 7504   3.886   5.922   1.743
 2202SOL    HW1 7505   3.860   5.920   1.647
 2202SOL    HW2 7506   3.806   5.901   1.800
 2203SOL     OW 7507   2.747   3.324   1.284
 2203SOL    HW1 7508   2.702   3.236   1.267
 2203SOL    HW2 7509   2.811   3.314   1.360
 2204SOL     OW 7510   4.212   2.660   1.150
 2204SOL    HW1 7511   4.204   2.566   1.116
 2204SOL    HW2 7512   4.232   2.722   1.075
 2205SOL     OW 7513   1.619   0.182   6.998
 2205SOL    HW1 7514   1.703   0.196   0.029
 2205SOL    HW2 7515   1.633   0.210   6.904
 2206SOL     OW 7516   3.070   4.426   5.951
 2206SOL    HW1 7517   3.123   4.468   5.878
 2206SOL    HW2 7518   2.977   4.463   5.951
 2207SOL     OW 7519   3.605   4.217   6.899
 2207SOL    HW1 7520   3.577   4.291   6.838
 2207SOL    HW2 7521   3.541   4.211   6.975
 2208SOL     OW 7522   1.102   5.145   3.003
 2208SOL    HW1 7523   1.140   5.052   3.006
 2208SOL    HW2 7524   1.063   5.167   3.091
 2209SOL     OW 7525   2.690   6.818   5.328
 2209SOL    HW1 7526   2.668   6.877   5.406
 2209SOL    HW2 7527   2.744   6.869   5.262
 2210SOL     OW 7528   0.329   4.814   3.516
 2210SOL    HW1 7529   0.264   4.738   3.513
 2210SOL    HW2 7530   0.387   4.812   3.434
 2211SOL     OW 7531   6.801   0.779   0.671
 2211SOL    HW1 7532   6.888   0.823   0.694
 2211SOL    HW2 7533   6.784   0.790   0.573
 2212SOL     OW 7534   1.873   5.872   0.434
 2212SOL    HW1 7535   1.944   5.834   0.374
 2212SOL    HW2 7536   1.793   5.811   0.433
 2213SOL     OW 7537   3.656   2.064   5.454
 2213SOL    HW1 7538   3.570   2.115   5.454
 2213SOL    HW2 7539   3.698   2.069   5.363
 2214SOL     OW 7540   2.926   3.754   4.964
 2214SOL    HW1 7541   2.847   3.718   5.013
 2214SOL    HW2 7542   2.910   3.747   4.866
 2215SOL     OW 7543   5.900   0.527   6.959
 2215SOL    HW1 7544   5.897   0.438   7.006
 2215SOL    HW2 7545   5.881   0.514   6.862
 2216SOL     OW 7546   0.879   0.763   5.760
 2216SOL    HW1 7547   0.978   0.775   5.763
 2216SOL    HW2 7548   0.856   0.669   5.784
 2217SOL     OW 7549   4.336   0.355   2.521
 2217SOL    HW1 7550   4.323   0.363   2.620
 2217SOL    HW2 7551   4.259   0.398   2.474
 2218SOL     OW 7552   0.143   5.140   0.249
 2218SOL    HW1 7553   0.221   5.077   0.249
 2218SOL    HW2 7554   0.106   5.146   0.156
 2219SOL     OW 7555   6.038   1.648   0.713
 2219SOL    HW1 7556   5.939   1.642   0.717
 2219SOL    HW2 7557   6.070   1.713   0.781
 2220SOL     OW 7558   2.489   6.167   5.612
 2220SOL    HW1 7559   2.501   6.078   5.654
 2220SOL    HW2 7560   2.443   6.157   5.524
 2221SOL     OW 7561   6.188   1.502   5.328
 2221SOL    HW1 7562   6.134   1.499   5.412
 2221SOL    HW2 7563   6.281   1.532   5.350
 2222SOL     OW 7564   6.040   0.758   1.064
 2222SOL    HW1 7565   6.021   0.770   0.966
 2222SOL    HW2 7566   6.024   0.845   1.111
 2223SOL     OW 7567   6.165   0.644   6.111
 2223SOL    HW1 7568   6.129   0.736   6.120
 2223SOL    HW2 7569   6.265   0.646   6.114
 2224SOL     OW 7570   6.213   3.682   0.857
 2224SOL    HW1 7571   6.299   3.693   0.906
 2224SOL    HW2 7572   6.193   3.766   0.806
 2225SOL     OW 7573   5.908   6.891   4.195
 2225SOL    HW1 7574   5.902   6.849   4.286
 2225SOL    HW2 7575   6.004   6.907   4.171
 2226SOL     OW 7576   3.889   4.978   1.179
 2226SOL    HW1 7577   3.907   5.019   1.090
 2226SOL    HW2 7578   3.905   4.879   1.174
 2227SOL     OW 7579   5.514   2.649   0.889
 2227SOL    HW1 7580   5.483   2.557   0.915
 2227SOL    HW2 7581   5.540   2.649   0.792
 2228SOL     OW 7582   4.182   5.201   0.594
 2228SOL    HW1 7583   4.125   5.226   0.515
 2228SOL    HW2 7584   4.269   5.250   0.589
 2229SOL     OW 7585   3.671   2.870   5.352
 2229SOL    HW1 7586   3.688   2.908   5.261
 2229SOL    HW2 7587   3.592   2.915   5.393
 2230SOL     OW 7588   6.019   6.594   1.186
 2230SOL    HW1 7589   6.080   6.670   1.209
 2230SOL    HW2 7590   6.006   6.590   1.087
 2231SOL     OW 7591   6.907   0.854   1.011
 2231SOL    HW1 7592   6.823   0.803   1.029
 2231SOL    HW2 7593   6.925   0.856   0.913
 2232SOL     OW 7594   1.113   1.534   4.674
 2232SOL    HW1 7595   1.199   1.487   4.695
 2232SOL    HW2 7596   1.131   1.611   4.613
 2233SOL     OW 7597   2.454   2.717   0.878
 2233SOL    HW1 7598   2.371   2.661   0.885
 2233SOL    HW2 7599   2.429   2.813   0.869
 2234SOL     OW 7600   3.499   1.498   1.039
 2234SOL    HW1 7601   3.520   1.431   1.110
 2234SOL    HW2 7602   3.537   1.587   1.064
 2235SOL     OW 7603   2.750   0.199   2.003
 2235SOL    HW1 7604   2.829   0.138   2.007
 2235SOL    HW2 7605   2.765   0.270   1.934
 2236SOL     OW 7606   2.126   3.708   5.706
 2236SOL    HW1 7607   2.064   3.669   5.775
 2236SOL    HW2 7608   2.078   3.780   5.655
 2237SOL     OW 7609   5.330   4.751   4.586
 2237SOL    HW1 7610   5.319   4.849   4.572
 2237SOL    HW2 7611   5.251   4.703   4.549
 2238SOL     OW 7612   4.533   5.310   2.222
 2238SOL    HW1 7613   4.579   5.398   2.231
 2238SOL    HW2 7614   4.450   5.322   2.166
 2239SOL     OW 7615   3.805   5.517   4.050
 2239SOL    HW1 7616   3.711   5.545   4.068
 2239SOL    HW2 7617   3.861   5.533   4.131
 2240SOL     OW 7618   3.442   5.362   2.353
 2240SOL    HW1 7619   3.399   5.423   2.286
 2240SOL    HW2 7620   3.466   5.276   2.309
 2241SOL     OW 7621   0.025   5.892   2.690
 2241SOL    HW1 7622   6.978   5.901   2.617
 2241SOL    HW2 7623   7.003   5.913   2.778
 2242SOL     OW 7624   5.020   3.053   2.477
 2242SOL    HW1 7625   4.961   3.068   2.397
 2242SOL    HW2 7626   4.968   3.069   2.561
 2243SOL     OW 7627   1.485   0.042   6.524
 2243SOL    HW1 7628   1.401   0.025   6.576
 2243SOL    HW2 7629   1.510   6.980   6.475
 2244SOL     OW 7630   2.915   6.639   1.381
 2244SOL    HW1 7631   2.881   6.688   1.301
 2244SOL    HW2 7632   2.993   6.689   1.420
 2245SOL     OW 7633   0.783   1.343   1.317
 2245SOL    HW1 7634   0.797   1.244   1.308
 2245SOL    HW2 7635   0.868   1.390   1.296
 2246SOL     OW 7636   2.221   1.086   4.199
 2246SOL    HW1 7637   2.264   1.132   4.121
 2246SOL    HW2 7638   2.123   1.075   4.181
 2247SOL     OW 7639   3.346   2.911   2.980
 2247SOL    HW1 7640   3.313   2.893   3.072
 2247SOL    HW2 7641   3.273   2.950   2.925
 2248SOL     OW 7642   6.624   3.698   5.389
 2248SOL    HW1 7643   6.603   3.601   5.394
 2248SOL    HW2 7644   6.705   3.718   5.444
 2249SOL     OW 7645   5.643   6.976   3.760
 2249SOL    HW1 7646   5.678   0.048   3.770
 2249SOL    HW2 7647   5.710   6.912   3.798
 2250SOL     OW 7648   3.379   4.162   4.937
 2250SOL    HW1 7649   3.386   4.228   5.011
 2250SOL    HW2 7650   3.370   4.070   4.975
 2251SOL     OW 7651   5.514   6.793   6.620
 2251SOL    HW1 7652   5.575   6.833   6.552
 2251SOL    HW2 7653   5.505   6.695   6.603
 2252SOL     OW 7654   4.687   1.542   3.266
 2252SOL    HW1 7655   4.618   1.583   3.325
 2252SOL    HW2 7656   4.672   1.443   3.260
 2253SOL     OW 7657   6.724   3.041   0.128
 2253SOL    HW1 7658   6.765   3.051   0.219
 2253SOL    HW2 7659   6.658   2.966   0.128
 2254SOL     OW 7660   3.094   3.250   4.358
 2254SOL    HW1 7661   3.141   3.334   4.386
 2254SOL    HW2 7662   3.152   3.199   4.295
 2255SOL     OW 7663   4.079   3.076   6.410
 2255SOL    HW1 7664   4.048   3.166   6.440
 2255SOL    HW2 7665   4.102   3.021   6.490
 2256SOL     OW 7666   5.064   6.342   2.204
 2256SOL    HW1 7667   5.079   6.244   2.218
 2256SOL    HW2 7668   5.020   6.356   2.116
 2257SOL     OW 7669   0.948   1.895   4.763
 2257SOL    HW1 7670   0.884   1.859   4.831
 2257SOL    HW2 7671   1.039   1.904   4.804
 2258SOL     OW 7672   1.558   5.224   4.423
 2258SOL    HW1 7673   1.614   5.286   4.476
 2258SOL    HW2 7674   1.523   5.151   4.482
 2259SOL     OW 7675   5.609   2.719   5.839
 2259SOL    HW1 7676   5.677   2.781   5.800
 2259SOL    HW2 7677   5.560   2.673   5.765
 2260SOL     OW 7678   0.197   4.442   1.440
 2260SOL    HW1 7679   0.242   4.531   1.437
 2260SOL    HW2 7680   0.262   4.371   1.415
 2261SOL     OW 7681   6.278   5.257   0.387
 2261SOL    HW1 7682   6.302   5.269   0.291
 2261SOL    HW2 7683   6.282   5.346   0.433
 2262SOL     OW 7684   5.890   0.399   3.086
 2262SOL    HW1 7685   5.984   0.434   3.075
 2262SOL    HW2 7686   5.825   0.473   3.069
 2263SOL     OW 7687   3.203   5.672   0.602
 2263SOL    HW1 7688   3.174   5.678   0.698
 2263SOL    HW2 7689   3.301   5.658   0.597
 2264SOL     OW 7690   3.017   5.379   6.720
 2264SOL    HW1 7691   3.011   5.282   6.742
 2264SOL    HW2 7692   3.016   5.433   6.805
 2265SOL     OW 7693   2.410   1.182   3.996
 2265SOL    HW1 7694   2.480   1.137   4.052
 2265SOL    HW2 7695   2.444   1.195   3.903
 2266SOL     OW 7696   5.217   1.096   0.281
 2266SOL    HW1 7697   5.314   1.100   0.257
 2266SOL    HW2 7698   5.181   1.188   0.291
 2267SOL     OW 7699   4.963   3.452   4.801
 2267SOL    HW1 7700   4.899   3.495   4.865
 2267SOL    HW2 7701   4.932   3.360   4.779
 2268SOL     OW 7702   5.648   4.050   6.315
 2268SOL    HW1 7703   5.694   4.091   6.236
 2268SOL    HW2 7704   5.684   4.090   6.399
 2269SOL     OW 7705   0.325   4.257   5.724
 2269SOL    HW1 7706   0.394   4.233   5.656
 2269SOL    HW2 7707   0.234   4.244   5.686
 2270SOL     OW 7708   3.783   2.317   6.367
 2270SOL    HW1 7709   3.829   2.237   6.329
 2270SOL    HW2 7710   3.848   2.393   6.373
 2271SOL     OW 7711   5.902   4.360   0.188
 2271SOL    HW1 7712   5.987   4.307   0.181
 2271SOL    HW2 7713   5.895   4.420   0.108
 2272SOL     OW 7714   5.613   1.717   0.118
 2272SOL    HW1 7715   5.710   1.705   0.100
 2272SOL    HW2 7716   5.564   1.730   0.031
 2273SOL     OW 7717   1.464   1.320   2.019
 2273SOL    HW1 7718   1.537   1.254   2.037
 2273SOL    HW2 7719   1.439   1.365   2.104
 2274SOL     OW 7720   1.049   1.392   6.027
 2274SOL    HW1 7721   0.952   1.412   6.010
 2274SOL    HW2 7722   1.106   1.446   5.964
 2275SOL     OW 7723   6.247   6.673   4.096
 2275SOL    HW1 7724   6.280   6.645   4.006
 2275SOL    HW2 7725   6.163   6.622   4.118
 2276SOL     OW 7726   2.201   5.510   1.861
 2276SOL    HW1 7727   2.293   5.478   1.835
 2276SOL    HW2 7728   2.207   5.603   1.897
 2277SOL     OW 7729   3.733   4.083   3.692
 2277SOL    HW1 7730   3.718   4.042   3.781
 2277SOL    HW2 7731   3.804   4.032   3.643
 2278SOL     OW 7732   6.138   3.706   4.507
 2278SOL    HW1 7733   6.107   3.616   4.538
 2278SOL    HW2 7734   6.094   3.777   4.562
 2279SOL     OW 7735   6.308   0.138   5.532
 2279SOL    HW1 7736   6.219   0.184   5.526
 2279SOL    HW2 7737   6.294   0.040   5.546
 2280SOL     OW 7738   6.987   0.192   4.680
 2280SOL    HW1 7739   7.021   0.228   4.593
 2280SOL    HW2 7740   6.888   0.208   4.686
 2281SOL     OW 7741   3.635   0.747   2.137
 2281SOL    HW1 7742   3.664   0.749   2.042
 2281SOL    HW2 7743   3.613   0.840   2.167
 2282SOL     OW 7744   5.660   0.141   5.220
 2282SOL    HW1 7745   5.697   0.050   5.237
 2282SOL    HW2 7746   5.732   0.209   5.231
 2283SOL     OW 7747   1.470   6.722   1.806
 2283SOL    HW1 7748   1.391   6.762   1.759
 2283SOL    HW2 7749   1.552   6.776   1.786
 2284SOL     OW 7750   1.386   3.056   6.923
 2284SOL    HW1 7751   1.414   3.147   6.957
 2284SOL    HW2 7752   1.465   3.010   6.883
 2285SOL     OW 7753   1.610   2.695   1.076
 2285SOL    HW1 7754   1.687   2.750   1.108
 2285SOL    HW2 7755   1.526   2.749   1.078
 2286SOL     OW 7756   5.847   6.847   3.920
 2286SOL    HW1 7757   5.934   6.847   3.871
 2286SOL    HW2 7758   5.859   6.889   4.010
 2287SOL     OW 7759   2.248   0.034   4.038
 2287SOL    HW1 7760   2.322   6.998   4.002
 2287SOL    HW2 7761   2.267   0.130   4.016
 2288SOL     OW 7762   5.953   4.853   3.631
 2288SOL    HW1 7763   5.938   4.898   3.543
 2288SOL    HW2 7764   6.037   4.798   3.626
 2289SOL     OW 7765   0.434   5.038   0.661
 2289SOL    HW1 7766   0.402   5.049   0.756
 2289SOL    HW2 7767   0.362   4.994   0.607
 2290SOL     OW 7768   0.213   3.396   0.766
 2290SOL    HW1 7769   0.165   3.382   0.679
 2290SOL    HW2 7770   0.290   3.333   0.772
 2291SOL     OW 7771   1.928   2.328   5.197
 2291SOL    HW1 7772   1.873   2.365   5.272
 2291SOL    HW2 7773   1.936   2.229   5.208
 2292SOL     OW 7774   1.005   1.913   4.376
 2292SOL    HW1 7775   0.981   1.999   4.332
 2292SOL    HW2 7776   0.928   1.849   4.370
 2293SOL     OW 7777   5.304   6.468   1.182
 2293SOL    HW1 7778   5.277   6.395   1.244
 2293SOL    HW2 7779   5.228   6.533   1.172
 2294SOL     OW 7780   3.101   0.253   6.813
 2294SOL    HW1 7781   3.005   0.245   6.840
 2294SOL    HW2 7782   3.159   0.228   6.890
 2295SOL     OW 7783   0.836   2.006   2.514
 2295SOL    HW1 7784   0.762   2.064   2.549
 2295SOL    HW2 7785   0.798   1.935   2.456
 2296SOL     OW 7786   4.339   4.956   0.182
 2296SOL    HW1 7787   4.382   4.959   0.092
 2296SOL    HW2 7788   4.400   4.911   0.247
 2297SOL     OW 7789   4.224   3.880   5.292
 2297SOL    HW1 7790   4.298   3.840   5.345
 2297SOL    HW2 7791   4.140   3.826   5.305
 2298SOL     OW 7792   4.148   3.245   1.818
 2298SOL    HW1 7793   4.075   3.256   1.750
 2298SOL    HW2 7794   4.225   3.196   1.778
 2299SOL     OW 7795   4.596   6.226   5.679
 2299SOL    HW1 7796   4.615   6.226   5.581
 2299SOL    HW2 7797   4.557   6.139   5.706
 2300SOL     OW 7798   2.468   5.182   2.333
 2300SOL    HW1 7799   2.540   5.221   2.391
 2300SOL    HW2 7800   2.383   5.231   2.350
 2301SOL     OW 7801   3.160   3.068   2.849
 2301SOL    HW1 7802   3.174   3.142   2.783
 2301SOL    HW2 7803   3.093   3.095   2.917
 2302SOL     OW 7804   4.057   7.003   1.021
 2302SOL    HW1 7805   4.136   6.990   0.960
 2302SOL    HW2 7806   4.000   6.921   1.019
 2303SOL     OW 7807   2.191   3.166   6.358
 2303SOL    HW1 7808   2.124   3.110   6.310
 2303SOL    HW2 7809   2.232   3.233   6.295
 2304SOL     OW 7810   4.179   0.166   4.086
 2304SOL    HW1 7811   4.198   0.120   4.000
 2304SOL    HW2 7812   4.130   0.251   4.069
 2305SOL     OW 7813   2.573   6.694   2.884
 2305SOL    HW1 7814   2.473   6.698   2.891
 2305SOL    HW2 7815   2.613   6.693   2.975
 2306SOL     OW 7816   2.631   4.946   1.998
 2306SOL    HW1 7817   2.711   4.898   2.033
 2306SOL    HW2 7818   2.612   4.915   1.905
 2307SOL     OW 7819   0.640   4.103   2.778
 2307SOL    HW1 7820   0.586   4.019   2.770
 2307SOL    HW2 7821   0.691   4.118   2.694
 2308SOL     OW 7822   1.574   6.434   0.121
 2308SOL    HW1 7823   1.623   6.510   0.078
 2308SOL    HW2 7824   1.629   6.351   0.115
 2309SOL     OW 7825   2.941   6.222   6.414
 2309SOL    HW1 7826   2.939   6.269   6.326
 2309SOL    HW2 7827   2.849   6.223   6.455
 2310SOL     OW 7828   5.796   6.371   1.069
 2310SOL    HW1 7829   5.776   6.455   1.120
 2310SOL    HW2 7830   5.814   6.394   0.973
 2311SOL     OW 7831   2.162   5.813   2.137
 2311SOL    HW1 7832   2.197   5.814   2.043
 2311SOL    HW2 7833   2.151   5.907   2.169
 2312SOL     OW 7834   3.757   6.378   3.817
 2312SOL    HW1 7835   3.809   6.411   3.896
 2312SOL    HW2 7836   3.721   6.456   3.766
 2313SOL     OW 7837   5.404   5.628   1.416
 2313SOL    HW1 7838   5.399   5.658   1.511
 2313SOL    HW2 7839   5.361   5.538   1.408
 2314SOL     OW 7840   5.865   0.568   5.127
 2314SOL    HW1 7841   5.792   0.621   5.084
 2314SOL    HW2 7842   5.951   0.582   5.078
 2315SOL     OW 7843   5.094   3.534   5.272
 2315SOL    HW1 7844   5.166   3.549   5.340
 2315SOL    HW2 7845   5.027   3.608   5.278
 2316SOL     OW 7846   3.137   0.830   4.439
 2316SOL    HW1 7847   3.231   0.835   4.407
 2316SOL    HW2 7848   3.097   0.741   4.415
 2317SOL     OW 7849   6.363   5.980   3.078
 2317SOL    HW1 7850   6.342   6.066   3.125
 2317SOL    HW2 7851   6.349   5.903   3.141
 2318SOL     OW 7852   1.815   2.922   4.259
 2318SOL    HW1 7853   1.883   2.899   4.188
 2318SOL    HW2 7854   1.861   2.926   4.348
 2319SOL     OW 7855   3.020   5.509   4.587
 2319SOL    HW1 7856   2.993   5.482   4.679
 2319SOL    HW2 7857   3.088   5.582   4.592
 2320SOL     OW 7858   0.963   3.188   4.200
 2320SOL    HW1 7859   0.933   3.127   4.274
 2320SOL    HW2 7860   1.039   3.244   4.233
 2321SOL     OW 7861   2.001   5.565   0.117
 2321SOL    HW1 7862   1.929   5.495   0.113
 2321SOL    HW2 7863   2.045   5.573   0.027
 2322SOL     OW 7864   1.590   4.412   3.040
 2322SOL    HW1 7865   1.656   4.337   3.039
 2322SOL    HW2 7866   1.574   4.441   3.134
 2323SOL     OW 7867   3.444   4.505   1.623
 2323SOL    HW1 7868   3.509   4.540   1.690
 2323SOL    HW2 7869   3.428   4.408   1.640
 2324SOL     OW 7870   6.696   5.982   0.587
 2324SOL    HW1 7871   6.628   6.047   0.554
 2324SOL    HW2 7872   6.680   5.965   0.685
 2325SOL     OW 7873   1.353   4.365   1.216
 2325SOL    HW1 7874   1.447   4.392   1.198
 2325SOL    HW2 7875   1.298   4.376   1.134
 2326SOL     OW 7876   3.082   5.744   6.669
 2326SOL    HW1 7877   3.047   5.822   6.721
 2326SOL    HW2 7878   3.171   5.768   6.629
 2327SOL     OW 7879   6.728   1.723   4.206
 2327SOL    HW1 7880   6.705   1.767   4.120
 2327SOL    HW2 7881   6.721   1.624   4.197
 2328SOL     OW 7882   1.097   1.767   2.684
 2328SOL    HW1 7883   1.009   1.812   2.698
 2328SOL    HW2 7884   1.141   1.804   2.603
 2329SOL     OW 7885   1.948   4.847   4.555
 2329SOL    HW1 7886   1.956   4.747   4.566
 2329SOL    HW2 7887   1.949   4.869   4.458
 2330SOL     OW 7888   6.919   3.346   1.296
 2330SOL    HW1 7889   6.844   3.411   1.298
 2330SOL    HW2 7890   7.003   3.389   1.329
 2331SOL     OW 7891   4.176   5.534   6.704
 2331SOL    HW1 7892   4.249   5.584   6.750
 2331SOL    HW2 7893   4.143   5.461   6.764
 2332SOL     OW 7894   5.831   0.942   5.400
 2332SOL    HW1 7895   5.769   0.955   5.323
 2332SOL    HW2 7896   5.839   0.845   5.420
 2333SOL     OW 7897   0.174   4.446   2.743
 2333SOL    HW1 7898   0.130   4.491   2.665
 2333SOL    HW2 7899   0.177   4.348   2.727
 2334SOL     OW 7900   2.243   0.517   6.750
 2334SOL    HW1 7901   2.330   0.520   6.700
 2334SOL    HW2 7902   2.219   0.609   6.780
 2335SOL     OW 7903   6.614   1.093   3.749
 2335SOL    HW1 7904   6.588   1.175   3.698
 2335SOL    HW2 7905   6.661   1.120   3.833
 2336SOL     OW 7906   3.869   2.137   4.652
 2336SOL    HW1 7907   3.776   2.171   4.637
 2336SOL    HW2 7908   3.874   2.091   4.740
 2337SOL     OW 7909   4.263   0.735   1.795
 2337SOL    HW1 7910   4.341   0.759   1.853
 2337SOL    HW2 7911   4.206   0.816   1.781
 2338SOL     OW 7912   0.672   3.303   5.312
 2338SOL    HW1 7913   0.631   3.265   5.395
 2338SOL    HW2 7914   0.643   3.250   5.233
 2339SOL     OW 7915   3.071   3.107   3.836
 2339SOL    HW1 7916   3.147   3.165   3.862
 2339SOL    HW2 7917   3.029   3.143   3.752
 2340SOL     OW 7918   6.378   4.692   6.943
 2340SOL    HW1 7919   6.374   4.791   6.928
 2340SOL    HW2 7920   6.473   4.661   6.936
 2341SOL     OW 7921   3.735   4.919   2.079
 2341SOL    HW1 7922   3.765   4.866   2.158
 2341SOL    HW2 7923   3.673   4.863   2.023
 2342SOL     OW 7924   0.847   6.334   5.394
 2342SOL    HW1 7925   0.783   6.398   5.435
 2342SOL    HW2 7926   0.836   6.335   5.294
 2343SOL     OW 7927   1.785   5.817   3.544
 2343SOL    HW1 7928   1.845   5.881   3.495
 2343SOL    HW2 7929   1.731   5.765   3.479
 2344SOL     OW 7930   1.737   5.617   6.958
 2344SOL    HW1 7931   1.736   5.639   0.034
 2344SOL    HW2 7932   1.819   5.563   6.937
 2345SOL     OW 7933   3.035   5.698   5.039
 2345SOL    HW1 7934   2.983   5.731   5.118
 2345SOL    HW2 7935   3.072   5.607   5.058
 2346SOL     OW 7936   3.917   3.138   5.353
 2346SOL    HW1 7937   3.887   3.045   5.334
 2346SOL    HW2 7938   3.924   3.189   5.267
 2347SOL     OW 7939   2.891   2.360   1.442
 2347SOL    HW1 7940   2.916   2.321   1.531
 2347SOL    HW2 7941   2.794   2.384   1.443
 2348SOL     OW 7942   2.639   6.855   3.613
 2348SOL    HW1 7943   2.658   6.921   3.687
 2348SOL    HW2 7944   2.598   6.904   3.536
 2349SOL     OW 7945   1.248   4.463   6.142
 2349SOL    HW1 7946   1.315   4.389   6.143
 2349SOL    HW2 7947   1.255   4.513   6.056
 2350SOL     OW 7948   5.237   0.018   6.450
 2350SOL    HW1 7949   5.208   0.110   6.477
 2350SOL    HW2 7950   5.336   0.018   6.434
 2351SOL     OW 7951   3.319   4.886   4.066
 2351SOL    HW1 7952   3.237   4.911   4.014
 2351SOL    HW2 7953   3.308   4.793   4.101
 2352SOL     OW 7954   0.548   4.376   2.349
 2352SOL    HW1 7955   0.564   4.332   2.261
 2352SOL    HW2 7956   0.456   4.355   2.381
 2353SOL     OW 7957   2.827   4.978   5.716
 2353SOL    HW1 7958   2.813   5.008   5.811
 2353SOL    HW2 7959   2.916   5.011   5.684
 2354SOL     OW 7960   3.214   1.439   5.593
 2354SOL    HW1 7961   3.246   1.496   5.669
 2354SOL    HW2 7962   3.115   1.447   5.585
 2355SOL     OW 7963   2.193   5.621   0.283
 2355SOL    HW1 7964   2.176   5.581   0.373
 2355SOL    HW2 7965   2.110   5.616   0.228
 2356SOL     OW 7966   1.515   3.170   6.260
 2356SOL    HW1 7967   1.579   3.114   6.208
 2356SOL    HW2 7968   1.463   3.228   6.197
 2357SOL     OW 7969   4.106   6.881   2.732
 2357SOL    HW1 7970   4.008   6.891   2.747
 2357SOL    HW2 7971   4.156   6.948   2.788
 2358SOL     OW 7972   3.889   4.921   4.910
 2358SOL    HW1 7973   3.903   4.838   4.964
 2358SOL    HW2 7974   3.843   4.990   4.966
 2359SOL     OW 7975   6.273   0.710   5.671
 2359SOL    HW1 7976   6.237   0.639   5.611
 2359SOL    HW2 7977   6.306   0.668   5.756
 2360SOL     OW 7978   5.292   4.459   6.839
 2360SOL    HW1 7979   5.357   4.479   6.765
 2360SOL    HW2 7980   5.343   4.449   6.925
 2361SOL     OW 7981   2.446   1.245   5.152
 2361SOL    HW1 7982   2.367   1.216   5.206
 2361SOL    HW2 7983   2.530   1.210   5.194
 2362SOL     OW 7984   2.047   6.870   4.818
 2362SOL    HW1 7985   2.043   6.883   4.917
 2362SOL    HW2 7986   1.989   6.937   4.773
 2363SOL     OW 7987   4.535   2.654   5.046
 2363SOL    HW1 7988   4.592   2.735   5.037
 2363SOL    HW2 7989   4.507   2.623   4.955
 2364SOL     OW 7990   1.286   2.234   3.063
 2364SOL    HW1 7991   1.357   2.270   3.003
 2364SOL    HW2 7992   1.262   2.141   3.034
 2365SOL     OW 7993   6.510   2.729   6.652
 2365SOL    HW1 7994   6.590   2.739   6.594
 2365SOL    HW2 7995   6.500   2.633   6.679
 2366SOL     OW 7996   2.278   5.326   6.641
 2366SOL    HW1 7997   2.229   5.401   6.596
 2366SOL    HW2 7998   2.377   5.341   6.630
 2367SOL     OW 7999   2.624   4.475   0.555
 2367SOL    HW1 8000   2.700   4.476   0.619
 2367SOL    HW2 8001   2.656   4.501   0.464
 2368SOL     OW 8002   4.371   0.303   3.768
 2368SOL    HW1 8003   4.386   0.287   3.670
 2368SOL    HW2 8004   4.425   0.238   3.821
 2369SOL     OW 8005   1.252   2.318   5.537
 2369SOL    HW1 8006   1.174   2.280   5.488
 2369SOL    HW2 8007   1.252   2.417   5.528
 2370SOL     OW 8008   5.005   3.709   0.263
 2370SOL    HW1 8009   4.970   3.802   0.249
 2370SOL    HW2 8010   5.047   3.677   0.178
 2371SOL     OW 8011   0.580   0.177   2.535
 2371SOL    HW1 8012   0.664   0.210   2.579
 2371SOL    HW2 8013   0.502   0.195   2.594
 2372SOL     OW 8014   0.104   2.906   2.270
 2372SOL    HW1 8015   0.007   2.893   2.289
 2372SOL    HW2 8016   0.115   2.969   2.193
 2373SOL     OW 8017   0.566   2.054   0.175
 2373SOL    HW1 8018   0.492   1.988   0.165
 2373SOL    HW2 8019   0.579   2.075   0.272
 2374SOL     OW 8020   5.936   0.863   3.336
 2374SOL    HW1 8021   5.980   0.784   3.377
 2374SOL    HW2 8022   5.992   0.899   3.262
 2375SOL     OW 8023   2.965   6.690   4.510
 2375SOL    HW1 8024   2.899   6.754   4.550
 2375SOL    HW2 8025   2.933   6.596   4.524
 2376SOL     OW 8026   6.742   2.585   4.539
 2376SOL    HW1 8027   6.649   2.603   4.506
 2376SOL    HW2 8028   6.743   2.586   4.639
 2377SOL     OW 8029   3.138   4.000   3.186
 2377SOL    HW1 8030   3.085   3.997   3.101
 2377SOL    HW2 8031   3.080   3.973   3.262
 2378SOL     OW 8032   4.867   1.773   0.506
 2378SOL    HW1 8033   4.850   1.826   0.423
 2378SOL    HW2 8034   4.807   1.806   0.579
 2379SOL     OW 8035   5.817   2.124   6.797
 2379SOL    HW1 8036   5.853   2.042   6.841
 2379SOL    HW2 8037   5.722   2.108   6.770
 2380SOL     OW 8038   0.767   0.923   6.921
 2380SOL    HW1 8039   0.824   0.964   6.992
 2380SOL    HW2 8040   0.688   0.982   6.903
 2381SOL     OW 8041   2.114   3.819   4.395
 2381SOL    HW1 8042   2.029   3.849   4.440
 2381SOL    HW2 8043   2.119   3.719   4.398
 2382SOL     OW 8044   2.366   4.343   3.237
 2382SOL    HW1 8045   2.346   4.247   3.258
 2382SOL    HW2 8046   2.382   4.353   3.139
 2383SOL     OW 8047   5.437   6.754   1.526
 2383SOL    HW1 8048   5.344   6.786   1.506
 2383SOL    HW2 8049   5.468   6.695   1.452
 2384SOL     OW 8050   5.748   0.574   2.920
 2384SOL    HW1 8051   5.783   0.636   2.990
 2384SOL    HW2 8052   5.748   0.621   2.831
 2385SOL     OW 8053   0.957   6.601   1.245
 2385SOL    HW1 8054   0.981   6.601   1.342
 2385SOL    HW2 8055   0.859   6.583   1.236
 2386SOL     OW 8056   5.835   5.294   4.110
 2386SOL    HW1 8057   5.900   5.339   4.049
 2386SOL    HW2 8058   5.853   5.195   4.112
 2387SOL     OW 8059   1.314   1.664   3.565
 2387SOL    HW1 8060   1.312   1.576   3.519
 2387SOL    HW2 8061   1.310   1.738   3.498
 2388SOL     OW 8062   0.772   2.491   4.145
 2388SOL    HW1 8063   0.833   2.481   4.224
 2388SOL    HW2 8064   0.823   2.532   4.070
 2389SOL     OW 8065   4.871   3.677   2.969
 2389SOL    HW1 8066   4.872   3.694   3.068
 2389SOL    HW2 8067   4.819   3.749   2.924
 2390SOL     OW 8068   4.117   3.718   2.682
 2390SOL    HW1 8069   4.200   3.773   2.685
 2390SOL    HW2 8070   4.141   3.621   2.687
 2391SOL     OW 8071   4.526   4.445   5.637
 2391SOL    HW1 8072   4.552   4.508   5.710
 2391SOL    HW2 8073   4.524   4.352   5.672
 2392SOL     OW 8074   3.935   6.716   5.144
 2392SOL    HW1 8075   3.890   6.658   5.213
 2392SOL    HW2 8076   3.867   6.777   5.103
 2393SOL     OW 8077   5.361   3.715   6.181
 2393SOL    HW1 8078   5.432   3.767   6.229
 2393SOL    HW2 8079   5.293   3.683   6.247
 2394SOL     OW 8080   1.274   3.557   4.511
 2394SOL    HW1 8081   1.316   3.470   4.536
 2394SOL    HW2 8082   1.345   3.627   4.506
 2395SOL     OW 8083   5.932   2.450   6.875
 2395SOL    HW1 8084   5.997   2.520   6.903
 2395SOL    HW2 8085   5.979   2.382   6.817
 2396SOL     OW 8086   3.352   5.141   2.002
 2396SOL    HW1 8087   3.260   5.166   1.973
 2396SOL    HW2 8088   3.402   5.102   1.924
 2397SOL     OW 8089   6.888   4.145   6.778
 2397SOL    HW1 8090   6.981   4.150   6.815
 2397SOL    HW2 8091   6.890   4.169   6.681
 2398SOL     OW 8092   2.085   3.468   6.733
 2398SOL    HW1 8093   2.153   3.403   6.767
 2398SOL    HW2 8094   2.074   3.457   6.634
 2399SOL     OW 8095   4.379   1.878   1.978
 2399SOL    HW1 8096   4.433   1.962   1.973
 2399SOL    HW2 8097   4.282   1.901   1.989
 2400SOL     OW 8098   3.465   4.468   0.350
 2400SOL    HW1 8099   3.462   4.499   0.445
 2400SOL    HW2 8100   3.466   4.547   0.289
 2401SOL     OW 8101   3.930   6.062   6.087
 2401SOL    HW1 8102   4.008   6.047   6.148
 2401SOL    HW2 8103   3.902   5.975   6.047
 2402SOL     OW 8104   6.946   1.205   3.591
 2402SOL    HW1 8105   6.974   1.259   3.512
 2402SOL    HW2 8106   6.947   1.108   3.567
 2403SOL     OW 8107   2.171   2.780   7.005
 2403SOL    HW1 8108   2.097   2.742   6.951
 2403SOL    HW2 8109   2.248   2.804   6.946
 2404SOL     OW 8110   3.828   1.182   0.902
 2404SOL    HW1 8111   3.755   1.167   0.969
 2404SOL    HW2 8112   3.792   1.163   0.810
 2405SOL     OW 8113   3.873   3.360   2.791
 2405SOL    HW1 8114   3.842   3.438   2.736
 2405SOL    HW2 8115   3.804   3.337   2.859
 2406SOL     OW 8116   2.936   6.512   2.926
 2406SOL    HW1 8117   2.856   6.463   2.891
 2406SOL    HW2 8118   3.011   6.504   2.860
 2407SOL     OW 8119   5.040   2.179   2.194
 2407SOL    HW1 8120   5.044   2.100   2.133
 2407SOL    HW2 8121   5.080   2.259   2.148
 2408SOL     OW 8122   3.800   5.327   3.131
 2408SOL    HW1 8123   3.769   5.401   3.071
 2408SOL    HW2 8124   3.751   5.244   3.108
 2409SOL     OW 8125   1.583   3.941   2.154
 2409SOL    HW1 8126   1.508   4.002   2.179
 2409SOL    HW2 8127   1.579   3.858   2.209
 2410SOL     OW 8128   4.256   2.470   6.154
 2410SOL    HW1 8129   4.215   2.478   6.063
 2410SOL    HW2 8130   4.236   2.553   6.207
 2411SOL     OW 8131   4.163   5.312   4.913
 2411SOL    HW1 8132   4.160   5.392   4.853
 2411SOL    HW2 8133   4.259   5.291   4.935
 2412SOL     OW 8134   4.805   5.362   1.570
 2412SOL    HW1 8135   4.743   5.307   1.514
 2412SOL    HW2 8136   4.759   5.445   1.600
 2413SOL     OW 8137   6.187   1.927   1.054
 2413SOL    HW1 8138   6.244   1.849   1.078
 2413SOL    HW2 8139   6.199   1.999   1.122
 2414SOL     OW 8140   4.654   4.410   2.399
 2414SOL    HW1 8141   4.746   4.423   2.435
 2414SOL    HW2 8142   4.656   4.343   2.325
 2415SOL     OW 8143   0.099   6.986   2.349
 2415SOL    HW1 8144   0.081   0.046   2.294
 2415SOL    HW2 8145   0.015   6.935   2.362
 2416SOL     OW 8146   4.338   2.329   5.313
 2416SOL    HW1 8147   4.258   2.361   5.262
 2416SOL    HW2 8148   4.330   2.231   5.329
 2417SOL     OW 8149   4.159   3.037   5.891
 2417SOL    HW1 8150   4.224   3.078   5.828
 2417SOL    HW2 8151   4.124   2.951   5.852
 2418SOL     OW 8152   2.925   3.683   4.400
 2418SOL    HW1 8153   2.882   3.624   4.332
 2418SOL    HW2 8154   2.964   3.763   4.355
 2419SOL     OW 8155   0.891   6.696   4.707
 2419SOL    HW1 8156   0.859   6.607   4.675
 2419SOL    HW2 8157   0.840   6.768   4.660
 2420SOL     OW 8158   2.803   1.351   2.236
 2420SOL    HW1 8159   2.718   1.389   2.272
 2420SOL    HW2 8160   2.788   1.317   2.143
 2421SOL     OW 8161   2.766   1.888   4.927
 2421SOL    HW1 8162   2.789   1.985   4.937
 2421SOL    HW2 8163   2.851   1.835   4.921
 2422SOL     OW 8164   5.420   1.095   0.932
 2422SOL    HW1 8165   5.471   1.125   0.851
 2422SOL    HW2 8166   5.430   0.996   0.942
 2423SOL     OW 8167   0.911   6.325   2.951
 2423SOL    HW1 8168   0.939   6.234   2.982
 2423SOL    HW2 8169   0.862   6.319   2.865
 2424SOL     OW 8170   6.036   6.792   5.730
 2424SOL    HW1 8171   5.941   6.822   5.736
 2424SOL    HW2 8172   6.044   6.715   5.667
 2425SOL     OW 8173   5.728   0.569   3.888
 2425SOL    HW1 8174   5.665   0.646   3.877
 2425SOL    HW2 8175   5.679   0.491   3.925
 2426SOL     OW 8176   0.729   5.822   5.118
 2426SOL    HW1 8177   0.801   5.884   5.151
 2426SOL    HW2 8178   0.711   5.841   5.022
 2427SOL     OW 8179   5.855   5.890   5.338
 2427SOL    HW1 8180   5.888   5.915   5.428
 2427SOL    HW2 8181   5.929   5.900   5.271
 2428SOL     OW 8182   6.326   0.304   2.683
 2428SOL    HW1 8183   6.242   0.357   2.687
 2428SOL    HW2 8184   6.315   0.220   2.737
 2429SOL     OW 8185   5.502   5.329   3.698
 2429SOL    HW1 8186   5.473   5.316   3.603
 2429SOL    HW2 8187   5.467   5.254   3.754
 2430SOL     OW 8188   5.953   1.744   1.146
 2430SOL    HW1 8189   6.036   1.795   1.123
 2430SOL    HW2 8190   5.945   1.738   1.246
 2431SOL     OW 8191   4.348   1.031   2.746
 2431SOL    HW1 8192   4.396   0.944   2.730
 2431SOL    HW2 8193   4.415   1.103   2.766
 2432SOL     OW 8194   3.037   6.756   3.001
 2432SOL    HW1 8195   3.102   6.773   3.075
 2432SOL    HW2 8196   3.012   6.659   3.000
 2433SOL     OW 8197   3.553   0.636   1.468
 2433SOL    HW1 8198   3.646   0.673   1.476
 2433SOL    HW2 8199   3.502   0.656   1.552
 2434SOL     OW 8200   4.381   0.924   5.125
 2434SOL    HW1 8201   4.346   0.879   5.207
 2434SOL    HW2 8202   4.340   1.015   5.117
 2435SOL     OW 8203   4.826   4.509   6.852
 2435SOL    HW1 8204   4.805   4.469   6.763
 2435SOL    HW2 8205   4.819   4.438   6.923
 2436SOL     OW 8206   1.446   5.822   0.973
 2436SOL    HW1 8207   1.494   5.812   1.061
 2436SOL    HW2 8208   1.419   5.918   0.961
 2437SOL     OW 8209   5.089   6.568   6.590
 2437SOL    HW1 8210   5.068   6.642   6.526
 2437SOL    HW2 8211   5.105   6.606   6.681
 2438SOL     OW 8212   3.255   1.184   6.551
 2438SOL    HW1 8213   3.265   1.256   6.620
 2438SOL    HW2 8214   3.192   1.114   6.584
 2439SOL     OW 8215   1.422   4.240   6.134
 2439SOL    HW1 8216   1.479   4.255   6.214
 2439SOL    HW2 8217   1.480   4.218   6.055
 2440SOL     OW 8218   4.512   5.677   5.614
 2440SOL    HW1 8219   4.605   5.689   5.577
 2440SOL    HW2 8220   4.469   5.598   5.571
 2441SOL     OW 8221   0.621   0.864   0.405
 2441SOL    HW1 8222   0.672   0.787   0.368
 2441SOL    HW2 8223   0.560   0.832   0.478
 2442SOL     OW 8224   0.861   4.083   5.805
 2442SOL    HW1 8225   0.782   4.056   5.750
 2442SOL    HW2 8226   0.841   4.066   5.902
 2443SOL     OW 8227   4.175   5.107   5.982
 2443SOL    HW1 8228   4.187   5.205   5.994
 2443SOL    HW2 8229   4.255   5.059   6.018
 2444SOL     OW 8230   3.421   3.901   5.900
 2444SOL    HW1 8231   3.472   3.931   5.980
 2444SOL    HW2 8232   3.323   3.897   5.921
 2445SOL     OW 8233   0.081   0.900   1.221
 2445SOL    HW1 8234   0.119   0.993   1.216
 2445SOL    HW2 8235   0.041   0.876   1.132
 2446SOL     OW 8236   6.470   4.974   4.209
 2446SOL    HW1 8237   6.568   4.992   4.205
 2446SOL    HW2 8238   6.452   4.900   4.275
 2447SOL     OW 8239   1.756   2.772   0.524
 2447SOL    HW1 8240   1.793   2.804   0.611
 2447SOL    HW2 8241   1.830   2.760   0.458
 2448SOL     OW 8242   0.229   0.909   4.474
 2448SOL    HW1 8243   0.292   0.947   4.406
 2448SOL    HW2 8244   0.267   0.824   4.510
 2449SOL     OW 8245   6.739   4.701   0.934
 2449SOL    HW1 8246   6.652   4.715   0.886
 2449SOL    HW2 8247   6.808   4.668   0.869
 2450SOL     OW 8248   2.683   4.689   3.259
 2450SOL    HW1 8249   2.662   4.640   3.344
 2450SOL    HW2 8250   2.770   4.737   3.268
 2451SOL     OW 8251   0.782   1.228   3.255
 2451SOL    HW1 8252   0.693   1.208   3.215
 2451SOL    HW2 8253   0.780   1.209   3.353
 2452SOL     OW 8254   1.599   3.771   2.515
 2452SOL    HW1 8255   1.636   3.768   2.608
 2452SOL    HW2 8256   1.548   3.856   2.502
 2453SOL     OW 8257   6.132   4.908   1.283
 2453SOL    HW1 8258   6.210   4.960   1.319
 2453SOL    HW2 8259   6.130   4.818   1.326
 2454SOL     OW 8260   2.994   0.587   1.305
 2454SOL    HW1 8261   2.965   0.524   1.377
 2454SOL    HW2 8262   3.001   0.679   1.342
 2455SOL     OW 8263   5.749   5.960   0.264
 2455SOL    HW1 8264   5.835   5.928   0.225
 2455SOL    HW2 8265   5.694   5.882   0.294
 2456SOL     OW 8266   4.984   6.549   1.758
 2456SOL    HW1 8267   4.996   6.633   1.811
 2456SOL    HW2 8268   5.068   6.530   1.706
 2457SOL     OW 8269   6.015   6.459   0.616
 2457SOL    HW1 8270   6.094   6.413   0.576
 2457SOL    HW2 8271   6.017   6.556   0.594
 2458SOL     OW 8272   1.931   5.576   3.471
 2458SOL    HW1 8273   1.855   5.538   3.418
 2458SOL    HW2 8274   1.909   5.670   3.498
 2459SOL     OW 8275   2.424   6.828   0.815
 2459SOL    HW1 8276   2.505   6.885   0.801
 2459SOL    HW2 8277   2.342   6.880   0.793
 2460SOL     OW 8278   2.042   0.889   1.067
 2460SOL    HW1 8279   1.996   0.977   1.057
 2460SOL    HW2 8280   1.982   0.826   1.117
 2461SOL     OW 8281   5.564   1.121   2.714
 2461SOL    HW1 8282   5.632   1.109   2.786
 2461SOL    HW2 8283   5.601   1.087   2.627
 2462SOL     OW 8284   2.679   5.532   0.268
 2462SOL    HW1 8285   2.599   5.592   0.273
 2462SOL    HW2 8286   2.702   5.514   0.173
 2463SOL     OW 8287   5.706   2.745   4.367
 2463SOL    HW1 8288   5.680   2.651   4.347
 2463SOL    HW2 8289   5.733   2.791   4.282
 2464SOL     OW 8290   0.542   4.788   0.888
 2464SOL    HW1 8291   0.489   4.866   0.920
 2464SOL    HW2 8292   0.482   4.723   0.842
 2465SOL     OW 8293   0.270   5.504   1.570
 2465SOL    HW1 8294   0.228   5.586   1.532
 2465SOL    HW2 8295   0.217   5.424   1.543
 2466SOL     OW 8296   3.524   1.097   2.503
 2466SOL    HW1 8297   3.597   1.056   2.558
 2466SOL    HW2 8298   3.465   1.152   2.561
 2467SOL     OW 8299   5.989   1.219   5.668
 2467SOL    HW1 8300   5.988   1.191   5.572
 2467SOL    HW2 8301   5.937   1.153   5.723
 2468SOL     OW 8302   0.070   6.210   1.850
 2468SOL    HW1 8303   0.128   6.180   1.774
 2468SOL    HW2 8304   0.045   6.306   1.837
 2469SOL     OW 8305   3.453   4.072   5.683
 2469SOL    HW1 8306   3.525   4.014   5.646
 2469SOL    HW2 8307   3.422   4.035   5.770
 2470SOL     OW 8308   2.919   4.254   6.328
 2470SOL    HW1 8309   2.908   4.261   6.229
 2470SOL    HW2 8310   2.888   4.163   6.358
 2471SOL     OW 8311   0.980   6.854   1.114
 2471SOL    HW1 8312   0.943   6.933   1.164
 2471SOL    HW2 8313   0.973   6.773   1.172
 2472SOL     OW 8314   5.538   1.531   4.950
 2472SOL    HW1 8315   5.624   1.513   4.998
 2472SOL    HW2 8316   5.554   1.595   4.875
 2473SOL     OW 8317   1.615   4.866   4.928
 2473SOL    HW1 8318   1.586   4.931   4.999
 2473SOL    HW2 8319   1.577   4.776   4.950
 2474SOL     OW 8320   6.860   4.744   6.643
 2474SOL    HW1 8321   6.894   4.790   6.561
 2474SOL    HW2 8322   6.931   4.683   6.679
 2475SOL     OW 8323   4.160   2.411   0.690
 2475SOL    HW1 8324   4.121   2.362   0.612
 2475SOL    HW2 8325   4.199   2.345   0.754
 2476SOL     OW 8326   1.212   2.416   3.943
 2476SOL    HW1 8327   1.300   2.372   3.960
 2476SOL    HW2 8328   1.184   2.466   4.025
 2477SOL     OW 8329   6.473   6.410   1.809
 2477SOL    HW1 8330   6.551   6.361   1.770
 2477SOL    HW2 8331   6.390   6.385   1.758
 2478SOL     OW 8332   6.029   6.055   2.655
 2478SOL    HW1 8333   6.095   6.076   2.727
 2478SOL    HW2 8334   5.943   6.027   2.696
 2479SOL     OW 8335   6.954   3.711   1.545
 2479SOL    HW1 8336   6.965   3.639   1.614
 2479SOL    HW2 8337   0.011   3.709   1.482
 2480SOL     OW 8338   6.798   2.346   0.922
 2480SOL    HW1 8339   6.828   2.387   1.008
 2480SOL    HW2 8340   6.774   2.418   0.857
 2481SOL     OW 8341   3.959   5.978   0.469
 2481SOL    HW1 8342   3.878   6.003   0.417
 2481SOL    HW2 8343   3.947   5.886   0.507
 2482SOL     OW 8344   4.347   3.497   5.906
 2482SOL    HW1 8345   4.413   3.462   5.840
 2482SOL    HW2 8346   4.382   3.483   5.999
 2483SOL     OW 8347   2.161   1.041   0.717
 2483SOL    HW1 8348   2.152   0.959   0.774
 2483SOL    HW2 8349   2.257   1.069   0.714
 2484SOL     OW 8350   2.031   0.795   0.475
 2484SOL    HW1 8351   1.982   0.856   0.537
 2484SOL    HW2 8352   2.111   0.841   0.438
 2485SOL     OW 8353   5.694   5.109   2.154
 2485SOL    HW1 8354   5.763   5.179   2.174
 2485SOL    HW2 8355   5.737   5.032   2.107
 2486SOL     OW 8356   1.559   5.912   3.675
 2486SOL    HW1 8357   1.522   6.003   3.656
 2486SOL    HW2 8358   1.650   5.903   3.634
 2487SOL     OW 8359   4.408   6.166   6.826
 2487SOL    HW1 8360   4.308   6.164   6.836
 2487SOL    HW2 8361   4.432   6.217   6.743
 2488SOL     OW 8362   2.902   4.236   1.416
 2488SOL    HW1 8363   2.870   4.201   1.328
 2488SOL    HW2 8364   2.876   4.172   1.488
 2489SOL     OW 8365   2.379   5.993   4.753
 2489SOL    HW1 8366   2.450   5.996   4.823
 2489SOL    HW2 8367   2.297   6.039   4.786
 2490SOL     OW 8368   6.816   5.121   0.879
 2490SOL    HW1 8369   6.833   5.063   0.959
 2490SOL    HW2 8370   6.900   5.127   0.825
 2491SOL     OW 8371   2.478   5.708   2.735
 2491SOL    HW1 8372   2.472   5.686   2.832
 2491SOL    HW2 8373   2.572   5.699   2.704
 2492SOL     OW 8374   4.827   3.381   6.427
 2492SOL    HW1 8375   4.774   3.324   6.490
 2492SOL    HW2 8376   4.857   3.325   6.350
 2493SOL     OW 8377   5.437   0.807   2.826
 2493SOL    HW1 8378   5.352   0.846   2.864
 2493SOL    HW2 8379   5.422   0.783   2.730
 2494SOL     OW 8380   4.667   2.708   2.736
 2494SOL    HW1 8381   4.599   2.667   2.797
 2494SOL    HW2 8382   4.759   2.689   2.772
 2495SOL     OW 8383   5.077   1.395   5.286
 2495SOL    HW1 8384   5.171   1.402   5.251
 2495SOL    HW2 8385   5.036   1.486   5.287
 2496SOL     OW 8386   1.155   5.379   0.188
 2496SOL    HW1 8387   1.226   5.318   0.224
 2496SOL    HW2 8388   1.120   5.341   0.102
 2497SOL     OW 8389   6.662   1.185   0.237
 2497SOL    HW1 8390   6.625   1.140   0.156
 2497SOL    HW2 8391   6.694   1.276   0.212
 2498SOL     OW 8392   2.165   3.394   3.179
 2498SOL    HW1 8393   2.158   3.409   3.278
 2498SOL    HW2 8394   2.155   3.296   3.160
 2499SOL     OW 8395   5.474   0.878   4.988
 2499SOL    HW1 8396   5.479   0.934   4.905
 2499SOL    HW2 8397   5.379   0.865   5.013
 2500SOL     OW 8398   5.132   3.367   6.113
 2500SOL    HW1 8399   5.188   3.285   6.131
 2500SOL    HW2 8400   5.050   3.364   6.170
 2501SOL     OW 8401   5.817   3.871   6.913
 2501SOL    HW1 8402   5.840   3.895   7.008
 2501SOL    HW2 8403   5.776   3.780   6.910
 2502SOL     OW 8404   2.404   6.363   3.490
 2502SOL    HW1 8405   2.406   6.449   3.439
 2502SOL    HW2 8406   2.309   6.339   3.511
 2503SOL     OW 8407   3.881   5.883   5.547
 2503SOL    HW1 8408   3.921   5.975   5.549
 2503SOL    HW2 8409   3.846   5.864   5.455
 2504SOL     OW 8410   2.543   4.993   4.937
 2504SOL    HW1 8411   2.525   4.900   4.904
 2504SOL    HW2 8412   2.617   5.033   4.884
 2505SOL     OW 8413   3.919   5.510   4.448
 2505SOL    HW1 8414   3.987   5.499   4.375
 2505SOL    HW2 8415   3.828   5.522   4.407
 2506SOL     OW 8416   6.362   3.241   6.028
 2506SOL    HW1 8417   6.299   3.184   6.081
 2506SOL    HW2 8418   6.333   3.337   6.034
 2507SOL     OW 8419   6.529   5.204   0.129
 2507SOL    HW1 8420   6.455   5.139   0.108
 2507SOL    HW2 8421   6.507   5.293   0.090
 2508SOL     OW 8422   2.815   1.964   2.161
 2508SOL    HW1 8423   2.820   1.981   2.062
 2508SOL    HW2 8424   2.849   2.044   2.210
 2509SOL     OW 8425   5.808   2.359   2.445
 2509SOL    HW1 8426   5.882   2.295   2.423
 2509SOL    HW2 8427   5.839   2.422   2.516
 2510SOL     OW 8428   3.543   4.997   0.903
 2510SOL    HW1 8429   3.569   4.901   0.912
 2510SOL    HW2 8430   3.451   5.010   0.940
 2511SOL     OW 8431   1.538   1.171   5.084
 2511SOL    HW1 8432   1.439   1.182   5.089
 2511SOL    HW2 8433   1.572   1.213   5.000
 2512SOL     OW 8434   5.177   3.686   4.413
 2512SOL    HW1 8435   5.205   3.697   4.508
 2512SOL    HW2 8436   5.246   3.632   4.364
 2513SOL     OW 8437   1.254   2.096   6.607
 2513SOL    HW1 8438   1.221   2.158   6.678
 2513SOL    HW2 8439   1.347   2.122   6.582
 2514SOL     OW 8440   0.790   1.734   4.378
 2514SOL    HW1 8441   0.810   1.686   4.464
 2514SOL    HW2 8442   0.704   1.785   4.388
 2515SOL     OW 8443   1.528   6.501   0.423
 2515SOL    HW1 8444   1.477   6.514   0.508
 2515SOL    HW2 8445   1.473   6.536   0.347
 2516SOL     OW 8446   6.003   5.958   3.737
 2516SOL    HW1 8447   5.987   6.010   3.654
 2516SOL    HW2 8448   6.035   6.019   3.810
 2517SOL     OW 8449   2.795   4.204   6.063
 2517SOL    HW1 8450   2.796   4.302   6.042
 2517SOL    HW2 8451   2.816   4.153   5.980
 2518SOL     OW 8452   2.604   2.917   6.794
 2518SOL    HW1 8453   2.617   2.990   6.727
 2518SOL    HW2 8454   2.553   2.842   6.752
 2519SOL     OW 8455   5.087   5.246   4.811
 2519SOL    HW1 8456   5.044   5.240   4.721
 2519SOL    HW2 8457   5.118   5.156   4.839
 2520SOL     OW 8458   2.350   3.436   0.985
 2520SOL    HW1 8459   2.351   3.513   0.922
 2520SOL    HW2 8460   2.330   3.352   0.936
 2521SOL     OW 8461   0.735   0.542   5.524
 2521SOL    HW1 8462   0.692   0.600   5.593
 2521SOL    HW2 8463   0.834   0.556   5.525
 2522SOL     OW 8464   1.461   3.213   4.770
 2522SOL    HW1 8465   1.523   3.196   4.846
 2522SOL    HW2 8466   1.513   3.225   4.686
 2523SOL     OW 8467   6.452   3.282   0.668
 2523SOL    HW1 8468   6.411   3.373   0.671
 2523SOL    HW2 8469   6.465   3.254   0.572
 2524SOL     OW 8470   0.983   6.765   4.081
 2524SOL    HW1 8471   0.953   6.732   3.992
 2524SOL    HW2 8472   1.023   6.856   4.071
 2525SOL     OW 8473   1.260   4.110   4.645
 2525SOL    HW1 8474   1.289   4.134   4.553
 2525SOL    HW2 8475   1.275   4.013   4.661
 2526SOL     OW 8476   0.556   2.251   4.308
 2526SOL    HW1 8477   0.541   2.338   4.355
 2526SOL    HW2 8478   0.607   2.268   4.223
 2527SOL     OW 8479   5.804   6.590   4.849
 2527SOL    HW1 8480   5.823   6.641   4.933
 2527SOL    HW2 8481   5.795   6.493   4.871
 2528SOL     OW 8482   6.107   5.081   0.135
 2528SOL    HW1 8483   6.112   5.020   0.214
 2528SOL    HW2 8484   6.027   5.140   0.143
 2529SOL     OW 8485   4.680   5.486   5.226
 2529SOL    HW1 8486   4.596   5.528   5.192
 2529SOL    HW2 8487   4.741   5.466   5.149
 2530SOL     OW 8488   1.086   6.318   3.856
 2530SOL    HW1 8489   1.101   6.397   3.917
 2530SOL    HW2 8490   0.989   6.314   3.831
 2531SOL     OW 8491   5.054   0.456   4.743
 2531SOL    HW1 8492   5.107   0.540   4.732
 2531SOL    HW2 8493   4.973   0.474   4.799
 2532SOL     OW 8494   1.081   5.754   0.478
 2532SOL    HW1 8495   1.124   5.808   0.551
 2532SOL    HW2 8496   0.993   5.795   0.453
 2533SOL     OW 8497   5.263   0.319   5.239
 2533SOL    HW1 8498   5.301   0.350   5.151
 2533SOL    HW2 8499   5.338   0.290   5.298
 2534SOL     OW 8500   2.130   0.558   3.639
 2534SOL    HW1 8501   2.223   0.559   3.604
 2534SOL    HW2 8502   2.131   0.542   3.738
 2535SOL     OW 8503   1.600   1.866   4.316
 2535SOL    HW1 8504   1.535   1.790   4.330
 2535SOL    HW2 8505   1.607   1.886   4.219
 2536SOL     OW 8506   6.298   1.155   4.231
 2536SOL    HW1 8507   6.375   1.130   4.172
 2536SOL    HW2 8508   6.309   1.112   4.321
 2537SOL     OW 8509   4.597   6.150   1.211
 2537SOL    HW1 8510   4.583   6.055   1.235
 2537SOL    HW2 8511   4.672   6.157   1.144
 2538SOL     OW 8512   1.805   4.667   4.867
 2538SOL    HW1 8513   1.765   4.744   4.916
 2538SOL    HW2 8514   1.904   4.679   4.860
 2539SOL     OW 8515   4.371   6.832   5.450
 2539SOL    HW1 8516   4.419   6.881   5.377
 2539SOL    HW2 8517   4.290   6.786   5.412
 2540SOL     OW 8518   4.991   0.945   1.956
 2540SOL    HW1 8519   4.911   0.932   2.014
 2540SOL    HW2 8520   5.062   0.879   1.982
 2541SOL     OW 8521   1.396   0.112   4.954
 2541SOL    HW1 8522   1.419   0.206   4.927
 2541SOL    HW2 8523   1.318   0.080   4.900
 2542SOL     OW 8524   3.932   1.715   4.177
 2542SOL    HW1 8525   3.931   1.623   4.138
 2542SOL    HW2 8526   4.014   1.727   4.233
 2543SOL     OW 8527   1.144   0.643   3.141
 2543SOL    HW1 8528   1.133   0.545   3.125
 2543SOL    HW2 8529   1.095   0.693   3.069
 2544SOL     OW 8530   0.068   5.314   1.543
 2544SOL    HW1 8531   7.006   5.323   1.489
 2544SOL    HW2 8532   0.053   5.248   1.616
 2545SOL     OW 8533   1.872   1.742   1.123
 2545SOL    HW1 8534   1.865   1.832   1.080
 2545SOL    HW2 8535   1.968   1.725   1.148
 2546SOL     OW 8536   6.486   3.732   1.675
 2546SOL    HW1 8537   6.439   3.680   1.747
 2546SOL    HW2 8538   6.419   3.762   1.607
 2547SOL     OW 8539   5.946   5.141   0.475
 2547SOL    HW1 8540   6.016   5.098   0.531
 2547SOL    HW2 8541   5.936   5.237   0.502
 2548SOL     OW 8542   1.391   0.149   4.627
 2548SOL    HW1 8543   1.314   0.147   4.564
 2548SOL    HW2 8544   1.410   0.056   4.659
 2549SOL     OW 8545   1.955   2.667   2.238
 2549SOL    HW1 8546   1.935   2.729   2.313
 2549SOL    HW2 8547   2.013   2.713   2.170
 2550SOL     OW 8548   5.730   6.608   0.155
 2550SOL    HW1 8549   5.786   6.636   0.077
 2550SOL    HW2 8550   5.714   6.509   0.150
 2551SOL     OW 8551   3.676   4.794   6.801
 2551SOL    HW1 8552   3.619   4.775   6.882
 2551SOL    HW2 8553   3.649   4.881   6.761
 2552SOL     OW 8554   2.095   4.903   6.828
 2552SOL    HW1 8555   2.140   4.834   6.771
 2552SOL    HW2 8556   2.155   4.926   6.905
 2553SOL     OW 8557   3.495   1.736   5.957
 2553SOL    HW1 8558   3.452   1.670   6.018
 2553SOL    HW2 8559   3.439   1.819   5.953
 2554SOL     OW 8560   1.687   5.832   0.169
 2554SOL    HW1 8561   1.650   5.789   0.252
 2554SOL    HW2 8562   1.620   5.896   0.133
 2555SOL     OW 8563   6.436   5.856   6.330
 2555SOL    HW1 8564   6.525   5.845   6.375
 2555SOL    HW2 8565   6.422   5.952   6.307
 2556SOL     OW 8566   3.608   6.896   1.206
 2556SOL    HW1 8567   3.610   6.841   1.123
 2556SOL    HW2 8568   3.606   6.837   1.286
 2557SOL     OW 8569   3.237   0.092   0.284
 2557SOL    HW1 8570   3.237   0.139   0.196
 2557SOL    HW2 8571   3.279   0.002   0.274
 2558SOL     OW 8572   5.511   4.474   5.761
 2558SOL    HW1 8573   5.512   4.384   5.803
 2558SOL    HW2 8574   5.419   4.511   5.764
 2559SOL     OW 8575   0.203   3.595   3.026
 2559SOL    HW1 8576   0.196   3.536   2.946
 2559SOL    HW2 8577   0.165   3.548   3.106
 2560SOL     OW 8578   5.344   3.418   3.537
 2560SOL    HW1 8579   5.360   3.339   3.477
 2560SOL    HW2 8580   5.271   3.396   3.602
 2561SOL     OW 8581   3.540   0.982   4.152
 2561SOL    HW1 8582   3.478   1.029   4.089
 2561SOL    HW2 8583   3.635   1.008   4.131
 2562SOL     OW 8584   3.515   6.207   3.015
 2562SOL    HW1 8585   3.515   6.130   2.951
 2562SOL    HW2 8586   3.423   6.220   3.051
 2563SOL     OW 8587   2.943   1.248   6.551
 2563SOL    HW1 8588   3.035   1.224   6.585
 2563SOL    HW2 8589   2.907   1.172   6.498
 2564SOL     OW 8590   2.330   0.652   0.444
 2564SOL    HW1 8591   2.357   0.666   0.349
 2564SOL    HW2 8592   2.337   0.738   0.494
 2565SOL     OW 8593   0.404   1.459   6.528
 2565SOL    HW1 8594   0.388   1.477   6.625
 2565SOL    HW2 8595   0.405   1.360   6.512
 2566SOL     OW 8596   2.941   0.106   1.704
 2566SOL    HW1 8597   2.958   0.075   1.797
 2566SOL    HW2 8598   2.901   0.197   1.706
 2567SOL     OW 8599   1.333   1.233   0.321
 2567SOL    HW1 8600   1.408   1.173   0.347
 2567SOL    HW2 8601   1.250   1.179   0.308
 2568SOL     OW 8602   2.954   6.688   1.080
 2568SOL    HW1 8603   2.914   6.699   0.989
 2568SOL    HW2 8604   2.938   6.770   1.134
 2569SOL     OW 8605   1.935   1.231   1.230
 2569SOL    HW1 8606   1.910   1.215   1.134
 2569SOL    HW2 8607   1.947   1.143   1.276
 2570SOL     OW 8608   5.230   5.827   6.785
 2570SOL    HW1 8609   5.215   5.740   6.737
 2570SOL    HW2 8610   5.195   5.820   6.878
 2571SOL     OW 8611   3.480   2.921   4.360
 2571SOL    HW1 8612   3.550   2.904   4.430
 2571SOL    HW2 8613   3.395   2.950   4.405
 2572SOL     OW 8614   2.674   5.524   1.501
 2572SOL    HW1 8615   2.689   5.427   1.481
 2572SOL    HW2 8616   2.580   5.537   1.532
 2573SOL     OW 8617   6.593   2.212   3.922
 2573SOL    HW1 8618   6.682   2.252   3.946
 2573SOL    HW2 8619   6.520   2.262   3.969
 2574SOL     OW 8620   6.577   2.738   1.015
 2574SOL    HW1 8621   6.653   2.674   1.002
 2574SOL    HW2 8622   6.511   2.698   1.078
 2575SOL     OW 8623   5.139   3.914   0.513
 2575SOL    HW1 8624   5.200   3.986   0.546
 2575SOL    HW2 8625   5.052   3.954   0.484
 2576SOL     OW 8626   2.658   0.040   3.847
 2576SOL    HW1 8627   2.735   7.010   3.883
 2576SOL    HW2 8628   2.690   0.128   3.810
 2577SOL     OW 8629   3.657   0.679   3.199
 2577SOL    HW1 8630   3.632   0.748   3.131
 2577SOL    HW2 8631   3.634   0.712   3.290
 2578SOL     OW 8632   4.671   2.805   4.419
 2578SOL    HW1 8633   4.699   2.791   4.324
 2578SOL    HW2 8634   4.572   2.789   4.427
 2579SOL     OW 8635   0.419   1.717   6.049
 2579SOL    HW1 8636   0.384   1.646   6.109
 2579SOL    HW2 8637   0.455   1.792   6.105
 2580SOL     OW 8638   1.568   2.481   6.046
 2580SOL    HW1 8639   1.634   2.453   5.977
 2580SOL    HW2 8640   1.476   2.459   6.015
 2581SOL     OW 8641   5.287   5.690   2.024
 2581SOL    HW1 8642   5.323   5.783   2.020
 2581SOL    HW2 8643   5.212   5.680   1.958
 2582SOL     OW 8644   1.738   5.408   2.686
 2582SOL    HW1 8645   1.696   5.418   2.776
 2582SOL    HW2 8646   1.837   5.420   2.694
 2583SOL     OW 8647   0.922   0.921   1.157
 2583SOL    HW1 8648   0.921   0.873   1.069
 2583SOL    HW2 8649   1.009   0.902   1.204
 2584SOL     OW 8650   3.399   6.255   1.015
 2584SOL    HW1 8651   3.344   6.287   0.938
 2584SOL    HW2 8652   3.338   6.216   1.085
 2585SOL     OW 8653   2.945   6.908   1.233
 2585SOL    HW1 8654   2.979   6.959   1.155
 2585SOL    HW2 8655   2.921   6.972   1.307
 2586SOL     OW 8656   6.054   1.385   5.116
 2586SOL    HW1 8657   6.133   1.337   5.080
 2586SOL    HW2 8658   6.083   1.449   5.188
 2587SOL     OW 8659   6.742   0.214   4.739
 2587SOL    HW1 8660   6.687   0.295   4.763
 2587SOL    HW2 8661   6.746   0.152   4.817
 2588SOL     OW 8662   5.366   0.054   1.317
 2588SOL    HW1 8663   5.441   0.050   1.383
 2588SOL    HW2 8664   5.292   0.111   1.353
 2589SOL     OW 8665   6.713   0.644   5.653
 2589SOL    HW1 8666   6.721   0.662   5.555
 2589SOL    HW2 8667   6.666   0.557   5.668
 2590SOL     OW 8668   3.389   7.017   2.774
 2590SOL    HW1 8669   3.420   0.086   2.745
 2590SOL    HW2 8670   3.417   7.000   2.869
 2591SOL     OW 8671   5.151   5.999   1.000
 2591SOL    HW1 8672   5.196   6.034   0.918
 2591SOL    HW2 8673   5.210   6.014   1.079
 2592SOL     OW 8674   2.941   5.902   1.386
 2592SOL    HW1 8675   3.013   5.851   1.339
 2592SOL    HW2 8676   2.945   5.997   1.357
 2593SOL     OW 8677   3.159   0.109   2.736
 2593SOL    HW1 8678   3.235   0.046   2.748
 2593SOL    HW2 8679   3.164   0.150   2.645
 2594SOL     OW 8680   0.471   0.243   6.465
 2594SOL    HW1 8681   0.524   0.246   6.380
 2594SOL    HW2 8682   0.478   0.331   6.511
 2595SOL     OW 8683   6.718   2.951   5.352
 2595SOL    HW1 8684   6.790   2.987   5.293
 2595SOL    HW2 8685   6.705   2.853   5.332
 2596SOL     OW 8686   3.917   2.385   1.711
 2596SOL    HW1 8687   3.834   2.369   1.763
 2596SOL    HW2 8688   3.996   2.351   1.762
 2597SOL     OW 8689   2.456   3.025   0.874
 2597SOL    HW1 8690   2.388   3.098   0.869
 2597SOL    HW2 8691   2.541   3.062   0.912
 2598SOL     OW 8692   6.733   2.899   4.670
 2598SOL    HW1 8693   6.737   2.999   4.666
 2598SOL    HW2 8694   6.804   2.861   4.610
 2599SOL     OW 8695   3.373   5.872   5.631
 2599SOL    HW1 8696   3.409   5.921   5.711
 2599SOL    HW2 8697   3.427   5.896   5.551
 2600SOL     OW 8698   4.887   3.726   3.698
 2600SOL    HW1 8699   4.836   3.803   3.735
 2600SOL    HW2 8700   4.908   3.661   3.772
 2601SOL     OW 8701   2.985   2.298   6.244
 2601SOL    HW1 8702   3.055   2.354   6.289
 2601SOL    HW2 8703   3.029   2.230   6.186
 2602SOL     OW 8704   6.827   4.823   4.687
 2602SOL    HW1 8705   6.824   4.724   4.699
 2602SOL    HW2 8706   6.893   4.846   4.615
 2603SOL     OW 8707   2.350   2.670   1.949
 2603SOL    HW1 8708   2.397   2.623   2.024
 2603SOL    HW2 8709   2.412   2.735   1.906
 2604SOL     OW 8710   5.251   0.186   1.054
 2604SOL    HW1 8711   5.159   0.193   1.092
 2604SOL    HW2 8712   5.293   0.100   1.083
 2605SOL     OW 8713   4.570   4.613   3.192
 2605SOL    HW1 8714   4.496   4.597   3.127
 2605SOL    HW2 8715   4.588   4.529   3.244
 2606SOL     OW 8716   6.826   4.045   0.454
 2606SOL    HW1 8717   6.751   4.043   0.388
 2606SOL    HW2 8718   6.908   4.083   0.410
 2607SOL     OW 8719   1.523   1.895   4.757
 2607SOL    HW1 8720   1.511   1.811   4.810
 2607SOL    HW2 8721   1.546   1.971   4.819
 2608SOL     OW 8722   4.835   0.431   2.436
 2608SOL    HW1 8723   4.914   0.371   2.449
 2608SOL    HW2 8724   4.751   0.379   2.449
 2609SOL     OW 8725   0.846   2.067   2.049
 2609SOL    HW1 8726   0.898   2.047   2.132
 2609SOL    HW2 8727   0.866   1.998   1.979
 2610SOL     OW 8728   6.773   5.806   4.421
 2610SOL    HW1 8729   6.714   5.838   4.348
 2610SOL    HW2 8730   6.785   5.879   4.489
 2611SOL     OW 8731   6.114   6.371   1.316
 2611SOL    HW1 8732   6.131   6.380   1.414
 2611SOL    HW2 8733   6.079   6.457   1.279
 2612SOL     OW 8734   5.637   6.000   4.651
 2612SOL    HW1 8735   5.637   5.916   4.706
 2612SOL    HW2 8736   5.587   6.072   4.700
 2613SOL     OW 8737   3.438   6.349   1.985
 2613SOL    HW1 8738   3.416   6.359   2.082
 2613SOL    HW2 8739   3.388   6.271   1.948
 2614SOL     OW 8740   6.270   6.757   5.394
 2614SOL    HW1 8741   6.189   6.741   5.338
 2614SOL    HW2 8742   6.251   6.830   5.459
 2615SOL     OW 8743   5.415   5.589   3.691
 2615SOL    HW1 8744   5.451   5.608   3.599
 2615SOL    HW2 8745   5.429   5.493   3.713
 2616SOL     OW 8746   4.113   3.543   4.149
 2616SOL    HW1 8747   4.117   3.460   4.092
 2616SOL    HW2 8748   4.038   3.601   4.118
 2617SOL     OW 8749   3.301   5.059   1.100
 2617SOL    HW1 8750   3.370   5.053   1.172
 2617SOL    HW2 8751   3.216   5.017   1.132
 2618SOL     OW 8752   6.686   6.515   3.085
 2618SOL    HW1 8753   6.769   6.553   3.127
 2618SOL    HW2 8754   6.608   6.573   3.107
 2619SOL     OW 8755   4.607   1.579   2.036
 2619SOL    HW1 8756   4.657   1.576   1.950
 2619SOL    HW2 8757   4.521   1.627   2.023
 2620SOL     OW 8758   1.741   5.372   3.481
 2620SOL    HW1 8759   1.758   5.367   3.580
 2620SOL    HW2 8760   1.773   5.288   3.438
 2621SOL     OW 8761   1.027   5.458   3.586
 2621SOL    HW1 8762   0.980   5.541   3.556
 2621SOL    HW2 8763   1.000   5.436   3.680
 2622SOL     OW 8764   1.976   3.029   6.190
 2622SOL    HW1 8765   1.935   2.939   6.206
 2622SOL    HW2 8766   2.025   3.029   6.103
 2623SOL     OW 8767   4.168   0.980   4.544
 2623SOL    HW1 8768   4.260   0.968   4.583
 2623SOL    HW2 8769   4.172   0.967   4.445
 2624SOL     OW 8770   6.495   2.962   3.620
 2624SOL    HW1 8771   6.497   2.888   3.554
 2624SOL    HW2 8772   6.527   2.929   3.709
 2625SOL     OW 8773   1.910   2.907   5.207
 2625SOL    HW1 8774   1.998   2.915   5.253
 2625SOL    HW2 8775   1.922   2.859   5.120
 2626SOL     OW 8776   0.410   6.238   3.760
 2626SOL    HW1 8777   0.443   6.219   3.853
 2626SOL    HW2 8778   0.321   6.285   3.766
 2627SOL     OW 8779   0.227   0.803   4.897
 2627SOL    HW1 8780   0.272   0.719   4.867
 2627SOL    HW2 8781   0.257   0.879   4.840
 2628SOL     OW 8782   3.753   6.238   6.502
 2628SOL    HW1 8783   3.825   6.201   6.561
 2628SOL    HW2 8784   3.684   6.167   6.486
 2629SOL     OW 8785   3.826   3.724   1.967
 2629SOL    HW1 8786   3.887   3.704   1.890
 2629SOL    HW2 8787   3.814   3.823   1.975
 2630SOL     OW 8788   3.441   2.092   2.179
 2630SOL    HW1 8789   3.489   2.022   2.232
 2630SOL    HW2 8790   3.494   2.115   2.097
 2631SOL     OW 8791   4.458   6.900   4.091
 2631SOL    HW1 8792   4.468   6.975   4.026
 2631SOL    HW2 8793   4.418   6.821   4.044
 2632SOL     OW 8794   3.262   2.385   6.729
 2632SOL    HW1 8795   3.309   2.425   6.651
 2632SOL    HW2 8796   3.329   2.355   6.797
 2633SOL     OW 8797   6.109   2.657   6.608
 2633SOL    HW1 8798   6.125   2.558   6.602
 2633SOL    HW2 8799   6.013   2.673   6.634
 2634SOL     OW 8800   1.693   4.098   2.498
 2634SOL    HW1 8801   1.595   4.078   2.486
 2634SOL    HW2 8802   1.745   4.057   2.424
 2635SOL     OW 8803   5.272   6.042   4.410
 2635SOL    HW1 8804   5.322   6.037   4.323
 2635SOL    HW2 8805   5.226   6.130   4.416
 2636SOL     OW 8806   6.243   0.324   6.914
 2636SOL    HW1 8807   6.185   0.338   6.994
 2636SOL    HW2 8808   6.186   0.314   6.833
 2637SOL     OW 8809   6.332   0.909   3.442
 2637SOL    HW1 8810   6.261   0.838   3.439
 2637SOL    HW2 8811   6.356   0.929   3.537
 2638SOL     OW 8812   5.669   0.301   1.969
 2638SOL    HW1 8813   5.580   0.268   2.003
 2638SOL    HW2 8814   5.654   0.356   1.887
 2639SOL     OW 8815   6.175   6.815   2.376
 2639SOL    HW1 8816   6.178   6.716   2.359
 2639SOL    HW2 8817   6.213   6.863   2.297
 2640SOL     OW 8818   6.879   6.402   5.503
 2640SOL    HW1 8819   6.796   6.398   5.447
 2640SOL    HW2 8820   6.930   6.484   5.480
 2641SOL     OW 8821   5.938   3.317   0.954
 2641SOL    HW1 8822   5.994   3.380   0.900
 2641SOL    HW2 8823   5.918   3.236   0.899
 2642SOL     OW 8824   6.034   0.838   4.450
 2642SOL    HW1 8825   5.963   0.884   4.504
 2642SOL    HW2 8826   6.030   0.872   4.356
 2643SOL     OW 8827   0.139   5.450   3.115
 2643SOL    HW1 8828   0.236   5.476   3.117
 2643SOL    HW2 8829   0.120   5.389   3.192
 2644SOL     OW 8830   0.657   4.347   5.687
 2644SOL    HW1 8831   0.755   4.346   5.673
 2644SOL    HW2 8832   0.613   4.280   5.628
 2645SOL     OW 8833   4.406   6.611   5.142
 2645SOL    HW1 8834   4.503   6.628   5.159
 2645SOL    HW2 8835   4.396   6.528   5.087
 2646SOL     OW 8836   6.235   0.016   6.050
 2646SOL    HW1 8837   6.258   6.947   6.014
 2646SOL    HW2 8838   6.245   0.016   6.150
 2647SOL     OW 8839   5.002   0.480   1.055
 2647SOL    HW1 8840   4.951   0.397   1.036
 2647SOL    HW2 8841   5.099   0.458   1.069
 2648SOL     OW 8842   6.339   0.245   3.186
 2648SOL    HW1 8843   6.430   0.260   3.223
 2648SOL    HW2 8844   6.327   0.298   3.102
 2649SOL     OW 8845   4.447   1.402   5.643
 2649SOL    HW1 8846   4.495   1.449   5.716
 2649SOL    HW2 8847   4.425   1.309   5.671
 2650SOL     OW 8848   0.583   5.300   3.796
 2650SOL    HW1 8849   0.673   5.305   3.839
 2650SOL    HW2 8850   0.555   5.391   3.765
 2651SOL     OW 8851   1.216   1.366   0.789
 2651SOL    HW1 8852   1.218   1.466   0.795
 2651SOL    HW2 8853   1.121   1.335   0.785
 2652SOL     OW 8854   3.307   2.912   3.717
 2652SOL    HW1 8855   3.256   2.918   3.631
 2652SOL    HW2 8856   3.295   2.996   3.769
 2653SOL     OW 8857   5.202   6.980   5.423
 2653SOL    HW1 8858   5.107   7.011   5.422
 2653SOL    HW2 8859   5.214   6.909   5.492
 2654SOL     OW 8860   5.033   3.246   6.765
 2654SOL    HW1 8861   4.971   3.303   6.710
 2654SOL    HW2 8862   5.107   3.302   6.800
 2655SOL     OW 8863   3.994   4.805   4.134
 2655SOL    HW1 8864   3.904   4.828   4.097
 2655SOL    HW2 8865   3.990   4.806   4.234
 2656SOL     OW 8866   4.913   4.863   3.971
 2656SOL    HW1 8867   4.988   4.838   3.909
 2656SOL    HW2 8868   4.832   4.810   3.949
 2657SOL     OW 8869   2.582   4.128   6.218
 2657SOL    HW1 8870   2.664   4.157   6.168
 2657SOL    HW2 8871   2.549   4.041   6.180
 2658SOL     OW 8872   6.335   4.645   6.588
 2658SOL    HW1 8873   6.294   4.684   6.506
 2658SOL    HW2 8874   6.264   4.622   6.654
 2659SOL     OW 8875   6.592   1.996   4.562
 2659SOL    HW1 8876   6.634   2.079   4.526
 2659SOL    HW2 8877   6.514   1.971   4.505
 2660SOL     OW 8878   0.300   1.884   1.186
 2660SOL    HW1 8879   0.355   1.927   1.258
 2660SOL    HW2 8880   0.325   1.788   1.178
 2661SOL     OW 8881   2.592   6.781   2.030
 2661SOL    HW1 8882   2.538   6.737   1.958
 2661SOL    HW2 8883   2.568   6.878   2.034
 2662SOL     OW 8884   4.431   6.646   4.780
 2662SOL    HW1 8885   4.456   6.574   4.845
 2662SOL    HW2 8886   4.357   6.702   4.819
 2663SOL     OW 8887   2.299   4.412   1.316
 2663SOL    HW1 8888   2.199   4.411   1.328
 2663SOL    HW2 8889   2.340   4.462   1.393
 2664SOL     OW 8890   3.551   4.147   3.493
 2664SOL    HW1 8891   3.640   4.167   3.452
 2664SOL    HW2 8892   3.557   4.156   3.592
 2665SOL     OW 8893   3.690   2.190   5.208
 2665SOL    HW1 8894   3.623   2.255   5.242
 2665SOL    HW2 8895   3.651   2.139   5.131
 2666SOL     OW 8896   4.519   4.295   1.138
 2666SOL    HW1 8897   4.451   4.298   1.065
 2666SOL    HW2 8898   4.518   4.204   1.180
 2667SOL     OW 8899   1.551   6.169   4.876
 2667SOL    HW1 8900   1.541   6.070   4.880
 2667SOL    HW2 8901   1.538   6.200   4.782
 2668SOL     OW 8902   6.482   3.643   3.992
 2668SOL    HW1 8903   6.562   3.626   4.049
 2668SOL    HW2 8904   6.458   3.558   3.944
 2669SOL     OW 8905   3.278   4.782   5.586
 2669SOL    HW1 8906   3.316   4.778   5.494
 2669SOL    HW2 8907   3.329   4.848   5.641
 2670SOL     OW 8908   6.389   1.473   6.716
 2670SOL    HW1 8909   6.333   1.441   6.792
 2670SOL    HW2 8910   6.394   1.573   6.718
 2671SOL     OW 8911   2.705   3.799   0.292
 2671SOL    HW1 8912   2.701   3.898   0.297
 2671SOL    HW2 8913   2.628   3.759   0.343
 2672SOL     OW 8914   1.395   5.429   6.883
 2672SOL    HW1 8915   1.452   5.347   6.875
 2672SOL    HW2 8916   1.302   5.409   6.854
 2673SOL     OW 8917   5.691   2.586   3.717
 2673SOL    HW1 8918   5.718   2.647   3.792
 2673SOL    HW2 8919   5.597   2.606   3.691
 2674SOL     OW 8920   2.015   4.391   4.343
 2674SOL    HW1 8921   2.110   4.358   4.342
 2674SOL    HW2 8922   1.960   4.333   4.283
 2675SOL     OW 8923   1.368   4.727   5.255
 2675SOL    HW1 8924   1.325   4.781   5.327
 2675SOL    HW2 8925   1.315   4.644   5.239
 2676SOL     OW 8926   4.537   1.225   2.735
 2676SOL    HW1 8927   4.584   1.234   2.822
 2676SOL    HW2 8928   4.604   1.225   2.661
 2677SOL     OW 8929   2.886   4.976   1.474
 2677SOL    HW1 8930   2.925   4.927   1.551
 2677SOL    HW2 8931   2.956   5.033   1.431
 2678SOL     OW 8932   0.729   4.737   0.381
 2678SOL    HW1 8933   0.763   4.777   0.466
 2678SOL    HW2 8934   0.737   4.638   0.386
 2679SOL     OW 8935   3.670   5.351   1.441
 2679SOL    HW1 8936   3.670   5.284   1.515
 2679SOL    HW2 8937   3.587   5.341   1.387
 2680SOL     OW 8938   1.678   1.976   0.389
 2680SOL    HW1 8939   1.650   1.899   0.445
 2680SOL    HW2 8940   1.776   1.972   0.372
 2681SOL     OW 8941   1.897   3.689   4.011
 2681SOL    HW1 8942   1.907   3.606   4.065
 2681SOL    HW2 8943   1.836   3.671   3.933
 2682SOL     OW 8944   5.882   3.215   2.651
 2682SOL    HW1 8945   5.874   3.127   2.603
 2682SOL    HW2 8946   5.889   3.199   2.749
 2683SOL     OW 8947   1.084   4.273   1.363
 2683SOL    HW1 8948   1.153   4.324   1.311
 2683SOL    HW2 8949   0.994   4.312   1.346
 2684SOL     OW 8950   3.781   5.482   2.114
 2684SOL    HW1 8951   3.874   5.497   2.149
 2684SOL    HW2 8952   3.771   5.387   2.086
 2685SOL     OW 8953   5.987   6.794   4.702
 2685SOL    HW1 8954   5.947   6.715   4.748
 2685SOL    HW2 8955   5.943   6.877   4.736
 2686SOL     OW 8956   1.532   2.580   4.004
 2686SOL    HW1 8957   1.476   2.497   4.007
 2686SOL    HW2 8958   1.473   2.659   3.986
 2687SOL     OW 8959   4.095   4.804   2.823
 2687SOL    HW1 8960   4.112   4.706   2.825
 2687SOL    HW2 8961   4.182   4.853   2.813
 2688SOL     OW 8962   4.431   5.790   6.090
 2688SOL    HW1 8963   4.389   5.874   6.055
 2688SOL    HW2 8964   4.362   5.718   6.096
 2689SOL     OW 8965   2.010   1.790   3.795
 2689SOL    HW1 8966   1.910   1.789   3.793
 2689SOL    HW2 8967   2.041   1.795   3.890
 2690SOL     OW 8968   3.783   2.927   3.654
 2690SOL    HW1 8969   3.724   2.903   3.731
 2690SOL    HW2 8970   3.872   2.883   3.666
 2691SOL     OW 8971   1.751   5.346   1.964
 2691SOL    HW1 8972   1.803   5.429   1.950
 2691SOL    HW2 8973   1.812   5.267   1.960
 2692SOL     OW 8974   6.155   5.929   4.198
 2692SOL    HW1 8975   6.060   5.903   4.185
 2692SOL    HW2 8976   6.161   6.028   4.213
 2693SOL     OW 8977   2.294   4.956   3.091
 2693SOL    HW1 8978   2.361   4.961   3.164
 2693SOL    HW2 8979   2.294   4.864   3.051
 2694SOL     OW 8980   2.995   1.014   2.971
 2694SOL    HW1 8981   3.047   1.037   2.889
 2694SOL    HW2 8982   3.017   0.920   2.999
 2695SOL     OW 8983   5.225   1.869   2.748
 2695SOL    HW1 8984   5.133   1.908   2.750
 2695SOL    HW2 8985   5.241   1.814   2.830
 2696SOL     OW 8986   3.529   2.605   5.682
 2696SOL    HW1 8987   3.590   2.608   5.603
 2696SOL    HW2 8988   3.547   2.685   5.740
 2697SOL     OW 8989   4.323   2.377   3.756
 2697SOL    HW1 8990   4.318   2.475   3.738
 2697SOL    HW2 8991   4.416   2.354   3.788
 2698SOL     OW 8992   1.784   5.119   0.573
 2698SOL    HW1 8993   1.800   5.024   0.598
 2698SOL    HW2 8994   1.871   5.163   0.552
 2699SOL     OW 8995   3.750   5.698   6.683
 2699SOL    HW1 8996   3.684   5.636   6.725
 2699SOL    HW2 8997   3.796   5.652   6.608
 2700SOL     OW 8998   1.941   3.734   2.241
 2700SOL    HW1 8999   1.863   3.717   2.182
 2700SOL    HW2 9000   2.007   3.659   2.233
 2701SOL     OW 9001   3.837   6.940   6.630
 2701SOL    HW1 9002   3.828   6.937   6.531
 2701SOL    HW2 9003   3.896   6.864   6.661
 2702SOL     OW 9004   6.753   1.967   3.187
 2702SOL    HW1 9005   6.713   1.991   3.098
 2702SOL    HW2 9006   6.686   1.918   3.242
 2703SOL     OW 9007   2.674   0.821   3.208
 2703SOL    HW1 9008   2.683   0.773   3.296
 2703SOL    HW2 9009   2.584   0.802   3.170
 2704SOL     OW 9010   1.491   5.556   1.508
 2704SOL    HW1 9011   1.452   5.464   1.514
 2704SOL    HW2 9012   1.529   5.581   1.597
 2705SOL     OW 9013   0.461   5.432   4.576
 2705SOL    HW1 9014   0.377   5.460   4.623
 2705SOL    HW2 9015   0.531   5.503   4.588
 2706SOL     OW 9016   0.101   0.872   1.685
 2706SOL    HW1 9017   0.093   0.928   1.602
 2706SOL    HW2 9018   0.071   0.779   1.665
 2707SOL     OW 9019   2.107   0.461   5.713
 2707SOL    HW1 9020   2.174   0.505   5.772
 2707SOL    HW2 9021   2.025   0.519   5.706
 2708SOL     OW 9022   2.324   2.637   1.652
 2708SOL    HW1 9023   2.350   2.619   1.558
 2708SOL    HW2 9024   2.404   2.664   1.705
 2709SOL     OW 9025   5.107   6.647   1.183
 2709SOL    HW1 9026   5.108   6.743   1.155
 2709SOL    HW2 9027   5.012   6.616   1.193
 2710SOL     OW 9028   6.591   4.083   2.672
 2710SOL    HW1 9029   6.503   4.120   2.641
 2710SOL    HW2 9030   6.665   4.139   2.636
 2711SOL     OW 9031   2.264   0.311   2.855
 2711SOL    HW1 9032   2.260   0.355   2.944
 2711SOL    HW2 9033   2.353   0.265   2.845
 2712SOL     OW 9034   3.685   5.180   6.845
 2712SOL    HW1 9035   3.618   5.255   6.843
 2712SOL    HW2 9036   3.653   5.106   6.786
 2713SOL     OW 9037   2.034   2.602   4.482
 2713SOL    HW1 9038   2.064   2.521   4.433
 2713SOL    HW2 9039   2.086   2.682   4.450
 2714SOL     OW 9040   5.323   1.515   6.873
 2714SOL    HW1 9041   5.363   1.479   6.789
 2714SOL    HW2 9042   5.246   1.457   6.900
 2715SOL     OW 9043   6.463   0.486   0.464
 2715SOL    HW1 9044   6.514   0.512   0.382
 2715SOL    HW2 9045   6.527   0.464   0.538
 2716SOL     OW 9046   6.881   5.436   1.782
 2716SOL    HW1 9047   6.931   5.490   1.714
 2716SOL    HW2 9048   6.847   5.495   1.854
 2717SOL     OW 9049   0.890   5.623   2.075
 2717SOL    HW1 9050   0.886   5.722   2.089
 2717SOL    HW2 9051   0.799   5.584   2.086
 2718SOL     OW 9052   2.271   4.320   4.267
 2718SOL    HW1 9053   2.300   4.258   4.194
 2718SOL    HW2 9054   2.341   4.389   4.282
 2719SOL     OW 9055   4.475   4.850   2.101
 2719SOL    HW1 9056   4.435   4.776   2.157
 2719SOL    HW2 9057   4.523   4.810   2.023
 2720SOL     OW 9058   1.793   6.225   3.479
 2720SOL    HW1 9059   1.761   6.319   3.465
 2720SOL    HW2 9060   1.824   6.187   3.392
 2721SOL     OW 9061   2.841   0.474   5.091
 2721SOL    HW1 9062   2.843   0.409   5.015
 2721SOL    HW2 9063   2.934   0.504   5.112
 2722SOL     OW 9064   6.423   5.449   2.930
 2722SOL    HW1 9065   6.462   5.357   2.940
 2722SOL    HW2 9066   6.464   5.510   2.997
 2723SOL     OW 9067   1.809   1.328   5.893
 2723SOL    HW1 9068   1.761   1.245   5.866
 2723SOL    HW2 9069   1.817   1.332   5.992
 2724SOL     OW 9070   2.926   6.076   5.198
 2724SOL    HW1 9071   2.900   6.051   5.105
 2724SOL    HW2 9072   2.844   6.081   5.255
 2725SOL     OW 9073   6.165   4.713   3.207
 2725SOL    HW1 9074   6.129   4.797   3.166
 2725SOL    HW2 9075   6.150   4.715   3.306
 2726SOL     OW 9076   4.765   4.783   1.718
 2726SOL    HW1 9077   4.685   4.764   1.774
 2726SOL    HW2 9078   4.776   4.712   1.649
 2727SOL     OW 9079   0.658   4.659   3.135
 2727SOL    HW1 9080   0.730   4.590   3.143
 2727SOL    HW2 9081   0.603   4.640   3.053
 2728SOL     OW 9082   3.000   0.580   4.452
 2728SOL    HW1 9083   2.923   0.600   4.512
 2728SOL    HW2 9084   2.967   0.564   4.359
 2729SOL     OW 9085   6.732   5.785   2.290
 2729SOL    HW1 9086   6.661   5.760   2.224
 2729SOL    HW2 9087   6.821   5.781   2.245
 2730SOL     OW 9088   2.095   6.892   1.067
 2730SOL    HW1 9089   2.147   6.815   1.030
 2730SOL    HW2 9090   1.997   6.876   1.055
 2731SOL     OW 9091   2.799   3.677   1.470
 2731SOL    HW1 9092   2.711   3.632   1.456
 2731SOL    HW2 9093   2.794   3.737   1.550
 2732SOL     OW 9094   6.109   3.189   2.371
 2732SOL    HW1 9095   6.095   3.099   2.330
 2732SOL    HW2 9096   6.178   3.239   2.318
 2733SOL     OW 9097   0.995   6.636   5.338
 2733SOL    HW1 9098   0.972   6.642   5.436
 2733SOL    HW2 9099   1.026   6.725   5.306
 2734SOL     OW 9100   1.606   5.443   2.924
 2734SOL    HW1 9101   1.627   5.492   3.009
 2734SOL    HW2 9102   1.507   5.440   2.912
 2735SOL     OW 9103   0.306   3.290   2.257
 2735SOL    HW1 9104   0.334   3.195   2.264
 2735SOL    HW2 9105   0.378   3.349   2.295
 2736SOL     OW 9106   4.786   0.557   4.843
 2736SOL    HW1 9107   4.806   0.648   4.880
 2736SOL    HW2 9108   4.719   0.512   4.902
 2737SOL     OW 9109   3.092   3.217   6.389
 2737SOL    HW1 9110   3.046   3.129   6.389
 2737SOL    HW2 9111   3.104   3.248   6.483
 2738SOL     OW 9112   4.918   5.666   4.443
 2738SOL    HW1 9113   4.884   5.726   4.370
 2738SOL    HW2 9114   4.973   5.720   4.507
 2739SOL     OW 9115   5.827   4.308   0.774
 2739SOL    HW1 9116   5.916   4.321   0.730
 2739SOL    HW2 9117   5.819   4.214   0.807
 2740SOL     OW 9118   5.330   1.984   2.260
 2740SOL    HW1 9119   5.316   1.992   2.359
 2740SOL    HW2 9120   5.335   1.887   2.235
 2741SOL     OW 9121   0.077   2.018   5.995
 2741SOL    HW1 9122   7.005   2.048   6.015
 2741SOL    HW2 9123   0.083   1.918   6.003
 2742SOL     OW 9124   1.934   6.120   6.436
 2742SOL    HW1 9125   1.986   6.086   6.514
 2742SOL    HW2 9126   1.846   6.074   6.431
 2743SOL     OW 9127   6.221   5.822   1.659
 2743SOL    HW1 9128   6.176   5.770   1.731
 2743SOL    HW2 9129   6.189   5.917   1.661
 2744SOL     OW 9130   4.281   1.835   0.151
 2744SOL    HW1 9131   4.317   1.838   0.058
 2744SOL    HW2 9132   4.347   1.878   0.214
 2745SOL     OW 9133   2.140   6.523   0.300
 2745SOL    HW1 9134   2.107   6.523   0.206
 2745SOL    HW2 9135   2.176   6.432   0.322
 2746SOL     OW 9136   1.890   3.336   4.677
 2746SOL    HW1 9137   1.870   3.433   4.695
 2746SOL    HW2 9138   1.986   3.318   4.695
 2747SOL     OW 9139   5.154   4.379   5.396
 2747SOL    HW1 9140   5.200   4.411   5.313
 2747SOL    HW2 9141   5.128   4.457   5.453
 2748SOL     OW 9142   3.386   1.768   2.812
 2748SOL    HW1 9143   3.432   1.853   2.786
 2748SOL    HW2 9144   3.366   1.769   2.910
 2749SOL     OW 9145   4.958   5.016   4.333
 2749SOL    HW1 9146   5.022   5.025   4.257
 2749SOL    HW2 9147   4.906   4.931   4.323
 2750SOL     OW 9148   1.087   5.077   1.659
 2750SOL    HW1 9149   1.026   5.001   1.635
 2750SOL    HW2 9150   1.137   5.105   1.577
 2751SOL     OW 9151   1.839   0.184   0.207
 2751SOL    HW1 9152   1.925   0.195   0.156
 2751SOL    HW2 9153   1.812   0.087   0.205
 2752SOL     OW 9154   5.072   5.609   5.196
 2752SOL    HW1 9155   4.985   5.592   5.243
 2752SOL    HW2 9156   5.054   5.633   5.101
 2753SOL     OW 9157   2.859   5.804   6.149
 2753SOL    HW1 9158   2.862   5.747   6.231
 2753SOL    HW2 9159   2.853   5.900   6.176
 2754SOL     OW 9160   6.605   0.127   3.980
 2754SOL    HW1 9161   6.619   0.028   3.976
 2754SOL    HW2 9162   6.569   0.152   4.070
 2755SOL     OW 9163   2.963   6.717   3.351
 2755SOL    HW1 9164   3.047   6.744   3.303
 2755SOL    HW2 9165   2.891   6.784   3.331
 2756SOL     OW 9166   6.278   4.438   3.980
 2756SOL    HW1 9167   6.270   4.519   4.038
 2756SOL    HW2 9168   6.371   4.431   3.944
 2757SOL     OW 9169   3.421   1.470   6.313
 2757SOL    HW1 9170   3.478   1.463   6.395
 2757SOL    HW2 9171   3.479   1.467   6.231
 2758SOL     OW 9172   5.293   5.979   3.653
 2758SOL    HW1 9173   5.320   6.074   3.672
 2758SOL    HW2 9174   5.325   5.919   3.726
 2759SOL     OW 9175   3.417   4.612   5.771
 2759SOL    HW1 9176   3.390   4.522   5.740
 2759SOL    HW2 9177   3.376   4.682   5.712
 2760SOL     OW 9178   6.294   5.819   2.586
 2760SOL    HW1 9179   6.375   5.785   2.539
 2760SOL    HW2 9180   6.315   5.834   2.683
 2761SOL     OW 9181   1.267   4.167   3.217
 2761SOL    HW1 9182   1.266   4.267   3.229
 2761SOL    HW2 9183   1.301   4.145   3.125
 2762SOL     OW 9184   1.052   2.230   6.844
 2762SOL    HW1 9185   0.978   2.164   6.857
 2762SOL    HW2 9186   1.029   2.315   6.891
 2763SOL     OW 9187   5.193   1.746   6.122
 2763SOL    HW1 9188   5.129   1.778   6.192
 2763SOL    HW2 9189   5.173   1.651   6.099
 2764SOL     OW 9190   0.474   4.341   2.754
 2764SOL    HW1 9191   0.394   4.298   2.713
 2764SOL    HW2 9192   0.533   4.270   2.793
 2765SOL     OW 9193   6.710   6.842   0.945
 2765SOL    HW1 9194   6.664   6.784   1.012
 2765SOL    HW2 9195   6.659   6.928   0.936
 2766SOL     OW 9196   4.001   0.888   6.867
 2766SOL    HW1 9197   4.028   0.948   6.792
 2766SOL    HW2 9198   3.934   0.935   6.925
 2767SOL     OW 9199   5.987   5.801   6.404
 2767SOL    HW1 9200   6.033   5.874   6.453
 2767SOL    HW2 9201   5.911   5.838   6.352
 2768SOL     OW 9202   3.640   0.129   0.802
 2768SOL    HW1 9203   3.599   0.173   0.882
 2768SOL    HW2 9204   3.737   0.113   0.819
 2769SOL     OW 9205   1.627   4.004   6.131
 2769SOL    HW1 9206   1.548   3.994   6.193
 2769SOL    HW2 9207   1.706   4.035   6.184
 2770SOL     OW 9208   3.980   6.413   6.063
 2770SOL    HW1 9209   4.076   6.437   6.053
 2770SOL    HW2 9210   3.966   6.365   6.149
 2771SOL     OW 9211   5.518   6.423   4.013
 2771SOL    HW1 9212   5.488   6.518   4.005
 2771SOL    HW2 9213   5.576   6.400   3.935
 2772SOL     OW 9214   3.824   1.211   2.246
 2772SOL    HW1 9215   3.817   1.207   2.345
 2772SOL    HW2 9216   3.794   1.302   2.214
 2773SOL     OW 9217   0.263   3.180   3.961
 2773SOL    HW1 9218   0.293   3.265   4.006
 2773SOL    HW2 9219   0.234   3.114   4.030
 2774SOL     OW 9220   5.308   2.156   2.928
 2774SOL    HW1 9221   5.218   2.154   2.885
 2774SOL    HW2 9222   5.352   2.243   2.908
 2775SOL     OW 9223   0.148   3.745   3.500
 2775SOL    HW1 9224   0.150   3.776   3.595
 2775SOL    HW2 9225   0.105   3.815   3.443
 2776SOL     OW 9226   5.545   5.633   0.127
 2776SOL    HW1 9227   5.555   5.534   0.136
 2776SOL    HW2 9228   5.514   5.655   0.034
 2777SOL     OW 9229   2.546   1.978   5.846
 2777SOL    HW1 9230   2.532   1.974   5.944
 2777SOL    HW2 9231   2.561   1.885   5.810
 2778SOL     OW 9232   2.654   5.896   6.490
 2778SOL    HW1 9233   2.714   5.937   6.422
 2778SOL    HW2 9234   2.682   5.801   6.507
 2779SOL     OW 9235   5.840   6.427   1.699
 2779SOL    HW1 9236   5.775   6.504   1.700
 2779SOL    HW2 9237   5.933   6.462   1.711
 2780SOL     OW 9238   0.481   0.484   6.595
 2780SOL    HW1 9239   0.526   0.476   6.684
 2780SOL    HW2 9240   0.434   0.571   6.588
 2781SOL     OW 9241   6.388   0.574   2.331
 2781SOL    HW1 9242   6.304   0.561   2.383
 2781SOL    HW2 9243   6.432   0.659   2.359
 2782SOL     OW 9244   4.412   0.666   5.696
 2782SOL    HW1 9245   4.453   0.655   5.786
 2782SOL    HW2 9246   4.432   0.758   5.661
 2783SOL     OW 9247   6.133   3.410   1.167
 2783SOL    HW1 9248   6.076   3.369   1.238
 2783SOL    HW2 9249   6.133   3.352   1.086
 2784SOL     OW 9250   2.948   1.568   2.018
 2784SOL    HW1 9251   3.041   1.585   1.986
 2784SOL    HW2 9252   2.949   1.548   2.116
 2785SOL     OW 9253   5.231   2.745   1.314
 2785SOL    HW1 9254   5.257   2.651   1.337
 2785SOL    HW2 9255   5.245   2.805   1.393
 2786SOL     OW 9256   6.658   5.960   1.293
 2786SOL    HW1 9257   6.667   5.863   1.272
 2786SOL    HW2 9258   6.599   5.971   1.373
 2787SOL     OW 9259   6.227   5.904   5.522
 2787SOL    HW1 9260   6.133   5.886   5.554
 2787SOL    HW2 9261   6.259   5.990   5.559
 2788SOL     OW 9262   3.733   6.546   6.126
 2788SOL    HW1 9263   3.820   6.506   6.097
 2788SOL    HW2 9264   3.720   6.531   6.225
 2789SOL     OW 9265   0.896   2.605   3.924
 2789SOL    HW1 9266   0.995   2.600   3.932
 2789SOL    HW2 9267   0.865   2.547   3.848
 2790SOL     OW 9268   2.908   5.243   0.416
 2790SOL    HW1 9269   2.934   5.339   0.418
 2790SOL    HW2 9270   2.952   5.198   0.339
 2791SOL     OW 9271   0.263   4.259   2.161
 2791SOL    HW1 9272   0.237   4.191   2.230
 2791SOL    HW2 9273   0.316   4.215   2.089
 2792SOL     OW 9274   3.186   0.503   4.693
 2792SOL    HW1 9275   3.094   0.505   4.655
 2792SOL    HW2 9276   3.251   0.474   4.623
 2793SOL     OW 9277   4.529   4.126   1.396
 2793SOL    HW1 9278   4.439   4.099   1.361
 2793SOL    HW2 9279   4.546   4.080   1.483
 2794SOL     OW 9280   6.712   0.953   6.536
 2794SOL    HW1 9281   6.721   0.992   6.444
 2794SOL    HW2 9282   6.687   1.024   6.601
 2795SOL     OW 9283   0.382   5.026   0.934
 2795SOL    HW1 9284   0.458   5.081   0.968
 2795SOL    HW2 9285   0.303   5.036   0.994
 2796SOL     OW 9286   1.005   5.815   5.434
 2796SOL    HW1 9287   1.030   5.732   5.385
 2796SOL    HW2 9288   1.077   5.883   5.423
 2797SOL     OW 9289   5.736   5.661   5.217
 2797SOL    HW1 9290   5.761   5.576   5.263
 2797SOL    HW2 9291   5.783   5.737   5.261
 2798SOL     OW 9292   6.598   6.237   2.524
 2798SOL    HW1 9293   6.607   6.172   2.600
 2798SOL    HW2 9294   6.502   6.259   2.510
 2799SOL     OW 9295   4.963   5.482   5.544
 2799SOL    HW1 9296   4.998   5.537   5.619
 2799SOL    HW2 9297   4.910   5.540   5.482
 2800SOL     OW 9298   5.497   0.644   0.007
 2800SOL    HW1 9299   5.518   0.575   6.958
 2800SOL    HW2 9300   5.410   0.621   0.050
 2801SOL     OW 9301   0.452   5.489   5.853
 2801SOL    HW1 9302   0.487   5.428   5.782
 2801SOL    HW2 9303   0.517   5.564   5.868
 2802SOL     OW 9304   6.136   6.724   5.159
 2802SOL    HW1 9305   6.040   6.706   5.138
 2802SOL    HW2 9306   6.189   6.641   5.146
 2803SOL     OW 9307   3.447   3.245   6.268
 2803SOL    HW1 9308   3.388   3.188   6.325
 2803SOL    HW2 9309   3.460   3.200   6.179
 2804SOL     OW 9310   0.404   2.818   4.035
 2804SOL    HW1 9311   0.310   2.817   4.002
 2804SOL    HW2 9312   0.423   2.732   4.084
 2805SOL     OW 9313   4.881   3.451   2.250
 2805SOL    HW1 9314   4.812   3.382   2.227
 2805SOL    HW2 9315   4.909   3.439   2.346
 2806SOL     OW 9316   2.476   3.701   6.310
 2806SOL    HW1 9317   2.430   3.713   6.222
 2806SOL    HW2 9318   2.409   3.670   6.378
 2807SOL     OW 9319   2.821   1.059   3.313
 2807SOL    HW1 9320   2.770   0.977   3.285
 2807SOL    HW2 9321   2.757   1.131   3.338
 2808SOL     OW 9322   6.386   5.793   0.771
 2808SOL    HW1 9323   6.356   5.865   0.834
 2808SOL    HW2 9324   6.410   5.711   0.823
 2809SOL     OW 9325   5.463   3.859   2.091
 2809SOL    HW1 9326   5.552   3.893   2.121
 2809SOL    HW2 9327   5.455   3.870   1.992
 2810SOL     OW 9328   2.454   5.987   3.338
 2810SOL    HW1 9329   2.494   6.077   3.323
 2810SOL    HW2 9330   2.523   5.925   3.374
 2811SOL     OW 9331   0.744   0.549   2.528
 2811SOL    HW1 9332   0.657   0.589   2.558
 2811SOL    HW2 9333   0.818   0.616   2.541
 2812SOL     OW 9334   0.350   2.983   0.250
 2812SOL    HW1 9335   0.276   3.048   0.270
 2812SOL    HW2 9336   0.418   3.028   0.193
 2813SOL     OW 9337   1.172   1.669   1.072
 2813SOL    HW1 9338   1.140   1.754   1.115
 2813SOL    HW2 9339   1.271   1.661   1.085
 2814SOL     OW 9340   3.159   4.049   6.987
 2814SOL    HW1 9341   3.130   4.133   6.939
 2814SOL    HW2 9342   3.094   3.976   6.967
 2815SOL     OW 9343   0.048   5.889   5.158
 2815SOL    HW1 9344   7.017   5.804   5.166
 2815SOL    HW2 9345   0.145   5.870   5.174
 2816SOL     OW 9346   6.653   5.919   4.943
 2816SOL    HW1 9347   6.644   5.902   5.041
 2816SOL    HW2 9348   6.738   5.878   4.909
 2817SOL     OW 9349   3.944   0.947   2.246
 2817SOL    HW1 9350   3.948   0.901   2.157
 2817SOL    HW2 9351   3.893   1.032   2.237
 2818SOL     OW 9352   1.266   0.473   1.051
 2818SOL    HW1 9353   1.258   0.480   0.951
 2818SOL    HW2 9354   1.183   0.509   1.094
 2819SOL     OW 9355   0.595   0.319   0.648
 2819SOL    HW1 9356   0.691   0.301   0.666
 2819SOL    HW2 9357   0.574   0.296   0.553
 2820SOL     OW 9358   0.849   2.577   2.427
 2820SOL    HW1 9359   0.838   2.659   2.483
 2820SOL    HW2 9360   0.875   2.500   2.484
 2821SOL     OW 9361   3.816   5.358   6.575
 2821SOL    HW1 9362   3.882   5.355   6.650
 2821SOL    HW2 9363   3.768   5.271   6.570
 2822SOL     OW 9364   3.484   3.379   1.151
 2822SOL    HW1 9365   3.433   3.465   1.159
 2822SOL    HW2 9366   3.536   3.379   1.066
 2823SOL     OW 9367   4.669   0.957   0.730
 2823SOL    HW1 9368   4.591   1.017   0.708
 2823SOL    HW2 9369   4.710   0.925   0.645
 2824SOL     OW 9370   1.366   3.871   6.211
 2824SOL    HW1 9371   1.415   3.792   6.173
 2824SOL    HW2 9372   1.299   3.904   6.145
 2825SOL     OW 9373   5.358   0.635   6.642
 2825SOL    HW1 9374   5.433   0.676   6.693
 2825SOL    HW2 9375   5.276   0.690   6.652
 2826SOL     OW 9376   1.801   3.239   6.161
 2826SOL    HW1 9377   1.805   3.268   6.066
 2826SOL    HW2 9378   1.864   3.164   6.176
 2827SOL     OW 9379   0.291   0.674   6.827
 2827SOL    HW1 9380   0.249   0.593   6.868
 2827SOL    HW2 9381   0.247   0.693   6.739
 2828SOL     OW 9382   1.711   3.571   1.376
 2828SOL    HW1 9383   1.712   3.509   1.455
 2828SOL    HW2 9384   1.646   3.538   1.308
 2829SOL     OW 9385   3.030   3.916   3.402
 2829SOL    HW1 9386   3.123   3.934   3.434
 2829SOL    HW2 9387   2.971   3.899   3.481
 2830SOL     OW 9388   3.913   4.761   5.178
 2830SOL    HW1 9389   4.011   4.768   5.158
 2830SOL    HW2 9390   3.899   4.697   5.254
 2831SOL     OW 9391   6.404   2.131   1.662
 2831SOL    HW1 9392   6.489   2.144   1.712
 2831SOL    HW2 9393   6.345   2.211   1.674
 2832SOL     OW 9394   0.714   3.180   1.108
 2832SOL    HW1 9395   0.625   3.214   1.077
 2832SOL    HW2 9396   0.761   3.252   1.159
 2833SOL     OW 9397   2.312   0.494   2.242
 2833SOL    HW1 9398   2.293   0.404   2.281
 2833SOL    HW2 9399   2.405   0.522   2.267
 2834SOL     OW 9400   4.501   6.100   4.896
 2834SOL    HW1 9401   4.525   6.169   4.828
 2834SOL    HW2 9402   4.434   6.037   4.856
 2835SOL     OW 9403   1.100   6.534   0.852
 2835SOL    HW1 9404   1.151   6.464   0.904
 2835SOL    HW2 9405   1.113   6.623   0.895
 2836SOL     OW 9406   3.606   6.600   3.311
 2836SOL    HW1 9407   3.516   6.579   3.274
 2836SOL    HW2 9408   3.605   6.587   3.410
 2837SOL     OW 9409   5.926   3.945   2.356
 2837SOL    HW1 9410   5.856   4.016   2.368
 2837SOL    HW2 9411   5.990   3.948   2.432
 2838SOL     OW 9412   4.774   3.799   6.497
 2838SOL    HW1 9413   4.737   3.859   6.426
 2838SOL    HW2 9414   4.824   3.724   6.454
 2839SOL     OW 9415   6.529   3.219   3.990
 2839SOL    HW1 9416   6.507   3.228   4.087
 2839SOL    HW2 9417   6.577   3.301   3.960
 2840SOL     OW 9418   0.562   5.254   2.557
 2840SOL    HW1 9419   0.590   5.341   2.597
 2840SOL    HW2 9420   0.634   5.186   2.569
 2841SOL     OW 9421   6.022   2.366   0.975
 2841SOL    HW1 9422   6.044   2.270   0.959
 2841SOL    HW2 9423   6.099   2.410   1.021
 2842SOL     OW 9424   1.334   6.085   4.291
 2842SOL    HW1 9425   1.244   6.061   4.255
 2842SOL    HW2 9426   1.344   6.184   4.294
 2843SOL     OW 9427   2.116   3.597   2.836
 2843SOL    HW1 9428   2.184   3.589   2.909
 2843SOL    HW2 9429   2.100   3.694   2.817
 2844SOL     OW 9430   4.985   4.592   0.965
 2844SOL    HW1 9431   4.963   4.509   0.914
 2844SOL    HW2 9432   5.084   4.598   0.978
 2845SOL     OW 9433   4.856   2.967   3.427
 2845SOL    HW1 9434   4.831   3.005   3.338
 2845SOL    HW2 9435   4.826   3.028   3.500
 2846SOL     OW 9436   4.731   0.277   0.143
 2846SOL    HW1 9437   4.736   0.305   0.239
 2846SOL    HW2 9438   4.637   0.247   0.122
 2847SOL     OW 9439   4.703   4.247   2.167
 2847SOL    HW1 9440   4.768   4.309   2.123
 2847SOL    HW2 9441   4.626   4.230   2.106
 2848SOL     OW 9442   0.507   3.165   4.987
 2848SOL    HW1 9443   0.481   3.089   5.047
 2848SOL    HW2 9444   0.607   3.174   4.987
 2849SOL     OW 9445   3.792   0.808   2.445
 2849SOL    HW1 9446   3.868   0.843   2.390
 2849SOL    HW2 9447   3.768   0.874   2.516
 2850SOL     OW 9448   2.451   6.743   3.420
 2850SOL    HW1 9449   2.494   6.735   3.510
 2850SOL    HW2 9450   2.400   6.829   3.415
 2851SOL     OW 9451   4.456   3.532   0.426
 2851SOL    HW1 9452   4.408   3.577   0.502
 2851SOL    HW2 9453   4.394   3.467   0.382
 2852SOL     OW 9454   6.300   3.970   6.167
 2852SOL    HW1 9455   6.301   3.943   6.070
 2852SOL    HW2 9456   6.220   3.931   6.212
 2853SOL     OW 9457   0.252   3.482   0.288
 2853SOL    HW1 9458   0.226   3.437   0.203
 2853SOL    HW2 9459   0.247   3.581   0.275
 2854SOL     OW 9460   2.692   1.219   6.848
 2854SOL    HW1 9461   2.670   1.157   6.773
 2854SOL    HW2 9462   2.666   1.312   6.823
 2855SOL     OW 9463   1.189   2.285   4.439
 2855SOL    HW1 9464   1.284   2.316   4.429
 2855SOL    HW2 9465   1.183   2.220   4.516
 2856SOL     OW 9466   1.672   3.923   3.075
 2856SOL    HW1 9467   1.765   3.901   3.046
 2856SOL    HW2 9468   1.645   3.861   3.149
 2857SOL     OW 9469   0.112   3.113   0.292
 2857SOL    HW1 9470   0.021   3.076   0.310
 2857SOL    HW2 9471   0.112   3.165   0.207
 2858SOL     OW 9472   5.285   5.975   3.344
 2858SOL    HW1 9473   5.215   5.943   3.281
 2858SOL    HW2 9474   5.257   5.957   3.438
 2859SOL     OW 9475   5.343   6.092   0.843
 2859SOL    HW1 9476   5.407   6.161   0.877
 2859SOL    HW2 9477   5.359   6.078   0.745
 2860SOL     OW 9478   1.491   5.843   1.777
 2860SOL    HW1 9479   1.517   5.802   1.864
 2860SOL    HW2 9480   1.508   5.942   1.780
 2861SOL     OW 9481   3.757   5.003   6.262
 2861SOL    HW1 9482   3.809   4.917   6.256
 2861SOL    HW2 9483   3.678   4.999   6.200
 2862SOL     OW 9484   4.504   3.018   1.218
 2862SOL    HW1 9485   4.450   3.100   1.237
 2862SOL    HW2 9486   4.457   2.938   1.256
 2863SOL     OW 9487   5.015   0.435   5.957
 2863SOL    HW1 9488   5.026   0.373   6.035
 2863SOL    HW2 9489   5.081   0.411   5.886
 2864SOL     OW 9490   4.111   3.461   1.605
 2864SOL    HW1 9491   4.077   3.367   1.606
 2864SOL    HW2 9492   4.209   3.461   1.622
 2865SOL     OW 9493   4.767   6.553   4.179
 2865SOL    HW1 9494   4.745   6.490   4.104
 2865SOL    HW2 9495   4.688   6.611   4.199
 2866SOL     OW 9496   5.436   4.567   6.628
 2866SOL    HW1 9497   5.360   4.609   6.578
 2866SOL    HW2 9498   5.488   4.508   6.566
 2867SOL     OW 9499   6.232   6.538   2.241
 2867SOL    HW1 9500   6.186   6.486   2.170
 2867SOL    HW2 9501   6.324   6.564   2.210
 2868SOL     OW 9502   1.545   1.538   6.085
 2868SOL    HW1 9503   1.454   1.563   6.117
 2868SOL    HW2 9504   1.538   1.478   6.006
 2869SOL     OW 9505   5.454   6.424   4.281
 2869SOL    HW1 9506   5.359   6.395   4.268
 2869SOL    HW2 9507   5.498   6.436   4.192
 2870SOL     OW 9508   1.346   1.205   0.952
 2870SOL    HW1 9509   1.294   1.123   0.978
 2870SOL    HW2 9510   1.291   1.262   0.892
 2871SOL     OW 9511   6.403   1.040   1.751
 2871SOL    HW1 9512   6.380   0.969   1.684
 2871SOL    HW2 9513   6.352   1.123   1.728
 2872SOL     OW 9514   2.361   1.824   2.856
 2872SOL    HW1 9515   2.430   1.768   2.902
 2872SOL    HW2 9516   2.294   1.764   2.811
 2873SOL     OW 9517   0.689   5.762   1.412
 2873SOL    HW1 9518   0.621   5.713   1.467
 2873SOL    HW2 9519   0.693   5.858   1.442
 2874SOL     OW 9520   2.982   0.458   3.040
 2874SOL    HW1 9521   2.946   0.474   3.132
 2874SOL    HW2 9522   2.999   0.360   3.027
 2875SOL     OW 9523   2.849   6.896   2.881
 2875SOL    HW1 9524   2.912   6.856   2.947
 2875SOL    HW2 9525   2.835   6.834   2.805
 2876SOL     OW 9526   1.664   6.164   2.288
 2876SOL    HW1 9527   1.617   6.222   2.221
 2876SOL    HW2 9528   1.639   6.069   2.273
 2877SOL     OW 9529   1.820   1.633   6.113
 2877SOL    HW1 9530   1.820   1.689   6.196
 2877SOL    HW2 9531   1.726   1.606   6.092
 2878SOL     OW 9532   3.455   2.887   4.989
 2878SOL    HW1 9533   3.407   2.864   5.074
 2878SOL    HW2 9534   3.415   2.835   4.913
 2879SOL     OW 9535   4.561   4.381   5.920
 2879SOL    HW1 9536   4.463   4.393   5.935
 2879SOL    HW2 9537   4.580   4.286   5.894
 2880SOL     OW 9538   0.778   2.074   4.143
 2880SOL    HW1 9539   0.754   2.111   4.053
 2880SOL    HW2 9540   0.875   2.090   4.161
 2881SOL     OW 9541   3.650   5.950   6.766
 2881SOL    HW1 9542   3.644   5.858   6.727
 2881SOL    HW2 9543   3.737   5.992   6.740
 2882SOL     OW 9544   5.694   6.135   0.486
 2882SOL    HW1 9545   5.738   6.088   0.409
 2882SOL    HW2 9546   5.764   6.167   0.550
 2883SOL     OW 9547   5.797   6.293   2.988
 2883SOL    HW1 9548   5.717   6.271   2.932
 2883SOL    HW2 9549   5.854   6.212   2.998
 2884SOL     OW 9550   0.079   5.216   2.935
 2884SOL    HW1 9551   0.069   5.167   3.022
 2884SOL    HW2 9552   0.162   5.185   2.889
 2885SOL     OW 9553   1.605   3.594   3.122
 2885SOL    HW1 9554   1.605   3.656   3.200
 2885SOL    HW2 9555   1.557   3.637   3.045
 2886SOL     OW 9556   2.521   4.355   6.740
 2886SOL    HW1 9557   2.618   4.357   6.765
 2886SOL    HW2 9558   2.482   4.447   6.751
 2887SOL     OW 9559   0.215   6.005   4.637
 2887SOL    HW1 9560   0.261   6.038   4.554
 2887SOL    HW2 9561   0.236   5.908   4.650
 2888SOL     OW 9562   0.286   5.977   0.423
 2888SOL    HW1 9563   0.190   6.001   0.437
 2888SOL    HW2 9564   0.298   5.939   0.332
 2889SOL     OW 9565   2.758   6.906   3.302
 2889SOL    HW1 9566   2.672   6.939   3.341
 2889SOL    HW2 9567   2.802   6.981   3.252
 2890SOL     OW 9568   2.133   6.050   1.259
 2890SOL    HW1 9569   2.130   5.969   1.317
 2890SOL    HW2 9570   2.070   6.119   1.294
 2891SOL     OW 9571   0.495   3.079   2.518
 2891SOL    HW1 9572   0.471   3.032   2.433
 2891SOL    HW2 9573   0.417   3.076   2.581
 2892SOL     OW 9574   6.252   4.188   1.003
 2892SOL    HW1 9575   6.310   4.248   0.949
 2892SOL    HW2 9576   6.221   4.111   0.946
 2893SOL     OW 9577   0.762   5.955   4.847
 2893SOL    HW1 9578   0.817   6.037   4.830
 2893SOL    HW2 9579   0.666   5.980   4.850
 2894SOL     OW 9580   1.303   4.469   1.650
 2894SOL    HW1 9581   1.399   4.497   1.639
 2894SOL    HW2 9582   1.300   4.378   1.693
 2895SOL     OW 9583   3.762   0.441   6.243
 2895SOL    HW1 9584   3.688   0.498   6.279
 2895SOL    HW2 9585   3.809   0.396   6.318
 2896SOL     OW 9586   5.661   0.023   5.521
 2896SOL    HW1 9587   5.719   0.006   5.441
 2896SOL    HW2 9588   5.613   6.961   5.546
 2897SOL     OW 9589   3.394   5.565   2.639
 2897SOL    HW1 9590   3.319   5.575   2.573
 2897SOL    HW2 9591   3.424   5.470   2.641
 2898SOL     OW 9592   6.064   3.737   3.193
 2898SOL    HW1 9593   6.032   3.646   3.219
 2898SOL    HW2 9594   6.012   3.770   3.114
 2899SOL     OW 9595   6.885   2.240   1.175
 2899SOL    HW1 9596   6.971   2.211   1.133
 2899SOL    HW2 9597   6.905   2.298   1.254
 2900SOL     OW 9598   3.008   3.485   7.003
 2900SOL    HW1 9599   3.089   3.519   6.954
 2900SOL    HW2 9600   3.008   3.522   0.075
 2901SOL     OW 9601   1.912   4.494   3.358
 2901SOL    HW1 9602   1.958   4.534   3.438
 2901SOL    HW2 9603   1.814   4.512   3.364
 2902SOL     OW 9604   0.282   6.078   4.093
 2902SOL    HW1 9605   0.213   6.041   4.156
 2902SOL    HW2 9606   0.316   6.005   4.034
 2903SOL     OW 9607   4.986   6.164   0.690
 2903SOL    HW1 9608   4.961   6.201   0.600
 2903SOL    HW2 9609   5.076   6.122   0.684
 2904SOL     OW 9610   2.782   4.754   4.795
 2904SOL    HW1 9611   2.797   4.699   4.877
 2904SOL    HW2 9612   2.713   4.711   4.738
 2905SOL     OW 9613   1.048   4.601   2.867
 2905SOL    HW1 9614   0.982   4.650   2.810
 2905SOL    HW2 9615   1.128   4.659   2.884
 2906SOL     OW 9616   5.225   6.103   3.009
 2906SOL    HW1 9617   5.199   6.010   3.032
 2906SOL    HW2 9618   5.314   6.124   3.050
 2907SOL     OW 9619   0.906   0.844   4.082
 2907SOL    HW1 9620   0.827   0.795   4.044
 2907SOL    HW2 9621   0.946   0.790   4.155
 2908SOL     OW 9622   5.020   0.672   3.508
 2908SOL    HW1 9623   5.074   0.594   3.476
 2908SOL    HW2 9624   4.985   0.653   3.600
 2909SOL     OW 9625   1.001   5.851   3.102
 2909SOL    HW1 9626   0.939   5.841   3.024
 2909SOL    HW2 9627   0.982   5.781   3.170
 2910SOL     OW 9628   6.658   0.853   3.945
 2910SOL    HW1 9629   6.600   0.788   3.993
 2910SOL    HW2 9630   6.645   0.843   3.846
 2911SOL     OW 9631   0.403   4.745   3.774
 2911SOL    HW1 9632   0.343   4.665   3.778
 2911SOL    HW2 9633   0.402   4.782   3.681
 2912SOL     OW 9634   0.146   6.550   0.664
 2912SOL    HW1 9635   0.181   6.639   0.636
 2912SOL    HW2 9636   0.048   6.557   0.683
 2913SOL     OW 9637   1.527   4.727   1.864
 2913SOL    HW1 9638   1.602   4.690   1.920
 2913SOL    HW2 9639   1.499   4.659   1.797
 2914SOL     OW 9640   5.761   4.743   0.326
 2914SOL    HW1 9641   5.735   4.647   0.326
 2914SOL    HW2 9642   5.685   4.798   0.290
 2915SOL     OW 9643   3.061   2.053   2.764
 2915SOL    HW1 9644   3.149   2.042   2.810
 2915SOL    HW2 9645   3.072   2.110   2.683
 2916SOL     OW 9646   2.766   5.131   0.090
 2916SOL    HW1 9647   2.764   5.068   0.012
 2916SOL    HW2 9648   2.852   5.119   0.140
 2917SOL     OW 9649   2.468   0.513   3.799
 2917SOL    HW1 9650   2.410   0.458   3.859
 2917SOL    HW2 9651   2.445   0.493   3.704
 2918SOL     OW 9652   5.999   3.986   1.182
 2918SOL    HW1 9653   5.961   3.928   1.254
 2918SOL    HW2 9654   5.946   3.974   1.098
 2919SOL     OW 9655   0.395   6.096   4.433
 2919SOL    HW1 9656   0.490   6.088   4.463
 2919SOL    HW2 9657   0.387   6.170   4.366
 2920SOL     OW 9658   2.030   0.525   2.193
 2920SOL    HW1 9659   2.126   0.513   2.214
 2920SOL    HW2 9660   1.975   0.461   2.247
 2921SOL     OW 9661   0.369   0.187   5.652
 2921SOL    HW1 9662   0.397   0.278   5.681
 2921SOL    HW2 9663   0.284   0.162   5.697
 2922SOL     OW 9664   4.414   0.231   3.021
 2922SOL    HW1 9665   4.483   0.256   3.089
 2922SOL    HW2 9666   4.406   0.303   2.953
 2923SOL     OW 9667   6.523   4.754   4.784
 2923SOL    HW1 9668   6.537   4.679   4.720
 2923SOL    HW2 9669   6.532   4.841   4.736
 2924SOL     OW 9670   0.016   1.938   5.192
 2924SOL    HW1 9671   6.940   1.938   5.171
 2924SOL    HW2 9672   0.044   1.847   5.223
 2925SOL     OW 9673   5.301   1.071   6.301
 2925SOL    HW1 9674   5.304   1.099   6.397
 2925SOL    HW2 9675   5.391   1.084   6.259
 2926SOL     OW 9676   0.185   2.127   5.107
 2926SOL    HW1 9677   0.269   2.081   5.138
 2926SOL    HW2 9678   0.106   2.068   5.123
 2927SOL     OW 9679   1.949   3.162   1.265
 2927SOL    HW1 9680   1.997   3.203   1.342
 2927SOL    HW2 9681   1.853   3.191   1.266
 2928SOL     OW 9682   6.512   1.925   0.010
 2928SOL    HW1 9683   6.558   1.984   6.966
 2928SOL    HW2 9684   6.430   1.970   0.044
 2929SOL     OW 9685   1.244   2.874   4.661
 2929SOL    HW1 9686   1.256   2.784   4.619
 2929SOL    HW2 9687   1.250   2.944   4.590
 2930SOL     OW 9688   6.234   5.504   5.345
 2930SOL    HW1 9689   6.183   5.441   5.403
 2930SOL    HW2 9690   6.170   5.561   5.293
 2931SOL     OW 9691   4.140   4.606   0.146
 2931SOL    HW1 9692   4.195   4.523   0.155
 2931SOL    HW2 9693   4.069   4.606   0.216
 2932SOL     OW 9694   6.682   6.243   1.709
 2932SOL    HW1 9695   6.720   6.278   1.794
 2932SOL    HW2 9696   6.721   6.152   1.691
 2933SOL     OW 9697   0.814   0.306   1.840
 2933SOL    HW1 9698   0.801   0.228   1.779
 2933SOL    HW2 9699   0.724   0.343   1.867
 2934SOL     OW 9700   3.862   3.034   1.055
 2934SOL    HW1 9701   3.922   3.096   1.104
 2934SOL    HW2 9702   3.771   3.034   1.098
 2935SOL     OW 9703   0.516   2.536   6.017
 2935SOL    HW1 9704   0.430   2.486   6.007
 2935SOL    HW2 9705   0.580   2.508   5.945
 2936SOL     OW 9706   4.515   0.329   0.518
 2936SOL    HW1 9707   4.549   0.368   0.604
 2936SOL    HW2 9708   4.548   0.235   0.508
 2937SOL     OW 9709   4.491   5.574   1.358
 2937SOL    HW1 9710   4.562   5.606   1.421
 2937SOL    HW2 9711   4.473   5.477   1.374
 2938SOL     OW 9712   6.216   5.749   6.740
 2938SOL    HW1 9713   6.176   5.815   6.676
 2938SOL    HW2 9714   6.272   5.684   6.690
 2939SOL     OW 9715   0.576   6.023   1.777
 2939SOL    HW1 9716   0.486   5.994   1.810
 2939SOL    HW2 9717   0.637   5.944   1.773
 2940SOL     OW 9718   5.803   5.907   4.400
 2940SOL    HW1 9719   5.711   5.926   4.434
 2940SOL    HW2 9720   5.842   5.991   4.361
 2941SOL     OW 9721   1.851   3.114   3.241
 2941SOL    HW1 9722   1.854   3.088   3.338
 2941SOL    HW2 9723   1.830   3.211   3.233
 2942SOL     OW 9724   2.310   1.876   6.719
 2942SOL    HW1 9725   2.364   1.957   6.699
 2942SOL    HW2 9726   2.214   1.902   6.732
 2943SOL     OW 9727   6.195   4.258   3.625
 2943SOL    HW1 9728   6.246   4.337   3.591
 2943SOL    HW2 9729   6.139   4.287   3.703
 2944SOL     OW 9730   2.376   6.275   3.961
 2944SOL    HW1 9731   2.320   6.235   4.033
 2944SOL    HW2 9732   2.384   6.211   3.885
 2945SOL     OW 9733   5.279   4.265   1.657
 2945SOL    HW1 9734   5.248   4.317   1.577
 2945SOL    HW2 9735   5.201   4.226   1.705
 2946SOL     OW 9736   2.965   3.815   5.710
 2946SOL    HW1 9737   2.932   3.860   5.627
 2946SOL    HW2 9738   2.975   3.717   5.693
 2947SOL     OW 9739   6.454   6.127   0.502
 2947SOL    HW1 9740   6.377   6.109   0.562
 2947SOL    HW2 9741   6.430   6.102   0.408
 2948SOL     OW 9742   5.747   5.012   3.125
 2948SOL    HW1 9743   5.797   4.956   3.191
 2948SOL    HW2 9744   5.724   5.100   3.166
 2949SOL     OW 9745   0.677   6.324   0.975
 2949SOL    HW1 9746   0.583   6.351   0.955
 2949SOL    HW2 9747   0.737   6.402   0.962
 2950SOL     OW 9748   4.926   4.624   2.333
 2950SOL    HW1 9749   4.978   4.542   2.357
 2950SOL    HW2 9750   4.889   4.615   2.241
 2951SOL     OW 9751   5.556   0.450   1.763
 2951SOL    HW1 9752   5.485   0.408   1.706
 2951SOL    HW2 9753   5.617   0.504   1.706
 2952SOL     OW 9754   6.322   0.947   4.430
 2952SOL    HW1 9755   6.237   0.968   4.479
 2952SOL    HW2 9756   6.310   0.863   4.377
 2953SOL     OW 9757   0.343   5.802   3.032
 2953SOL    HW1 9758   0.273   5.862   2.993
 2953SOL    HW2 9759   0.434   5.838   3.010
 2954SOL     OW 9760   0.893   4.697   6.287
 2954SOL    HW1 9761   0.810   4.717   6.236
 2954SOL    HW2 9762   0.922   4.778   6.338
 2955SOL     OW 9763   1.291   4.267   0.045
 2955SOL    HW1 9764   1.219   4.237   0.107
 2955SOL    HW2 9765   1.318   4.191   7.007
 2956SOL     OW 9766   6.768   4.727   4.357
 2956SOL    HW1 9767   6.744   4.816   4.318
 2956SOL    HW2 9768   6.850   4.692   4.313
 2957SOL     OW 9769   3.139   5.122   1.800
 2957SOL    HW1 9770   3.091   5.204   1.769
 2957SOL    HW2 9771   3.201   5.089   1.728
 2958SOL     OW 9772   1.506   5.182   2.933
 2958SOL    HW1 9773   1.576   5.215   2.996
 2958SOL    HW2 9774   1.425   5.241   2.940
 2959SOL     OW 9775   5.502   2.380   3.241
 2959SOL    HW1 9776   5.579   2.410   3.297
 2959SOL    HW2 9777   5.417   2.418   3.279
 2960SOL     OW 9778   3.789   0.669   0.049
 2960SOL    HW1 9779   3.878   0.636   0.018
 2960SOL    HW2 9780   3.753   0.607   0.120
 2961SOL     OW 9781   5.385   4.452   2.843
 2961SOL    HW1 9782   5.385   4.533   2.901
 2961SOL    HW2 9783   5.460   4.391   2.870
 2962SOL     OW 9784   5.625   6.818   2.970
 2962SOL    HW1 9785   5.624   6.889   2.900
 2962SOL    HW2 9786   5.606   6.730   2.927
 2963SOL     OW 9787   1.289   0.978   5.950
 2963SOL    HW1 9788   1.331   1.068   5.952
 2963SOL    HW2 9789   1.340   0.915   6.009
 2964SOL     OW 9790   0.618   2.624   0.045
 2964SOL    HW1 9791   0.527   2.660   0.065
 2964SOL    HW2 9792   0.619   2.525   0.057
 2965SOL     OW 9793   0.505   0.383   4.532
 2965SOL    HW1 9794   0.540   0.289   4.527
 2965SOL    HW2 9795   0.492   0.408   4.628
 2966SOL     OW 9796   4.551   5.561   3.706
 2966SOL    HW1 9797   4.517   5.476   3.747
 2966SOL    HW2 9798   4.484   5.596   3.641
 2967SOL     OW 9799   0.060   1.100   5.491
 2967SOL    HW1 9800   0.075   1.082   5.394
 2967SOL    HW2 9801   7.007   1.166   5.502
 2968SOL     OW 9802   2.184   2.864   1.011
 2968SOL    HW1 9803   2.141   2.848   1.100
 2968SOL    HW2 9804   2.201   2.776   0.966
 2969SOL     OW 9805   4.937   3.828   4.470
 2969SOL    HW1 9806   4.916   3.815   4.567
 2969SOL    HW2 9807   5.006   3.760   4.442
 2970SOL     OW 9808   2.670   2.635   5.562
 2970SOL    HW1 9809   2.703   2.614   5.471
 2970SOL    HW2 9810   2.680   2.733   5.580
 2971SOL     OW 9811   5.596   3.738   0.269
 2971SOL    HW1 9812   5.582   3.836   0.279
 2971SOL    HW2 9813   5.552   3.690   0.345
 2972SOL     OW 9814   6.227   5.020   6.708
 2972SOL    HW1 9815   6.288   4.993   6.632
 2972SOL    HW2 9816   6.161   5.087   6.675
 2973SOL     OW 9817   4.707   6.815   2.384
 2973SOL    HW1 9818   4.714   6.735   2.325
 2973SOL    HW2 9819   4.715   6.787   2.480
 2974SOL     OW 9820   6.434   4.692   3.160
 2974SOL    HW1 9821   6.344   4.691   3.206
 2974SOL    HW2 9822   6.424   4.731   3.069
 2975SOL     OW 9823   4.430   4.865   3.924
 2975SOL    HW1 9824   4.359   4.817   3.977
 2975SOL    HW2 9825   4.387   4.912   3.847
 2976SOL     OW 9826   4.784   2.032   3.286
 2976SOL    HW1 9827   4.844   2.040   3.206
 2976SOL    HW2 9828   4.795   1.942   3.327
 2977SOL     OW 9829   0.929   0.337   2.113
 2977SOL    HW1 9830   0.898   0.427   2.145
 2977SOL    HW2 9831   0.900   0.324   2.018
 2978SOL     OW 9832   4.446   4.375   6.431
 2978SOL    HW1 9833   4.524   4.351   6.490
 2978SOL    HW2 9834   4.473   4.369   6.335
 2979SOL     OW 9835   3.663   1.417   4.743
 2979SOL    HW1 9836   3.599   1.476   4.694
 2979SOL    HW2 9837   3.683   1.456   4.833
 2980SOL     OW 9838   3.616   4.272   6.439
 2980SOL    HW1 9839   3.577   4.351   6.486
 2980SOL    HW2 9840   3.578   4.188   6.478
 2981SOL     OW 9841   2.129   1.609   0.544
 2981SOL    HW1 9842   2.175   1.520   0.545
 2981SOL    HW2 9843   2.035   1.597   0.511
 2982SOL     OW 9844   1.714   6.680   2.264
 2982SOL    HW1 9845   1.806   6.710   2.292
 2982SOL    HW2 9846   1.678   6.742   2.195
 2983SOL     OW 9847   6.911   2.553   6.614
 2983SOL    HW1 9848   6.976   2.597   6.551
 2983SOL    HW2 9849   6.945   2.463   6.640
 2984SOL     OW 9850   6.290   4.989   6.980
 2984SOL    HW1 9851   6.258   5.008   6.887
 2984SOL    HW2 9852   6.224   5.025   0.024
 2985SOL     OW 9853   0.531   0.116   4.523
 2985SOL    HW1 9854   0.624   0.080   4.527
 2985SOL    HW2 9855   0.500   0.118   4.429
 2986SOL     OW 9856   3.467   4.145   2.703
 2986SOL    HW1 9857   3.497   4.080   2.773
 2986SOL    HW2 9858   3.518   4.230   2.711
 2987SOL     OW 9859   0.928   2.435   4.401
 2987SOL    HW1 9860   0.982   2.359   4.440
 2987SOL    HW2 9861   0.979   2.520   4.413
 2988SOL     OW 9862   1.347   0.586   1.291
 2988SOL    HW1 9863   1.285   0.662   1.271
 2988SOL    HW2 9864   1.299   0.500   1.278
 2989SOL     OW 9865   5.335   3.557   5.073
 2989SOL    HW1 9866   5.359   3.650   5.100
 2989SOL    HW2 9867   5.260   3.524   5.130
 2990SOL     OW 9868   5.479   1.842   4.343
 2990SOL    HW1 9869   5.517   1.933   4.350
 2990SOL    HW2 9870   5.393   1.837   4.395
 2991SOL     OW 9871   5.753   3.708   0.782
 2991SOL    HW1 9872   5.697   3.626   0.769
 2991SOL    HW2 9873   5.806   3.699   0.866
 2992SOL     OW 9874   0.657   3.676   4.668
 2992SOL    HW1 9875   0.708   3.674   4.754
 2992SOL    HW2 9876   0.559   3.674   4.688
 2993SOL     OW 9877   0.296   4.474   0.032
 2993SOL    HW1 9878   0.281   4.422   6.970
 2993SOL    HW2 9879   0.391   4.504   0.036
 2994SOL     OW 9880   4.910   6.060   6.621
 2994SOL    HW1 9881   5.005   6.033   6.606
 2994SOL    HW2 9882   4.908   6.148   6.670
 2995SOL     OW 9883   4.610   0.564   0.639
 2995SOL    HW1 9884   4.526   0.595   0.684
 2995SOL    HW2 9885   4.683   0.558   0.707
 2996SOL     OW 9886   1.587   2.277   4.730
 2996SOL    HW1 9887   1.631   2.329   4.803
 2996SOL    HW2 9888   1.657   2.235   4.673
 2997SOL     OW 9889   4.496   0.810   3.720
 2997SOL    HW1 9890   4.540   0.728   3.756
 2997SOL    HW2 9891   4.440   0.853   3.791
 2998SOL     OW 9892   3.098   0.621   3.798
 2998SOL    HW1 9893   3.052   0.542   3.839
 2998SOL    HW2 9894   3.093   0.699   3.860
 2999SOL     OW 9895   3.283   4.414   0.131
 2999SOL    HW1 9896   3.309   4.421   0.228
 2999SOL    HW2 9897   3.185   4.429   0.122
 3000SOL     OW 9898   2.965   3.574   5.584
 3000SOL    HW1 9899   3.052   3.528   5.567
 3000SOL    HW2 9900   2.891   3.507   5.580
 3001SOL     OW 9901   5.823   0.969   6.647
 3001SOL    HW1 9902   5.765   0.888   6.661
 3001SOL    HW2 9903   5.836   0.984   6.549
 3002SOL     OW 9904   2.907   1.350   0.927
 3002SOL    HW1 9905   2.958   1.329   1.011
 3002SOL    HW2 9906   2.971   1.376   0.855
 3003SOL     OW 9907   1.179   6.041   0.857
 3003SOL    HW1 9908   1.085   6.049   0.891
 3003SOL    HW2 9909   1.242   6.039   0.935
 3004SOL     OW 9910   2.522   4.508   4.260
 3004SOL    HW1 9911   2.453   4.576   4.236
 3004SOL    HW2 9912   2.559   4.467   4.177
 3005SOL     OW 9913   1.196   2.992   5.664
 3005SOL    HW1 9914   1.141   2.959   5.587
 3005SOL    HW2 9915   1.285   3.022   5.631
 3006SOL     OW 9916   5.611   1.801   5.678
 3006SOL    HW1 9917   5.533   1.827   5.621
 3006SOL    HW2 9918   5.579   1.772   5.768
 3007SOL     OW 9919   5.236   5.486   0.232
 3007SOL    HW1 9920   5.241   5.402   0.178
 3007SOL    HW2 9921   5.209   5.562   0.173
 3008SOL     OW 9922   4.281   1.757   5.840
 3008SOL    HW1 9923   4.212   1.819   5.803
 3008SOL    HW2 9924   4.368   1.772   5.793
 3009SOL     OW 9925   6.883   2.727   2.982
 3009SOL    HW1 9926   6.873   2.760   3.076
 3009SOL    HW2 9927   6.935   2.642   2.982
 3010SOL     OW 9928   4.240   5.374   6.012
 3010SOL    HW1 9929   4.333   5.372   5.976
 3010SOL    HW2 9930   4.193   5.456   5.979
 3011SOL     OW 9931   6.411   0.001   1.717
 3011SOL    HW1 9932   6.480   0.034   1.652
 3011SOL    HW2 9933   6.366   0.079   1.760
 3012SOL     OW 9934   2.723   3.434   6.461
 3012SOL    HW1 9935   2.639   3.380   6.457
 3012SOL    HW2 9936   2.715   3.512   6.398
 3013SOL     OW 9937   0.063   5.906   3.167
 3013SOL    HW1 9938   0.041   6.002   3.187
 3013SOL    HW2 9939   0.022   5.880   3.080
 3014SOL     OW 9940   5.162   0.830   6.316
 3014SOL    HW1 9941   5.167   0.774   6.233
 3014SOL    HW2 9942   5.228   0.905   6.310
 3015SOL     OW 9943   2.258   0.958   0.388
 3015SOL    HW1 9944   2.271   0.959   0.487
 3015SOL    HW2 9945   2.242   1.051   0.356
 3016SOL     OW 9946   3.519   0.333   4.369
 3016SOL    HW1 9947   3.574   0.262   4.324
 3016SOL    HW2 9948   3.424   0.326   4.339
 3017SOL     OW 9949   6.502   5.519   1.816
 3017SOL    HW1 9950   6.547   5.589   1.761
 3017SOL    HW2 9951   6.404   5.535   1.816
 3018SOL     OW 9952   4.049   0.093   0.531
 3018SOL    HW1 9953   4.059   0.047   0.443
 3018SOL    HW2 9954   3.996   0.177   0.520
 3019SOL     OW 9955   1.690   6.834   6.928
 3019SOL    HW1 9956   1.592   6.844   6.909
 3019SOL    HW2 9957   1.710   6.739   6.951
 3020SOL     OW 9958   5.426   3.161   0.049
 3020SOL    HW1 9959   5.409   3.079   0.105
 3020SOL    HW2 9960   5.397   3.143   6.976
 3021SOL     OW 9961   3.284   6.428   4.334
 3021SOL    HW1 9962   3.221   6.410   4.410
 3021SOL    HW2 9963   3.231   6.443   4.250
 3022SOL     OW 9964   3.811   6.157   3.260
 3022SOL    HW1 9965   3.869   6.086   3.301
 3022SOL    HW2 9966   3.715   6.132   3.271
 3023SOL     OW 9967   3.692   6.638   2.783
 3023SOL    HW1 9968   3.735   6.575   2.848
 3023SOL    HW2 9969   3.684   6.593   2.694
 3024SOL     OW 9970   0.005   6.146   5.079
 3024SOL    HW1 9971   0.030   6.058   5.119
 3024SOL    HW2 9972   6.933   6.141   5.043
 3025SOL     OW 9973   4.401   5.744   0.272
 3025SOL    HW1 9974   4.446   5.796   0.345
 3025SOL    HW2 9975   4.304   5.734   0.294
 3026SOL     OW 9976   5.646   1.203   0.820
 3026SOL    HW1 9977   5.728   1.255   0.844
 3026SOL    HW2 9978   5.672   1.110   0.795
 3027SOL     OW 9979   4.512   1.810   1.750
 3027SOL    HW1 9980   4.447   1.817   1.826
 3027SOL    HW2 9981   4.498   1.724   1.702
 3028SOL     OW 9982   1.990   3.871   6.492
 3028SOL    HW1 9983   2.088   3.852   6.485
 3028SOL    HW2 9984   1.971   3.915   6.580
 3029SOL     OW 9985   0.673   2.744   4.275
 3029SOL    HW1 9986   0.697   2.813   4.207
 3029SOL    HW2 9987   0.662   2.655   4.230
 3030SOL     OW 9988   1.392   4.236   1.502
 3030SOL    HW1 9989   1.366   4.322   1.546
 3030SOL    HW2 9990   1.380   4.244   1.403
 3031SOL     OW 9991   1.522   5.286   1.182
 3031SOL    HW1 9992   1.482   5.278   1.273
 3031SOL    HW2 9993   1.611   5.333   1.188
 3032SOL     OW 9994   2.111   7.006   3.232
 3032SOL    HW1 9995   2.043   0.039   3.280
 3032SOL    HW2 9996   2.096   7.014   3.133
 3033SOL     OW 9997   6.209   2.882   4.001
 3033SOL    HW1 9998   6.256   2.838   4.077
 3033SOL    HW2 9999   6.175   2.971   4.030
 3034SOL     OW10000   0.749   6.248   3.574
 3034SOL    HW110001   0.731   6.151   3.555
 3034SOL    HW210002   0.675   6.303   3.535
 3035SOL     OW10003   1.460   2.442   6.412
 3035SOL    HW110004   1.441   2.443   6.314
 3035SOL    HW210005   1.469   2.536   6.445
 3036SOL     OW10006   1.238   2.129   5.932
 3036SOL    HW110007   1.266   2.124   5.836
 3036SOL    HW210008   1.167   2.199   5.942
 3037SOL     OW10009   0.676   5.090   5.710
 3037SOL    HW110010   0.586   5.046   5.704
 3037SOL    HW210011   0.746   5.027   5.677
 3038SOL     OW10012   4.806   4.978   5.897
 3038SOL    HW110013   4.768   5.052   5.953
 3038SOL    HW210014   4.892   5.009   5.856
 3039SOL     OW10015   6.092   3.383   0.475
 3039SOL    HW110016   6.085   3.330   0.391
 3039SOL    HW210017   6.022   3.455   0.476
 3040SOL     OW10018   3.655   3.971   6.074
 3040SOL    HW110019   3.722   3.940   6.142
 3040SOL    HW210020   3.698   3.972   5.984
 3041SOL     OW10021   1.647   3.816   4.802
 3041SOL    HW110022   1.618   3.903   4.841
 3041SOL    HW210023   1.672   3.753   4.875
 3042SOL     OW10024   0.406   4.825   2.826
 3042SOL    HW110025   0.406   4.907   2.884
 3042SOL    HW210026   0.451   4.846   2.739
 3043SOL     OW10027   2.398   3.332   0.596
 3043SOL    HW110028   2.399   3.338   0.496
 3043SOL    HW210029   2.492   3.328   0.630
 3044SOL     OW10030   3.260   3.446   5.105
 3044SOL    HW110031   3.223   3.537   5.123
 3044SOL    HW210032   3.344   3.454   5.051
 3045SOL     OW10033   4.974   1.031   3.612
 3045SOL    HW110034   5.016   1.096   3.675
 3045SOL    HW210035   4.920   0.964   3.664
 3046SOL     OW10036   5.377   5.485   0.686
 3046SOL    HW110037   5.408   5.398   0.648
 3046SOL    HW210038   5.426   5.504   0.771
 3047SOL     OW10039   6.029   6.738   0.506
 3047SOL    HW110040   5.938   6.776   0.521
 3047SOL    HW210041   6.043   6.724   0.408
 3048SOL     OW10042   4.197   3.240   0.924
 3048SOL    HW110043   4.296   3.230   0.935
 3048SOL    HW210044   4.159   3.157   0.885
 3049SOL     OW10045   1.053   0.927   4.538
 3049SOL    HW110046   1.145   0.927   4.499
 3049SOL    HW210047   0.990   0.971   4.475
 3050SOL     OW10048   2.030   2.597   1.688
 3050SOL    HW110049   2.127   2.581   1.708
 3050SOL    HW210050   1.975   2.568   1.766
 3051SOL     OW10051   3.425   6.871   6.173
 3051SOL    HW110052   3.395   6.941   6.108
 3051SOL    HW210053   3.431   6.910   6.265
 3052SOL     OW10054   5.492   6.232   2.702
 3052SOL    HW110055   5.431   6.291   2.755
 3052SOL    HW210056   5.455   6.139   2.700
 3053SOL     OW10057   1.831   4.547   0.209
 3053SOL    HW110058   1.767   4.601   0.154
 3053SOL    HW210059   1.898   4.608   0.252
 3054SOL     OW10060   5.489   0.935   3.480
 3054SOL    HW110061   5.496   0.892   3.390
 3054SOL    HW210062   5.414   0.893   3.531
 3055SOL     OW10063   6.282   6.164   6.474
 3055SOL    HW110064   6.249   6.252   6.439
 3055SOL    HW210065   6.374   6.147   6.438
 3056SOL     OW10066   5.427   1.854   6.198
 3056SOL    HW110067   5.344   1.810   6.163
 3056SOL    HW210068   5.458   1.923   6.133
 3057SOL     OW10069   5.510   6.173   3.472
 3057SOL    HW110070   5.438   6.242   3.463
 3057SOL    HW210071   5.578   6.186   3.399
 3058SOL     OW10072   6.053   4.461   0.652
 3058SOL    HW110073   6.035   4.497   0.560
 3058SOL    HW210074   6.145   4.422   0.655
 3059SOL     OW10075   2.439   2.688   4.092
 3059SOL    HW110076   2.398   2.667   4.003
 3059SOL    HW210077   2.538   2.693   4.082
 3060SOL     OW10078   2.911   4.655   6.412
 3060SOL    HW110079   2.989   4.682   6.356
 3060SOL    HW210080   2.931   4.569   6.458
 3061SOL     OW10081   5.306   4.790   5.831
 3061SOL    HW110082   5.335   4.725   5.901
 3061SOL    HW210083   5.302   4.745   5.742
 3062SOL     OW10084   4.038   4.655   1.281
 3062SOL    HW110085   4.127   4.623   1.248
 3062SOL    HW210086   3.977   4.670   1.203
 3063SOL     OW10087   0.486   4.171   0.723
 3063SOL    HW110088   0.510   4.074   0.736
 3063SOL    HW210089   0.475   4.215   0.812
 3064SOL     OW10090   4.309   2.689   0.260
 3064SOL    HW110091   4.349   2.736   0.338
 3064SOL    HW210092   4.275   2.756   0.193
 3065SOL     OW10093   0.966   1.244   6.622
 3065SOL    HW110094   1.052   1.197   6.637
 3065SOL    HW210095   0.957   1.320   6.687
 3066SOL     OW10096   5.116   5.250   5.548
 3066SOL    HW110097   5.191   5.283   5.491
 3066SOL    HW210098   5.047   5.321   5.559
 3067SOL     OW10099   2.419   1.616   6.653
 3067SOL    HW110100   2.422   1.547   6.725
 3067SOL    HW210101   2.349   1.684   6.675
 3068SOL     OW10102   0.800   1.109   1.865
 3068SOL    HW110103   0.728   1.115   1.796
 3068SOL    HW210104   0.889   1.112   1.820
 3069SOL     OW10105   5.674   0.226   3.700
 3069SOL    HW110106   5.772   0.243   3.710
 3069SOL    HW210107   5.642   0.265   3.614
 3070SOL     OW10108   2.941   1.378   6.949
 3070SOL    HW110109   2.894   1.459   6.983
 3070SOL    HW210110   2.882   1.298   6.959
 3071SOL     OW10111   7.000   4.071   3.547
 3071SOL    HW110112   7.017   4.028   3.636
 3071SOL    HW210113   6.906   4.052   3.519
 3072SOL     OW10114   2.149   5.997   0.004
 3072SOL    HW110115   2.096   6.003   0.089
 3072SOL    HW210116   2.093   5.956   6.954
 3073SOL     OW10117   6.556   4.836   0.559
 3073SOL    HW110118   6.649   4.800   0.557
 3073SOL    HW210119   6.502   4.784   0.625
 3074SOL     OW10120   0.974   3.719   0.888
 3074SOL    HW110121   0.928   3.639   0.928
 3074SOL    HW210122   0.905   3.785   0.857
 3075SOL     OW10123   2.693   5.137   3.811
 3075SOL    HW110124   2.662   5.056   3.861
 3075SOL    HW210125   2.702   5.213   3.876
 3076SOL     OW10126   0.366   1.056   4.807
 3076SOL    HW110127   0.380   1.075   4.905
 3076SOL    HW210128   0.451   1.025   4.766
 3077SOL     OW10129   6.100   3.835   1.598
 3077SOL    HW110130   6.145   3.900   1.660
 3077SOL    HW210131   6.040   3.775   1.651
 3078SOL     OW10132   6.203   3.090   2.034
 3078SOL    HW110133   6.257   3.014   1.999
 3078SOL    HW210134   6.259   3.148   2.092
 3079SOL     OW10135   2.370   2.657   4.732
 3079SOL    HW110136   2.390   2.597   4.809
 3079SOL    HW210137   2.281   2.700   4.745
 3080SOL     OW10138   4.468   4.839   1.267
 3080SOL    HW110139   4.417   4.913   1.310
 3080SOL    HW210140   4.477   4.763   1.332
 3081SOL     OW10141   0.767   4.127   0.399
 3081SOL    HW110142   0.724   4.038   0.408
 3081SOL    HW210143   0.696   4.198   0.394
 3082SOL     OW10144   3.387   5.488   4.412
 3082SOL    HW110145   3.419   5.409   4.466
 3082SOL    HW210146   3.360   5.561   4.475
 3083SOL     OW10147   2.661   5.354   2.471
 3083SOL    HW110148   2.746   5.387   2.430
 3083SOL    HW210149   2.592   5.427   2.470
 3084SOL     OW10150   0.543   3.731   2.940
 3084SOL    HW110151   0.552   3.685   2.851
 3084SOL    HW210152   0.497   3.670   3.004
 3085SOL     OW10153   4.724   4.995   0.899
 3085SOL    HW110154   4.816   5.016   0.933
 3085SOL    HW210155   4.686   5.075   0.855
 3086SOL     OW10156   5.493   1.028   0.282
 3086SOL    HW110157   5.501   1.024   0.382
 3086SOL    HW210158   5.579   1.000   0.240
 3087SOL     OW10159   2.429   6.246   2.409
 3087SOL    HW110160   2.490   6.169   2.392
 3087SOL    HW210161   2.372   6.261   2.328
 3088SOL     OW10162   0.402   3.022   5.445
 3088SOL    HW110163   0.368   2.946   5.500
 3088SOL    HW210164   0.472   3.072   5.496
 3089SOL     OW10165   4.916   1.133   4.718
 3089SOL    HW110166   5.013   1.153   4.703
 3089SOL    HW210167   4.860   1.204   4.676
 3090SOL     OW10168   1.163   1.440   1.678
 3090SOL    HW110169   1.159   1.411   1.583
 3090SOL    HW210170   1.258   1.435   1.710
 3091SOL     OW10171   0.789   1.212   0.629
 3091SOL    HW110172   0.823   1.288   0.574
 3091SOL    HW210173   0.857   1.138   0.629
 3092SOL     OW10174   5.361   0.025   2.562
 3092SOL    HW110175   5.273   0.017   2.515
 3092SOL    HW210176   5.378   6.964   2.616
 3093SOL     OW10177   5.806   5.608   6.221
 3093SOL    HW110178   5.870   5.532   6.234
 3093SOL    HW210179   5.713   5.577   6.243
 3094SOL     OW10180   2.529   0.898   4.839
 3094SOL    HW110181   2.512   0.889   4.937
 3094SOL    HW210182   2.575   0.986   4.821
 3095SOL     OW10183   2.758   3.134   5.307
 3095SOL    HW110184   2.815   3.157   5.229
 3095SOL    HW210185   2.670   3.097   5.275
 3096SOL     OW10186   0.561   3.618   5.286
 3096SOL    HW110187   0.499   3.554   5.332
 3096SOL    HW210188   0.652   3.577   5.278
 3097SOL     OW10189   6.302   2.751   6.456
 3097SOL    HW110190   6.223   2.714   6.504
 3097SOL    HW210191   6.376   2.769   6.521
 3098SOL     OW10192   1.971   1.979   2.270
 3098SOL    HW110193   2.054   2.035   2.269
 3098SOL    HW210194   1.949   1.949   2.177
 3099SOL     OW10195   0.483   6.342   3.505
 3099SOL    HW110196   0.462   6.314   3.599
 3099SOL    HW210197   0.414   6.304   3.443
 3100SOL     OW10198   6.108   6.389   2.963
 3100SOL    HW110199   6.133   6.426   2.873
 3100SOL    HW210200   6.010   6.396   2.975
 3101SOL     OW10201   5.124   6.607   6.259
 3101SOL    HW110202   5.065   6.685   6.243
 3101SOL    HW210203   5.201   6.635   6.317
 3102SOL     OW10204   0.597   5.575   0.463
 3102SOL    HW110205   0.498   5.570   0.479
 3102SOL    HW210206   0.628   5.493   0.415
 3103SOL     OW10207   3.910   0.090   0.823
 3103SOL    HW110208   3.938   0.035   0.901
 3103SOL    HW210209   3.924   0.038   0.738
 3104SOL     OW10210   4.723   7.001   6.259
 3104SOL    HW110211   4.652   6.931   6.256
 3104SOL    HW210212   4.726   0.028   6.171
 3105SOL     OW10213   5.297   3.373   0.737
 3105SOL    HW110214   5.317   3.354   0.641
 3105SOL    HW210215   5.232   3.305   0.771
 3106SOL     OW10216   5.682   0.968   5.165
 3106SOL    HW110217   5.715   1.044   5.108
 3106SOL    HW210218   5.600   0.929   5.123
 3107SOL     OW10219   4.506   1.725   4.749
 3107SOL    HW110220   4.434   1.792   4.731
 3107SOL    HW210221   4.569   1.761   4.817
 3108SOL     OW10222   2.418   4.465   4.542
 3108SOL    HW110223   2.462   4.448   4.454
 3108SOL    HW210224   2.404   4.378   4.590
 3109SOL     OW10225   6.204   0.140   4.658
 3109SOL    HW110226   6.267   0.095   4.720
 3109SOL    HW210227   6.227   0.116   4.564
 3110SOL     OW10228   2.447   4.789   3.590
 3110SOL    HW110229   2.404   4.869   3.548
 3110SOL    HW210230   2.546   4.801   3.591
 3111SOL     OW10231   6.593   4.935   4.559
 3111SOL    HW110232   6.685   4.901   4.579
 3111SOL    HW210233   6.595   5.034   4.551
 3112SOL     OW10234   3.914   2.844   0.369
 3112SOL    HW110235   3.831   2.856   0.314
 3112SOL    HW210236   3.941   2.748   0.367
 3113SOL     OW10237   2.698   5.664   2.570
 3113SOL    HW110238   2.761   5.629   2.639
 3113SOL    HW210239   2.750   5.715   2.501
 3114SOL     OW10240   3.513   1.229   6.799
 3114SOL    HW110241   3.453   1.308   6.793
 3114SOL    HW210242   3.523   1.188   6.708
 3115SOL     OW10243   4.161   3.866   5.610
 3115SOL    HW110244   4.084   3.839   5.668
 3115SOL    HW210245   4.145   3.958   5.574
 3116SOL     OW10246   0.973   1.979   0.790
 3116SOL    HW110247   0.928   2.068   0.781
 3116SOL    HW210248   0.954   1.940   0.880
 3117SOL     OW10249   4.849   2.205   5.794
 3117SOL    HW110250   4.752   2.194   5.818
 3117SOL    HW210251   4.862   2.293   5.750
 3118SOL     OW10252   1.454   0.390   2.993
 3118SOL    HW110253   1.425   0.470   2.940
 3118SOL    HW210254   1.535   0.413   3.046
 3119SOL     OW10255   3.147   2.806   5.507
 3119SOL    HW110256   3.202   2.884   5.539
 3119SOL    HW210257   3.200   2.722   5.517
 3120SOL     OW10258   3.127   0.375   4.953
 3120SOL    HW110259   3.113   0.441   5.027
 3120SOL    HW210260   3.188   0.414   4.884
 3121SOL     OW10261   5.007   1.998   4.575
 3121SOL    HW110262   4.958   2.067   4.522
 3121SOL    HW210263   4.942   1.933   4.612
 3122SOL     OW10264   4.456   4.669   4.251
 3122SOL    HW110265   4.492   4.599   4.190
 3122SOL    HW210266   4.503   4.756   4.233
 3123SOL     OW10267   2.131   0.961   3.830
 3123SOL    HW110268   2.205   0.896   3.811
 3123SOL    HW210269   2.111   1.013   3.747
 3124SOL     OW10270   5.413   6.345   4.551
 3124SOL    HW110271   5.321   6.326   4.516
 3124SOL    HW210272   5.454   6.418   4.497
 3125SOL     OW10273   0.781   3.159   5.023
 3125SOL    HW110274   0.825   3.246   5.002
 3125SOL    HW210275   0.843   3.102   5.077
 3126SOL     OW10276   5.816   5.617   4.701
 3126SOL    HW110277   5.767   5.533   4.678
 3126SOL    HW210278   5.888   5.634   4.633
 3127SOL     OW10279   1.115   2.469   4.689
 3127SOL    HW110280   1.104   2.542   4.623
 3127SOL    HW210281   1.027   2.427   4.709
 3128SOL     OW10282   3.402   0.346   0.418
 3128SOL    HW110283   3.365   0.427   0.372
 3128SOL    HW210284   3.370   0.263   0.373
 3129SOL     OW10285   5.132   3.419   1.186
 3129SOL    HW110286   5.145   3.510   1.146
 3129SOL    HW210287   5.220   3.384   1.218
 3130SOL     OW10288   1.618   4.419   1.133
 3130SOL    HW110289   1.613   4.472   1.049
 3130SOL    HW210290   1.674   4.337   1.118
 3131SOL     OW10291   6.746   3.851   1.844
 3131SOL    HW110292   6.816   3.912   1.883
 3131SOL    HW210293   6.664   3.855   1.901
 3132SOL     OW10294   4.211   4.365   0.561
 3132SOL    HW110295   4.308   4.381   0.542
 3132SOL    HW210296   4.190   4.394   0.654
 3133SOL     OW10297   3.272   0.506   3.108
 3133SOL    HW110298   3.280   0.596   3.063
 3133SOL    HW210299   3.265   0.435   3.038
 3134SOL     OW10300   3.327   4.836   1.864
 3134SOL    HW110301   3.417   4.800   1.888
 3134SOL    HW210302   3.275   4.766   1.814
 3135SOL     OW10303   5.377   6.858   6.044
 3135SOL    HW110304   5.368   6.759   6.044
 3135SOL    HW210305   5.439   6.886   5.970
 3136SOL     OW10306   6.020   0.991   2.333
 3136SOL    HW110307   5.925   0.962   2.336
 3136SOL    HW210308   6.032   1.060   2.260
 3137SOL     OW10309   6.370   0.371   0.969
 3137SOL    HW110310   6.432   0.330   0.901
 3137SOL    HW210311   6.333   0.456   0.933
 3138SOL     OW10312   5.602   5.194   4.001
 3138SOL    HW110313   5.695   5.229   4.018
 3138SOL    HW210314   5.604   5.131   3.923
 3139SOL     OW10315   2.780   4.859   1.253
 3139SOL    HW110316   2.756   4.764   1.269
 3139SOL    HW210317   2.819   4.898   1.336
 3140SOL     OW10318   6.004   6.545   5.574
 3140SOL    HW110319   6.066   6.502   5.508
 3140SOL    HW210320   5.996   6.487   5.655
 3141SOL     OW10321   0.587   2.366   0.249
 3141SOL    HW110322   0.664   2.362   0.185
 3141SOL    HW210323   0.600   2.298   0.321
 3142SOL     OW10324   4.504   0.811   2.761
 3142SOL    HW110325   4.572   0.872   2.802
 3142SOL    HW210326   4.549   0.726   2.735
 3143SOL     OW10327   5.903   2.025   0.104
 3143SOL    HW110328   5.943   1.964   0.173
 3143SOL    HW210329   5.908   1.981   0.014
 3144SOL     OW10330   4.262   3.920   6.836
 3144SOL    HW110331   4.360   3.908   6.819
 3144SOL    HW210332   4.220   3.966   6.759
 3145SOL     OW10333   2.620   6.528   2.125
 3145SOL    HW110334   2.648   6.614   2.082
 3145SOL    HW210335   2.524   6.509   2.103
 3146SOL     OW10336   0.659   0.594   5.007
 3146SOL    HW110337   0.743   0.548   5.034
 3146SOL    HW210338   0.680   0.685   4.971
 3147SOL     OW10339   3.750   5.280   6.284
 3147SOL    HW110340   3.733   5.182   6.277
 3147SOL    HW210341   3.774   5.303   6.378
 3148SOL     OW10342   0.659   6.713   2.856
 3148SOL    HW110343   0.757   6.724   2.870
 3148SOL    HW210344   0.610   6.781   2.910
 3149SOL     OW10345   3.165   1.226   0.054
 3149SOL    HW110346   3.232   1.300   0.061
 3149SOL    HW210347   3.093   1.252   7.011
 3150SOL     OW10348   6.505   5.451   5.316
 3150SOL    HW110349   6.409   5.450   5.344
 3150SOL    HW210350   6.510   5.442   5.217
 3151SOL     OW10351   0.095   1.763   6.096
 3151SOL    HW110352   0.128   1.669   6.088
 3151SOL    HW210353   0.131   1.804   6.181
 3152SOL     OW10354   1.681   4.203   6.468
 3152SOL    HW110355   1.694   4.287   6.521
 3152SOL    HW210356   1.645   4.131   6.527
 3153SOL     OW10357   6.405   5.012   0.387
 3153SOL    HW110358   6.357   5.099   0.377
 3153SOL    HW210359   6.487   5.025   0.443
 3154SOL     OW10360   5.658   1.298   1.912
 3154SOL    HW110361   5.754   1.315   1.891
 3154SOL    HW210362   5.600   1.352   1.851
 3155SOL     OW10363   6.457   4.660   0.765
 3155SOL    HW110364   6.384   4.726   0.744
 3155SOL    HW210365   6.435   4.572   0.723
 3156SOL     OW10366   3.569   4.163   2.351
 3156SOL    HW110367   3.652   4.116   2.382
 3156SOL    HW210368   3.592   4.228   2.279
 3157SOL     OW10369   0.843   2.281   5.289
 3157SOL    HW110370   0.926   2.226   5.292
 3157SOL    HW210371   0.806   2.283   5.196
 3158SOL     OW10372   2.811   2.032   5.734
 3158SOL    HW110373   2.733   2.032   5.796
 3158SOL    HW210374   2.818   2.121   5.689
 3159SOL     OW10375   4.922   6.727   0.874
 3159SOL    HW110376   4.951   6.645   0.923
 3159SOL    HW210377   4.980   6.740   0.794
 3160SOL     OW10378   1.838   6.862   5.332
 3160SOL    HW110379   1.847   6.789   5.264
 3160SOL    HW210380   1.905   6.848   5.405
 3161SOL     OW10381   1.868   2.611   2.523
 3161SOL    HW110382   1.917   2.540   2.472
 3161SOL    HW210383   1.911   2.700   2.506
 3162SOL     OW10384   2.190   5.631   6.940
 3162SOL    HW110385   2.197   5.679   6.852
 3162SOL    HW210386   2.259   5.667   7.003
 3163SOL     OW10387   4.281   3.457   0.203
 3163SOL    HW110388   4.237   3.527   0.146
 3163SOL    HW210389   4.230   3.446   0.288
 3164SOL     OW10390   3.301   5.847   2.356
 3164SOL    HW110391   3.251   5.765   2.383
 3164SOL    HW210392   3.343   5.832   2.266
 3165SOL     OW10393   0.918   5.323   0.551
 3165SOL    HW110394   0.875   5.308   0.640
 3165SOL    HW210395   0.911   5.239   0.497
 3166SOL     OW10396   4.213   1.288   4.722
 3166SOL    HW110397   4.209   1.203   4.669
 3166SOL    HW210398   4.300   1.334   4.706
 3167SOL     OW10399   5.667   4.479   0.328
 3167SOL    HW110400   5.733   4.433   0.269
 3167SOL    HW210401   5.577   4.477   0.284
 3168SOL     OW10402   5.029   2.736   1.090
 3168SOL    HW110403   5.085   2.744   1.172
 3168SOL    HW210404   5.036   2.820   1.037
 3169SOL     OW10405   1.778   4.655   2.306
 3169SOL    HW110406   1.744   4.563   2.284
 3169SOL    HW210407   1.729   4.722   2.251
 3170SOL     OW10408   3.827   6.243   2.295
 3170SOL    HW110409   3.886   6.163   2.281
 3170SOL    HW210410   3.744   6.215   2.344
 3171SOL     OW10411   5.381   2.473   2.104
 3171SOL    HW110412   5.381   2.395   2.166
 3171SOL    HW210413   5.306   2.535   2.129
 3172SOL     OW10414   0.259   5.311   6.898
 3172SOL    HW110415   0.177   5.283   6.847
 3172SOL    HW210416   0.301   5.230   6.938
 3173SOL     OW10417   2.549   2.437   6.506
 3173SOL    HW110418   2.551   2.534   6.531
 3173SOL    HW210419   2.604   2.422   6.424
 3174SOL     OW10420   2.340   2.716   5.864
 3174SOL    HW110421   2.356   2.687   5.770
 3174SOL    HW210422   2.246   2.693   5.890
 3175SOL     OW10423   6.013   1.161   2.834
 3175SOL    HW110424   6.024   1.063   2.814
 3175SOL    HW210425   5.949   1.201   2.768
 3176SOL     OW10426   6.956   3.872   4.837
 3176SOL    HW110427   6.861   3.858   4.865
 3176SOL    HW210428   7.013   3.799   4.875
 3177SOL     OW10429   5.412   4.151   3.567
 3177SOL    HW110430   5.460   4.169   3.481
 3177SOL    HW210431   5.383   4.056   3.570
 3178SOL     OW10432   5.862   1.850   6.871
 3178SOL    HW110433   5.913   1.782   6.924
 3178SOL    HW210434   5.774   1.813   6.844
 3179SOL     OW10435   1.486   1.708   2.038
 3179SOL    HW110436   1.585   1.714   2.053
 3179SOL    HW210437   1.444   1.652   2.109
 3180SOL     OW10438   6.058   6.332   6.954
 3180SOL    HW110439   6.140   6.278   6.933
 3180SOL    HW210440   5.987   6.272   6.990
 3181SOL     OW10441   0.415   1.351   3.977
 3181SOL    HW110442   0.438   1.384   4.068
 3181SOL    HW210443   0.328   1.302   3.981
 3182SOL     OW10444   3.090   0.450   0.152
 3182SOL    HW110445   3.007   0.450   0.097
 3182SOL    HW210446   3.065   0.446   0.249
 3183SOL     OW10447   4.676   4.844   2.357
 3183SOL    HW110448   4.738   4.785   2.410
 3183SOL    HW210449   4.707   4.848   2.262
 3184SOL     OW10450   0.434   2.126   3.579
 3184SOL    HW110451   0.430   2.226   3.572
 3184SOL    HW210452   0.527   2.095   3.558
 3185SOL     OW10453   6.422   6.610   5.563
 3185SOL    HW110454   6.515   6.614   5.526
 3185SOL    HW210455   6.360   6.657   5.501
 3186SOL     OW10456   1.837   0.885   0.071
 3186SOL    HW110457   1.922   0.938   0.079
 3186SOL    HW210458   1.787   0.915   7.011
 3187SOL     OW10459   3.010   5.304   2.156
 3187SOL    HW110460   2.993   5.206   2.158
 3187SOL    HW210461   3.077   5.328   2.226
 3188SOL     OW10462   2.117   5.505   4.815
 3188SOL    HW110463   2.217   5.504   4.822
 3188SOL    HW210464   2.083   5.411   4.808
 3189SOL     OW10465   2.201   1.207   0.316
 3189SOL    HW110466   2.214   1.272   0.392
 3189SOL    HW210467   2.168   1.256   0.236
 3190SOL     OW10468   6.404   5.380   6.006
 3190SOL    HW110469   6.428   5.370   6.103
 3190SOL    HW210470   6.472   5.436   5.960
 3191SOL     OW10471   4.418   5.709   2.217
 3191SOL    HW110472   4.495   5.648   2.234
 3191SOL    HW210473   4.452   5.797   2.183
 3192SOL     OW10474   6.837   2.811   0.872
 3192SOL    HW110475   6.744   2.837   0.843
 3192SOL    HW210476   6.887   2.774   0.794
 3193SOL     OW10477   4.031   1.110   4.999
 3193SOL    HW110478   3.963   1.131   4.928
 3193SOL    HW210479   4.111   1.168   4.987
 3194SOL     OW10480   0.902   1.644   5.753
 3194SOL    HW110481   0.905   1.603   5.662
 3194SOL    HW210482   0.811   1.630   5.792
 3195SOL     OW10483   0.570   1.249   2.390
 3195SOL    HW110484   0.545   1.248   2.487
 3195SOL    HW210485   0.522   1.324   2.344
 3196SOL     OW10486   0.127   0.719   6.599
 3196SOL    HW110487   0.107   0.770   6.516
 3196SOL    HW210488   0.043   0.706   6.652
 3197SOL     OW10489   2.529   6.671   5.624
 3197SOL    HW110490   2.496   6.758   5.660
 3197SOL    HW210491   2.626   6.661   5.646
 3198SOL     OW10492   6.441   2.413   4.066
 3198SOL    HW110493   6.342   2.419   4.050
 3198SOL    HW210494   6.458   2.401   4.164
 3199SOL     OW10495   5.548   4.849   3.123
 3199SOL    HW110496   5.624   4.908   3.095
 3199SOL    HW210497   5.496   4.895   3.195
 3200SOL     OW10498   6.528   3.205   3.171
 3200SOL    HW110499   6.514   3.174   3.265
 3200SOL    HW210500   6.602   3.273   3.169
 3201SOL     OW10501   5.753   4.856   3.365
 3201SOL    HW110502   5.785   4.762   3.378
 3201SOL    HW210503   5.830   4.914   3.341
 3202SOL     OW10504   1.187   5.328   0.978
 3202SOL    HW110505   1.088   5.318   0.991
 3202SOL    HW210506   1.235   5.279   1.051
 3203SOL     OW10507   4.830   0.676   1.453
 3203SOL    HW110508   4.804   0.647   1.362
 3203SOL    HW210509   4.868   0.769   1.449
 3204SOL     OW10510   3.136   1.737   3.451
 3204SOL    HW110511   3.211   1.686   3.410
 3204SOL    HW210512   3.066   1.672   3.483
 3205SOL     OW10513   4.819   2.641   6.001
 3205SOL    HW110514   4.870   2.653   5.916
 3205SOL    HW210515   4.774   2.727   6.025
 3206SOL     OW10516   2.919   3.233   1.472
 3206SOL    HW110517   2.880   3.150   1.433
 3206SOL    HW210518   3.019   3.228   1.470
 3207SOL     OW10519   1.546   0.793   5.972
 3207SOL    HW110520   1.566   0.822   6.065
 3207SOL    HW210521   1.562   0.695   5.963
 3208SOL     OW10522   6.119   5.843   6.155
 3208SOL    HW110523   6.167   5.931   6.166
 3208SOL    HW210524   6.075   5.818   6.241
 3209SOL     OW10525   3.576   5.620   4.870
 3209SOL    HW110526   3.666   5.592   4.902
 3209SOL    HW210527   3.571   5.607   4.771
 3210SOL     OW10528   0.717   5.346   1.743
 3210SOL    HW110529   0.636   5.402   1.760
 3210SOL    HW210530   0.700   5.287   1.664
 3211SOL     OW10531   1.358   4.930   0.650
 3211SOL    HW110532   1.341   4.901   0.744
 3211SOL    HW210533   1.315   5.019   0.635
 3212SOL     OW10534   3.157   0.035   2.410
 3212SOL    HW110535   3.166   0.004   2.315
 3212SOL    HW210536   3.122   6.981   2.466
 3213SOL     OW10537   1.446   0.262   6.256
 3213SOL    HW110538   1.397   0.203   6.320
 3213SOL    HW210539   1.531   0.217   6.229
 3214SOL     OW10540   4.551   6.962   3.300
 3214SOL    HW110541   4.516   7.003   3.215
 3214SOL    HW210542   4.643   6.999   3.319
 3215SOL     OW10543   0.949   3.687   0.178
 3215SOL    HW110544   0.916   3.694   0.272
 3215SOL    HW210545   0.979   3.593   0.160
 3216SOL     OW10546   5.667   5.065   1.339
 3216SOL    HW110547   5.738   4.995   1.336
 3216SOL    HW210548   5.699   5.148   1.294
 3217SOL     OW10549   0.194   5.652   2.246
 3217SOL    HW110550   0.277   5.708   2.239
 3217SOL    HW210551   0.147   5.674   2.332
 3218SOL     OW10552   5.915   2.415   3.695
 3218SOL    HW110553   5.834   2.474   3.697
 3218SOL    HW210554   5.902   2.339   3.760
 3219SOL     OW10555   6.762   1.125   5.011
 3219SOL    HW110556   6.681   1.112   4.953
 3219SOL    HW210557   6.829   1.054   4.990
 3220SOL     OW10558   0.630   5.883   0.157
 3220SOL    HW110559   0.585   5.939   0.227
 3220SOL    HW210560   0.706   5.935   0.117
 3221SOL     OW10561   3.701   0.333   2.464
 3221SOL    HW110562   3.733   0.258   2.523
 3221SOL    HW210563   3.715   0.420   2.510
 3222SOL     OW10564   3.290   0.923   2.542
 3222SOL    HW110565   3.346   0.950   2.463
 3222SOL    HW210566   3.219   0.860   2.512
 3223SOL     OW10567   2.532   6.439   0.316
 3223SOL    HW110568   2.575   6.401   0.234
 3223SOL    HW210569   2.434   6.417   0.315
 3224SOL     OW10570   5.230   2.149   5.223
 3224SOL    HW110571   5.319   2.142   5.269
 3224SOL    HW210572   5.159   2.164   5.291
 3225SOL     OW10573   4.271   1.183   5.145
 3225SOL    HW110574   4.313   1.242   5.076
 3225SOL    HW210575   4.185   1.224   5.175
 3226SOL     OW10576   1.885   0.341   1.585
 3226SOL    HW110577   1.930   0.263   1.542
 3226SOL    HW210578   1.881   0.417   1.521
 3227SOL     OW10579   3.667   2.723   6.778
 3227SOL    HW110580   3.706   2.650   6.722
 3227SOL    HW210581   3.571   2.736   6.754
 3228SOL     OW10582   6.970   3.870   0.122
 3228SOL    HW110583   6.875   3.866   0.089
 3228SOL    HW210584   0.009   3.832   0.052
 3229SOL     OW10585   3.323   0.673   5.502
 3229SOL    HW110586   3.328   0.632   5.410
 3229SOL    HW210587   3.363   0.611   5.568
 3230SOL     OW10588   1.890   5.573   6.017
 3230SOL    HW110589   1.977   5.590   6.065
 3230SOL    HW210590   1.909   5.530   5.928
 3231SOL     OW10591   2.571   1.092   2.799
 3231SOL    HW110592   2.616   1.033   2.866
 3231SOL    HW210593   2.639   1.132   2.738
 3232SOL     OW10594   4.063   5.615   3.901
 3232SOL    HW110595   3.987   5.550   3.903
 3232SOL    HW210596   4.043   5.689   3.837
 3233SOL     OW10597   6.687   2.883   0.662
 3233SOL    HW110598   6.606   2.930   0.628
 3233SOL    HW210599   6.765   2.946   0.661
 3234SOL     OW10600   1.824   2.622   0.087
 3234SOL    HW110601   1.737   2.668   0.106
 3234SOL    HW210602   1.823   2.531   0.128
 3235SOL     OW10603   6.259   6.004   2.001
 3235SOL    HW110604   6.167   6.033   2.025
 3235SOL    HW210605   6.320   6.083   1.998
 3236SOL     OW10606   1.430   4.129   0.964
 3236SOL    HW110607   1.393   4.079   1.043
 3236SOL    HW210608   1.509   4.079   0.927
 3237SOL     OW10609   6.322   2.030   3.945
 3237SOL    HW110610   6.421   2.030   3.956
 3237SOL    HW210611   6.278   2.023   4.034
 3238SOL     OW10612   6.126   5.263   6.623
 3238SOL    HW110613   6.062   5.337   6.644
 3238SOL    HW210614   6.154   5.269   6.527
 3239SOL     OW10615   6.902   0.532   3.234
 3239SOL    HW110616   6.936   0.512   3.143
 3239SOL    HW210617   6.870   0.626   3.238
 3240SOL     OW10618   7.001   0.429   5.771
 3240SOL    HW110619   0.044   0.486   5.822
 3240SOL    HW210620   6.939   0.489   5.719
 3241SOL     OW10621   4.994   1.184   6.148
 3241SOL    HW110622   4.921   1.219   6.089
 3241SOL    HW210623   4.953   1.131   6.223
 3242SOL     OW10624   4.899   3.535   5.921
 3242SOL    HW110625   4.804   3.555   5.947
 3242SOL    HW210626   4.956   3.614   5.942
 3243SOL     OW10627   4.719   5.253   0.402
 3243SOL    HW110628   4.688   5.221   0.492
 3243SOL    HW210629   4.667   5.335   0.376
 3244SOL     OW10630   5.970   6.230   6.672
 3244SOL    HW110631   6.012   6.301   6.729
 3244SOL    HW210632   5.896   6.270   6.618
 3245SOL     OW10633   4.565   2.388   4.134
 3245SOL    HW110634   4.644   2.423   4.184
 3245SOL    HW210635   4.486   2.384   4.195
 3246SOL     OW10636   6.672   0.185   2.972
 3246SOL    HW110637   6.599   0.198   2.906
 3246SOL    HW210638   6.706   0.091   2.967
 3247SOL     OW10639   6.563   4.978   2.035
 3247SOL    HW110640   6.512   5.020   1.960
 3247SOL    HW210641   6.503   4.966   2.114
 3248SOL     OW10642   5.825   2.340   2.106
 3248SOL    HW110643   5.775   2.406   2.049
 3248SOL    HW210644   5.760   2.283   2.156
 3249SOL     OW10645   3.871   3.624   4.042
 3249SOL    HW110646   3.859   3.536   3.997
 3249SOL    HW210647   3.825   3.623   4.131
 3250SOL     OW10648   5.278   6.841   3.464
 3250SOL    HW110649   5.241   6.762   3.416
 3250SOL    HW210650   5.204   6.903   3.490
 3251SOL     OW10651   2.587   1.102   4.697
 3251SOL    HW110652   2.676   1.060   4.683
 3251SOL    HW210653   2.586   1.194   4.657
 3252SOL     OW10654   3.009   0.742   2.974
 3252SOL    HW110655   3.007   0.645   2.995
 3252SOL    HW210656   2.944   0.762   2.900
 3253SOL     OW10657   4.427   3.447   1.093
 3253SOL    HW110658   4.452   3.492   1.007
 3253SOL    HW210659   4.499   3.383   1.119
 3254SOL     OW10660   5.303   6.600   6.049
 3254SOL    HW110661   5.236   6.606   6.123
 3254SOL    HW210662   5.379   6.541   6.076
 3255SOL     OW10663   5.497   6.572   1.342
 3255SOL    HW110664   5.586   6.588   1.299
 3255SOL    HW210665   5.432   6.541   1.274
 3256SOL     OW10666   4.009   1.950   1.643
 3256SOL    HW110667   4.098   1.907   1.625
 3256SOL    HW210668   3.944   1.880   1.673
 3257SOL     OW10669   2.874   2.106   1.901
 3257SOL    HW110670   2.947   2.117   1.834
 3257SOL    HW210671   2.880   2.180   1.969
 3258SOL     OW10672   3.734   4.857   3.301
 3258SOL    HW110673   3.642   4.848   3.338
 3258SOL    HW210674   3.801   4.854   3.376
 3259SOL     OW10675   5.093   5.389   4.101
 3259SOL    HW110676   5.118   5.425   4.191
 3259SOL    HW210677   5.095   5.289   4.104
 3260SOL     OW10678   1.543   3.690   2.271
 3260SOL    HW110679   1.587   3.602   2.257
 3260SOL    HW210680   1.541   3.711   2.369
 3261SOL     OW10681   4.768   0.711   2.476
 3261SOL    HW110682   4.783   0.614   2.456
 3261SOL    HW210683   4.676   0.737   2.447
 3262SOL     OW10684   3.975   2.155   2.404
 3262SOL    HW110685   3.992   2.067   2.447
 3262SOL    HW210686   4.059   2.210   2.404
 3263SOL     OW10687   3.480   1.180   3.571
 3263SOL    HW110688   3.386   1.153   3.548
 3263SOL    HW210689   3.505   1.139   3.659
 3264SOL     OW10690   2.125   5.238   0.959
 3264SOL    HW110691   2.174   5.293   0.892
 3264SOL    HW210692   2.184   5.218   1.037
 3265SOL     OW10693   5.813   6.044   6.028
 3265SOL    HW110694   5.896   6.093   6.054
 3265SOL    HW210695   5.807   6.040   5.928
 3266SOL     OW10696   2.773   4.126   0.033
 3266SOL    HW110697   2.858   4.162   7.016
 3266SOL    HW210698   2.714   4.094   6.979
 3267SOL     OW10699   3.310   0.265   1.946
 3267SOL    HW110700   3.271   0.264   1.854
 3267SOL    HW210701   3.359   0.180   1.962
 3268SOL     OW10702   1.219   4.650   1.048
 3268SOL    HW110703   1.209   4.551   1.033
 3268SOL    HW210704   1.167   4.676   1.129
 3269SOL     OW10705   0.389   5.464   2.120
 3269SOL    HW110706   0.312   5.503   2.170
 3269SOL    HW210707   0.422   5.382   2.167
 3270SOL     OW10708   1.873   2.867   6.531
 3270SOL    HW110709   1.889   2.821   6.443
 3270SOL    HW210710   1.952   2.924   6.553
 3271SOL     OW10711   6.645   3.504   1.633
 3271SOL    HW110712   6.610   3.465   1.548
 3271SOL    HW210713   6.621   3.601   1.639
 3272SOL     OW10714   3.345   4.767   6.849
 3272SOL    HW110715   3.325   4.673   6.820
 3272SOL    HW210716   3.337   4.828   6.770
 3273SOL     OW10717   5.645   4.804   6.166
 3273SOL    HW110718   5.576   4.772   6.101
 3273SOL    HW210719   5.632   4.758   6.254
 3274SOL     OW10720   5.955   0.260   0.908
 3274SOL    HW110721   5.884   0.219   0.849
 3274SOL    HW210722   5.944   0.359   0.908
 3275SOL     OW10723   4.606   1.176   0.338
 3275SOL    HW110724   4.581   1.219   0.425
 3275SOL    HW210725   4.542   1.101   0.318
 3276SOL     OW10726   4.850   6.011   6.983
 3276SOL    HW110727   4.784   5.983   6.914
 3276SOL    HW210728   4.844   6.110   6.997
 3277SOL     OW10729   3.169   1.370   0.837
 3277SOL    HW110730   3.190   1.424   0.918
 3277SOL    HW210731   3.251   1.359   0.782
 3278SOL     OW10732   0.414   0.445   5.670
 3278SOL    HW110733   0.374   0.445   5.579
 3278SOL    HW210734   0.457   0.534   5.688
 3279SOL     OW10735   4.959   0.104   1.172
 3279SOL    HW110736   5.002   0.015   1.178
 3279SOL    HW210737   4.892   0.115   1.246
 3280SOL     OW10738   4.577   4.459   4.125
 3280SOL    HW110739   4.623   4.423   4.206
 3280SOL    HW210740   4.574   4.389   4.054
 3281SOL     OW10741   0.453   4.386   1.330
 3281SOL    HW110742   0.467   4.466   1.272
 3281SOL    HW210743   0.500   4.307   1.289
 3282SOL     OW10744   6.696   4.053   5.062
 3282SOL    HW110745   6.667   4.130   5.005
 3282SOL    HW210746   6.678   4.073   5.158
 3283SOL     OW10747   3.675   1.266   1.124
 3283SOL    HW110748   3.737   1.331   1.079
 3283SOL    HW210749   3.721   1.227   1.204
 3284SOL     OW10750   1.285   5.678   5.131
 3284SOL    HW110751   1.333   5.760   5.162
 3284SOL    HW210752   1.349   5.601   5.129
 3285SOL     OW10753   6.038   1.897   4.611
 3285SOL    HW110754   5.963   1.932   4.667
 3285SOL    HW210755   6.011   1.898   4.515
 3286SOL     OW10756   3.377   2.597   1.748
 3286SOL    HW110757   3.413   2.688   1.765
 3286SOL    HW210758   3.278   2.597   1.761
 3287SOL     OW10759   0.728   0.615   0.309
 3287SOL    HW110760   0.810   0.562   0.287
 3287SOL    HW210761   0.675   0.631   0.225
 3288SOL     OW10762   1.843   0.106   0.502
 3288SOL    HW110763   1.879   0.114   0.595
 3288SOL    HW210764   1.888   0.172   0.442
 3289SOL     OW10765   2.675   2.033   6.306
 3289SOL    HW110766   2.771   2.029   6.279
 3289SOL    HW210767   2.656   1.963   6.374
 3290SOL     OW10768   0.228   5.521   0.908
 3290SOL    HW110769   0.141   5.473   0.924
 3290SOL    HW210770   0.286   5.465   0.849
 3291SOL     OW10771   3.003   0.767   6.128
 3291SOL    HW110772   3.004   0.865   6.105
 3291SOL    HW210773   2.947   0.754   6.210
 3292SOL     OW10774   0.010   1.134   0.876
 3292SOL    HW110775   0.068   1.129   0.957
 3292SOL    HW210776   6.980   1.219   0.876
 3293SOL     OW10777   6.825   5.005   1.620
 3293SOL    HW110778   6.733   5.030   1.592
 3293SOL    HW210779   6.873   4.963   1.543
 3294SOL     OW10780   5.210   1.819   5.804
 3294SOL    HW110781   5.239   1.803   5.898
 3294SOL    HW210782   5.110   1.823   5.801
 3295SOL     OW10783   1.514   3.407   1.047
 3295SOL    HW110784   1.599   3.357   1.031
 3295SOL    HW210785   1.469   3.426   0.960
 3296SOL     OW10786   0.068   0.330   4.474
 3296SOL    HW110787   7.016   0.385   4.433
 3296SOL    HW210788   0.149   0.334   4.416
 3297SOL     OW10789   3.288   1.885   5.144
 3297SOL    HW110790   3.338   1.868   5.228
 3297SOL    HW210791   3.210   1.944   5.163
 3298SOL     OW10792   6.650   2.551   5.656
 3298SOL    HW110793   6.668   2.638   5.609
 3298SOL    HW210794   6.711   2.481   5.621
 3299SOL     OW10795   4.028   6.095   2.710
 3299SOL    HW110796   4.031   6.148   2.795
 3299SOL    HW210797   4.037   6.156   2.632
 3300SOL     OW10798   1.440   0.511   6.150
 3300SOL    HW110799   1.495   0.499   6.067
 3300SOL    HW210800   1.456   0.433   6.211
 3301SOL     OW10801   1.586   3.821   3.304
 3301SOL    HW110802   1.594   3.921   3.313
 3301SOL    HW210803   1.616   3.778   3.389
 3302SOL     OW10804   1.300   4.655   0.077
 3302SOL    HW110805   1.378   4.688   0.024
 3302SOL    HW210806   1.245   4.594   0.021
 3303SOL     OW10807   3.282   3.191   0.473
 3303SOL    HW110808   3.277   3.270   0.412
 3303SOL    HW210809   3.297   3.222   0.567
 3304SOL     OW10810   2.149   5.138   5.960
 3304SOL    HW110811   2.183   5.188   5.880
 3304SOL    HW210812   2.053   5.158   5.974
 3305SOL     OW10813   3.022   0.757   1.762
 3305SOL    HW110814   3.000   0.780   1.857
 3305SOL    HW210815   3.087   0.681   1.760
 3306SOL     OW10816   1.374   6.136   5.634
 3306SOL    HW110817   1.442   6.206   5.612
 3306SOL    HW210818   1.418   6.046   5.632
 3307SOL     OW10819   0.993   0.036   5.430
 3307SOL    HW110820   0.904   0.048   5.476
 3307SOL    HW210821   0.980   7.006   5.345
 3308SOL     OW10822   3.437   5.405   0.954
 3308SOL    HW110823   3.534   5.385   0.964
 3308SOL    HW210824   3.418   5.435   0.861
 3309SOL     OW10825   6.157   4.626   3.758
 3309SOL    HW110826   6.090   4.555   3.736
 3309SOL    HW210827   6.249   4.590   3.748
 3310SOL     OW10828   0.608   4.137   4.636
 3310SOL    HW110829   0.533   4.162   4.573
 3310SOL    HW210830   0.629   4.214   4.696
 3311SOL     OW10831   3.099   3.234   0.812
 3311SOL    HW110832   3.063   3.270   0.726
 3311SOL    HW210833   3.044   3.269   0.888
 3312SOL     OW10834   4.045   2.797   5.733
 3312SOL    HW110835   3.980   2.822   5.661
 3312SOL    HW210836   4.128   2.759   5.691
 3313SOL     OW10837   0.899   0.330   3.259
 3313SOL    HW110838   0.915   0.272   3.339
 3313SOL    HW210839   0.834   0.285   3.198
 3314SOL     OW10840   3.115   0.745   2.382
 3314SOL    HW110841   3.031   0.716   2.335
 3314SOL    HW210842   3.167   0.806   2.322
 3315SOL     OW10843   0.866   4.536   5.395
 3315SOL    HW110844   0.944   4.553   5.335
 3315SOL    HW210845   0.837   4.441   5.387
 3316SOL     OW10846   3.919   0.914   5.156
 3316SOL    HW110847   3.912   0.829   5.103
 3316SOL    HW210848   3.957   0.986   5.098
 3317SOL     OW10849   5.397   1.700   2.227
 3317SOL    HW110850   5.443   1.636   2.165
 3317SOL    HW210851   5.302   1.672   2.240
 3318SOL     OW10852   1.784   0.966   6.826
 3318SOL    HW110853   1.818   0.899   6.760
 3318SOL    HW210854   1.771   1.054   6.780
 3319SOL     OW10855   6.139   0.435   3.352
 3319SOL    HW110856   6.108   0.440   3.257
 3319SOL    HW210857   6.203   0.359   3.362
 3320SOL     OW10858   6.656   0.454   0.185
 3320SOL    HW110859   6.728   0.394   0.151
 3320SOL    HW210860   6.670   0.547   0.150
 3321SOL     OW10861   5.970   1.344   0.761
 3321SOL    HW110862   6.016   1.325   0.847
 3321SOL    HW210863   5.917   1.429   0.769
 3322SOL     OW10864   0.002   2.841   1.072
 3322SOL    HW110865   6.980   2.925   1.105
 3322SOL    HW210866   6.956   2.787   1.022
 3323SOL     OW10867   2.400   1.722   1.037
 3323SOL    HW110868   2.416   1.788   0.964
 3323SOL    HW210869   2.384   1.632   0.997
 3324SOL     OW10870   4.554   5.288   5.351
 3324SOL    HW110871   4.603   5.368   5.315
 3324SOL    HW210872   4.501   5.316   5.431
 3325SOL     OW10873   0.502   3.009   6.508
 3325SOL    HW110874   0.579   3.007   6.572
 3325SOL    HW210875   0.479   3.104   6.487
 3326SOL     OW10876   5.053   1.209   1.433
 3326SOL    HW110877   4.964   1.184   1.472
 3326SOL    HW210878   5.043   1.228   1.336
 3327SOL     OW10879   2.131   5.482   1.471
 3327SOL    HW110880   2.117   5.404   1.532
 3327SOL    HW210881   2.044   5.508   1.430
 3328SOL     OW10882   3.679   1.785   1.308
 3328SOL    HW110883   3.601   1.742   1.354
 3328SOL    HW210884   3.663   1.884   1.301
 3329SOL     OW10885   6.580   0.168   5.575
 3329SOL    HW110886   6.633   0.188   5.493
 3329SOL    HW210887   6.483   0.168   5.554
 3330SOL     OW10888   6.018   3.725   1.836
 3330SOL    HW110889   5.940   3.762   1.887
 3330SOL    HW210890   6.100   3.730   1.893
 3331SOL     OW10891   2.505   2.706   1.394
 3331SOL    HW110892   2.511   2.716   1.294
 3331SOL    HW210893   2.514   2.796   1.436
 3332SOL     OW10894   5.844   5.454   0.282
 3332SOL    HW110895   5.853   5.417   0.190
 3332SOL    HW210896   5.895   5.540   0.288
 3333SOL     OW10897   4.352   5.390   6.541
 3333SOL    HW110898   4.295   5.320   6.497
 3333SOL    HW210899   4.295   5.450   6.596
 3334SOL     OW10900   3.364   3.515   1.525
 3334SOL    HW110901   3.278   3.521   1.475
 3334SOL    HW210902   3.347   3.485   1.619
 3335SOL     OW10903   4.366   5.452   5.558
 3335SOL    HW110904   4.367   5.450   5.458
 3335SOL    HW210905   4.271   5.454   5.590
 3336SOL     OW10906   3.071   5.219   5.195
 3336SOL    HW110907   3.126   5.193   5.274
 3336SOL    HW210908   3.095   5.161   5.117
 3337SOL     OW10909   3.072   2.560   1.437
 3337SOL    HW110910   3.062   2.572   1.535
 3337SOL    HW210911   3.007   2.491   1.405
 3338SOL     OW10912   6.260   3.471   1.589
 3338SOL    HW110913   6.168   3.442   1.615
 3338SOL    HW210914   6.254   3.547   1.524
 3339SOL     OW10915   0.122   6.706   6.975
 3339SOL    HW110916   0.025   6.708   6.997
 3339SOL    HW210917   0.140   6.634   6.908
 3340SOL     OW10918   3.639   0.225   1.751
 3340SOL    HW110919   3.581   0.252   1.674
 3340SOL    HW210920   3.583   0.213   1.832
 3341SOL     OW10921   1.528   0.165   4.233
 3341SOL    HW110922   1.562   0.076   4.201
 3341SOL    HW210923   1.604   0.219   4.267
 3342SOL     OW10924   2.218   6.757   4.070
 3342SOL    HW110925   2.210   6.857   4.068
 3342SOL    HW210926   2.260   6.725   3.986
 3343SOL     OW10927   4.714   2.842   0.569
 3343SOL    HW110928   4.756   2.771   0.513
 3343SOL    HW210929   4.753   2.931   0.545
 3344SOL     OW10930   5.630   4.275   4.879
 3344SOL    HW110931   5.646   4.190   4.929
 3344SOL    HW210932   5.630   4.257   4.781
 3345SOL     OW10933   2.658   3.861   5.884
 3345SOL    HW110934   2.576   3.864   5.942
 3345SOL    HW210935   2.635   3.819   5.797
 3346SOL     OW10936   1.324   0.853   1.620
 3346SOL    HW110937   1.403   0.862   1.560
 3346SOL    HW210938   1.342   0.899   1.707
 3347SOL     OW10939   0.552   5.017   3.673
 3347SOL    HW110940   0.605   4.991   3.754
 3347SOL    HW210941   0.532   5.115   3.676
 3348SOL     OW10942   3.208   3.031   3.472
 3348SOL    HW110943   3.283   3.089   3.501
 3348SOL    HW210944   3.131   3.088   3.440
 3349SOL     OW10945   0.599   4.350   4.814
 3349SOL    HW110946   0.659   4.425   4.784
 3349SOL    HW210947   0.509   4.387   4.835
 3350SOL     OW10948   1.354   1.842   6.704
 3350SOL    HW110949   1.291   1.806   6.772
 3350SOL    HW210950   1.305   1.902   6.641
 3351SOL     OW10951   5.174   0.098   2.141
 3351SOL    HW110952   5.258   0.135   2.101
 3351SOL    HW210953   5.096   0.126   2.087
 3352SOL     OW10954   6.769   3.692   0.291
 3352SOL    HW110955   6.849   3.705   0.348
 3352SOL    HW210956   6.729   3.781   0.268
 3353SOL     OW10957   1.317   6.935   1.737
 3353SOL    HW110958   1.234   6.958   1.787
 3353SOL    HW210959   1.395   6.985   1.776
 3354SOL     OW10960   6.619   2.754   4.112
 3354SOL    HW110961   6.686   2.682   4.093
 3354SOL    HW210962   6.552   2.721   4.179
 3355SOL     OW10963   0.974   1.476   0.089
 3355SOL    HW110964   0.896   1.426   0.126
 3355SOL    HW210965   0.966   1.573   0.114
 3356SOL     OW10966   2.465   2.810   0.243
 3356SOL    HW110967   2.563   2.793   0.231
 3356SOL    HW210968   2.445   2.823   0.340
 3357SOL     OW10969   2.511   4.681   1.632
 3357SOL    HW110970   2.515   4.582   1.626
 3357SOL    HW210971   2.558   4.712   1.715
 3358SOL     OW10972   4.592   6.245   1.626
 3358SOL    HW110973   4.509   6.205   1.587
 3358SOL    HW210974   4.599   6.218   1.723
 3359SOL     OW10975   6.955   0.640   3.704
 3359SOL    HW110976   6.884   0.575   3.730
 3359SOL    HW210977   7.007   0.603   3.627
 3360SOL     OW10978   0.224   1.126   1.107
 3360SOL    HW110979   0.304   1.177   1.140
 3360SOL    HW210980   0.255   1.050   1.050
 3361SOL     OW10981   6.959   4.822   2.499
 3361SOL    HW110982   7.013   4.905   2.510
 3361SOL    HW210983   6.888   4.837   2.429
 3362SOL     OW10984   3.651   0.935   4.657
 3362SOL    HW110985   3.751   0.939   4.646
 3362SOL    HW210986   3.620   1.015   4.708
 3363SOL     OW10987   0.265   0.428   6.409
 3363SOL    HW110988   0.302   0.495   6.474
 3363SOL    HW210989   0.298   0.449   6.317
 3364SOL     OW10990   1.196   5.253   5.332
 3364SOL    HW110991   1.221   5.163   5.297
 3364SOL    HW210992   1.099   5.270   5.313
 3365SOL     OW10993   0.296   2.672   4.747
 3365SOL    HW110994   0.262   2.715   4.664
 3365SOL    HW210995   0.285   2.735   4.824
 3366SOL     OW10996   6.162   0.840   4.791
 3366SOL    HW110997   6.159   0.934   4.759
 3366SOL    HW210998   6.178   0.778   4.713
 3367SOL     OW10999   2.040   2.980   1.934
 3367SOL    HW111000   1.967   2.982   1.866
 3367SOL    HW211001   2.127   3.007   1.891
 3368SOL     OW11002   0.468   5.836   6.854
 3368SOL    HW111003   0.448   5.756   6.911
 3368SOL    HW211004   0.509   5.806   6.768
 3369SOL     OW11005   3.291   2.201   6.246
 3369SOL    HW111006   3.251   2.214   6.155
 3369SOL    HW211007   3.375   2.255   6.253
 3370SOL     OW11008   6.660   6.630   5.405
 3370SOL    HW111009   6.653   6.552   5.342
 3370SOL    HW211010   6.604   6.706   5.371
 3371SOL     OW11011   0.817   4.132   2.539
 3371SOL    HW111012   0.871   4.214   2.559
 3371SOL    HW211013   0.823   4.112   2.441
 3372SOL     OW11014   1.110   1.528   2.538
 3372SOL    HW111015   1.061   1.450   2.578
 3372SOL    HW211016   1.099   1.608   2.597
 3373SOL     OW11017   6.842   1.241   3.969
 3373SOL    HW111018   6.882   1.311   3.909
 3373SOL    HW211019   6.871   1.151   3.939
 3374SOL     OW11020   3.070   5.676   4.342
 3374SOL    HW111021   3.139   5.665   4.270
 3374SOL    HW211022   3.026   5.588   4.360
 3375SOL     OW11023   3.855   4.901   4.630
 3375SOL    HW111024   3.904   4.822   4.595
 3375SOL    HW211025   3.861   4.902   4.730
 3376SOL     OW11026   4.141   3.465   2.815
 3376SOL    HW111027   4.176   3.456   2.908
 3376SOL    HW211028   4.048   3.429   2.810
 3377SOL     OW11029   0.407   6.470   4.579
 3377SOL    HW111030   0.463   6.553   4.584
 3377SOL    HW211031   0.430   6.410   4.656
 3378SOL     OW11032   6.535   0.595   1.713
 3378SOL    HW111033   6.555   0.577   1.809
 3378SOL    HW211034   6.617   0.627   1.666
 3379SOL     OW11035   0.103   4.837   5.944
 3379SOL    HW111036   0.136   4.848   6.038
 3379SOL    HW211037   0.084   4.927   5.905
 3380SOL     OW11038   6.391   5.652   5.656
 3380SOL    HW111039   6.322   5.724   5.663
 3380SOL    HW211040   6.383   5.590   5.734
 3381SOL     OW11041   1.636   2.174   0.195
 3381SOL    HW111042   1.651   2.104   0.265
 3381SOL    HW211043   1.538   2.192   0.186
 3382SOL     OW11044   0.603   1.354   0.786
 3382SOL    HW111045   0.655   1.288   0.732
 3382SOL    HW211046   0.517   1.376   0.739
 3383SOL     OW11047   5.502   4.929   2.170
 3383SOL    HW111048   5.569   4.855   2.175
 3383SOL    HW211049   5.547   5.017   2.187
 3384SOL     OW11050   2.867   3.402   4.982
 3384SOL    HW111051   2.851   3.453   5.067
 3384SOL    HW211052   2.873   3.304   5.003
 3385SOL     OW11053   0.436   4.043   3.841
 3385SOL    HW111054   0.398   3.953   3.859
 3385SOL    HW211055   0.525   4.052   3.887
 3386SOL     OW11056   6.156   3.308   5.556
 3386SOL    HW111057   6.179   3.211   5.564
 3386SOL    HW211058   6.219   3.362   5.612
 3387SOL     OW11059   2.005   0.857   3.044
 3387SOL    HW111060   1.965   0.893   3.128
 3387SOL    HW211061   2.104   0.866   3.047
 3388SOL     OW11062   5.825   3.682   1.238
 3388SOL    HW111063   5.865   3.697   1.148
 3388SOL    HW211064   5.842   3.762   1.296
 3389SOL     OW11065   4.107   5.202   4.448
 3389SOL    HW111066   4.050   5.263   4.503
 3389SOL    HW211067   4.051   5.154   4.380
 3390SOL     OW11068   4.864   3.933   5.603
 3390SOL    HW111069   4.934   3.894   5.542
 3390SOL    HW211070   4.878   4.031   5.611
 3391SOL     OW11071   5.558   2.350   4.602
 3391SOL    HW111072   5.469   2.386   4.571
 3391SOL    HW211073   5.605   2.306   4.526
 3392SOL     OW11074   2.986   1.047   3.517
 3392SOL    HW111075   2.922   1.034   3.441
 3392SOL    HW211076   3.077   1.017   3.489
 3393SOL     OW11077   6.941   6.549   0.801
 3393SOL    HW111078   6.948   6.642   0.838
 3393SOL    HW211079   6.846   6.520   0.802
 3394SOL     OW11080   5.780   3.426   1.356
 3394SOL    HW111081   5.868   3.380   1.368
 3394SOL    HW211082   5.794   3.514   1.310
 3395SOL     OW11083   6.876   3.503   3.929
 3395SOL    HW111084   6.821   3.437   3.878
 3395SOL    HW211085   6.831   3.592   3.930
 3396SOL     OW11086   0.420   2.855   3.615
 3396SOL    HW111087   0.404   2.942   3.660
 3396SOL    HW211088   0.332   2.808   3.601
 3397SOL     OW11089   2.742   1.048   5.499
 3397SOL    HW111090   2.811   1.114   5.528
 3397SOL    HW211091   2.757   0.961   5.547
 3398SOL     OW11092   1.334   6.835   4.355
 3398SOL    HW111093   1.429   6.820   4.328
 3398SOL    HW211094   1.293   6.906   4.297
 3399SOL     OW11095   4.952   4.126   3.987
 3399SOL    HW111096   4.871   4.126   4.045
 3399SOL    HW211097   4.974   4.220   3.961
 3400SOL     OW11098   4.086   1.399   5.258
 3400SOL    HW111099   4.001   1.346   5.261
 3400SOL    HW211100   4.083   1.470   5.328
 3401SOL     OW11101   6.925   3.788   0.496
 3401SOL    HW111102   6.883   3.879   0.486
 3401SOL    HW211103   0.002   3.796   0.485
 3402SOL     OW11104   5.107   5.723   0.695
 3402SOL    HW111105   5.008   5.738   0.692
 3402SOL    HW211106   5.130   5.644   0.638
 3403SOL     OW11107   3.677   0.752   4.425
 3403SOL    HW111108   3.761   0.806   4.433
 3403SOL    HW211109   3.657   0.709   4.512
 3404SOL     OW11110   3.688   1.616   0.505
 3404SOL    HW111111   3.744   1.621   0.588
 3404SOL    HW211112   3.639   1.702   0.493
 3405SOL     OW11113   6.673   3.459   4.542
 3405SOL    HW111114   6.667   3.556   4.518
 3405SOL    HW211115   6.626   3.443   4.629
 3406SOL     OW11116   1.444   4.206   1.836
 3406SOL    HW111117   1.521   4.156   1.875
 3406SOL    HW211118   1.392   4.145   1.775
 3407SOL     OW11119   1.690   5.189   0.831
 3407SOL    HW111120   1.725   5.199   0.737
 3407SOL    HW211121   1.679   5.092   0.852
 3408SOL     OW11122   4.707   4.277   4.674
 3408SOL    HW111123   4.617   4.316   4.654
 3408SOL    HW211124   4.750   4.329   4.747
 3409SOL     OW11125   3.552   6.522   5.810
 3409SOL    HW111126   3.569   6.549   5.905
 3409SOL    HW211127   3.637   6.491   5.768
 3410SOL     OW11128   5.980   5.867   6.887
 3410SOL    HW111129   5.977   5.831   6.980
 3410SOL    HW211130   6.073   5.862   6.852
 3411SOL     OW11131   0.094   2.686   1.667
 3411SOL    HW111132   0.036   2.605   1.673
 3411SOL    HW211133   0.053   2.752   1.604
 3412SOL     OW11134   4.575   2.721   6.966
 3412SOL    HW111135   4.484   2.681   6.948
 3412SOL    HW211136   4.585   2.737   0.042
 3413SOL     OW11137   4.881   1.068   2.471
 3413SOL    HW111138   4.953   0.999   2.480
 3413SOL    HW211139   4.900   1.124   2.390
 3414SOL     OW11140   2.084   1.107   5.382
 3414SOL    HW111141   2.069   1.197   5.340
 3414SOL    HW211142   2.107   1.041   5.311
 3415SOL     OW11143   2.261   4.035   4.479
 3415SOL    HW111144   2.224   3.951   4.439
 3415SOL    HW211145   2.279   4.101   4.406
 3416SOL     OW11146   6.575   4.758   6.538
 3416SOL    HW111147   6.586   4.763   6.438
 3416SOL    HW211148   6.498   4.698   6.559
 3417SOL     OW11149   6.273   5.813   3.271
 3417SOL    HW111150   6.302   5.855   3.357
 3417SOL    HW211151   6.225   5.727   3.289
 3418SOL     OW11152   4.034   0.102   5.070
 3418SOL    HW111153   3.967   0.051   5.017
 3418SOL    HW211154   4.105   0.137   5.010
 3419SOL     OW11155   3.089   5.563   5.759
 3419SOL    HW111156   3.186   5.555   5.781
 3419SOL    HW211157   3.076   5.627   5.683
 3420SOL     OW11158   5.124   2.325   3.555
 3420SOL    HW111159   5.096   2.229   3.551
 3420SOL    HW211160   5.213   2.332   3.600
 3421SOL     OW11161   6.574   0.278   6.300
 3421SOL    HW111162   6.587   0.190   6.254
 3421SOL    HW211163   6.628   0.279   6.384
 3422SOL     OW11164   2.254   6.570   1.252
 3422SOL    HW111165   2.279   6.588   1.347
 3422SOL    HW211166   2.184   6.635   1.222
 3423SOL     OW11167   2.583   0.208   0.870
 3423SOL    HW111168   2.614   0.220   0.965
 3423SOL    HW211169   2.547   0.294   0.835
 3424SOL     OW11170   2.979   0.236   2.343
 3424SOL    HW111171   3.018   0.323   2.372
 3424SOL    HW211172   3.044   0.162   2.360
 3425SOL     OW11173   4.668   4.617   2.179
 3425SOL    HW111174   4.647   4.571   2.265
 3425SOL    HW211175   4.601   4.590   2.110
 3426SOL     OW11176   3.648   3.000   6.929
 3426SOL    HW111177   3.627   3.078   6.869
 3426SOL    HW211178   3.669   2.920   6.874
 3427SOL     OW11179   6.687   6.310   6.791
 3427SOL    HW111180   6.614   6.336   6.727
 3427SOL    HW211181   6.767   6.280   6.739
 3428SOL     OW11182   3.685   5.087   1.580
 3428SOL    HW111183   3.699   4.996   1.618
 3428SOL    HW211184   3.659   5.079   1.483
 3429SOL     OW11185   0.489   1.622   6.953
 3429SOL    HW111186   0.396   1.658   6.948
 3429SOL    HW211187   0.548   1.671   6.889
 3430SOL     OW11188   0.531   0.004   6.153
 3430SOL    HW111189   0.503   6.961   6.082
 3430SOL    HW211190   0.622   7.001   6.187
 3431SOL     OW11191   2.273   7.011   1.268
 3431SOL    HW111192   2.215   6.989   1.190
 3431SOL    HW211193   2.237   0.070   1.315
 3432SOL     OW11194   2.811   2.287   5.992
 3432SOL    HW111195   2.871   2.299   5.913
 3432SOL    HW211196   2.866   2.282   6.076
 3433SOL     OW11197   1.473   6.843   6.354
 3433SOL    HW111198   1.521   6.861   6.268
 3433SOL    HW211199   1.466   6.744   6.367
 3434SOL     OW11200   3.604   2.923   1.144
 3434SOL    HW111201   3.659   2.853   1.098
 3434SOL    HW211202   3.524   2.880   1.186
 3435SOL     OW11203   0.500   1.861   1.884
 3435SOL    HW111204   0.597   1.842   1.868
 3435SOL    HW211205   0.483   1.959   1.875
 3436SOL     OW11206   3.808   6.909   5.497
 3436SOL    HW111207   3.773   6.821   5.463
 3436SOL    HW211208   3.740   6.950   5.557
 3437SOL     OW11209   4.400   0.238   6.631
 3437SOL    HW111210   4.395   0.141   6.606
 3437SOL    HW211211   4.479   0.253   6.691
 3438SOL     OW11212   1.016   2.504   6.671
 3438SOL    HW111213   1.024   2.554   6.758
 3438SOL    HW211214   1.088   2.435   6.666
 3439SOL     OW11215   2.454   0.381   5.790
 3439SOL    HW111216   2.521   0.444   5.751
 3439SOL    HW211217   2.378   0.432   5.830
 3440SOL     OW11218   4.715   3.605   1.659
 3440SOL    HW111219   4.653   3.586   1.582
 3440SOL    HW211220   4.779   3.529   1.668
 3441SOL     OW11221   5.090   0.395   3.460
 3441SOL    HW111222   5.177   0.388   3.411
 3441SOL    HW211223   5.108   0.413   3.557
 3442SOL     OW11224   2.947   4.837   2.858
 3442SOL    HW111225   2.867   4.858   2.913
 3442SOL    HW211226   3.028   4.831   2.917
 3443SOL     OW11227   5.934   0.696   2.579
 3443SOL    HW111228   5.893   0.746   2.655
 3443SOL    HW211229   5.868   0.691   2.503
 3444SOL     OW11230   5.363   4.819   0.050
 3444SOL    HW111231   5.322   4.838   0.139
 3444SOL    HW211232   5.292   4.808   7.003
 3445SOL     OW11233   5.828   4.673   3.792
 3445SOL    HW111234   5.835   4.663   3.891
 3445SOL    HW211235   5.869   4.760   3.764
 3446SOL     OW11236   6.284   1.129   2.980
 3446SOL    HW111237   6.246   1.128   3.073
 3446SOL    HW211238   6.255   1.212   2.933
 3447SOL     OW11239   5.126   4.393   0.730
 3447SOL    HW111240   5.056   4.346   0.783
 3447SOL    HW211241   5.092   4.409   0.637
 3448SOL     OW11242   3.208   0.077   0.635
 3448SOL    HW111243   3.255   0.114   0.554
 3448SOL    HW211244   3.241   0.125   0.717
 3449SOL     OW11245   5.574   6.543   3.562
 3449SOL    HW111246   5.574   6.541   3.462
 3449SOL    HW211247   5.484   6.513   3.595
 3450SOL     OW11248   0.971   2.831   0.570
 3450SOL    HW111249   1.045   2.794   0.625
 3450SOL    HW211250   1.009   2.875   0.489
 3451SOL     OW11251   0.264   5.323   3.535
 3451SOL    HW111252   0.207   5.370   3.603
 3451SOL    HW211253   0.263   5.225   3.552
 3452SOL     OW11254   5.700   1.248   0.032
 3452SOL    HW111255   5.745   1.290   0.111
 3452SOL    HW211256   5.737   1.156   0.018
 3453SOL     OW11257   6.366   5.767   5.353
 3453SOL    HW111258   6.328   5.678   5.328
 3453SOL    HW211259   6.306   5.812   5.419
 3454SOL     OW11260   2.183   0.954   5.677
 3454SOL    HW111261   2.269   1.003   5.693
 3454SOL    HW211262   2.200   0.876   5.617
 3455SOL     OW11263   1.585   3.061   4.437
 3455SOL    HW111264   1.562   2.981   4.492
 3455SOL    HW211265   1.610   3.032   4.345
 3456SOL     OW11266   5.327   6.480   2.051
 3456SOL    HW111267   5.254   6.413   2.061
 3456SOL    HW211268   5.293   6.559   2.000
 3457SOL     OW11269   2.398   5.571   3.952
 3457SOL    HW111270   2.409   5.499   4.020
 3457SOL    HW211271   2.438   5.656   3.986
 3458SOL     OW11272   5.499   6.757   0.224
 3458SOL    HW111273   5.518   6.853   0.203
 3458SOL    HW211274   5.569   6.699   0.181
 3459SOL     OW11275   6.643   4.263   3.128
 3459SOL    HW111276   6.627   4.212   3.043
 3459SOL    HW211277   6.705   4.339   3.110
 3460SOL     OW11278   2.805   3.448   0.489
 3460SOL    HW111279   2.768   3.534   0.523
 3460SOL    HW211280   2.730   3.390   0.457
 3461SOL     OW11281   4.362   5.630   4.284
 3461SOL    HW111282   4.364   5.728   4.267
 3461SOL    HW211283   4.449   5.602   4.327
 3462SOL     OW11284   6.380   3.591   2.249
 3462SOL    HW111285   6.329   3.558   2.329
 3462SOL    HW211286   6.468   3.544   2.244
 3463SOL     OW11287   1.132   2.955   2.505
 3463SOL    HW111288   1.136   2.858   2.481
 3463SOL    HW211289   1.128   3.011   2.422
 3464SOL     OW11290   6.341   2.405   6.909
 3464SOL    HW111291   6.287   2.354   6.842
 3464SOL    HW211292   6.378   2.488   6.866
 3465SOL     OW11293   1.238   3.248   1.713
 3465SOL    HW111294   1.139   3.238   1.707
 3465SOL    HW211295   1.261   3.341   1.741
 3466SOL     OW11296   6.752   5.293   6.017
 3466SOL    HW111297   6.845   5.325   5.998
 3466SOL    HW211298   6.751   5.240   6.102
 3467SOL     OW11299   1.861   1.536   0.517
 3467SOL    HW111300   1.890   1.472   0.588
 3467SOL    HW211301   1.798   1.491   0.455
 3468SOL     OW11302   5.778   1.703   3.437
 3468SOL    HW111303   5.684   1.734   3.428
 3468SOL    HW211304   5.827   1.717   3.351
 3469SOL     OW11305   4.540   0.000   4.616
 3469SOL    HW111306   4.562   6.940   4.562
 3469SOL    HW211307   4.455   7.006   4.667
 3470SOL     OW11308   0.223   2.543   1.351
 3470SOL    HW111309   0.247   2.481   1.277
 3470SOL    HW211310   0.267   2.513   1.436
 3471SOL     OW11311   4.396   4.537   3.566
 3471SOL    HW111312   4.314   4.589   3.543
 3471SOL    HW211313   4.419   4.476   3.490
 3472SOL     OW11314   3.117   1.187   1.469
 3472SOL    HW111315   3.079   1.111   1.523
 3472SOL    HW211316   3.070   1.272   1.494
 3473SOL     OW11317   6.195   3.202   2.635
 3473SOL    HW111318   6.166   3.198   2.539
 3473SOL    HW211319   6.138   3.267   2.684
 3474SOL     OW11320   6.835   4.195   2.542
 3474SOL    HW111321   6.897   4.181   2.619
 3474SOL    HW211322   6.863   4.277   2.491
 3475SOL     OW11323   0.992   4.631   4.899
 3475SOL    HW111324   1.041   4.648   4.813
 3475SOL    HW211325   0.993   4.533   4.919
 3476SOL     OW11326   2.413   2.322   2.557
 3476SOL    HW111327   2.465   2.262   2.497
 3476SOL    HW211328   2.434   2.417   2.536
 3477SOL     OW11329   1.344   4.865   0.930
 3477SOL    HW111330   1.409   4.910   0.991
 3477SOL    HW211331   1.318   4.777   0.969
 3478SOL     OW11332   3.103   6.335   0.007
 3478SOL    HW111333   3.125   6.433   0.013
 3478SOL    HW211334   3.188   6.282   0.010
 3479SOL     OW11335   0.212   1.040   2.573
 3479SOL    HW111336   0.302   1.004   2.550
 3479SOL    HW211337   0.142   0.992   2.520
 3480SOL     OW11338   0.454   6.316   5.309
 3480SOL    HW111339   0.364   6.335   5.271
 3480SOL    HW211340   0.462   6.219   5.332
 3481SOL     OW11341   4.897   0.480   0.532
 3481SOL    HW111342   4.799   0.491   0.516
 3481SOL    HW211343   4.911   0.426   0.616
 3482SOL     OW11344   5.982   1.173   2.050
 3482SOL    HW111345   6.022   1.264   2.058
 3482SOL    HW211346   6.052   1.109   2.018
 3483SOL     OW11347   5.638   1.809   2.324
 3483SOL    HW111348   5.666   1.732   2.382
 3483SOL    HW211349   5.569   1.779   2.259
 3484SOL     OW11350   1.256   3.243   0.368
 3484SOL    HW111351   1.347   3.212   0.393
 3484SOL    HW211352   1.260   3.289   0.279
 3485SOL     OW11353   1.661   1.955   4.051
 3485SOL    HW111354   1.602   1.959   3.971
 3485SOL    HW211355   1.703   2.045   4.065
 3486SOL     OW11356   1.956   0.132   3.375
 3486SOL    HW111357   1.857   0.113   3.370
 3486SOL    HW211358   1.970   0.224   3.412
 3487SOL     OW11359   6.786   1.774   0.458
 3487SOL    HW111360   6.713   1.841   0.443
 3487SOL    HW211361   6.747   1.681   0.453
 3488SOL     OW11362   5.496   1.280   5.393
 3488SOL    HW111363   5.460   1.359   5.344
 3488SOL    HW211364   5.423   1.213   5.406
 3489SOL     OW11365   3.733   0.224   2.088
 3489SOL    HW111366   3.737   0.313   2.133
 3489SOL    HW211367   3.826   0.191   2.072
 3490SOL     OW11368   3.541   4.733   1.362
 3490SOL    HW111369   3.453   4.779   1.351
 3490SOL    HW211370   3.551   4.704   1.458
 3491SOL     OW11371   4.304   2.135   5.927
 3491SOL    HW111372   4.215   2.116   5.885
 3491SOL    HW211373   4.291   2.183   6.014
 3492SOL     OW11374   6.062   4.603   0.893
 3492SOL    HW111375   5.979   4.608   0.948
 3492SOL    HW211376   6.052   4.532   0.823
 3493SOL     OW11377   5.280   3.887   4.140
 3493SOL    HW111378   5.213   3.866   4.211
 3493SOL    HW211379   5.267   3.982   4.111
 3494SOL     OW11380   2.474   1.157   1.660
 3494SOL    HW111381   2.561   1.186   1.700
 3494SOL    HW211382   2.491   1.095   1.584
 3495SOL     OW11383   6.927   4.715   2.103
 3495SOL    HW111384   6.870   4.755   2.030
 3495SOL    HW211385   6.868   4.672   2.171
 3496SOL     OW11386   6.148   5.343   0.785
 3496SOL    HW111387   6.248   5.348   0.777
 3496SOL    HW211388   6.112   5.434   0.809
 3497SOL     OW11389   2.682   1.639   3.750
 3497SOL    HW111390   2.678   1.615   3.847
 3497SOL    HW211391   2.740   1.720   3.739
 3498SOL     OW11392   3.120   1.213   1.842
 3498SOL    HW111393   3.073   1.298   1.816
 3498SOL    HW211394   3.113   1.200   1.941
 3499SOL     OW11395   5.869   4.661   4.069
 3499SOL    HW111396   5.962   4.695   4.058
 3499SOL    HW211397   5.854   4.636   4.165
 3500SOL     OW11398   1.773   3.299   2.913
 3500SOL    HW111399   1.796   3.391   2.881
 3500SOL    HW211400   1.753   3.303   3.011
 3501SOL     OW11401   3.446   6.619   6.104
 3501SOL    HW111402   3.434   6.712   6.140
 3501SOL    HW211403   3.540   6.589   6.122
 3502SOL     OW11404   6.983   2.158   1.443
 3502SOL    HW111405   0.030   2.123   1.379
 3502SOL    HW211406   7.014   2.140   1.537
 3503SOL     OW11407   6.025   6.344   5.023
 3503SOL    HW111408   6.073   6.297   4.948
 3503SOL    HW211409   5.927   6.348   5.003
 3504SOL     OW11410   2.544   0.690   2.267
 3504SOL    HW111411   2.563   0.775   2.219
 3504SOL    HW211412   2.629   0.643   2.287
 3505SOL     OW11413   4.897   4.192   5.603
 3505SOL    HW111414   4.854   4.275   5.640
 3505SOL    HW211415   4.918   4.205   5.506
 3506SOL     OW11416   5.549   4.472   5.064
 3506SOL    HW111417   5.646   4.490   5.080
 3506SOL    HW211418   5.539   4.412   4.985
 3507SOL     OW11419   2.621   0.787   0.972
 3507SOL    HW111420   2.709   0.754   1.006
 3507SOL    HW211421   2.549   0.761   1.036
 3508SOL     OW11422   2.190   1.367   5.927
 3508SOL    HW111423   2.249   1.448   5.928
 3508SOL    HW211424   2.181   1.334   5.833
 3509SOL     OW11425   5.820   6.980   0.012
 3509SOL    HW111426   5.825   6.990   0.112
 3509SOL    HW211427   5.904   6.935   7.001
 3510SOL     OW11428   1.497   0.956   2.165
 3510SOL    HW111429   1.409   1.000   2.150
 3510SOL    HW211430   1.484   0.874   2.221
 3511SOL     OW11431   2.139   4.135   1.599
 3511SOL    HW111432   2.101   4.045   1.581
 3511SOL    HW211433   2.132   4.155   1.697
 3512SOL     OW11434   0.060   4.391   0.488
 3512SOL    HW111435   0.119   4.321   0.528
 3512SOL    HW211436   0.114   4.451   0.430
 3513SOL     OW11437   5.782   1.941   0.585
 3513SOL    HW111438   5.876   1.966   0.610
 3513SOL    HW211439   5.720   1.967   0.659
 3514SOL     OW11440   0.204   0.809   1.934
 3514SOL    HW111441   0.176   0.838   1.843
 3514SOL    HW211442   0.172   0.716   1.950
 3515SOL     OW11443   4.300   6.232   2.841
 3515SOL    HW111444   4.203   6.235   2.867
 3515SOL    HW211445   4.350   6.303   2.890
 3516SOL     OW11446   4.697   6.552   0.859
 3516SOL    HW111447   4.603   6.519   0.858
 3516SOL    HW211448   4.734   6.550   0.767
 3517SOL     OW11449   6.863   1.112   1.617
 3517SOL    HW111450   6.910   1.079   1.535
 3517SOL    HW211451   6.907   1.195   1.650
 3518SOL     OW11452   5.344   2.981   5.354
 3518SOL    HW111453   5.350   3.078   5.375
 3518SOL    HW211454   5.408   2.958   5.281
 3519SOL     OW11455   1.378   6.883   5.614
 3519SOL    HW111456   1.283   6.868   5.641
 3519SOL    HW211457   1.420   6.795   5.591
 3520SOL     OW11458   3.416   5.994   6.943
 3520SOL    HW111459   3.359   5.917   6.915
 3520SOL    HW211460   3.494   6.002   6.881
 3521SOL     OW11461   4.639   2.804   0.223
 3521SOL    HW111462   4.682   2.893   0.211
 3521SOL    HW211463   4.567   2.810   0.293
 3522SOL     OW11464   0.345   5.550   0.455
 3522SOL    HW111465   0.322   5.491   0.378
 3522SOL    HW211466   0.267   5.607   0.478
 3523SOL     OW11467   1.486   4.656   5.014
 3523SOL    HW111468   1.499   4.557   5.020
 3523SOL    HW211469   1.431   4.687   5.091
 3524SOL     OW11470   4.759   1.555   1.813
 3524SOL    HW111471   4.846   1.567   1.766
 3524SOL    HW211472   4.684   1.561   1.747
 3525SOL     OW11473   6.612   3.727   3.737
 3525SOL    HW111474   6.565   3.691   3.818
 3525SOL    HW211475   6.621   3.826   3.745
 3526SOL     OW11476   1.868   6.822   4.072
 3526SOL    HW111477   1.888   6.754   4.001
 3526SOL    HW211478   1.921   6.905   4.056
 3527SOL     OW11479   5.732   3.361   6.491
 3527SOL    HW111480   5.722   3.326   6.585
 3527SOL    HW211481   5.753   3.284   6.430
 3528SOL     OW11482   1.727   6.553   5.274
 3528SOL    HW111483   1.822   6.523   5.275
 3528SOL    HW211484   1.714   6.625   5.343
 3529SOL     OW11485   4.185   6.990   0.710
 3529SOL    HW111486   4.142   0.025   0.640
 3529SOL    HW211487   4.232   0.027   0.776
 3530SOL     OW11488   6.643   6.030   1.039
 3530SOL    HW111489   6.662   6.010   1.135
 3530SOL    HW211490   6.547   6.007   1.018
 3531SOL     OW11491   4.646   2.296   0.888
 3531SOL    HW111492   4.604   2.359   0.953
 3531SOL    HW211493   4.744   2.288   0.907
 3532SOL     OW11494   2.488   0.021   1.958
 3532SOL    HW111495   2.475   0.035   1.860
 3532SOL    HW211496   2.559   0.081   1.992
 3533SOL     OW11497   0.508   1.486   2.706
 3533SOL    HW111498   0.605   1.505   2.721
 3533SOL    HW211499   0.499   1.398   2.658
 3534SOL     OW11500   0.778   1.620   0.785
 3534SOL    HW111501   0.724   1.537   0.769
 3534SOL    HW211502   0.719   1.690   0.824
 3535SOL     OW11503   1.934   5.178   6.320
 3535SOL    HW111504   1.912   5.193   6.416
 3535SOL    HW211505   1.849   5.176   6.267
 3536SOL     OW11506   3.682   1.848   3.113
 3536SOL    HW111507   3.678   1.878   3.018
 3536SOL    HW211508   3.599   1.797   3.136
 3537SOL     OW11509   2.253   5.519   2.734
 3537SOL    HW111510   2.236   5.520   2.635
 3537SOL    HW211511   2.315   5.593   2.758
 3538SOL     OW11512   2.190   6.666   5.401
 3538SOL    HW111513   2.265   6.599   5.396
 3538SOL    HW211514   2.153   6.680   5.309
 3539SOL     OW11515   3.405   3.036   5.329
 3539SOL    HW111516   3.359   3.094   5.261
 3539SOL    HW211517   3.362   2.945   5.329
 3540SOL     OW11518   2.083   2.722   4.720
 3540SOL    HW111519   2.059   2.651   4.654
 3540SOL    HW211520   2.017   2.721   4.795
 3541SOL     OW11521   2.236   2.601   6.345
 3541SOL    HW111522   2.158   2.615   6.284
 3541SOL    HW211523   2.219   2.647   6.432
 3542SOL     OW11524   1.426   5.456   3.593
 3542SOL    HW111525   1.380   5.383   3.643
 3542SOL    HW211526   1.510   5.421   3.551
 3543SOL     OW11527   0.844   2.580   4.987
 3543SOL    HW111528   0.817   2.621   5.075
 3543SOL    HW211529   0.939   2.550   4.992
 3544SOL     OW11530   1.994   3.900   5.575
 3544SOL    HW111531   1.902   3.884   5.609
 3544SOL    HW211532   1.990   3.930   5.479
 3545SOL     OW11533   4.378   5.659   6.823
 3545SOL    HW111534   4.432   5.586   6.864
 3545SOL    HW211535   4.387   5.742   6.879
 3546SOL     OW11536   1.722   4.620   3.926
 3546SOL    HW111537   1.685   4.575   4.007
 3546SOL    HW211538   1.815   4.651   3.943
 3547SOL     OW11539   6.536   4.448   3.871
 3547SOL    HW111540   6.599   4.517   3.906
 3547SOL    HW211541   6.580   4.358   3.871
 3548SOL     OW11542   6.024   1.767   5.965
 3548SOL    HW111543   6.042   1.785   5.869
 3548SOL    HW211544   5.927   1.782   5.984
 3549SOL     OW11545   6.609   4.739   5.482
 3549SOL    HW111546   6.666   4.821   5.492
 3549SOL    HW211547   6.648   4.665   5.536
 3550SOL     OW11548   5.512   2.374   2.582
 3550SOL    HW111549   5.514   2.281   2.547
 3550SOL    HW211550   5.457   2.431   2.521
 3551SOL     OW11551   3.819   6.892   2.774
 3551SOL    HW111552   3.780   6.950   2.702
 3551SOL    HW211553   3.774   6.803   2.774
 3552SOL     OW11554   5.208   6.296   1.381
 3552SOL    HW111555   5.203   6.375   1.442
 3552SOL    HW211556   5.194   6.212   1.433
 3553SOL     OW11557   5.448   3.987   1.568
 3553SOL    HW111558   5.398   3.913   1.521
 3553SOL    HW211559   5.385   4.062   1.589
 3554SOL     OW11560   3.725   2.685   1.016
 3554SOL    HW111561   3.675   2.699   0.930
 3554SOL    HW211562   3.816   2.649   0.995
 3555SOL     OW11563   1.220   4.032   3.467
 3555SOL    HW111564   1.122   4.027   3.488
 3555SOL    HW211565   1.233   4.085   3.383
 3556SOL     OW11566   4.454   0.904   4.267
 3556SOL    HW111567   4.450   0.813   4.225
 3556SOL    HW211568   4.549   0.929   4.282
 3557SOL     OW11569   1.044   0.368   3.852
 3557SOL    HW111570   1.077   0.359   3.758
 3557SOL    HW211571   0.945   0.380   3.853
 3558SOL     OW11572   1.182   5.619   0.743
 3558SOL    HW111573   1.178   5.577   0.652
 3558SOL    HW211574   1.267   5.593   0.788
 3559SOL     OW11575   0.741   6.830   4.505
 3559SOL    HW111576   0.774   6.924   4.513
 3559SOL    HW211577   0.798   6.780   4.440
 3560SOL     OW11578   1.555   5.827   1.481
 3560SOL    HW111579   1.553   5.851   1.578
 3560SOL    HW211580   1.515   5.736   1.469
 3561SOL     OW11581   3.695   4.877   5.293
 3561SOL    HW111582   3.771   4.833   5.245
 3561SOL    HW211583   3.729   4.926   5.373
 3562SOL     OW11584   5.634   0.974   4.283
 3562SOL    HW111585   5.601   1.067   4.297
 3562SOL    HW211586   5.599   0.916   4.357
 3563SOL     OW11587   5.580   0.607   1.280
 3563SOL    HW111588   5.589   0.518   1.236
 3563SOL    HW211589   5.499   0.607   1.339
 3564SOL     OW11590   1.606   4.475   4.152
 3564SOL    HW111591   1.510   4.458   4.130
 3564SOL    HW211592   1.612   4.515   4.244
 3565SOL     OW11593   3.646   6.648   5.407
 3565SOL    HW111594   3.636   6.602   5.318
 3565SOL    HW211595   3.606   6.591   5.478
 3566SOL     OW11596   6.677   3.424   6.390
 3566SOL    HW111597   6.663   3.359   6.464
 3566SOL    HW211598   6.621   3.505   6.406
 3567SOL     OW11599   0.978   3.040   0.115
 3567SOL    HW111600   1.046   2.977   0.078
 3567SOL    HW211601   0.904   2.987   0.157
 3568SOL     OW11602   5.047   6.314   3.798
 3568SOL    HW111603   5.047   6.340   3.701
 3568SOL    HW211604   5.007   6.387   3.852
 3569SOL     OW11605   3.154   2.471   6.357
 3569SOL    HW111606   3.095   2.486   6.436
 3569SOL    HW211607   3.250   2.468   6.386
 3570SOL     OW11608   5.610   0.696   4.598
 3570SOL    HW111609   5.639   0.650   4.515
 3570SOL    HW211610   5.552   0.775   4.575
 3571SOL     OW11611   2.258   0.999   4.788
 3571SOL    HW111612   2.332   0.932   4.787
 3571SOL    HW211613   2.291   1.085   4.827
 3572SOL     OW11614   5.477   3.646   2.734
 3572SOL    HW111615   5.507   3.706   2.660
 3572SOL    HW211616   5.554   3.627   2.795
 3573SOL     OW11617   5.886   3.863   2.744
 3573SOL    HW111618   5.905   3.944   2.689
 3573SOL    HW211619   5.807   3.814   2.706
 3574SOL     OW11620   1.372   3.594   0.317
 3574SOL    HW111621   1.281   3.601   0.356
 3574SOL    HW211622   1.366   3.597   0.217
 3575SOL     OW11623   4.755   5.907   1.906
 3575SOL    HW111624   4.672   5.851   1.911
 3575SOL    HW211625   4.790   5.923   1.999
 3576SOL     OW11626   0.476   1.875   0.528
 3576SOL    HW111627   0.390   1.871   0.580
 3576SOL    HW211628   0.547   1.919   0.583
 3577SOL     OW11629   2.110   2.972   6.583
 3577SOL    HW111630   2.120   3.046   6.516
 3577SOL    HW211631   2.198   2.958   6.630
 3578SOL     OW11632   4.941   2.010   1.067
 3578SOL    HW111633   5.028   2.014   1.115
 3578SOL    HW211634   4.870   2.053   1.122
 3579SOL     OW11635   6.845   2.917   2.351
 3579SOL    HW111636   6.819   3.010   2.327
 3579SOL    HW211637   6.843   2.906   2.451
 3580SOL     OW11638   6.172   3.120   0.021
 3580SOL    HW111639   6.207   3.044   6.987
 3580SOL    HW211640   6.110   3.084   0.091
 3581SOL     OW11641   0.521   5.808   2.743
 3581SOL    HW111642   0.464   5.886   2.767
 3581SOL    HW211643   0.557   5.766   2.826
 3582SOL     OW11644   2.287   5.065   5.508
 3582SOL    HW111645   2.262   5.020   5.594
 3582SOL    HW211646   2.284   4.999   5.433
 3583SOL     OW11647   1.300   4.532   0.307
 3583SOL    HW111648   1.348   4.444   0.299
 3583SOL    HW211649   1.325   4.590   0.230
 3584SOL     OW11650   5.482   4.680   5.572
 3584SOL    HW111651   5.505   4.604   5.632
 3584SOL    HW211652   5.498   4.654   5.477
 3585SOL     OW11653   3.348   2.122   4.981
 3585SOL    HW111654   3.263   2.174   4.968
 3585SOL    HW211655   3.329   2.040   5.035
 3586SOL     OW11656   0.126   2.422   5.033
 3586SOL    HW111657   0.159   2.330   5.050
 3586SOL    HW211658   0.151   2.450   4.941
 3587SOL     OW11659   2.888   5.349   6.495
 3587SOL    HW111660   2.932   5.368   6.583
 3587SOL    HW211661   2.792   5.328   6.510
 3588SOL     OW11662   6.663   3.401   5.011
 3588SOL    HW111663   6.574   3.409   5.056
 3588SOL    HW211664   6.732   3.452   5.063
 3589SOL     OW11665   6.556   7.002   6.616
 3589SOL    HW111666   6.550   6.911   6.657
 3589SOL    HW211667   6.606   0.041   6.677
 3590SOL     OW11668   0.365   4.056   0.086
 3590SOL    HW111669   0.425   4.057   0.007
 3590SOL    HW211670   0.271   4.077   0.057
 3591SOL     OW11671   5.704   3.453   0.953
 3591SOL    HW111672   5.696   3.502   1.040
 3591SOL    HW211673   5.782   3.391   0.957
 3592SOL     OW11674   0.572   6.912   3.002
 3592SOL    HW111675   0.511   6.991   2.992
 3592SOL    HW211676   0.574   6.884   3.098
 3593SOL     OW11677   0.697   4.316   5.957
 3593SOL    HW111678   0.750   4.399   5.977
 3593SOL    HW211679   0.677   4.312   5.859
 3594SOL     OW11680   5.388   0.487   4.138
 3594SOL    HW111681   5.305   0.432   4.133
 3594SOL    HW211682   5.388   0.540   4.223
 3595SOL     OW11683   5.428   5.357   6.285
 3595SOL    HW111684   5.477   5.271   6.296
 3595SOL    HW211685   5.422   5.404   6.373
 3596SOL     OW11686   4.605   2.639   3.629
 3596SOL    HW111687   4.564   2.582   3.558
 3596SOL    HW211688   4.643   2.580   3.700
 3597SOL     OW11689   1.792   3.107   5.579
 3597SOL    HW111690   1.802   3.014   5.616
 3597SOL    HW211691   1.697   3.137   5.591
 3598SOL     OW11692   2.073   6.245   5.296
 3598SOL    HW111693   2.069   6.278   5.202
 3598SOL    HW211694   1.986   6.203   5.320
 3599SOL     OW11695   4.402   2.112   7.005
 3599SOL    HW111696   4.484   2.057   6.987
 3599SOL    HW211697   4.423   2.208   6.989
 3600SOL     OW11698   1.012   3.581   1.819
 3600SOL    HW111699   0.943   3.645   1.785
 3600SOL    HW211700   0.968   3.498   1.853
 3601SOL     OW11701   5.164   2.348   6.180
 3601SOL    HW111702   5.187   2.285   6.105
 3601SOL    HW211703   5.154   2.296   6.265
 3602SOL     OW11704   1.316   3.206   0.856
 3602SOL    HW111705   1.313   3.306   0.855
 3602SOL    HW211706   1.242   3.172   0.914
 3603SOL     OW11707   3.596   0.864   5.167
 3603SOL    HW111708   3.583   0.952   5.213
 3603SOL    HW211709   3.508   0.819   5.156
 3604SOL     OW11710   6.219   0.759   3.760
 3604SOL    HW111711   6.295   0.824   3.758
 3604SOL    HW211712   6.249   0.674   3.804
 3605SOL     OW11713   0.891   5.199   4.253
 3605SOL    HW111714   0.884   5.236   4.346
 3605SOL    HW211715   0.874   5.101   4.255
 3606SOL     OW11716   1.201   6.507   3.057
 3606SOL    HW111717   1.188   6.414   3.090
 3606SOL    HW211718   1.114   6.556   3.062
 3607SOL     OW11719   5.532   3.433   2.239
 3607SOL    HW111720   5.565   3.344   2.272
 3607SOL    HW211721   5.438   3.447   2.269
 3608SOL     OW11722   5.146   1.809   4.209
 3608SOL    HW111723   5.188   1.848   4.127
 3608SOL    HW211724   5.047   1.824   4.205
 3609SOL     OW11725   2.158   0.401   4.105
 3609SOL    HW111726   2.094   0.478   4.100
 3609SOL    HW211727   2.227   0.421   4.175
 3610SOL     OW11728   1.409   0.443   5.666
 3610SOL    HW111729   1.434   0.516   5.603
 3610SOL    HW211730   1.411   0.355   5.618
 3611SOL     OW11731   4.126   4.817   3.815
 3611SOL    HW111732   4.136   4.758   3.734
 3611SOL    HW211733   4.129   4.760   3.898
 3612SOL     OW11734   6.587   1.061   6.762
 3612SOL    HW111735   6.536   1.135   6.718
 3612SOL    HW211736   6.539   0.975   6.749
 3613SOL     OW11737   4.339   5.207   1.790
 3613SOL    HW111738   4.281   5.128   1.770
 3613SOL    HW211739   4.299   5.289   1.750
 3614SOL     OW11740   2.721   3.455   0.079
 3614SOL    HW111741   2.767   3.534   0.038
 3614SOL    HW211742   2.623   3.474   0.087
 3615SOL     OW11743   5.682   2.536   6.351
 3615SOL    HW111744   5.759   2.474   6.340
 3615SOL    HW211745   5.661   2.579   6.263
 3616SOL     OW11746   1.249   0.861   6.316
 3616SOL    HW111747   1.164   0.829   6.274
 3616SOL    HW211748   1.282   0.794   6.381
 3617SOL     OW11749   4.130   0.652   6.114
 3617SOL    HW111750   4.083   0.563   6.114
 3617SOL    HW211751   4.153   0.677   6.020
 3618SOL     OW11752   2.652   3.358   5.394
 3618SOL    HW111753   2.552   3.349   5.394
 3618SOL    HW211754   2.693   3.273   5.361
 3619SOL     OW11755   5.616   3.195   0.345
 3619SOL    HW111756   5.573   3.285   0.356
 3619SOL    HW211757   5.715   3.206   0.338
 3620SOL     OW11758   6.121   5.333   5.529
 3620SOL    HW111759   6.123   5.392   5.609
 3620SOL    HW211760   6.029   5.295   5.519
 3621SOL     OW11761   3.183   3.489   4.507
 3621SOL    HW111762   3.236   3.567   4.541
 3621SOL    HW211763   3.130   3.449   4.582
 3622SOL     OW11764   1.773   0.526   0.515
 3622SOL    HW111765   1.695   0.577   0.479
 3622SOL    HW211766   1.852   0.537   0.454
 3623SOL     OW11767   0.206   5.485   5.117
 3623SOL    HW111768   0.277   5.414   5.120
 3623SOL    HW211769   0.126   5.455   5.168
 3624SOL     OW11770   1.458   6.843   2.458
 3624SOL    HW111771   1.401   6.865   2.379
 3624SOL    HW211772   1.540   6.900   2.456
 3625SOL     OW11773   0.160   3.535   6.600
 3625SOL    HW111774   0.193   3.623   6.567
 3625SOL    HW211775   0.144   3.474   6.522
 3626SOL     OW11776   0.642   3.320   3.936
 3626SOL    HW111777   0.570   3.358   3.878
 3626SOL    HW211778   0.609   3.235   3.978
 3627SOL     OW11779   4.915   3.396   1.618
 3627SOL    HW111780   4.912   3.399   1.519
 3627SOL    HW211781   4.856   3.323   1.651
 3628SOL     OW11782   1.647   1.141   2.066
 3628SOL    HW111783   1.729   1.113   2.116
 3628SOL    HW211784   1.575   1.072   2.078
 3629SOL     OW11785   1.359   0.637   4.149
 3629SOL    HW111786   1.318   0.575   4.083
 3629SOL    HW211787   1.382   0.723   4.103
 3630SOL     OW11788   6.149   2.785   3.767
 3630SOL    HW111789   6.151   2.841   3.850
 3630SOL    HW211790   6.169   2.690   3.791
 3631SOL     OW11791   1.418   6.758   3.599
 3631SOL    HW111792   1.469   6.789   3.679
 3631SOL    HW211793   1.462   6.794   3.516
 3632SOL     OW11794   4.507   4.159   0.331
 3632SOL    HW111795   4.551   4.180   0.418
 3632SOL    HW211796   4.571   4.177   0.256
 3633SOL     OW11797   4.323   2.715   5.712
 3633SOL    HW111798   4.417   2.727   5.680
 3633SOL    HW211799   4.316   2.744   5.807
 3634SOL     OW11800   2.196   6.623   6.167
 3634SOL    HW111801   2.177   6.615   6.069
 3634SOL    HW211802   2.112   6.648   6.216
 3635SOL     OW11803   2.259   1.495   0.881
 3635SOL    HW111804   2.205   1.576   0.855
 3635SOL    HW211805   2.200   1.414   0.878
 3636SOL     OW11806   0.311   6.223   1.393
 3636SOL    HW111807   0.271   6.208   1.484
 3636SOL    HW211808   0.284   6.148   1.332
 3637SOL     OW11809   0.705   2.925   1.217
 3637SOL    HW111810   0.722   3.017   1.181
 3637SOL    HW211811   0.702   2.860   1.141
 3638SOL     OW11812   6.588   3.784   2.663
 3638SOL    HW111813   6.661   3.754   2.724
 3638SOL    HW211814   6.571   3.882   2.677
 3639SOL     OW11815   3.423   4.653   6.036
 3639SOL    HW111816   3.431   4.624   5.941
 3639SOL    HW211817   3.379   4.580   6.089
 3640SOL     OW11818   5.186   1.985   0.899
 3640SOL    HW111819   5.229   1.952   0.816
 3640SOL    HW211820   5.086   1.981   0.890
 3641SOL     OW11821   5.073   4.368   1.190
 3641SOL    HW111822   4.978   4.352   1.163
 3641SOL    HW211823   5.081   4.456   1.237
 3642SOL     OW11824   5.102   2.101   6.749
 3642SOL    HW111825   5.155   2.185   6.748
 3642SOL    HW211826   5.163   2.023   6.763
 3643SOL     OW11827   4.236   6.468   6.120
 3643SOL    HW111828   4.236   6.409   6.200
 3643SOL    HW211829   4.292   6.549   6.138
 3644SOL     OW11830   2.891   0.420   1.465
 3644SOL    HW111831   2.845   0.492   1.517
 3644SOL    HW211832   2.848   0.332   1.485
 3645SOL     OW11833   1.346   3.840   4.407
 3645SOL    HW111834   1.273   3.898   4.444
 3645SOL    HW211835   1.380   3.880   4.322
 3646SOL     OW11836   1.954   5.086   4.710
 3646SOL    HW111837   1.956   5.003   4.654
 3646SOL    HW211838   1.973   5.061   4.805
 3647SOL     OW11839   2.698   6.347   6.725
 3647SOL    HW111840   2.618   6.334   6.784
 3647SOL    HW211841   2.688   6.292   6.643
 3648SOL     OW11842   5.062   6.196   3.228
 3648SOL    HW111843   5.036   6.109   3.269
 3648SOL    HW211844   5.124   6.180   3.151
 3649SOL     OW11845   6.080   4.171   0.212
 3649SOL    HW111846   6.055   4.094   0.271
 3649SOL    HW211847   6.178   4.188   0.222
 3650SOL     OW11848   5.669   4.320   1.053
 3650SOL    HW111849   5.636   4.276   1.137
 3650SOL    HW211850   5.721   4.254   0.999
 3651SOL     OW11851   1.828   1.621   4.626
 3651SOL    HW111852   1.801   1.589   4.535
 3651SOL    HW211853   1.849   1.719   4.622
 3652SOL     OW11854   5.735   0.332   2.606
 3652SOL    HW111855   5.674   0.370   2.676
 3652SOL    HW211856   5.771   0.245   2.638
 3653SOL     OW11857   1.304   1.055   2.957
 3653SOL    HW111858   1.371   1.048   2.883
 3653SOL    HW211859   1.326   0.988   3.028
 3654SOL     OW11860   5.220   6.085   0.534
 3654SOL    HW111861   5.181   6.013   0.477
 3654SOL    HW211862   5.319   6.072   0.541
 3655SOL     OW11863   2.988   1.303   3.877
 3655SOL    HW111864   2.942   1.362   3.943
 3655SOL    HW211865   2.919   1.258   3.819
 3656SOL     OW11866   1.179   5.048   1.181
 3656SOL    HW111867   1.122   5.017   1.105
 3656SOL    HW211868   1.187   4.976   1.249
 3657SOL     OW11869   4.833   5.674   5.359
 3657SOL    HW111870   4.779   5.728   5.424
 3657SOL    HW211871   4.771   5.634   5.291
 3658SOL     OW11872   1.850   4.708   6.164
 3658SOL    HW111873   1.856   4.696   6.263
 3658SOL    HW211874   1.838   4.619   6.120
 3659SOL     OW11875   0.416   1.711   6.438
 3659SOL    HW111876   0.509   1.749   6.434
 3659SOL    HW211877   0.420   1.619   6.476
 3660SOL     OW11878   6.225   6.455   5.171
 3660SOL    HW111879   6.140   6.429   5.125
 3660SOL    HW211880   6.294   6.385   5.155
 3661SOL     OW11881   0.309   0.327   4.352
 3661SOL    HW111882   0.368   0.358   4.426
 3661SOL    HW211883   0.345   0.360   4.265
 3662SOL     OW11884   3.560   0.690   4.665
 3662SOL    HW111885   3.604   0.780   4.663
 3662SOL    HW211886   3.624   0.623   4.703
 3663SOL     OW11887   2.412   2.734   6.707
 3663SOL    HW111888   2.316   2.707   6.696
 3663SOL    HW211889   2.440   2.716   6.802
 3664SOL     OW11890   3.569   1.730   2.015
 3664SOL    HW111891   3.523   1.810   1.978
 3664SOL    HW211892   3.629   1.690   1.945
 3665SOL     OW11893   0.697   6.000   5.784
 3665SOL    HW111894   0.657   6.018   5.694
 3665SOL    HW211895   0.788   6.042   5.788
 3666SOL     OW11896   1.256   3.140   3.196
 3666SOL    HW111897   1.170   3.185   3.221
 3666SOL    HW211898   1.238   3.066   3.132
 3667SOL     OW11899   0.980   1.310   3.875
 3667SOL    HW111900   1.048   1.312   3.949
 3667SOL    HW211901   0.950   1.403   3.854
 3668SOL     OW11902   1.024   0.508   1.223
 3668SOL    HW111903   1.011   0.418   1.265
 3668SOL    HW211904   0.937   0.542   1.188
 3669SOL     OW11905   5.902   1.658   3.949
 3669SOL    HW111906   5.837   1.619   4.014
 3669SOL    HW211907   5.958   1.586   3.910
 3670SOL     OW11908   3.081   4.933   1.195
 3670SOL    HW111909   3.011   4.880   1.148
 3670SOL    HW211910   3.046   5.024   1.217
 3671SOL     OW11911   6.499   1.354   2.567
 3671SOL    HW111912   6.451   1.383   2.484
 3671SOL    HW211913   6.463   1.404   2.646
 3672SOL     OW11914   4.867   1.513   2.749
 3672SOL    HW111915   4.928   1.436   2.732
 3672SOL    HW211916   4.829   1.506   2.841
 3673SOL     OW11917   4.162   5.216   0.022
 3673SOL    HW111918   4.070   5.226   0.060
 3673SOL    HW211919   4.225   5.187   0.093
 3674SOL     OW11920   1.553   6.112   5.958
 3674SOL    HW111921   1.623   6.046   5.932
 3674SOL    HW211922   1.556   6.190   5.895
 3675SOL     OW11923   0.069   3.141   3.759
 3675SOL    HW111924   0.120   3.157   3.844
 3675SOL    HW211925   7.015   3.078   3.777
 3676SOL     OW11926   5.519   2.563   2.993
 3676SOL    HW111927   5.517   2.504   3.074
 3676SOL    HW211928   5.444   2.628   2.998
 3677SOL     OW11929   2.224   0.827   5.195
 3677SOL    HW111930   2.167   0.819   5.113
 3677SOL    HW211931   2.307   0.878   5.173
 3678SOL     OW11932   1.186   1.768   4.527
 3678SOL    HW111933   1.221   1.852   4.568
 3678SOL    HW211934   1.097   1.787   4.484
 3679SOL     OW11935   6.110   0.168   3.607
 3679SOL    HW111936   6.074   0.086   3.563
 3679SOL    HW211937   6.050   0.195   3.682
 3680SOL     OW11938   4.551   2.214   3.683
 3680SOL    HW111939   4.498   2.153   3.743
 3680SOL    HW211940   4.560   2.172   3.593
 3681SOL     OW11941   0.353   1.169   6.110
 3681SOL    HW111942   0.451   1.186   6.104
 3681SOL    HW211943   0.330   1.131   6.199
 3682SOL     OW11944   4.937   2.233   0.862
 3682SOL    HW111945   4.964   2.168   0.791
 3682SOL    HW211946   4.966   2.198   0.952
 3683SOL     OW11947   0.355   0.578   4.726
 3683SOL    HW111948   0.435   0.554   4.781
 3683SOL    HW211949   0.287   0.504   4.732
 3684SOL     OW11950   2.092   6.350   6.683
 3684SOL    HW111951   2.008   6.341   6.631
 3684SOL    HW211952   2.070   6.355   6.781
 3685SOL     OW11953   2.764   5.980   4.965
 3685SOL    HW111954   2.730   6.056   5.021
 3685SOL    HW211955   2.710   5.975   4.880
 3686SOL     OW11956   6.874   4.437   4.168
 3686SOL    HW111957   6.924   4.505   4.221
 3686SOL    HW211958   6.777   4.463   4.165
 3687SOL     OW11959   5.406   7.007   3.233
 3687SOL    HW111960   5.361   6.977   3.318
 3687SOL    HW211961   5.378   6.947   3.158
 3688SOL     OW11962   6.018   3.334   0.181
 3688SOL    HW111963   5.983   3.396   0.110
 3688SOL    HW211964   6.096   3.283   0.146
 3689SOL     OW11965   2.183   1.992   5.608
 3689SOL    HW111966   2.272   2.023   5.643
 3689SOL    HW211967   2.116   1.992   5.682
 3690SOL     OW11968   5.199   5.559   1.124
 3690SOL    HW111969   5.297   5.556   1.143
 3690SOL    HW211970   5.180   5.636   1.063
 3691SOL     OW11971   2.543   2.286   6.018
 3691SOL    HW111972   2.643   2.291   6.026
 3691SOL    HW211973   2.513   2.331   5.934
 3692SOL     OW11974   6.569   4.477   5.923
 3692SOL    HW111975   6.528   4.388   5.943
 3692SOL    HW211976   6.529   4.546   5.984
 3693SOL     OW11977   1.354   1.974   2.755
 3693SOL    HW111978   1.267   1.998   2.712
 3693SOL    HW211979   1.420   1.946   2.685
 3694SOL     OW11980   1.085   0.494   1.521
 3694SOL    HW111981   1.002   0.439   1.526
 3694SOL    HW211982   1.139   0.466   1.442
 3695SOL     OW11983   6.017   1.888   1.618
 3695SOL    HW111984   6.056   1.863   1.707
 3695SOL    HW211985   5.918   1.898   1.627
 3696SOL     OW11986   5.252   0.703   5.481
 3696SOL    HW111987   5.178   0.766   5.504
 3696SOL    HW211988   5.317   0.748   5.419
 3697SOL     OW11989   6.103   6.032   3.267
 3697SOL    HW111990   6.134   5.939   3.287
 3697SOL    HW211991   6.174   6.097   3.296
 3698SOL     OW11992   2.615   1.519   3.519
 3698SOL    HW111993   2.637   1.548   3.612
 3698SOL    HW211994   2.521   1.545   3.498
 3699SOL     OW11995   2.184   2.310   3.407
 3699SOL    HW111996   2.162   2.387   3.347
 3699SOL    HW211997   2.146   2.226   3.370
 3700SOL     OW11998   1.663   5.615   5.030
 3700SOL    HW111999   1.607   5.537   5.055
 3700SOL    HW212000   1.726   5.589   4.956
 3701SOL     OW12001   0.590   6.362   2.215
 3701SOL    HW112002   0.611   6.456   2.188
 3701SOL    HW212003   0.622   6.300   2.143
 3702SOL     OW12004   5.111   6.644   3.673
 3702SOL    HW112005   5.051   6.614   3.747
 3702SOL    HW212006   5.058   6.654   3.589
 3703SOL     OW12007   0.415   0.856   6.456
 3703SOL    HW112008   0.450   0.837   6.548
 3703SOL    HW212009   0.488   0.842   6.389
 3704SOL     OW12010   5.528   3.518   0.769
 3704SOL    HW112011   5.437   3.478   0.774
 3704SOL    HW212012   5.586   3.479   0.840
 3705SOL     OW12013   4.594   4.734   3.467
 3705SOL    HW112014   4.578   4.678   3.385
 3705SOL    HW212015   4.571   4.680   3.548
 3706SOL     OW12016   0.552   4.048   6.900
 3706SOL    HW112017   0.521   4.023   6.809
 3706SOL    HW212018   0.598   4.137   6.897
 3707SOL     OW12019   3.840   5.238   3.659
 3707SOL    HW112020   3.916   5.197   3.708
 3707SOL    HW212021   3.802   5.313   3.713
 3708SOL     OW12022   4.484   0.241   1.486
 3708SOL    HW112023   4.416   0.239   1.560
 3708SOL    HW212024   4.574   0.262   1.524
 3709SOL     OW12025   2.430   0.023   1.679
 3709SOL    HW112026   2.446   6.946   1.673
 3709SOL    HW212027   2.434   0.063   1.587
 3710SOL     OW12028   0.538   5.443   5.277
 3710SOL    HW112029   0.575   5.478   5.191
 3710SOL    HW212030   0.473   5.369   5.257
 3711SOL     OW12031   1.411   6.330   5.070
 3711SOL    HW112032   1.358   6.274   5.134
 3711SOL    HW212033   1.465   6.271   5.011
 3712SOL     OW12034   2.205   5.471   6.390
 3712SOL    HW112035   2.198   5.374   6.366
 3712SOL    HW212036   2.285   5.511   6.345
 3713SOL     OW12037   0.289   6.672   5.099
 3713SOL    HW112038   0.301   6.683   5.001
 3713SOL    HW212039   0.196   6.640   5.118
 3714SOL     OW12040   0.399   5.093   6.992
 3714SOL    HW112041   0.424   5.099   0.067
 3714SOL    HW212042   0.477   5.060   6.939
 3715SOL     OW12043   0.442   5.060   2.974
 3715SOL    HW112044   0.435   5.148   3.021
 3715SOL    HW212045   0.532   5.020   2.992
 3716SOL     OW12046   6.110   5.245   3.929
 3716SOL    HW112047   6.075   5.286   3.845
 3716SOL    HW212048   6.180   5.304   3.968
 3717SOL     OW12049   5.345   1.486   0.267
 3717SOL    HW112050   5.430   1.538   0.257
 3717SOL    HW212051   5.359   1.393   0.234
 3718SOL     OW12052   0.984   0.291   0.040
 3718SOL    HW112053   1.014   0.199   0.067
 3718SOL    HW212054   1.038   0.322   6.984
 3719SOL     OW12055   4.293   2.875   6.563
 3719SOL    HW112056   4.390   2.851   6.564
 3719SOL    HW212057   4.279   2.961   6.612
 3720SOL     OW12058   5.458   3.802   0.668
 3720SOL    HW112059   5.410   3.848   0.743
 3720SOL    HW212060   5.488   3.711   0.699
 3721SOL     OW12061   6.753   5.053   0.192
 3721SOL    HW112062   6.671   5.110   0.191
 3721SOL    HW212063   6.732   4.964   0.152
 3722SOL     OW12064   4.715   0.147   1.322
 3722SOL    HW112065   4.618   0.171   1.330
 3722SOL    HW212066   4.764   0.180   1.402
 3723SOL     OW12067   4.641   5.012   0.079
 3723SOL    HW112068   4.676   5.100   0.045
 3723SOL    HW212069   4.695   4.983   0.158
 3724SOL     OW12070   1.846   5.008   5.284
 3724SOL    HW112071   1.874   4.966   5.371
 3724SOL    HW212072   1.777   4.951   5.240
 3725SOL     OW12073   0.317   6.065   6.809
 3725SOL    HW112074   0.276   6.081   6.898
 3725SOL    HW212075   0.391   5.998   6.817
 3726SOL     OW12076   5.059   3.888   5.361
 3726SOL    HW112077   5.037   3.980   5.392
 3726SOL    HW212078   4.975   3.833   5.358
 3727SOL     OW12079   6.800   3.159   4.684
 3727SOL    HW112080   6.869   3.160   4.612
 3727SOL    HW212081   6.753   3.247   4.686
 3728SOL     OW12082   2.758   3.700   0.034
 3728SOL    HW112083   2.749   3.741   0.125
 3728SOL    HW212084   2.671   3.710   7.007
 3729SOL     OW12085   0.708   0.163   4.194
 3729SOL    HW112086   0.740   0.258   4.200
 3729SOL    HW212087   0.776   0.102   4.234
 3730SOL     OW12088   4.202   6.228   5.648
 3730SOL    HW112089   4.251   6.311   5.675
 3730SOL    HW212090   4.172   6.179   5.729
 3731SOL     OW12091   0.660   1.503   0.332
 3731SOL    HW112092   0.665   1.453   0.246
 3731SOL    HW212093   0.594   1.578   0.324
 3732SOL     OW12094   1.869   1.446   0.824
 3732SOL    HW112095   1.798   1.438   0.894
 3732SOL    HW212096   1.919   1.532   0.837
 3733SOL     OW12097   1.899   3.031   3.503
 3733SOL    HW112098   1.862   3.048   3.594
 3733SOL    HW212099   1.920   2.934   3.493
 3734SOL     OW12100   3.656   1.012   1.582
 3734SOL    HW112101   3.589   1.003   1.656
 3734SOL    HW212102   3.734   0.952   1.600
 3735SOL     OW12103   3.773   0.568   2.535
 3735SOL    HW112104   3.784   0.663   2.507
 3735SOL    HW212105   3.789   0.560   2.633
 3736SOL     OW12106   6.567   1.097   1.309
 3736SOL    HW112107   6.526   1.020   1.358
 3736SOL    HW212108   6.665   1.080   1.298
 3737SOL     OW12109   5.901   2.480   4.082
 3737SOL    HW112110   5.837   2.472   4.158
 3737SOL    HW212111   5.875   2.416   4.009
 3738SOL     OW12112   6.286   5.977   0.957
 3738SOL    HW112113   6.195   5.935   0.962
 3738SOL    HW212114   6.279   6.065   0.909
 3739SOL     OW12115   2.983   4.574   1.600
 3739SOL    HW112116   2.910   4.622   1.550
 3739SOL    HW212117   2.947   4.544   1.689
 3740SOL     OW12118   5.892   5.720   0.392
 3740SOL    HW112119   5.922   5.786   0.461
 3740SOL    HW212120   5.792   5.714   0.394
 3741SOL     OW12121   4.765   3.232   6.924
 3741SOL    HW112122   4.845   3.173   6.913
 3741SOL    HW212123   4.695   3.206   6.856
 3742SOL     OW12124   4.778   6.015   0.471
 3742SOL    HW112125   4.777   6.106   0.431
 3742SOL    HW212126   4.810   6.021   0.566
 3743SOL     OW12127   4.673   4.387   1.354
 3743SOL    HW112128   4.634   4.338   1.433
 3743SOL    HW212129   4.604   4.395   1.282
 3744SOL     OW12130   0.813   6.036   2.700
 3744SOL    HW112131   0.793   6.044   2.602
 3744SOL    HW212132   0.775   6.114   2.749
 3745SOL     OW12133   4.864   4.038   2.241
 3745SOL    HW112134   4.837   3.987   2.159
 3745SOL    HW212135   4.804   4.116   2.253
 3746SOL     OW12136   6.767   0.751   3.266
 3746SOL    HW112137   6.793   0.839   3.227
 3746SOL    HW212138   6.670   0.735   3.252
 3747SOL     OW12139   4.933   6.374   5.706
 3747SOL    HW112140   4.957   6.277   5.705
 3747SOL    HW212141   4.922   6.404   5.801
 3748SOL     OW12142   5.529   0.873   2.132
 3748SOL    HW112143   5.550   0.778   2.110
 3748SOL    HW212144   5.504   0.922   2.048
 3749SOL     OW12145   1.536   4.904   2.981
 3749SOL    HW112146   1.533   5.001   2.956
 3749SOL    HW212147   1.631   4.879   3.003
 3750SOL     OW12148   5.615   4.584   0.964
 3750SOL    HW112149   5.615   4.626   0.873
 3750SOL    HW212150   5.620   4.485   0.954
 3751SOL     OW12151   0.383   2.374   0.741
 3751SOL    HW112152   0.378   2.469   0.710
 3751SOL    HW212153   0.325   2.361   0.821
 3752SOL     OW12154   0.546   6.872   0.077
 3752SOL    HW112155   0.478   6.809   0.113
 3752SOL    HW212156   0.625   6.874   0.138
 3753SOL     OW12157   0.659   6.850   5.218
 3753SOL    HW112158   0.757   6.838   5.202
 3753SOL    HW212159   0.615   6.760   5.222
 3754SOL     OW12160   5.230   6.506   1.562
 3754SOL    HW112161   5.239   6.603   1.540
 3754SOL    HW212162   5.318   6.469   1.591
 3755SOL     OW12163   5.675   5.445   4.298
 3755SOL    HW112164   5.725   5.369   4.340
 3755SOL    HW212165   5.696   5.449   4.201
 3756SOL     OW12166   1.752   0.579   6.350
 3756SOL    HW112167   1.747   0.493   6.401
 3756SOL    HW212168   1.843   0.590   6.310
 3757SOL     OW12169   3.559   5.892   6.082
 3757SOL    HW112170   3.641   5.848   6.045
 3757SOL    HW212171   3.562   5.990   6.064
 3758SOL     OW12172   1.515   1.629   4.849
 3758SOL    HW112173   1.456   1.577   4.788
 3758SOL    HW212174   1.607   1.589   4.849
 3759SOL     OW12175   4.094   5.121   5.321
 3759SOL    HW112176   4.082   5.077   5.232
 3759SOL    HW212177   4.182   5.093   5.360
 3760SOL     OW12178   1.224   4.170   4.179
 3760SOL    HW112179   1.256   4.254   4.135
 3760SOL    HW212180   1.268   4.092   4.135
 3761SOL     OW12181   1.022   6.756   4.944
 3761SOL    HW112182   0.972   6.730   4.862
 3761SOL    HW212183   1.100   6.695   4.957
 3762SOL     OW12184   0.518   4.770   6.868
 3762SOL    HW112185   0.560   4.860   6.868
 3762SOL    HW212186   0.425   4.776   6.831
 3763SOL     OW12187   6.894   4.739   0.206
 3763SOL    HW112188   6.846   4.798   0.141
 3763SOL    HW212189   6.989   4.768   0.213
 3764SOL     OW12190   1.862   0.778   4.841
 3764SOL    HW112191   1.839   0.681   4.839
 3764SOL    HW212192   1.921   0.800   4.763
 3765SOL     OW12193   5.067   0.923   1.693
 3765SOL    HW112194   5.141   0.989   1.676
 3765SOL    HW212195   5.035   0.932   1.787
 3766SOL     OW12196   0.724   0.538   4.428
 3766SOL    HW112197   0.781   0.500   4.355
 3766SOL    HW212198   0.635   0.492   4.429
 3767SOL     OW12199   2.425   4.748   0.314
 3767SOL    HW112200   2.522   4.723   0.313
 3767SOL    HW212201   2.415   4.842   0.344
 3768SOL     OW12202   3.362   5.908   6.281
 3768SOL    HW112203   3.298   5.970   6.235
 3768SOL    HW212204   3.443   5.895   6.224
 3769SOL     OW12205   5.651   5.977   5.189
 3769SOL    HW112206   5.653   6.054   5.125
 3769SOL    HW212207   5.713   5.997   5.265
 3770SOL     OW12208   2.053   6.996   6.560
 3770SOL    HW112209   2.132   7.017   6.618
 3770SOL    HW212210   1.990   6.938   6.611
 3771SOL     OW12211   5.273   2.156   0.554
 3771SOL    HW112212   5.315   2.162   0.463
 3771SOL    HW212213   5.272   2.061   0.584
 3772SOL     OW12214   6.425   1.484   1.014
 3772SOL    HW112215   6.377   1.555   1.065
 3772SOL    HW212216   6.458   1.414   1.078
 3773SOL     OW12217   5.336   2.596   6.270
 3773SOL    HW112218   5.281   2.513   6.280
 3773SOL    HW212219   5.358   2.610   6.173
 3774SOL     OW12220   1.212   6.467   0.033
 3774SOL    HW112221   1.249   6.426   0.116
 3774SOL    HW212222   1.242   6.563   0.026
 3775SOL     OW12223   5.234   3.707   2.183
 3775SOL    HW112224   5.306   3.773   2.160
 3775SOL    HW212225   5.216   3.711   2.282
 3776SOL     OW12226   3.191   1.582   1.413
 3776SOL    HW112227   3.291   1.584   1.411
 3776SOL    HW212228   3.157   1.665   1.458
 3777SOL     OW12229   2.699   4.816   4.209
 3777SOL    HW112230   2.677   4.760   4.289
 3777SOL    HW212231   2.751   4.897   4.238
 3778SOL     OW12232   2.264   5.951   2.955
 3778SOL    HW112233   2.264   5.852   2.970
 3778SOL    HW212234   2.252   5.970   2.857
 3779SOL     OW12235   2.667   4.655   6.937
 3779SOL    HW112236   2.648   4.558   6.950
 3779SOL    HW212237   2.763   4.673   6.958
 3780SOL     OW12238   3.584   5.127   4.817
 3780SOL    HW112239   3.547   5.052   4.762
 3780SOL    HW212240   3.608   5.092   4.908
 3781SOL     OW12241   1.596   6.914   4.068
 3781SOL    HW112242   1.547   6.903   3.982
 3781SOL    HW212243   1.694   6.899   4.052
 3782SOL     OW12244   2.962   2.233   4.317
 3782SOL    HW112245   2.956   2.327   4.351
 3782SOL    HW212246   2.927   2.170   4.386
 3783SOL     OW12247   6.531   6.499   4.940
 3783SOL    HW112248   6.629   6.516   4.932
 3783SOL    HW212249   6.495   6.463   4.854
 3784SOL     OW12250   4.311   1.779   3.282
 3784SOL    HW112251   4.363   1.851   3.236
 3784SOL    HW212252   4.294   1.704   3.218
 3785SOL     OW12253   2.308   1.231   6.554
 3785SOL    HW112254   2.315   1.221   6.653
 3785SOL    HW212255   2.396   1.259   6.517
 3786SOL     OW12256   3.013   5.970   3.306
 3786SOL    HW112257   3.044   5.938   3.217
 3786SOL    HW212258   2.916   5.992   3.302
 3787SOL     OW12259   5.672   6.125   3.683
 3787SOL    HW112260   5.625   6.133   3.595
 3787SOL    HW212261   5.759   6.077   3.670
 3788SOL     OW12262   0.283   2.975   3.255
 3788SOL    HW112263   0.221   2.974   3.177
 3788SOL    HW212264   0.311   3.069   3.275
 3789SOL     OW12265   1.605   4.231   3.894
 3789SOL    HW112266   1.644   4.285   3.820
 3789SOL    HW212267   1.507   4.249   3.902
 3790SOL     OW12268   1.690   3.660   5.026
 3790SOL    HW112269   1.640   3.578   5.054
 3790SOL    HW212270   1.770   3.672   5.085
 3791SOL     OW12271   6.016   0.083   1.088
 3791SOL    HW112272   5.980   0.088   1.182
 3791SOL    HW212273   5.977   0.157   1.034
 3792SOL     OW12274   6.683   0.616   4.687
 3792SOL    HW112275   6.598   0.667   4.704
 3792SOL    HW212276   6.674   0.524   4.727
 3793SOL     OW12277   2.596   0.360   3.256
 3793SOL    HW112278   2.650   0.278   3.274
 3793SOL    HW212279   2.635   0.410   3.179
 3794SOL     OW12280   3.555   5.039   1.838
 3794SOL    HW112281   3.622   5.037   1.764
 3794SOL    HW212282   3.551   4.949   1.882
 3795SOL     OW12283   4.406   6.306   0.061
 3795SOL    HW112284   4.425   6.272   6.991
 3795SOL    HW212285   4.336   6.377   0.056
 3796SOL     OW12286   2.175   2.324   1.669
 3796SOL    HW112287   2.115   2.395   1.632
 3796SOL    HW212288   2.230   2.362   1.743
 3797SOL     OW12289   6.700   5.120   2.614
 3797SOL    HW112290   6.658   5.185   2.678
 3797SOL    HW212291   6.798   5.114   2.633
 3798SOL     OW12292   2.819   5.187   3.354
 3798SOL    HW112293   2.850   5.173   3.260
 3798SOL    HW212294   2.728   5.227   3.355
 3799SOL     OW12295   0.817   2.403   4.680
 3799SOL    HW112296   0.836   2.408   4.582
 3799SOL    HW212297   0.731   2.449   4.700
 3800SOL     OW12298   5.469   2.379   5.143
 3800SOL    HW112299   5.458   2.356   5.047
 3800SOL    HW212300   5.382   2.413   5.180
 3801SOL     OW12301   0.056   6.384   4.935
 3801SOL    HW112302   0.034   6.472   4.979
 3801SOL    HW212303   0.038   6.310   5.000
 3802SOL     OW12304   0.664   1.675   4.768
 3802SOL    HW112305   0.613   1.615   4.829
 3802SOL    HW212306   0.602   1.745   4.731
 3803SOL     OW12307   3.752   1.527   1.886
 3803SOL    HW112308   3.773   1.536   1.984
 3803SOL    HW212309   3.693   1.448   1.871
 3804SOL     OW12310   5.076   2.315   4.464
 3804SOL    HW112311   4.983   2.286   4.487
 3804SOL    HW212312   5.072   2.401   4.414
 3805SOL     OW12313   2.798   3.841   1.681
 3805SOL    HW112314   2.804   3.939   1.701
 3805SOL    HW212315   2.864   3.792   1.738
 3806SOL     OW12316   2.685   2.973   0.082
 3806SOL    HW112317   2.775   3.008   0.058
 3806SOL    HW212318   2.627   2.970   7.021
 3807SOL     OW12319   2.287   1.622   4.738
 3807SOL    HW112320   2.360   1.557   4.715
 3807SOL    HW212321   2.198   1.580   4.721
 3808SOL     OW12322   3.385   1.166   1.851
 3808SOL    HW112323   3.296   1.212   1.849
 3808SOL    HW212324   3.455   1.230   1.819
 3809SOL     OW12325   6.198   1.712   0.013
 3809SOL    HW112326   6.255   1.745   6.960
 3809SOL    HW212327   6.164   1.621   7.012
 3810SOL     OW12328   3.924   2.834   5.483
 3810SOL    HW112329   3.830   2.866   5.471
 3810SOL    HW212330   3.931   2.739   5.450
 3811SOL     OW12331   1.139   4.460   4.710
 3811SOL    HW112332   1.237   4.444   4.697
 3811SOL    HW212333   1.086   4.390   4.663
 3812SOL     OW12334   5.765   1.542   5.733
 3812SOL    HW112335   5.706   1.621   5.748
 3812SOL    HW212336   5.767   1.485   5.815
 3813SOL     OW12337   4.232   4.543   1.129
 3813SOL    HW112338   4.257   4.588   1.043
 3813SOL    HW212339   4.314   4.521   1.181
 3814SOL     OW12340   0.462   6.385   1.219
 3814SOL    HW112341   0.436   6.336   1.302
 3814SOL    HW212342   0.444   6.327   1.139
 3815SOL     OW12343   4.361   2.154   0.491
 3815SOL    HW112344   4.411   2.121   0.571
 3815SOL    HW212345   4.375   2.253   0.483
 3816SOL     OW12346   0.230   6.697   1.371
 3816SOL    HW112347   0.192   6.767   1.432
 3816SOL    HW212348   0.190   6.707   1.280
 3817SOL     OW12349   4.730   2.846   3.817
 3817SOL    HW112350   4.756   2.750   3.818
 3817SOL    HW212351   4.655   2.860   3.752
 3818SOL     OW12352   4.832   6.454   1.527
 3818SOL    HW112353   4.865   6.481   1.618
 3818SOL    HW212354   4.800   6.359   1.531
 3819SOL     OW12355   5.257   4.639   0.749
 3819SOL    HW112356   5.342   4.652   0.698
 3819SOL    HW212357   5.225   4.544   0.738
 3820SOL     OW12358   6.334   6.657   3.797
 3820SOL    HW112359   6.365   6.563   3.779
 3820SOL    HW212360   6.367   6.717   3.725
 3821SOL     OW12361   1.580   3.276   2.014
 3821SOL    HW112362   1.670   3.320   2.018
 3821SOL    HW212363   1.514   3.333   2.064
 3822SOL     OW12364   1.071   5.424   2.206
 3822SOL    HW112365   1.016   5.348   2.238
 3822SOL    HW212366   1.018   5.480   2.143
 3823SOL     OW12367   4.142   2.096   5.356
 3823SOL    HW112368   4.087   2.128   5.279
 3823SOL    HW212369   4.121   2.150   5.437
 3824SOL     OW12370   6.092   1.758   5.643
 3824SOL    HW112371   6.087   1.667   5.603
 3824SOL    HW212372   6.009   1.809   5.620
 3825SOL     OW12373   0.445   0.285   0.074
 3825SOL    HW112374   0.348   0.300   0.095
 3825SOL    HW212375   0.501   0.327   0.145
 3826SOL     OW12376   0.097   3.731   6.971
 3826SOL    HW112377   0.046   3.667   0.007
 3826SOL    HW212378   0.190   3.697   6.957
 3827SOL     OW12379   3.666   3.855   1.065
 3827SOL    HW112380   3.730   3.786   1.099
 3827SOL    HW212381   3.655   3.845   0.966
 3828SOL     OW12382   4.516   2.280   1.377
 3828SOL    HW112383   4.541   2.193   1.418
 3828SOL    HW212384   4.562   2.355   1.425
 3829SOL     OW12385   2.374   4.843   3.907
 3829SOL    HW112386   2.383   4.835   3.808
 3829SOL    HW212387   2.458   4.881   3.945
 3830SOL     OW12388   1.153   0.018   4.852
 3830SOL    HW112389   1.075   0.043   4.909
 3830SOL    HW212390   1.169   6.941   4.860
 3831SOL     OW12391   4.651   1.734   2.427
 3831SOL    HW112392   4.577   1.686   2.475
 3831SOL    HW212393   4.615   1.816   2.383
 3832SOL     OW12394   6.135   0.446   2.091
 3832SOL    HW112395   6.113   0.379   2.160
 3832SOL    HW212396   6.216   0.417   2.040
 3833SOL     OW12397   0.876   5.724   6.475
 3833SOL    HW112398   0.896   5.629   6.454
 3833SOL    HW212399   0.958   5.780   6.459
 3834SOL     OW12400   3.230   2.230   0.049
 3834SOL    HW112401   3.203   2.300   7.003
 3834SOL    HW212402   3.210   2.263   0.141
 3835SOL     OW12403   3.299   5.137   5.407
 3835SOL    HW112404   3.368   5.066   5.417
 3835SOL    HW212405   3.332   5.222   5.449
 3836SOL     OW12406   2.132   3.142   5.142
 3836SOL    HW112407   2.222   3.098   5.140
 3836SOL    HW212408   2.062   3.076   5.112
 3837SOL     OW12409   4.723   3.467   0.463
 3837SOL    HW112410   4.762   3.448   0.373
 3837SOL    HW212411   4.623   3.473   0.455
 3838SOL     OW12412   5.596   3.671   4.664
 3838SOL    HW112413   5.671   3.638   4.607
 3838SOL    HW212414   5.614   3.646   4.760
 3839SOL     OW12415   4.561   6.936   4.967
 3839SOL    HW112416   4.605   0.004   4.977
 3839SOL    HW212417   4.513   6.913   5.052
 3840SOL     OW12418   1.155   0.787   5.772
 3840SOL    HW112419   1.195   0.818   5.686
 3840SOL    HW212420   1.199   0.834   5.848
 3841SOL     OW12421   0.338   3.764   5.266
 3841SOL    HW112422   0.268   3.709   5.312
 3841SOL    HW212423   0.421   3.710   5.256
 3842SOL     OW12424   0.908   5.519   0.367
 3842SOL    HW112425   0.888   5.602   0.417
 3842SOL    HW212426   0.915   5.442   0.431
 3843SOL     OW12427   6.909   3.038   1.223
 3843SOL    HW112428   6.817   3.008   1.199
 3843SOL    HW212429   6.904   3.126   1.269
 3844SOL     OW12430   0.883   4.929   5.608
 3844SOL    HW112431   0.828   4.877   5.542
 3844SOL    HW212432   0.973   4.887   5.618
 3845SOL     OW12433   3.282   2.886   2.685
 3845SOL    HW112434   3.316   2.843   2.768
 3845SOL    HW212435   3.229   2.967   2.709
 3846SOL     OW12436   0.333   4.952   4.223
 3846SOL    HW112437   0.308   4.961   4.126
 3846SOL    HW212438   0.351   4.856   4.244
 3847SOL     OW12439   6.224   1.103   6.220
 3847SOL    HW112440   6.184   1.193   6.206
 3847SOL    HW212441   6.276   1.077   6.139
 3848SOL     OW12442   2.022   5.534   3.069
 3848SOL    HW112443   2.023   5.549   2.970
 3848SOL    HW212444   1.928   5.532   3.102
 3849SOL     OW12445   0.514   1.450   5.509
 3849SOL    HW112446   0.423   1.436   5.469
 3849SOL    HW212447   0.511   1.528   5.571
 3850SOL     OW12448   2.566   3.435   1.696
 3850SOL    HW112449   2.552   3.466   1.602
 3850SOL    HW212450   2.523   3.499   1.759
 3851SOL     OW12451   1.891   4.410   2.610
 3851SOL    HW112452   1.889   4.509   2.606
 3851SOL    HW212453   1.851   4.379   2.697
 3852SOL     OW12454   4.433   6.432   4.941
 3852SOL    HW112455   4.365   6.374   4.894
 3852SOL    HW212456   4.487   6.375   5.003
 3853SOL     OW12457   1.036   3.380   2.352
 3853SOL    HW112458   1.103   3.436   2.304
 3853SOL    HW212459   1.014   3.421   2.440
 3854SOL     OW12460   0.817   3.660   3.381
 3854SOL    HW112461   0.757   3.581   3.369
 3854SOL    HW212462   0.904   3.643   3.334
 3855SOL     OW12463   5.867   4.904   6.391
 3855SOL    HW112464   5.928   4.940   6.321
 3855SOL    HW212465   5.796   4.849   6.348
 3856SOL     OW12466   0.105   0.645   5.590
 3856SOL    HW112467   0.198   0.680   5.576
 3856SOL    HW212468   0.107   0.545   5.593
 3857SOL     OW12469   1.692   6.943   5.023
 3857SOL    HW112470   1.721   0.018   5.026
 3857SOL    HW212471   1.770   6.885   5.002
 3858SOL     OW12472   1.293   6.107   6.021
 3858SOL    HW112473   1.386   6.091   6.055
 3858SOL    HW212474   1.256   6.022   5.985
 3859SOL     OW12475   6.857   2.286   3.954
 3859SOL    HW112476   6.879   2.189   3.942
 3859SOL    HW212477   6.913   2.341   3.893
 3860SOL     OW12478   2.496   6.335   4.321
 3860SOL    HW112479   2.545   6.249   4.333
 3860SOL    HW212480   2.399   6.317   4.311
 3861SOL     OW12481   5.476   4.844   1.314
 3861SOL    HW112482   5.550   4.911   1.306
 3861SOL    HW212483   5.398   4.884   1.362
 3862SOL     OW12484   6.902   6.894   6.395
 3862SOL    HW112485   6.999   6.911   6.377
 3862SOL    HW212486   6.893   6.838   6.477
 3863SOL     OW12487   3.466   3.685   0.052
 3863SOL    HW112488   3.477   3.651   0.146
 3863SOL    HW212489   3.483   3.783   0.050
 3864SOL     OW12490   4.456   1.951   6.485
 3864SOL    HW112491   4.454   2.050   6.471
 3864SOL    HW212492   4.363   1.915   6.478
 3865SOL     OW12493   3.791   0.456   2.218
 3865SOL    HW112494   3.746   0.545   2.227
 3865SOL    HW212495   3.782   0.406   2.304
 3866SOL     OW12496   4.264   0.657   0.443
 3866SOL    HW112497   4.173   0.697   0.430
 3866SOL    HW212498   4.254   0.560   0.464
 3867SOL     OW12499   1.800   3.910   3.599
 3867SOL    HW112500   1.715   3.860   3.613
 3867SOL    HW212501   1.819   3.916   3.501
 3868SOL     OW12502   1.981   5.785   1.785
 3868SOL    HW112503   1.977   5.686   1.770
 3868SOL    HW212504   1.926   5.831   1.716
 3869SOL     OW12505   0.192   2.706   3.636
 3869SOL    HW112506   0.114   2.723   3.696
 3869SOL    HW212507   0.228   2.614   3.652
 3870SOL     OW12508   3.283   4.949   6.663
 3870SOL    HW112509   3.246   4.888   6.593
 3870SOL    HW212510   3.221   5.026   6.677
 3871SOL     OW12511   2.960   0.193   2.896
 3871SOL    HW112512   3.040   0.166   2.842
 3871SOL    HW212513   2.877   0.181   2.841
 3872SOL     OW12514   3.688   3.583   1.202
 3872SOL    HW112515   3.724   3.561   1.294
 3872SOL    HW212516   3.596   3.620   1.210
 3873SOL     OW12517   5.213   5.224   1.213
 3873SOL    HW112518   5.125   5.267   1.193
 3873SOL    HW212519   5.198   5.130   1.243
 3874SOL     OW12520   4.698   6.515   6.847
 3874SOL    HW112521   4.738   6.606   6.832
 3874SOL    HW212522   4.681   6.501   6.945
 3875SOL     OW12523   1.423   4.005   2.454
 3875SOL    HW112524   1.338   3.973   2.495
 3875SOL    HW212525   1.413   4.011   2.355
 3876SOL     OW12526   5.181   5.326   5.816
 3876SOL    HW112527   5.108   5.343   5.749
 3876SOL    HW212528   5.171   5.234   5.852
 3877SOL     OW12529   5.715   0.933   1.376
 3877SOL    HW112530   5.652   0.980   1.315
 3877SOL    HW212531   5.710   0.835   1.359
 3878SOL     OW12532   3.694   6.833   6.172
 3878SOL    HW112533   3.749   6.758   6.134
 3878SOL    HW212534   3.616   6.851   6.112
 3879SOL     OW12535   4.783   5.480   0.814
 3879SOL    HW112536   4.877   5.449   0.802
 3879SOL    HW212537   4.783   5.563   0.870
 3880SOL     OW12538   6.125   3.935   2.520
 3880SOL    HW112539   6.212   3.890   2.500
 3880SOL    HW212540   6.130   3.980   2.609
 3881SOL     OW12541   1.687   5.308   0.391
 3881SOL    HW112542   1.722   5.240   0.457
 3881SOL    HW212543   1.588   5.312   0.397
 3882SOL     OW12544   6.278   1.417   6.479
 3882SOL    HW112545   6.286   1.476   6.560
 3882SOL    HW212546   6.201   1.355   6.490
 3883SOL     OW12547   4.768   1.490   3.943
 3883SOL    HW112548   4.717   1.523   3.864
 3883SOL    HW212549   4.725   1.408   3.979
 3884SOL     OW12550   1.540   6.367   5.413
 3884SOL    HW112551   1.610   6.435   5.396
 3884SOL    HW212552   1.497   6.340   5.327
 3885SOL     OW12553   6.687   1.179   4.188
 3885SOL    HW112554   6.733   1.210   4.105
 3885SOL    HW212555   6.678   1.255   4.252
 3886SOL     OW12556   6.915   0.269   5.212
 3886SOL    HW112557   6.944   0.344   5.152
 3886SOL    HW212558   6.994   0.211   5.234
 3887SOL     OW12559   3.934   1.663   5.704
 3887SOL    HW112560   3.877   1.581   5.694
 3887SOL    HW212561   3.884   1.742   5.667
 3888SOL     OW12562   6.608   1.542   0.542
 3888SOL    HW112563   6.532   1.582   0.490
 3888SOL    HW212564   6.572   1.482   0.613
 3889SOL     OW12565   0.612   5.648   6.181
 3889SOL    HW112566   0.674   5.592   6.126
 3889SOL    HW212567   0.624   5.626   6.278
 3890SOL     OW12568   5.436   5.328   3.445
 3890SOL    HW112569   5.352   5.380   3.433
 3890SOL    HW212570   5.471   5.299   3.356
 3891SOL     OW12571   5.082   5.513   4.891
 3891SOL    HW112572   5.158   5.569   4.856
 3891SOL    HW212573   5.088   5.421   4.852
 3892SOL     OW12574   6.370   6.539   2.982
 3892SOL    HW112575   6.281   6.495   2.969
 3892SOL    HW212576   6.430   6.515   2.906
 3893SOL     OW12577   3.349   5.738   3.920
 3893SOL    HW112578   3.301   5.694   3.996
 3893SOL    HW212579   3.315   5.831   3.909
 3894SOL     OW12580   4.431   3.040   0.310
 3894SOL    HW112581   4.426   2.980   0.230
 3894SOL    HW212582   4.514   3.021   0.361
 3895SOL     OW12583   1.589   0.734   5.520
 3895SOL    HW112584   1.688   0.747   5.517
 3895SOL    HW212585   1.568   0.637   5.504
 3896SOL     OW12586   0.084   2.239   5.664
 3896SOL    HW112587   0.035   2.325   5.675
 3896SOL    HW212588   0.089   2.215   5.567
 3897SOL     OW12589   3.093   6.579   2.256
 3897SOL    HW112590   3.032   6.533   2.191
 3897SOL    HW212591   3.149   6.646   2.208
 3898SOL     OW12592   4.036   3.545   4.436
 3898SOL    HW112593   4.075   3.553   4.344
 3898SOL    HW212594   3.947   3.501   4.432
 3899SOL     OW12595   4.805   1.318   5.988
 3899SOL    HW112596   4.733   1.375   6.029
 3899SOL    HW212597   4.852   1.371   5.916
 3900SOL     OW12598   6.302   2.235   3.344
 3900SOL    HW112599   6.217   2.283   3.366
 3900SOL    HW212600   6.376   2.301   3.336
 3901SOL     OW12601   1.268   6.497   4.904
 3901SOL    HW112602   1.318   6.449   4.976
 3901SOL    HW212603   1.231   6.430   4.840
 3902SOL     OW12604   5.183   4.958   1.228
 3902SOL    HW112605   5.131   4.913   1.156
 3902SOL    HW212606   5.216   4.889   1.293
 3903SOL     OW12607   4.046   2.566   0.392
 3903SOL    HW112608   4.123   2.611   0.346
 3903SOL    HW212609   4.070   2.472   0.415
 3904SOL     OW12610   1.159   6.876   0.672
 3904SOL    HW112611   1.187   6.866   0.768
 3904SOL    HW212612   1.157   6.787   0.628
 3905SOL     OW12613   0.088   0.134   5.646
 3905SOL    HW112614   0.106   0.216   5.592
 3905SOL    HW212615   7.020   0.142   5.691
 3906SOL     OW12616   2.104   4.977   4.316
 3906SOL    HW112617   2.098   5.075   4.295
 3906SOL    HW212618   2.038   4.927   4.260
 3907SOL     OW12619   0.176   1.425   4.172
 3907SOL    HW112620   0.268   1.454   4.200
 3907SOL    HW212621   0.117   1.419   4.252
 3908SOL     OW12622   1.456   0.952   5.458
 3908SOL    HW112623   1.503   0.865   5.466
 3908SOL    HW212624   1.369   0.947   5.507
 3909SOL     OW12625   5.315   2.568   5.937
 3909SOL    HW112626   5.280   2.657   5.968
 3909SOL    HW212627   5.258   2.534   5.863
 3910SOL     OW12628   3.319   2.941   0.545
 3910SOL    HW112629   3.246   2.915   0.608
 3910SOL    HW212630   3.301   3.032   0.509
 3911SOL     OW12631   5.779   1.089   1.584
 3911SOL    HW112632   5.727   1.035   1.519
 3911SOL    HW212633   5.729   1.094   1.671
 3912SOL     OW12634   3.870   2.188   0.382
 3912SOL    HW112635   3.816   2.104   0.372
 3912SOL    HW212636   3.814   2.267   0.355
 3913SOL     OW12637   4.747   6.026   0.819
 3913SOL    HW112638   4.812   6.096   0.789
 3913SOL    HW212639   4.672   6.069   0.869
 3914SOL     OW12640   5.708   0.699   0.825
 3914SOL    HW112641   5.636   0.642   0.786
 3914SOL    HW212642   5.790   0.643   0.838
 3915SOL     OW12643   5.022   5.285   0.314
 3915SOL    HW112644   4.943   5.271   0.374
 3915SOL    HW212645   5.074   5.365   0.346
 3916SOL     OW12646   1.883   0.657   2.515
 3916SOL    HW112647   1.924   0.685   2.602
 3916SOL    HW212648   1.952   0.658   2.443
 3917SOL     OW12649   3.070   4.892   0.391
 3917SOL    HW112650   3.130   4.917   0.467
 3917SOL    HW212651   3.018   4.810   0.416
 3918SOL     OW12652   5.374   0.153   0.802
 3918SOL    HW112653   5.331   0.226   0.856
 3918SOL    HW212654   5.354   0.064   0.843
 3919SOL     OW12655   3.954   0.571   1.011
 3919SOL    HW112656   3.950   0.504   0.937
 3919SOL    HW212657   3.878   0.635   1.002
 3920SOL     OW12658   3.343   0.751   5.787
 3920SOL    HW112659   3.309   0.810   5.713
 3920SOL    HW212660   3.401   0.679   5.747
 3921SOL     OW12661   0.879   2.529   6.015
 3921SOL    HW112662   0.828   2.527   5.929
 3921SOL    HW212663   0.834   2.591   6.080
 3922SOL     OW12664   4.273   5.112   2.217
 3922SOL    HW112665   4.256   5.047   2.291
 3922SOL    HW212666   4.214   5.192   2.229
 3923SOL     OW12667   5.155   0.772   1.470
 3923SOL    HW112668   5.126   0.837   1.400
 3923SOL    HW212669   5.110   0.795   1.557
 3924SOL     OW12670   6.317   4.554   4.292
 3924SOL    HW112671   6.370   4.634   4.323
 3924SOL    HW212672   6.237   4.543   4.350
 3925SOL     OW12673   4.787   3.718   0.548
 3925SOL    HW112674   4.779   3.621   0.523
 3925SOL    HW212675   4.884   3.744   0.548
 3926SOL     OW12676   0.629   0.407   5.310
 3926SOL    HW112677   0.679   0.422   5.395
 3926SOL    HW212678   0.581   0.491   5.284
 3927SOL     OW12679   6.755   2.711   5.018
 3927SOL    HW112680   6.821   2.766   5.070
 3927SOL    HW212681   6.662   2.745   5.037
 3928SOL     OW12682   1.885   6.471   3.126
 3928SOL    HW112683   1.830   6.536   3.075
 3928SOL    HW212684   1.924   6.515   3.206
 3929SOL     OW12685   0.504   2.173   5.009
 3929SOL    HW112686   0.591   2.203   4.971
 3929SOL    HW212687   0.432   2.237   4.982
 3930SOL     OW12688   1.532   3.575   4.002
 3930SOL    HW112689   1.458   3.565   3.936
 3930SOL    HW212690   1.544   3.671   4.025
 3931SOL     OW12691   1.028   2.259   1.998
 3931SOL    HW112692   1.057   2.210   1.916
 3931SOL    HW212693   0.966   2.201   2.051
 3932SOL     OW12694   1.612   5.778   4.140
 3932SOL    HW112695   1.539   5.769   4.071
 3932SOL    HW212696   1.666   5.860   4.121
 3933SOL     OW12697   2.209   5.032   0.297
 3933SOL    HW112698   2.290   5.031   0.355
 3933SOL    HW212699   2.130   5.065   0.350
 3934SOL     OW12700   0.468   1.442   2.174
 3934SOL    HW112701   0.538   1.397   2.117
 3934SOL    HW212702   0.462   1.538   2.149
 3935SOL     OW12703   6.253   3.319   6.842
 3935SOL    HW112704   6.187   3.344   6.771
 3935SOL    HW212705   6.234   3.227   6.874
 3936SOL     OW12706   0.034   5.083   5.369
 3936SOL    HW112707   0.094   5.088   5.450
 3936SOL    HW212708   0.089   5.057   5.290
 3937SOL     OW12709   6.928   6.784   2.347
 3937SOL    HW112710   6.889   6.764   2.437
 3937SOL    HW212711   6.908   6.709   2.285
 3938SOL     OW12712   6.977   4.167   3.005
 3938SOL    HW112713   0.036   4.137   3.057
 3938SOL    HW212714   6.974   4.267   3.003
 3939SOL     OW12715   0.565   0.985   2.602
 3939SOL    HW112716   0.513   0.924   2.662
 3939SOL    HW212717   0.559   0.953   2.508
 3940SOL     OW12718   3.293   4.546   1.373
 3940SOL    HW112719   3.264   4.642   1.373
 3940SOL    HW212720   3.383   4.539   1.417
 3941SOL     OW12721   5.875   6.252   4.403
 3941SOL    HW112722   5.888   6.351   4.407
 3941SOL    HW212723   5.777   6.231   4.399
 3942SOL     OW12724   0.864   6.050   6.664
 3942SOL    HW112725   0.846   6.055   6.566
 3942SOL    HW212726   0.837   5.961   6.699
 3943SOL     OW12727   1.045   3.079   0.981
 3943SOL    HW112728   0.982   3.026   0.924
 3943SOL    HW212729   0.992   3.140   1.041
 3944SOL     OW12730   6.500   2.075   6.460
 3944SOL    HW112731   6.459   2.152   6.412
 3944SOL    HW212732   6.455   2.062   6.548
 3945SOL     OW12733   0.134   1.185   2.815
 3945SOL    HW112734   0.133   1.093   2.775
 3945SOL    HW212735   0.194   1.186   2.895
 3946SOL     OW12736   1.086   3.178   0.599
 3946SOL    HW112737   1.126   3.183   0.508
 3946SOL    HW212738   1.128   3.102   0.650
 3947SOL     OW12739   6.450   5.594   0.985
 3947SOL    HW112740   6.362   5.584   1.032
 3947SOL    HW212741   6.471   5.509   0.937
 3948SOL     OW12742   2.024   2.483   5.668
 3948SOL    HW112743   2.109   2.436   5.691
 3948SOL    HW212744   2.027   2.512   5.572
 3949SOL     OW12745   6.326   6.229   2.559
 3949SOL    HW112746   6.344   6.153   2.497
 3949SOL    HW212747   6.262   6.199   2.630
 3950SOL     OW12748   3.234   4.083   1.402
 3950SOL    HW112749   3.220   4.181   1.417
 3950SOL    HW212750   3.161   4.032   1.447
 3951SOL     OW12751   0.358   1.328   4.961
 3951SOL    HW112752   0.430   1.289   5.017
 3951SOL    HW212753   0.269   1.296   4.994
 3952SOL     OW12754   6.620   3.464   5.932
 3952SOL    HW112755   6.583   3.416   5.853
 3952SOL    HW212756   6.580   3.556   5.937
 3953SOL     OW12757   3.444   4.352   5.975
 3953SOL    HW112758   3.385   4.279   5.942
 3953SOL    HW212759   3.510   4.316   6.040
 3954SOL     OW12760   1.297   3.800   5.796
 3954SOL    HW112761   1.230   3.803   5.870
 3954SOL    HW212762   1.341   3.889   5.788
 3955SOL     OW12763   5.252   5.263   0.053
 3955SOL    HW112764   5.304   5.253   6.989
 3955SOL    HW212765   5.168   5.209   0.048
 3956SOL     OW12766   0.541   3.251   5.856
 3956SOL    HW112767   0.531   3.299   5.943
 3956SOL    HW212768   0.638   3.229   5.840
 3957SOL     OW12769   1.995   0.026   4.040
 3957SOL    HW112770   1.983   0.086   4.119
 3957SOL    HW212771   2.090   0.031   4.008
 3958SOL     OW12772   5.663   6.600   5.338
 3958SOL    HW112773   5.585   6.550   5.376
 3958SOL    HW212774   5.709   6.650   5.411
 3959SOL     OW12775   3.229   5.153   0.053
 3959SOL    HW112776   3.240   5.176   6.978
 3959SOL    HW212777   3.276   5.221   0.110
 3960SOL     OW12778   3.967   3.407   0.217
 3960SOL    HW112779   3.883   3.386   0.267
 3960SOL    HW212780   4.015   3.323   0.196
 3961SOL     OW12781   4.530   0.433   1.246
 3961SOL    HW112782   4.431   0.418   1.241
 3961SOL    HW212783   4.559   0.433   1.342
 3962SOL     OW12784   0.814   0.337   6.569
 3962SOL    HW112785   0.797   0.285   6.653
 3962SOL    HW212786   0.808   0.435   6.588
 3963SOL     OW12787   4.567   5.740   4.009
 3963SOL    HW112788   4.528   5.716   3.920
 3963SOL    HW212789   4.502   5.798   4.059
 3964SOL     OW12790   4.977   5.957   5.340
 3964SOL    HW112791   5.068   5.918   5.337
 3964SOL    HW212792   4.922   5.911   5.410
 3965SOL     OW12793   3.014   3.535   0.264
 3965SOL    HW112794   3.098   3.486   0.287
 3965SOL    HW212795   2.947   3.520   0.337
 3966SOL     OW12796   6.560   4.304   5.140
 3966SOL    HW112797   6.593   4.353   5.059
 3966SOL    HW212798   6.610   4.337   5.220
 3967SOL     OW12799   0.499   6.092   6.275
 3967SOL    HW112800   0.444   6.016   6.309
 3967SOL    HW212801   0.520   6.078   6.178
 3968SOL     OW12802   5.519   1.173   2.319
 3968SOL    HW112803   5.597   1.195   2.260
 3968SOL    HW212804   5.454   1.117   2.269
 3969SOL     OW12805   0.794   5.075   2.618
 3969SOL    HW112806   0.862   5.022   2.568
 3969SOL    HW212807   0.840   5.132   2.686
 3970SOL     OW12808   5.226   4.355   2.681
 3970SOL    HW112809   5.294   4.400   2.739
 3970SOL    HW212810   5.134   4.384   2.709
 3971SOL     OW12811   1.556   5.975   3.117
 3971SOL    HW112812   1.522   6.020   3.035
 3971SOL    HW212813   1.585   5.882   3.095
 3972SOL     OW12814   0.431   6.881   0.412
 3972SOL    HW112815   0.489   6.800   0.421
 3972SOL    HW212816   0.364   6.866   0.339
 3973SOL     OW12817   3.160   3.853   4.667
 3973SOL    HW112818   3.202   3.886   4.583
 3973SOL    HW212819   3.120   3.930   4.717
 3974SOL     OW12820   6.224   1.108   6.486
 3974SOL    HW112821   6.236   1.097   6.388
 3974SOL    HW212822   6.212   1.019   6.529
 3975SOL     OW12823   6.707   0.953   6.043
 3975SOL    HW112824   6.693   1.030   5.980
 3975SOL    HW212825   6.728   0.871   5.990
 3976SOL     OW12826   1.347   3.592   0.612
 3976SOL    HW112827   1.410   3.572   0.536
 3976SOL    HW212828   1.317   3.507   0.653
 3977SOL     OW12829   3.190   6.225   6.571
 3977SOL    HW112830   3.228   6.311   6.537
 3977SOL    HW212831   3.090   6.228   6.563
 3978SOL     OW12832   6.200   2.762   6.162
 3978SOL    HW112833   6.188   2.773   6.261
 3978SOL    HW212834   6.295   2.781   6.138
 3979SOL     OW12835   0.604   6.775   2.383
 3979SOL    HW112836   0.678   6.707   2.377
 3979SOL    HW212837   0.604   6.816   2.474
 3980SOL     OW12838   5.107   2.975   4.470
 3980SOL    HW112839   5.123   2.900   4.534
 3980SOL    HW212840   5.137   3.061   4.511
 3981SOL     OW12841   6.947   2.311   0.218
 3981SOL    HW112842   7.001   2.357   0.288
 3981SOL    HW212843   6.999   2.310   0.132
 3982SOL     OW12844   2.510   1.918   3.639
 3982SOL    HW112845   2.539   1.931   3.544
 3982SOL    HW212846   2.573   1.855   3.684
 3983SOL     OW12847   2.857   6.259   4.254
 3983SOL    HW112848   2.836   6.198   4.178
 3983SOL    HW212849   2.843   6.210   4.340
 3984SOL     OW12850   1.789   6.180   1.783
 3984SOL    HW112851   1.693   6.155   1.794
 3984SOL    HW212852   1.832   6.188   1.873
 3985SOL     OW12853   2.320   3.064   1.155
 3985SOL    HW112854   2.280   3.154   1.137
 3985SOL    HW212855   2.286   2.998   1.087
 3986SOL     OW12856   0.153   2.002   2.116
 3986SOL    HW112857   0.188   2.095   2.116
 3986SOL    HW212858   0.063   2.000   2.072
 3987SOL     OW12859   2.665   4.607   6.554
 3987SOL    HW112860   2.697   4.574   6.642
 3987SOL    HW212861   2.735   4.667   6.514
 3988SOL     OW12862   4.054   3.014   0.838
 3988SOL    HW112863   4.020   2.976   0.752
 3988SOL    HW212864   3.978   3.028   0.901
 3989SOL     OW12865   6.226   6.433   0.150
 3989SOL    HW112866   6.253   6.527   0.130
 3989SOL    HW212867   6.154   6.405   0.086
 3990SOL     OW12868   0.964   3.723   3.609
 3990SOL    HW112869   0.900   3.687   3.541
 3990SOL    HW212870   0.980   3.820   3.592
 3991SOL     OW12871   0.227   2.075   4.040
 3991SOL    HW112872   0.160   2.073   3.966
 3991SOL    HW212873   0.180   2.088   4.127
 3992SOL     OW12874   4.896   3.625   6.309
 3992SOL    HW112875   4.832   3.550   6.328
 3992SOL    HW212876   4.872   3.667   6.221
 3993SOL     OW12877   2.846   2.179   2.872
 3993SOL    HW112878   2.829   2.238   2.793
 3993SOL    HW212879   2.929   2.125   2.855
 3994SOL     OW12880   2.419   2.672   3.548
 3994SOL    HW112881   2.439   2.580   3.513
 3994SOL    HW212882   2.410   2.735   3.470
 3995SOL     OW12883   2.087   4.171   3.172
 3995SOL    HW112884   2.155   4.158   3.244
 3995SOL    HW212885   2.124   4.137   3.086
 3996SOL     OW12886   0.417   1.405   3.226
 3996SOL    HW112887   0.476   1.461   3.284
 3996SOL    HW212888   0.429   1.432   3.130
 3997SOL     OW12889   5.706   3.963   3.018
 3997SOL    HW112890   5.761   4.029   3.070
 3997SOL    HW212891   5.766   3.895   2.977
 3998SOL     OW12892   6.263   1.988   3.203
 3998SOL    HW112893   6.257   1.912   3.267
 3998SOL    HW212894   6.272   2.074   3.253
 3999SOL     OW12895   5.698   3.710   2.585
 3999SOL    HW112896   5.703   3.635   2.519
 3999SOL    HW212897   5.704   3.798   2.537
 4000SOL     OW12898   2.483   5.569   2.403
 4000SOL    HW112899   2.553   5.616   2.456
 4000SOL    HW212900   2.393   5.596   2.436
 4001SOL     OW12901   2.526   3.928   5.442
 4001SOL    HW112902   2.448   3.933   5.504
 4001SOL    HW212903   2.495   3.941   5.348
 4002SOL     OW12904   3.248   3.194   4.772
 4002SOL    HW112905   3.171   3.197   4.709
 4002SOL    HW212906   3.279   3.286   4.793
 4003SOL     OW12907   2.331   1.191   5.540
 4003SOL    HW112908   2.345   1.280   5.498
 4003SOL    HW212909   2.258   1.143   5.492
 4004SOL     OW12910   6.883   3.811   2.780
 4004SOL    HW112911   6.895   3.757   2.696
 4004SOL    HW212912   6.899   3.752   2.859
 4005SOL     OW12913   4.570   3.528   1.433
 4005SOL    HW112914   4.521   3.596   1.378
 4005SOL    HW212915   4.528   3.438   1.421
 4006SOL     OW12916   4.934   5.565   2.583
 4006SOL    HW112917   4.835   5.570   2.598
 4006SOL    HW212918   4.965   5.471   2.596
 4007SOL     OW12919   1.012   1.953   3.239
 4007SOL    HW112920   0.991   1.909   3.152
 4007SOL    HW212921   0.974   2.045   3.241
 4008SOL     OW12922   2.650   6.965   0.766
 4008SOL    HW112923   2.655   6.987   0.668
 4008SOL    HW212924   2.637   0.027   0.819
 4009SOL     OW12925   4.515   1.913   0.995
 4009SOL    HW112926   4.477   1.860   1.071
 4009SOL    HW212927   4.552   1.999   1.029
 4010SOL     OW12928   3.739   4.421   1.385
 4010SOL    HW112929   3.758   4.462   1.474
 4010SOL    HW212930   3.814   4.361   1.360
 4011SOL     OW12931   0.026   6.120   0.503
 4011SOL    HW112932   6.970   6.171   0.465
 4011SOL    HW212933   7.013   6.048   0.563
 4012SOL     OW12934   4.502   6.766   1.632
 4012SOL    HW112935   4.420   6.808   1.672
 4012SOL    HW212936   4.491   6.667   1.629
 4013SOL     OW12937   2.092   0.512   0.814
 4013SOL    HW112938   2.128   0.448   0.746
 4013SOL    HW212939   2.066   0.461   0.896
 4014SOL     OW12940   3.069   5.667   3.346
 4014SOL    HW112941   3.042   5.624   3.260
 4014SOL    HW212942   3.010   5.747   3.363
 4015SOL     OW12943   4.430   5.023   6.085
 4015SOL    HW112944   4.422   4.927   6.114
 4015SOL    HW212945   4.424   5.082   6.166
 4016SOL     OW12946   3.279   5.257   6.526
 4016SOL    HW112947   3.270   5.357   6.519
 4016SOL    HW212948   3.202   5.213   6.480
 4017SOL     OW12949   0.905   5.241   5.478
 4017SOL    HW112950   0.903   5.297   5.561
 4017SOL    HW212951   0.916   5.145   5.503
 4018SOL     OW12952   3.578   6.381   1.744
 4018SOL    HW112953   3.664   6.332   1.754
 4018SOL    HW212954   3.524   6.370   1.827
 4019SOL     OW12955   5.681   2.905   2.654
 4019SOL    HW112956   5.748   2.897   2.581
 4019SOL    HW212957   5.595   2.863   2.625
 4020SOL     OW12958   0.417   4.011   4.236
 4020SOL    HW112959   0.471   4.089   4.268
 4020SOL    HW212960   0.450   3.928   4.280
 4021SOL     OW12961   3.421   3.548   5.306
 4021SOL    HW112962   3.422   3.471   5.370
 4021SOL    HW212963   3.436   3.514   5.213
 4022SOL     OW12964   3.936   6.792   0.947
 4022SOL    HW112965   3.860   6.834   0.898
 4022SOL    HW212966   3.955   6.702   0.908
 4023SOL     OW12967   0.248   1.405   5.394
 4023SOL    HW112968   0.289   1.459   5.321
 4023SOL    HW212969   0.151   1.425   5.400
 4024SOL     OW12970   1.728   5.028   4.050
 4024SOL    HW112971   1.633   5.022   4.082
 4024SOL    HW212972   1.781   4.955   4.091
 4025SOL     OW12973   1.045   5.881   4.288
 4025SOL    HW112974   1.142   5.860   4.284
 4025SOL    HW212975   1.026   5.964   4.235
 4026SOL     OW12976   6.346   6.270   4.397
 4026SOL    HW112977   6.435   6.316   4.389
 4026SOL    HW212978   6.302   6.297   4.482
 4027SOL     OW12979   2.747   2.250   6.874
 4027SOL    HW112980   2.811   2.220   6.804
 4027SOL    HW212981   2.770   2.207   6.961
 4028SOL     OW12982   4.464   1.586   3.447
 4028SOL    HW112983   4.392   1.525   3.414
 4028SOL    HW212984   4.446   1.679   3.414
 4029SOL     OW12985   3.118   3.898   5.921
 4029SOL    HW112986   3.071   3.847   5.848
 4029SOL    HW212987   3.058   3.903   6.001
 4030SOL     OW12988   7.006   1.012   1.961
 4030SOL    HW112989   6.936   0.968   1.904
 4030SOL    HW212990   0.071   0.962   1.953
 4031SOL     OW12991   5.508   0.434   2.722
 4031SOL    HW112992   5.470   0.431   2.815
 4031SOL    HW212993   5.525   0.530   2.697
 4032SOL     OW12994   6.549   6.667   1.831
 4032SOL    HW112995   6.523   6.573   1.808
 4032SOL    HW212996   6.468   6.726   1.825
 4033SOL     OW12997   2.752   2.117   3.119
 4033SOL    HW112998   2.777   2.147   3.027
 4033SOL    HW212999   2.665   2.158   3.145
 4034SOL     OW13000   6.323   2.418   5.263
 4034SOL    HW113001   6.243   2.452   5.212
 4034SOL    HW213002   6.407   2.450   5.219
 4035SOL     OW13003   6.283   1.438   1.404
 4035SOL    HW113004   6.222   1.440   1.324
 4035SOL    HW213005   6.264   1.517   1.463
 4036SOL     OW13006   4.168   4.796   2.239
 4036SOL    HW113007   4.173   4.782   2.140
 4036SOL    HW213008   4.244   4.747   2.282
 4037SOL     OW13009   2.901   1.146   5.997
 4037SOL    HW113010   2.876   1.220   5.935
 4037SOL    HW213011   2.855   1.062   5.969
 4038SOL     OW13012   4.816   3.320   0.222
 4038SOL    HW113013   4.901   3.336   0.172
 4038SOL    HW213014   4.746   3.384   0.189
 4039SOL     OW13015   4.898   5.830   1.703
 4039SOL    HW113016   4.847   5.855   1.785
 4039SOL    HW213017   4.853   5.752   1.659
 4040SOL     OW13018   2.939   6.158   4.766
 4040SOL    HW113019   3.037   6.141   4.772
 4040SOL    HW213020   2.910   6.215   4.843
 4041SOL     OW13021   1.697   6.382   1.584
 4041SOL    HW113022   1.738   6.322   1.652
 4041SOL    HW213023   1.610   6.343   1.553
 4042SOL     OW13024   5.803   6.420   3.213
 4042SOL    HW113025   5.829   6.384   3.123
 4042SOL    HW213026   5.870   6.488   3.242
 4043SOL     OW13027   6.742   2.141   6.591
 4043SOL    HW113028   6.671   2.085   6.548
 4043SOL    HW213029   6.722   2.238   6.576
 4044SOL     OW13030   5.375   4.705   2.574
 4044SOL    HW113031   5.470   4.723   2.550
 4044SOL    HW213032   5.360   4.606   2.578
 4045SOL     OW13033   3.981   6.720   5.802
 4045SOL    HW113034   4.022   6.738   5.713
 4045SOL    HW213035   3.923   6.638   5.796
 4046SOL     OW13036   0.837   1.829   2.720
 4046SOL    HW113037   0.764   1.852   2.785
 4046SOL    HW213038   0.836   1.895   2.645
 4047SOL     OW13039   1.999   2.288   6.810
 4047SOL    HW113040   1.962   2.374   6.775
 4047SOL    HW213041   1.926   2.238   6.858
 4048SOL     OW13042   5.279   1.146   1.787
 4048SOL    HW113043   5.267   1.129   1.690
 4048SOL    HW213044   5.268   1.244   1.806
 4049SOL     OW13045   4.528   6.401   6.227
 4049SOL    HW113046   4.546   6.495   6.255
 4049SOL    HW213047   4.488   6.351   6.304
 4050SOL     OW13048   0.914   6.274   2.320
 4050SOL    HW113049   0.823   6.234   2.334
 4050SOL    HW213050   0.962   6.279   2.407
 4051SOL     OW13051   4.595   1.230   6.466
 4051SOL    HW113052   4.503   1.194   6.452
 4051SOL    HW213053   4.638   1.182   6.543
 4052SOL     OW13054   5.651   2.234   3.582
 4052SOL    HW113055   5.706   2.212   3.662
 4052SOL    HW213056   5.632   2.151   3.529
 4053SOL     OW13057   1.864   6.159   4.477
 4053SOL    HW113058   1.792   6.097   4.446
 4053SOL    HW213059   1.842   6.253   4.448
 4054SOL     OW13060   4.892   4.348   0.849
 4054SOL    HW113061   4.878   4.264   0.797
 4054SOL    HW213062   4.867   4.332   0.945
 4055SOL     OW13063   1.609   4.069   1.402
 4055SOL    HW113064   1.545   4.000   1.368
 4055SOL    HW213065   1.564   4.125   1.472
 4056SOL     OW13066   5.205   3.651   1.054
 4056SOL    HW113067   5.298   3.670   1.024
 4056SOL    HW213068   5.146   3.637   0.975
 4057SOL     OW13069   6.702   3.240   6.938
 4057SOL    HW113070   6.723   3.172   7.008
 4057SOL    HW213071   6.656   3.319   6.980
 4058SOL     OW13072   2.815   6.700   4.942
 4058SOL    HW113073   2.824   6.634   4.868
 4058SOL    HW213074   2.856   6.662   5.025
 4059SOL     OW13075   0.466   2.460   3.257
 4059SOL    HW113076   0.561   2.430   3.246
 4059SOL    HW213077   0.448   2.537   3.196
 4060SOL     OW13078   5.696   4.861   5.577
 4060SOL    HW113079   5.628   4.788   5.569
 4060SOL    HW213080   5.669   4.924   5.650
 4061SOL     OW13081   2.467   4.584   2.001
 4061SOL    HW113082   2.566   4.592   2.010
 4061SOL    HW213083   2.434   4.650   1.934
 4062SOL     OW13084   2.792   0.533   2.353
 4062SOL    HW113085   2.761   0.445   2.319
 4062SOL    HW213086   2.820   0.525   2.449
 4063SOL     OW13087   6.227   6.826   0.657
 4063SOL    HW113088   6.217   6.777   0.743
 4063SOL    HW213089   6.162   6.789   0.590
 4064SOL     OW13090   3.037   1.877   4.371
 4064SOL    HW113091   2.988   1.942   4.429
 4064SOL    HW213092   3.116   1.923   4.330
 4065SOL     OW13093   0.761   0.092   1.628
 4065SOL    HW113094   0.676   0.075   1.677
 4065SOL    HW213095   0.799   0.005   1.597
 4066SOL     OW13096   6.589   4.074   2.933
 4066SOL    HW113097   6.669   4.032   2.977
 4066SOL    HW213098   6.599   4.071   2.834
 4067SOL     OW13099   5.181   3.726   3.672
 4067SOL    HW113100   5.206   3.780   3.592
 4067SOL    HW213101   5.084   3.704   3.668
 4068SOL     OW13102   2.482   2.103   4.259
 4068SOL    HW113103   2.401   2.047   4.281
 4068SOL    HW213104   2.486   2.181   4.322
 4069SOL     OW13105   3.344   5.209   6.802
 4069SOL    HW113106   3.415   5.139   6.796
 4069SOL    HW213107   3.310   5.231   6.710
 4070SOL     OW13108   0.305   2.981   2.728
 4070SOL    HW113109   0.390   2.931   2.743
 4070SOL    HW213110   0.228   2.917   2.730
 4071SOL     OW13111   1.331   1.415   4.812
 4071SOL    HW113112   1.338   1.343   4.742
 4071SOL    HW213113   1.293   1.375   4.895
 4072SOL     OW13114   0.874   5.736   4.708
 4072SOL    HW113115   0.879   5.780   4.619
 4072SOL    HW213116   0.872   5.806   4.780
 4073SOL     OW13117   3.002   5.433   6.283
 4073SOL    HW113118   2.991   5.368   6.209
 4073SOL    HW213119   2.978   5.390   6.370
 4074SOL     OW13120   0.505   4.580   1.136
 4074SOL    HW113121   0.546   4.671   1.126
 4074SOL    HW213122   0.429   4.571   1.071
 4075SOL     OW13123   4.758   2.059   1.280
 4075SOL    HW113124   4.804   2.113   1.350
 4075SOL    HW213125   4.672   2.022   1.316
 4076SOL     OW13126   2.647   3.326   6.095
 4076SOL    HW113127   2.691   3.239   6.072
 4076SOL    HW213128   2.650   3.386   6.015
 4077SOL     OW13129   3.903   1.875   1.114
 4077SOL    HW113130   3.979   1.941   1.118
 4077SOL    HW213131   3.896   1.830   1.203
 4078SOL     OW13132   2.096   4.849   2.204
 4078SOL    HW113133   1.999   4.861   2.184
 4078SOL    HW213134   2.112   4.757   2.239
 4079SOL     OW13135   2.326   1.212   2.990
 4079SOL    HW113136   2.245   1.198   2.934
 4079SOL    HW213137   2.406   1.223   2.931
 4080SOL     OW13138   4.589   2.476   5.986
 4080SOL    HW113139   4.534   2.559   5.973
 4080SOL    HW213140   4.686   2.500   5.982
 4081SOL     OW13141   1.180   2.953   3.445
 4081SOL    HW113142   1.271   2.923   3.417
 4081SOL    HW213143   1.161   2.922   3.538
 4082SOL     OW13144   0.420   4.073   0.352
 4082SOL    HW113145   0.421   4.071   0.252
 4082SOL    HW213146   0.334   4.033   0.385
 4083SOL     OW13147   6.414   3.048   2.902
 4083SOL    HW113148   6.321   3.085   2.893
 4083SOL    HW213149   6.452   3.074   2.991
 4084SOL     OW13150   5.847   1.922   3.854
 4084SOL    HW113151   5.890   1.842   3.896
 4084SOL    HW213152   5.887   1.937   3.763
 4085SOL     OW13153   3.934   5.712   0.564
 4085SOL    HW113154   4.004   5.668   0.621
 4085SOL    HW213155   3.883   5.642   0.515
 4086SOL     OW13156   2.268   6.189   1.828
 4086SOL    HW113157   2.296   6.236   1.912
 4086SOL    HW213158   2.240   6.257   1.760
 4087SOL     OW13159   3.180   2.113   3.485
 4087SOL    HW113160   3.276   2.088   3.501
 4087SOL    HW213161   3.168   2.140   3.390
 4088SOL     OW13162   0.046   1.816   0.968
 4088SOL    HW113163   0.019   1.734   0.916
 4088SOL    HW213164   0.106   1.789   1.043
 4089SOL     OW13165   6.338   6.396   3.727
 4089SOL    HW113166   6.241   6.416   3.743
 4089SOL    HW213167   6.361   6.307   3.766
 4090SOL     OW13168   2.282   4.174   5.462
 4090SOL    HW113169   2.306   4.086   5.504
 4090SOL    HW213170   2.322   4.248   5.515
 4091SOL     OW13171   6.469   6.325   0.185
 4091SOL    HW113172   6.369   6.330   0.180
 4091SOL    HW213173   6.508   6.411   0.151
 4092SOL     OW13174   6.327   3.262   5.146
 4092SOL    HW113175   6.238   3.291   5.112
 4092SOL    HW213176   6.361   3.330   5.211
 4093SOL     OW13177   4.185   0.234   3.413
 4093SOL    HW113178   4.143   0.309   3.362
 4093SOL    HW213179   4.132   0.215   3.495
 4094SOL     OW13180   2.447   5.827   4.535
 4094SOL    HW113181   2.392   5.761   4.484
 4094SOL    HW213182   2.394   5.863   4.612
 4095SOL     OW13183   0.719   3.711   6.636
 4095SOL    HW113184   0.620   3.706   6.646
 4095SOL    HW213185   0.743   3.709   6.539
 4096SOL     OW13186   4.587   5.304   0.907
 4096SOL    HW113187   4.585   5.305   1.007
 4096SOL    HW213188   4.667   5.354   0.875
 4097SOL     OW13189   4.102   3.780   6.165
 4097SOL    HW113190   4.190   3.774   6.118
 4097SOL    HW213191   4.028   3.791   6.098
 4098SOL     OW13192   0.099   3.071   2.058
 4098SOL    HW113193   0.118   3.169   2.045
 4098SOL    HW213194   0.109   3.023   1.971
 4099SOL     OW13195   3.016   4.739   0.997
 4099SOL    HW113196   2.963   4.671   1.048
 4099SOL    HW213197   3.103   4.700   0.969
 4100SOL     OW13198   6.436   6.261   5.136
 4100SOL    HW113199   6.443   6.172   5.180
 4100SOL    HW213200   6.477   6.257   5.045
 4101SOL     OW13201   5.503   0.592   0.692
 4101SOL    HW113202   5.525   0.555   0.601
 4101SOL    HW213203   5.427   0.656   0.684
 4102SOL     OW13204   6.323   0.731   1.737
 4102SOL    HW113205   6.406   0.675   1.730
 4102SOL    HW213206   6.313   0.764   1.831
 4103SOL     OW13207   0.488   0.691   0.969
 4103SOL    HW113208   0.431   0.629   1.023
 4103SOL    HW213209   0.519   0.644   0.886
 4104SOL     OW13210   0.913   4.636   1.964
 4104SOL    HW113211   0.829   4.678   1.932
 4104SOL    HW213212   0.901   4.604   2.058
 4105SOL     OW13213   4.157   5.398   1.197
 4105SOL    HW113214   4.064   5.363   1.193
 4105SOL    HW213215   4.219   5.326   1.230
 4106SOL     OW13216   0.652   1.954   5.116
 4106SOL    HW113217   0.592   2.013   5.062
 4106SOL    HW213218   0.647   1.980   5.212
 4107SOL     OW13219   1.657   6.348   0.979
 4107SOL    HW113220   1.664   6.355   0.880
 4107SOL    HW213221   1.581   6.404   1.012
 4108SOL     OW13222   0.196   5.038   6.143
 4108SOL    HW113223   0.146   5.121   6.119
 4108SOL    HW213224   0.147   4.990   6.216
 4109SOL     OW13225   4.666   6.103   5.110
 4109SOL    HW113226   4.636   6.035   5.177
 4109SOL    HW213227   4.593   6.119   5.044
 4110SOL     OW13228   4.659   3.179   6.577
 4110SOL    HW113229   4.586   3.161   6.511
 4110SOL    HW213230   4.655   3.111   6.651
 4111SOL     OW13231   4.068   2.682   6.579
 4111SOL    HW113232   4.141   2.748   6.562
 4111SOL    HW213233   4.027   2.700   6.668
 4112SOL     OW13234   4.916   0.771   5.534
 4112SOL    HW113235   4.912   0.671   5.535
 4112SOL    HW213236   4.967   0.803   5.614
 4113SOL     OW13237   4.591   6.248   4.707
 4113SOL    HW113238   4.561   6.339   4.680
 4113SOL    HW213239   4.614   6.194   4.625
 4114SOL     OW13240   4.081   2.270   3.652
 4114SOL    HW113241   4.172   2.304   3.675
 4114SOL    HW213242   4.054   2.304   3.562
 4115SOL     OW13243   4.503   5.990   2.124
 4115SOL    HW113244   4.509   6.090   2.118
 4115SOL    HW213245   4.495   5.963   2.220
 4116SOL     OW13246   4.101   2.241   1.857
 4116SOL    HW113247   4.157   2.183   1.798
 4116SOL    HW213248   4.090   2.197   1.946
 4117SOL     OW13249   0.697   5.143   1.945
 4117SOL    HW113250   0.694   5.217   1.878
 4117SOL    HW213251   0.736   5.177   2.031
 4118SOL     OW13252   2.331   6.376   0.788
 4118SOL    HW113253   2.411   6.430   0.759
 4118SOL    HW213254   2.281   6.344   0.708
 4119SOL     OW13255   4.128   2.070   3.219
 4119SOL    HW113256   4.155   2.059   3.315
 4119SOL    HW213257   4.029   2.077   3.213
 4120SOL     OW13258   4.362   0.653   0.789
 4120SOL    HW113259   4.356   0.672   0.692
 4120SOL    HW213260   4.287   0.698   0.837
 4121SOL     OW13261   5.757   1.365   5.341
 4121SOL    HW113262   5.829   1.307   5.378
 4121SOL    HW213263   5.672   1.313   5.332
 4122SOL     OW13264   0.913   6.604   5.596
 4122SOL    HW113265   0.822   6.578   5.564
 4122SOL    HW213266   0.931   6.561   5.684
 4123SOL     OW13267   4.844   4.450   5.440
 4123SOL    HW113268   4.753   4.484   5.417
 4123SOL    HW213269   4.905   4.463   5.362
 4124SOL     OW13270   6.039   5.066   5.736
 4124SOL    HW113271   6.110   5.127   5.770
 4124SOL    HW213272   5.949   5.103   5.761
 4125SOL     OW13273   4.414   1.192   1.941
 4125SOL    HW113274   4.338   1.200   2.005
 4125SOL    HW213275   4.390   1.127   1.869
 4126SOL     OW13276   1.398   4.886   3.985
 4126SOL    HW113277   1.441   4.920   4.068
 4126SOL    HW213278   1.314   4.838   4.008
 4127SOL     OW13279   4.618   4.569   4.453
 4127SOL    HW113280   4.571   4.561   4.541
 4127SOL    HW213281   4.551   4.573   4.379
 4128SOL     OW13282   1.312   3.499   1.791
 4128SOL    HW113283   1.373   3.528   1.865
 4128SOL    HW213284   1.362   3.497   1.705
 4129SOL     OW13285   5.114   1.201   6.539
 4129SOL    HW113286   5.098   1.159   6.628
 4129SOL    HW213287   5.045   1.169   6.474
 4130SOL     OW13288   6.894   3.390   5.680
 4130SOL    HW113289   6.887   3.300   5.723
 4130SOL    HW213290   6.954   3.383   5.600
 4131SOL     OW13291   1.035   5.703   3.840
 4131SOL    HW113292   1.105   5.705   3.769
 4131SOL    HW213293   0.983   5.618   3.834
 4132SOL     OW13294   5.152   4.603   4.032
 4132SOL    HW113295   5.125   4.670   3.963
 4132SOL    HW213296   5.171   4.651   4.118
 4133SOL     OW13297   3.010   6.798   1.894
 4133SOL    HW113298   2.961   6.759   1.972
 4133SOL    HW213299   3.007   6.734   1.818
 4134SOL     OW13300   1.811   2.345   0.705
 4134SOL    HW113301   1.804   2.247   0.720
 4134SOL    HW213302   1.743   2.392   0.763
 4135SOL     OW13303   2.083   0.402   2.518
 4135SOL    HW113304   2.139   0.457   2.579
 4135SOL    HW213305   2.005   0.456   2.487
 4136SOL     OW13306   0.962   2.066   2.920
 4136SOL    HW113307   0.948   1.967   2.924
 4136SOL    HW213308   1.021   2.088   2.842
 4137SOL     OW13309   1.803   4.201   1.271
 4137SOL    HW113310   1.811   4.152   1.184
 4137SOL    HW213311   1.730   4.161   1.326
 4138SOL     OW13312   3.743   5.402   3.381
 4138SOL    HW113313   3.689   5.328   3.421
 4138SOL    HW213314   3.794   5.368   3.302
 4139SOL     OW13315   2.303   2.327   5.302
 4139SOL    HW113316   2.307   2.315   5.203
 4139SOL    HW213317   2.393   2.312   5.342
 4140SOL     OW13318   2.805   0.806   5.590
 4140SOL    HW113319   2.860   0.815   5.506
 4140SOL    HW213320   2.831   0.722   5.638
 4141SOL     OW13321   5.214   6.118   1.907
 4141SOL    HW113322   5.281   6.185   1.875
 4141SOL    HW213323   5.156   6.089   1.831
 4142SOL     OW13324   6.838   5.625   0.922
 4142SOL    HW113325   6.755   5.570   0.932
 4142SOL    HW213326   6.918   5.566   0.932
 4143SOL     OW13327   0.021   2.894   0.094
 4143SOL    HW113328   6.945   2.891   0.071
 4143SOL    HW213329   0.072   2.935   0.018
 4144SOL     OW13330   5.376   3.090   0.433
 4144SOL    HW113331   5.450   3.146   0.396
 4144SOL    HW213332   5.330   3.042   0.358
 4145SOL     OW13333   0.223   6.091   1.650
 4145SOL    HW113334   0.289   6.017   1.638
 4145SOL    HW213335   0.130   6.056   1.637
 4146SOL     OW13336   6.508   0.918   5.794
 4146SOL    HW113337   6.496   0.831   5.843
 4146SOL    HW213338   6.449   0.919   5.713
 4147SOL     OW13339   3.914   1.909   5.334
 4147SOL    HW113340   4.008   1.930   5.307
 4147SOL    HW213341   3.908   1.905   5.433
 4148SOL     OW13342   0.410   0.211   3.736
 4148SOL    HW113343   0.475   0.284   3.758
 4148SOL    HW213344   0.391   0.211   3.638
 4149SOL     OW13345   0.585   3.075   0.145
 4149SOL    HW113346   0.534   3.082   0.058
 4149SOL    HW213347   0.644   2.995   0.142
 4150SOL     OW13348   6.800   0.710   5.909
 4150SOL    HW113349   6.713   0.681   5.867
 4150SOL    HW213350   6.860   0.748   5.838
 4151SOL     OW13351   4.738   6.282   6.102
 4151SOL    HW113352   4.777   6.224   6.174
 4151SOL    HW213353   4.655   6.326   6.136
 4152SOL     OW13354   2.967   5.457   0.967
 4152SOL    HW113355   3.041   5.390   0.978
 4152SOL    HW213356   2.932   5.483   1.057
 4153SOL     OW13357   4.705   4.737   6.636
 4153SOL    HW113358   4.745   4.688   6.714
 4153SOL    HW213359   4.758   4.717   6.554
 4154SOL     OW13360   0.320   4.352   4.866
 4154SOL    HW113361   0.301   4.296   4.785
 4154SOL    HW213362   0.259   4.324   4.940
 4155SOL     OW13363   5.785   2.746   3.501
 4155SOL    HW113364   5.747   2.655   3.515
 4155SOL    HW213365   5.829   2.777   3.585
 4156SOL     OW13366   5.381   0.028   5.227
 4156SOL    HW113367   5.463   0.081   5.251
 4156SOL    HW213368   5.315   0.034   5.302
 4157SOL     OW13369   4.067   6.655   3.810
 4157SOL    HW113370   4.129   6.725   3.774
 4157SOL    HW213371   4.002   6.627   3.740
 4158SOL     OW13372   1.758   5.511   4.233
 4158SOL    HW113373   1.756   5.454   4.150
 4158SOL    HW213374   1.723   5.602   4.212
 4159SOL     OW13375   1.925   3.041   3.807
 4159SOL    HW113376   1.849   3.072   3.864
 4159SOL    HW213377   2.000   3.106   3.814
 4160SOL     OW13378   6.430   0.781   1.202
 4160SOL    HW113379   6.448   0.686   1.175
 4160SOL    HW213380   6.414   0.786   1.300
 4161SOL     OW13381   2.169   5.991   6.549
 4161SOL    HW113382   2.230   6.028   6.619
 4161SOL    HW213383   2.220   5.929   6.490
 4162SOL     OW13384   6.390   0.090   5.249
 4162SOL    HW113385   6.425   0.139   5.329
 4162SOL    HW213386   6.420   7.016   5.252
 4163SOL     OW13387   5.820   0.744   3.107
 4163SOL    HW113388   5.887   0.738   3.182
 4163SOL    HW213389   5.754   0.817   3.128
 4164SOL     OW13390   1.210   6.629   6.406
 4164SOL    HW113391   1.177   6.598   6.316
 4164SOL    HW213392   1.200   6.554   6.472
 4165SOL     OW13393   4.629   0.098   0.536
 4165SOL    HW113394   4.633   0.094   0.636
 4165SOL    HW213395   4.720   0.080   0.498
 4166SOL     OW13396   5.882   3.102   1.170
 4166SOL    HW113397   5.889   3.183   1.113
 4166SOL    HW213398   5.837   3.125   1.256
 4167SOL     OW13399   2.438   3.673   0.432
 4167SOL    HW113400   2.367   3.614   0.471
 4167SOL    HW213401   2.524   3.660   0.482
 4168SOL     OW13402   0.661   5.120   0.968
 4168SOL    HW113403   0.737   5.177   0.999
 4168SOL    HW213404   0.694   5.028   0.948
 4169SOL     OW13405   5.882   3.407   4.064
 4169SOL    HW113406   5.804   3.348   4.042
 4169SOL    HW213407   5.852   3.503   4.065
 4170SOL     OW13408   3.277   3.160   5.154
 4170SOL    HW113409   3.253   3.087   5.090
 4170SOL    HW213410   3.233   3.245   5.126
 4171SOL     OW13411   5.296   4.240   1.295
 4171SOL    HW113412   5.210   4.280   1.265
 4171SOL    HW213413   5.344   4.304   1.355
 4172SOL     OW13414   0.262   2.198   6.144
 4172SOL    HW113415   0.242   2.192   6.241
 4172SOL    HW213416   0.192   2.150   6.092
 4173SOL     OW13417   6.100   3.224   4.487
 4173SOL    HW113418   6.135   3.165   4.413
 4173SOL    HW213419   6.106   3.175   4.574
 4174SOL     OW13420   5.711   0.998   3.618
 4174SOL    HW113421   5.622   0.969   3.584
 4174SOL    HW213422   5.775   1.009   3.542
 4175SOL     OW13423   2.510   6.510   4.061
 4175SOL    HW113424   2.480   6.427   4.015
 4175SOL    HW213425   2.456   6.524   4.144
 4176SOL     OW13426   3.219   6.736   2.063
 4176SOL    HW113427   3.299   6.683   2.034
 4176SOL    HW213428   3.164   6.759   1.982
 4177SOL     OW13429   0.680   5.166   5.342
 4177SOL    HW113430   0.624   5.249   5.346
 4177SOL    HW213431   0.771   5.186   5.378
 4178SOL     OW13432   4.104   0.726   4.147
 4178SOL    HW113433   4.010   0.708   4.177
 4178SOL    HW213434   4.103   0.757   4.052
 4179SOL     OW13435   5.007   3.293   4.179
 4179SOL    HW113436   5.076   3.322   4.113
 4179SOL    HW213437   4.940   3.366   4.192
 4180SOL     OW13438   5.423   3.254   2.533
 4180SOL    HW113439   5.489   3.224   2.464
 4180SOL    HW213440   5.465   3.253   2.623
 4181SOL     OW13441   2.147   2.007   6.022
 4181SOL    HW113442   2.206   2.086   6.042
 4181SOL    HW213443   2.165   1.934   6.088
 4182SOL     OW13444   0.113   6.682   3.251
 4182SOL    HW113445   0.153   6.604   3.202
 4182SOL    HW213446   0.185   6.745   3.278
 4183SOL     OW13447   3.405   1.170   1.122
 4183SOL    HW113448   3.503   1.190   1.119
 4183SOL    HW213449   3.369   1.163   1.029
 4184SOL     OW13450   4.193   4.910   1.349
 4184SOL    HW113451   4.211   4.812   1.347
 4184SOL    HW213452   4.146   4.933   1.435
 4185SOL     OW13453   0.464   5.280   3.145
 4185SOL    HW113454   0.450   5.378   3.161
 4185SOL    HW213455   0.425   5.228   3.222
 4186SOL     OW13456   1.174   4.700   0.501
 4186SOL    HW113457   1.204   4.678   0.593
 4186SOL    HW213458   1.197   4.625   0.439
 4187SOL     OW13459   3.760   3.023   5.756
 4187SOL    HW113460   3.797   3.026   5.849
 4187SOL    HW213461   3.826   3.062   5.692
 4188SOL     OW13462   5.085   6.986   4.514
 4188SOL    HW113463   5.139   6.903   4.530
 4188SOL    HW213464   5.003   6.984   4.572
 4189SOL     OW13465   3.325   1.651   4.719
 4189SOL    HW113466   3.371   1.739   4.709
 4189SOL    HW213467   3.389   1.578   4.696
 4190SOL     OW13468   2.231   6.938   6.343
 4190SOL    HW113469   2.275   6.855   6.309
 4190SOL    HW213470   2.154   6.913   6.403
 4191SOL     OW13471   6.065   3.426   2.911
 4191SOL    HW113472   6.155   3.395   2.942
 4191SOL    HW213473   6.064   3.525   2.904
 4192SOL     OW13474   0.127   1.714   3.763
 4192SOL    HW113475   0.052   1.696   3.700
 4192SOL    HW213476   0.165   1.804   3.746
 4193SOL     OW13477   2.264   6.427   1.581
 4193SOL    HW113478   2.169   6.421   1.550
 4193SOL    HW213479   2.324   6.387   1.512
 4194SOL     OW13480   6.865   2.156   4.889
 4194SOL    HW113481   6.875   2.056   4.890
 4194SOL    HW213482   6.768   2.180   4.891
 4195SOL     OW13483   3.397   0.570   1.994
 4195SOL    HW113484   3.392   0.476   2.030
 4195SOL    HW213485   3.410   0.634   2.069
 4196SOL     OW13486   6.362   1.913   4.388
 4196SOL    HW113487   6.356   1.825   4.436
 4196SOL    HW213488   6.292   1.917   4.316
 4197SOL     OW13489   4.600   4.902   4.143
 4197SOL    HW113490   4.528   4.890   4.075
 4197SOL    HW213491   4.645   4.991   4.128
 4198SOL     OW13492   6.087   3.737   6.929
 4198SOL    HW113493   6.107   3.832   6.954
 4198SOL    HW213494   6.053   3.734   6.835
 4199SOL     OW13495   2.360   3.342   6.192
 4199SOL    HW113496   2.446   3.319   6.145
 4199SOL    HW213497   2.307   3.405   6.135
 4200SOL     OW13498   2.823   6.638   5.638
 4200SOL    HW113499   2.822   6.605   5.544
 4200SOL    HW213500   2.846   6.562   5.699
 4201SOL     OW13501   5.655   6.142   4.113
 4201SOL    HW113502   5.619   6.230   4.080
 4201SOL    HW213503   5.665   6.145   4.212
 4202SOL     OW13504   3.966   4.519   6.052
 4202SOL    HW113505   3.978   4.560   5.962
 4202SOL    HW213506   3.876   4.476   6.057
 4203SOL     OW13507   3.746   6.007   2.606
 4203SOL    HW113508   3.702   6.054   2.530
 4203SOL    HW213509   3.843   6.031   2.608
 4204SOL     OW13510   3.121   2.833   1.897
 4204SOL    HW113511   3.189   2.899   1.865
 4204SOL    HW213512   3.034   2.880   1.913
 4205SOL     OW13513   4.009   5.246   4.017
 4205SOL    HW113514   4.003   5.216   3.921
 4205SOL    HW213515   3.917   5.251   4.056
 4206SOL     OW13516   4.785   1.077   5.835
 4206SOL    HW113517   4.806   1.174   5.829
 4206SOL    HW213518   4.746   1.046   5.748
 4207SOL     OW13519   2.297   1.637   1.913
 4207SOL    HW113520   2.200   1.659   1.926
 4207SOL    HW213521   2.307   1.582   1.829
 4208SOL     OW13522   1.495   2.327   0.792
 4208SOL    HW113523   1.451   2.296   0.708
 4208SOL    HW213524   1.428   2.326   0.867
 4209SOL     OW13525   0.912   1.452   5.083
 4209SOL    HW113526   0.869   1.395   5.013
 4209SOL    HW213527   0.980   1.512   5.040
 4210SOL     OW13528   3.168   3.287   1.982
 4210SOL    HW113529   3.154   3.382   1.953
 4210SOL    HW213530   3.255   3.279   2.030
 4211SOL     OW13531   5.339   5.633   5.658
 4211SOL    HW113532   5.336   5.534   5.647
 4211SOL    HW213533   5.394   5.656   5.738
 4212SOL     OW13534   6.356   2.472   2.044
 4212SOL    HW113535   6.404   2.560   2.041
 4212SOL    HW213536   6.273   2.478   1.988
 4213SOL     OW13537   2.495   0.673   2.586
 4213SOL    HW113538   2.579   0.685   2.639
 4213SOL    HW213539   2.512   0.693   2.490
 4214SOL     OW13540   0.830   4.094   6.087
 4214SOL    HW113541   0.889   4.131   6.159
 4214SOL    HW213542   0.765   4.164   6.057
 4215SOL     OW13543   6.926   5.611   4.845
 4215SOL    HW113544   6.881   5.607   4.756
 4215SOL    HW213545   6.922   5.705   4.880
 4216SOL     OW13546   1.507   2.031   3.782
 4216SOL    HW113547   1.436   2.102   3.783
 4216SOL    HW213548   1.516   1.995   3.689
 4217SOL     OW13549   6.929   0.440   2.972
 4217SOL    HW113550   6.868   0.369   2.936
 4217SOL    HW213551   6.898   0.530   2.941
 4218SOL     OW13552   5.079   0.117   1.768
 4218SOL    HW113553   5.013   0.090   1.838
 4218SOL    HW213554   5.146   0.179   1.807
 4219SOL     OW13555   3.011   4.839   5.138
 4219SOL    HW113556   2.956   4.865   5.218
 4219SOL    HW213557   2.968   4.761   5.092
 4220SOL     OW13558   6.475   3.544   3.096
 4220SOL    HW113559   6.497   3.572   3.002
 4220SOL    HW213560   6.450   3.624   3.150
 4221SOL     OW13561   6.547   5.723   6.078
 4221SOL    HW113562   6.534   5.817   6.048
 4221SOL    HW213563   6.526   5.717   6.176
 4222SOL     OW13564   6.113   1.827   1.854
 4222SOL    HW113565   6.207   1.859   1.869
 4222SOL    HW213566   6.056   1.855   1.931
 4223SOL     OW13567   4.130   3.262   3.382
 4223SOL    HW113568   4.160   3.303   3.468
 4223SOL    HW213569   4.107   3.166   3.398
 4224SOL     OW13570   4.909   3.281   3.852
 4224SOL    HW113571   4.863   3.243   3.933
 4224SOL    HW213572   4.918   3.380   3.864
 4225SOL     OW13573   5.730   0.680   5.455
 4225SOL    HW113574   5.663   0.634   5.397
 4225SOL    HW213575   5.818   0.633   5.449
 4226SOL     OW13576   2.047   1.068   3.577
 4226SOL    HW113577   2.063   1.111   3.489
 4226SOL    HW213578   2.030   0.970   3.564
 4227SOL     OW13579   3.437   4.014   6.415
 4227SOL    HW113580   3.469   4.005   6.509
 4227SOL    HW213581   3.480   3.945   6.358
 4228SOL     OW13582   5.393   5.759   4.127
 4228SOL    HW113583   5.320   5.705   4.086
 4228SOL    HW213584   5.429   5.711   4.207
 4229SOL     OW13585   3.759   4.784   5.839
 4229SOL    HW113586   3.811   4.868   5.821
 4229SOL    HW213587   3.666   4.794   5.806
 4230SOL     OW13588   2.468   0.294   4.670
 4230SOL    HW113589   2.404   0.229   4.629
 4230SOL    HW213590   2.481   0.371   4.609
 4231SOL     OW13591   5.324   6.204   5.230
 4231SOL    HW113592   5.253   6.251   5.177
 4231SOL    HW213593   5.413   6.245   5.211
 4232SOL     OW13594   0.486   4.971   2.031
 4232SOL    HW113595   0.393   5.008   2.035
 4232SOL    HW213596   0.541   5.026   1.968
 4233SOL     OW13597   6.366   0.235   0.469
 4233SOL    HW113598   6.373   0.199   0.376
 4233SOL    HW213599   6.379   0.334   0.468
 4234SOL     OW13600   2.197   5.298   5.747
 4234SOL    HW113601   2.153   5.215   5.713
 4234SOL    HW213602   2.253   5.338   5.674
 4235SOL     OW13603   6.159   4.356   5.609
 4235SOL    HW113604   6.066   4.379   5.636
 4235SOL    HW213605   6.163   4.260   5.580
 4236SOL     OW13606   6.718   3.319   3.796
 4236SOL    HW113607   6.690   3.386   3.728
 4236SOL    HW213608   6.674   3.231   3.777
 4237SOL     OW13609   6.566   4.419   4.166
 4237SOL    HW113610   6.542   4.350   4.098
 4237SOL    HW213611   6.486   4.437   4.224
 4238SOL     OW13612   4.227   4.733   4.078
 4238SOL    HW113613   4.278   4.706   4.159
 4238SOL    HW213614   4.135   4.763   4.104
 4239SOL     OW13615   5.218   6.902   4.282
 4239SOL    HW113616   5.147   6.919   4.349
 4239SOL    HW213617   5.247   6.988   4.240
 4240SOL     OW13618   2.963   6.289   6.141
 4240SOL    HW113619   2.900   6.360   6.109
 4240SOL    HW213620   3.050   6.298   6.091
 4241SOL     OW13621   5.484   0.464   0.924
 4241SOL    HW113622   5.446   0.466   0.832
 4241SOL    HW213623   5.482   0.556   0.963
 4242SOL     OW13624   2.341   6.561   3.270
 4242SOL    HW113625   2.280   6.591   3.196
 4242SOL    HW213626   2.379   6.642   3.316
 4243SOL     OW13627   0.202   3.920   2.224
 4243SOL    HW113628   0.266   3.846   2.243
 4243SOL    HW213629   0.109   3.884   2.221
 4244SOL     OW13630   5.068   5.755   0.976
 4244SOL    HW113631   5.079   5.738   0.878
 4244SOL    HW213632   5.093   5.849   0.996
 4245SOL     OW13633   6.578   2.830   0.209
 4245SOL    HW113634   6.613   2.737   0.225
 4245SOL    HW213635   6.500   2.847   0.269
 4246SOL     OW13636   5.101   2.630   2.571
 4246SOL    HW113637   5.100   2.704   2.638
 4246SOL    HW213638   5.192   2.623   2.531
 4247SOL     OW13639   2.474   5.782   4.118
 4247SOL    HW113640   2.558   5.743   4.158
 4247SOL    HW213641   2.491   5.877   4.092
 4248SOL     OW13642   1.671   0.395   3.146
 4248SOL    HW113643   1.694   0.491   3.162
 4248SOL    HW213644   1.728   0.360   3.071
 4249SOL     OW13645   0.377   1.549   3.764
 4249SOL    HW113646   0.313   1.622   3.788
 4249SOL    HW213647   0.390   1.488   3.842
 4250SOL     OW13648   0.092   5.995   4.273
 4250SOL    HW113649   0.127   5.957   4.358
 4250SOL    HW213650   0.045   5.924   4.221
 4251SOL     OW13651   6.109   2.630   6.954
 4251SOL    HW113652   6.203   2.663   6.949
 4251SOL    HW213653   6.063   2.672   0.011
 4252SOL     OW13654   6.335   5.627   6.277
 4252SOL    HW113655   6.363   5.715   6.314
 4252SOL    HW213656   6.242   5.635   6.240
 4253SOL     OW13657   4.142   6.533   2.322
 4253SOL    HW113658   4.047   6.552   2.349
 4253SOL    HW213659   4.151   6.437   2.295
 4254SOL     OW13660   1.835   4.153   0.541
 4254SOL    HW113661   1.777   4.233   0.527
 4254SOL    HW213662   1.904   4.173   0.609
 4255SOL     OW13663   0.575   4.287   3.972
 4255SOL    HW113664   0.584   4.187   3.974
 4255SOL    HW213665   0.625   4.324   3.894
 4256SOL     OW13666   0.879   5.304   1.070
 4256SOL    HW113667   0.832   5.391   1.052
 4256SOL    HW213668   0.866   5.279   1.166
 4257SOL     OW13669   6.053   1.572   4.901
 4257SOL    HW113670   6.110   1.645   4.863
 4257SOL    HW213671   6.070   1.565   5.000
 4258SOL     OW13672   3.287   5.557   1.137
 4258SOL    HW113673   3.333   5.488   1.080
 4258SOL    HW213674   3.329   5.646   1.123
 4259SOL     OW13675   1.530   6.825   1.140
 4259SOL    HW113676   1.578   6.761   1.199
 4259SOL    HW213677   1.499   6.904   1.194
 4260SOL     OW13678   4.988   0.277   4.309
 4260SOL    HW113679   4.959   0.372   4.298
 4260SOL    HW213680   4.972   0.248   4.404
 4261SOL     OW13681   2.260   0.310   3.858
 4261SOL    HW113682   2.200   0.277   3.785
 4261SOL    HW213683   2.205   0.351   3.931
 4262SOL     OW13684   2.004   5.109   5.672
 4262SOL    HW113685   1.948   5.127   5.753
 4262SOL    HW213686   1.958   5.042   5.615
 4263SOL     OW13687   2.974   2.262   3.627
 4263SOL    HW113688   2.960   2.345   3.573
 4263SOL    HW213689   3.059   2.217   3.598
 4264SOL     OW13690   5.833   1.318   4.154
 4264SOL    HW113691   5.795   1.390   4.096
 4264SOL    HW213692   5.904   1.270   4.103
 4265SOL     OW13693   3.695   6.858   0.839
 4265SOL    HW113694   3.633   6.781   0.823
 4265SOL    HW213695   3.645   6.944   0.823
 4266SOL     OW13696   1.379   0.445   0.005
 4266SOL    HW113697   1.339   0.356   0.029
 4266SOL    HW213698   1.402   0.446   6.929
 4267SOL     OW13699   2.307   4.150   4.048
 4267SOL    HW113700   2.297   4.140   3.948
 4267SOL    HW213701   2.236   4.097   4.093
 4268SOL     OW13702   1.421   5.104   6.956
 4268SOL    HW113703   1.464   5.101   6.865
 4268SOL    HW213704   1.322   5.107   6.946
 4269SOL     OW13705   3.569   1.601   3.667
 4269SOL    HW113706   3.506   1.534   3.704
 4269SOL    HW213707   3.592   1.668   3.737
 4270SOL     OW13708   3.567   3.330   1.396
 4270SOL    HW113709   3.517   3.392   1.457
 4270SOL    HW213710   3.535   3.344   1.302
 4271SOL     OW13711   5.956   0.963   1.225
 4271SOL    HW113712   5.870   0.949   1.274
 4271SOL    HW213713   5.944   1.034   1.156
 4272SOL     OW13714   6.796   2.981   5.956
 4272SOL    HW113715   6.848   3.067   5.950
 4272SOL    HW213716   6.710   2.991   5.907
 4273SOL     OW13717   4.812   6.423   5.458
 4273SOL    HW113718   4.734   6.367   5.430
 4273SOL    HW213719   4.836   6.402   5.553
 4274SOL     OW13720   0.796   6.544   2.382
 4274SOL    HW113721   0.867   6.550   2.452
 4274SOL    HW213722   0.788   6.450   2.350
 4275SOL     OW13723   0.060   2.301   4.364
 4275SOL    HW113724   7.002   2.269   4.313
 4275SOL    HW213725   0.140   2.245   4.340
 4276SOL     OW13726   3.105   4.926   3.903
 4276SOL    HW113727   3.031   4.861   3.921
 4276SOL    HW213728   3.107   4.948   3.805
 4277SOL     OW13729   6.837   4.688   3.872
 4277SOL    HW113730   6.834   4.787   3.857
 4277SOL    HW213731   6.775   4.664   3.946
 4278SOL     OW13732   6.417   6.527   3.249
 4278SOL    HW113733   6.371   6.462   3.310
 4278SOL    HW213734   6.411   6.494   3.154
 4279SOL     OW13735   1.551   1.361   2.615
 4279SOL    HW113736   1.553   1.288   2.547
 4279SOL    HW213737   1.640   1.365   2.661
 4280SOL     OW13738   6.693   6.721   6.379
 4280SOL    HW113739   6.603   6.756   6.353
 4280SOL    HW213740   6.757   6.735   6.303
 4281SOL     OW13741   4.761   5.603   4.114
 4281SOL    HW113742   4.690   5.658   4.070
 4281SOL    HW213743   4.754   5.508   4.081
 4282SOL     OW13744   3.212   4.118   0.731
 4282SOL    HW113745   3.151   4.186   0.691
 4282SOL    HW213746   3.291   4.105   0.671
 4283SOL     OW13747   5.147   1.013   3.155
 4283SOL    HW113748   5.239   0.997   3.189
 4283SOL    HW213749   5.083   0.952   3.201
 4284SOL     OW13750   4.162   5.439   0.413
 4284SOL    HW113751   4.180   5.512   0.479
 4284SOL    HW213752   4.247   5.417   0.364
 4285SOL     OW13753   3.627   0.669   6.399
 4285SOL    HW113754   3.689   0.671   6.477
 4285SOL    HW213755   3.538   0.704   6.426
 4286SOL     OW13756   6.688   0.689   0.016
 4286SOL    HW113757   6.742   0.637   6.972
 4286SOL    HW213758   6.728   0.780   0.027
 4287SOL     OW13759   4.265   0.961   0.045
 4287SOL    HW113760   4.249   1.032   6.998
 4287SOL    HW213761   4.304   0.880   0.000
 4288SOL     OW13762   6.411   5.806   1.865
 4288SOL    HW113763   6.340   5.867   1.900
 4288SOL    HW213764   6.414   5.812   1.765
 4289SOL     OW13765   0.376   2.357   5.223
 4289SOL    HW113766   0.452   2.297   5.249
 4289SOL    HW213767   0.400   2.406   5.139
 4290SOL     OW13768   0.250   0.043   3.185
 4290SOL    HW113769   0.345   0.052   3.155
 4290SOL    HW213770   0.246   7.007   3.267
 4291SOL     OW13771   4.943   2.998   6.094
 4291SOL    HW113772   4.875   3.051   6.043
 4291SOL    HW213773   5.029   2.997   6.044
 4292SOL     OW13774   5.134   2.182   0.182
 4292SOL    HW113775   5.176   2.105   0.229
 4292SOL    HW213776   5.144   2.265   0.238
 4293SOL     OW13777   4.723   3.879   6.897
 4293SOL    HW113778   4.690   3.788   6.926
 4293SOL    HW213779   4.652   3.947   6.916
 4294SOL     OW13780   2.777   1.556   6.178
 4294SOL    HW113781   2.806   1.619   6.106
 4294SOL    HW213782   2.858   1.514   6.220
 4295SOL     OW13783   3.986   6.485   2.626
 4295SOL    HW113784   4.049   6.541   2.680
 4295SOL    HW213785   4.036   6.407   2.587
 4296SOL     OW13786   3.257   6.830   1.001
 4296SOL    HW113787   3.245   6.799   1.095
 4296SOL    HW213788   3.315   6.912   1.001
 4297SOL     OW13789   6.896   5.603   1.228
 4297SOL    HW113790   6.951   5.681   1.259
 4297SOL    HW213791   6.953   5.522   1.220
 4298SOL     OW13792   3.981   5.933   1.337
 4298SOL    HW113793   4.061   5.994   1.328
 4298SOL    HW213794   3.902   5.977   1.295
 4299SOL     OW13795   0.673   2.708   6.797
 4299SOL    HW113796   0.667   2.632   6.732
 4299SOL    HW213797   0.650   2.675   6.889
 4300SOL     OW13798   3.153   0.267   0.945
 4300SOL    HW113799   3.233   0.287   0.889
 4300SOL    HW213800   3.123   0.351   0.991
 4301SOL     OW13801   2.970   6.166   1.382
 4301SOL    HW113802   2.943   6.216   1.300
 4301SOL    HW213803   2.922   6.202   1.461
 4302SOL     OW13804   0.321   6.834   6.837
 4302SOL    HW113805   0.377   6.896   6.892
 4302SOL    HW213806   0.246   6.799   6.893
 4303SOL     OW13807   0.074   4.683   3.764
 4303SOL    HW113808   7.009   4.685   3.815
 4303SOL    HW213809   0.062   4.730   3.676
 4304SOL     OW13810   3.586   4.195   2.057
 4304SOL    HW113811   3.487   4.202   2.046
 4304SOL    HW213812   3.631   4.266   2.003
 4305SOL     OW13813   0.764   6.908   5.740
 4305SOL    HW113814   0.784   6.913   5.642
 4305SOL    HW213815   0.712   6.989   5.768
 4306SOL     OW13816   4.906   3.808   4.741
 4306SOL    HW113817   4.962   3.859   4.806
 4306SOL    HW213818   4.862   3.731   4.788
 4307SOL     OW13819   6.188   2.784   5.504
 4307SOL    HW113820   6.160   2.688   5.494
 4307SOL    HW213821   6.254   2.792   5.579
 4308SOL     OW13822   5.212   5.366   1.715
 4308SOL    HW113823   5.176   5.457   1.734
 4308SOL    HW213824   5.288   5.346   1.776
 4309SOL     OW13825   0.691   3.373   6.512
 4309SOL    HW113826   0.604   3.423   6.505
 4309SOL    HW213827   0.723   3.377   6.607
 4310SOL     OW13828   1.470   2.320   2.872
 4310SOL    HW113829   1.443   2.362   2.785
 4310SOL    HW213830   1.546   2.256   2.855
 4311SOL     OW13831   1.234   6.092   2.379
 4311SOL    HW113832   1.235   6.077   2.478
 4311SOL    HW213833   1.203   6.185   2.359
 4312SOL     OW13834   0.905   4.895   2.259
 4312SOL    HW113835   0.812   4.932   2.268
 4312SOL    HW213836   0.952   4.902   2.348
 4313SOL     OW13837   4.606   1.772   0.285
 4313SOL    HW113838   4.578   1.709   0.358
 4313SOL    HW213839   4.544   1.850   0.282
 4314SOL     OW13840   6.790   2.313   5.978
 4314SOL    HW113841   6.708   2.365   5.954
 4314SOL    HW213842   6.862   2.375   6.010
 4315SOL     OW13843   2.056   1.943   2.921
 4315SOL    HW113844   1.958   1.941   2.902
 4315SOL    HW213845   2.105   1.972   2.839
 4316SOL     OW13846   4.913   0.766   2.728
 4316SOL    HW113847   4.854   0.724   2.660
 4316SOL    HW213848   5.009   0.753   2.701
 4317SOL     OW13849   4.429   0.624   5.340
 4317SOL    HW113850   4.485   0.566   5.400
 4317SOL    HW213851   4.438   0.592   5.246
 4318SOL     OW13852   0.443   0.898   4.105
 4318SOL    HW113853   0.465   0.807   4.141
 4318SOL    HW213854   0.392   0.949   4.174
 4319SOL     OW13855   1.177   2.155   1.807
 4319SOL    HW113856   1.260   2.116   1.846
 4319SOL    HW213857   1.126   2.084   1.759
 4320SOL     OW13858   4.187   6.104   0.557
 4320SOL    HW113859   4.107   6.054   0.523
 4320SOL    HW213860   4.236   6.144   0.479
 4321SOL     OW13861   6.641   5.840   3.310
 4321SOL    HW113862   6.706   5.869   3.239
 4321SOL    HW213863   6.625   5.915   3.374
 4322SOL     OW13864   0.755   2.668   5.487
 4322SOL    HW113865   0.848   2.647   5.454
 4322SOL    HW213866   0.761   2.717   5.573
 4323SOL     OW13867   4.327   5.247   0.245
 4323SOL    HW113868   4.413   5.299   0.241
 4323SOL    HW213869   4.345   5.153   0.216
 4324SOL     OW13870   6.767   3.674   5.644
 4324SOL    HW113871   6.849   3.732   5.637
 4324SOL    HW213872   6.786   3.599   5.707
 4325SOL     OW13873   2.759   1.285   2.688
 4325SOL    HW113874   2.825   1.310   2.760
 4325SOL    HW213875   2.670   1.324   2.710
 4326SOL     OW13876   5.229   2.956   2.584
 4326SOL    HW113877   5.287   2.910   2.516
 4326SOL    HW213878   5.160   3.011   2.537
 4327SOL     OW13879   3.502   5.350   3.086
 4327SOL    HW113880   3.491   5.289   3.007
 4327SOL    HW213881   3.569   5.311   3.149
 4328SOL     OW13882   6.127   4.875   4.774
 4328SOL    HW113883   6.213   4.905   4.731
 4328SOL    HW213884   6.125   4.906   4.869
 4329SOL     OW13885   5.656   3.073   5.099
 4329SOL    HW113886   5.715   3.070   5.018
 4329SOL    HW213887   5.590   2.998   5.094
 4330SOL     OW13888   2.711   6.376   5.129
 4330SOL    HW113889   2.810   6.386   5.131
 4330SOL    HW213890   2.669   6.443   5.190
 4331SOL     OW13891   6.949   0.444   1.504
 4331SOL    HW113892   0.013   0.447   1.452
 4331SOL    HW213893   6.876   0.485   1.451
 4332SOL     OW13894   5.846   3.683   3.004
 4332SOL    HW113895   5.758   3.636   3.000
 4332SOL    HW213896   5.886   3.688   2.913
 4333SOL     OW13897   4.825   2.513   4.890
 4333SOL    HW113898   4.923   2.513   4.870
 4333SOL    HW213899   4.811   2.518   4.988
 4334SOL     OW13900   0.962   3.014   2.886
 4334SOL    HW113901   0.945   3.054   2.976
 4334SOL    HW213902   0.908   3.063   2.817
 4335SOL     OW13903   3.152   2.942   0.762
 4335SOL    HW113904   3.073   2.897   0.805
 4335SOL    HW213905   3.140   3.041   0.766
 4336SOL     OW13906   1.981   5.293   5.463
 4336SOL    HW113907   2.002   5.241   5.380
 4336SOL    HW213908   2.004   5.238   5.544
 4337SOL     OW13909   1.285   5.947   2.633
 4337SOL    HW113910   1.214   6.001   2.678
 4337SOL    HW213911   1.249   5.858   2.608
 4338SOL     OW13912   6.260   6.780   5.930
 4338SOL    HW113913   6.174   6.789   5.881
 4338SOL    HW213914   6.335   6.809   5.871
 4339SOL     OW13915   4.042   2.472   0.119
 4339SOL    HW113916   4.007   2.459   0.212
 4339SOL    HW213917   4.125   2.417   0.107
 4340SOL     OW13918   6.097   3.446   0.784
 4340SOL    HW113919   6.140   3.534   0.803
 4340SOL    HW213920   6.082   3.436   0.686
 4341SOL     OW13921   0.894   5.780   2.359
 4341SOL    HW113922   0.901   5.849   2.286
 4341SOL    HW213923   0.811   5.796   2.412
 4342SOL     OW13924   4.865   3.354   2.964
 4342SOL    HW113925   4.812   3.438   2.951
 4342SOL    HW213926   4.953   3.376   3.006
 4343SOL     OW13927   3.546   0.191   6.047
 4343SOL    HW113928   3.497   0.201   6.133
 4343SOL    HW213929   3.567   0.282   6.009
 4344SOL     OW13930   0.454   3.106   3.797
 4344SOL    HW113931   0.517   3.043   3.843
 4344SOL    HW213932   0.377   3.126   3.858
 4345SOL     OW13933   2.950   3.577   2.692
 4345SOL    HW113934   3.002   3.663   2.694
 4345SOL    HW213935   2.888   3.574   2.771
 4346SOL     OW13936   2.130   2.827   3.164
 4346SOL    HW113937   2.032   2.847   3.158
 4346SOL    HW213938   2.146   2.734   3.130
 4347SOL     OW13939   6.372   5.880   1.195
 4347SOL    HW113940   6.465   5.843   1.195
 4347SOL    HW213941   6.347   5.907   1.102
 4348SOL     OW13942   6.472   5.885   3.906
 4348SOL    HW113943   6.388   5.842   3.940
 4348SOL    HW213944   6.549   5.824   3.922
 4349SOL     OW13945   0.249   4.198   3.700
 4349SOL    HW113946   0.327   4.147   3.737
 4349SOL    HW213947   0.248   4.290   3.738
 4350SOL     OW13948   5.612   1.743   4.791
 4350SOL    HW113949   5.637   1.840   4.796
 4350SOL    HW213950   5.537   1.732   4.724
 4351SOL     OW13951   1.508   6.122   1.789
 4351SOL    HW113952   1.448   6.185   1.839
 4351SOL    HW213953   1.501   6.140   1.691
 4352SOL     OW13954   5.656   3.986   1.099
 4352SOL    HW113955   5.642   4.059   1.165
 4352SOL    HW213956   5.583   3.919   1.108
 4353SOL     OW13957   3.105   3.545   6.557
 4353SOL    HW113958   3.158   3.542   6.471
 4353SOL    HW213959   3.123   3.631   6.604
 4354SOL     OW13960   0.547   0.401   4.826
 4354SOL    HW113961   0.597   0.316   4.842
 4354SOL    HW213962   0.572   0.468   4.895
 4355SOL     OW13963   1.259   6.882   3.914
 4355SOL    HW113964   1.334   6.816   3.916
 4355SOL    HW213965   1.276   6.950   3.843
 4356SOL     OW13966   4.950   3.260   5.825
 4356SOL    HW113967   5.005   3.271   5.743
 4356SOL    HW213968   4.923   3.350   5.860
 4357SOL     OW13969   6.629   1.267   2.269
 4357SOL    HW113970   6.611   1.215   2.186
 4357SOL    HW213971   6.543   1.305   2.303
 4358SOL     OW13972   0.198   1.067   0.205
 4358SOL    HW113973   0.219   1.164   0.201
 4358SOL    HW213974   0.106   1.054   0.244
 4359SOL     OW13975   2.041   0.617   6.200
 4359SOL    HW113976   1.966   0.648   6.142
 4359SOL    HW213977   2.097   0.551   6.149
 4360SOL     OW13978   0.857   2.982   3.608
 4360SOL    HW113979   0.910   2.900   3.584
 4360SOL    HW213980   0.773   2.954   3.655
 4361SOL     OW13981   1.883   2.346   1.002
 4361SOL    HW113982   1.833   2.429   0.979
 4361SOL    HW213983   1.854   2.272   0.941
 4362SOL     OW13984   0.823   6.314   4.135
 4362SOL    HW113985   0.805   6.219   4.157
 4362SOL    HW213986   0.814   6.328   4.036
 4363SOL     OW13987   4.493   0.534   3.259
 4363SOL    HW113988   4.545   0.455   3.227
 4363SOL    HW213989   4.419   0.554   3.194
 4364SOL     OW13990   3.033   3.849   2.694
 4364SOL    HW113991   2.994   3.838   2.603
 4364SOL    HW213992   3.094   3.929   2.695
 4365SOL     OW13993   2.631   2.035   1.540
 4365SOL    HW113994   2.584   2.089   1.470
 4365SOL    HW213995   2.566   1.973   1.583
 4366SOL     OW13996   5.651   5.999   5.502
 4366SOL    HW113997   5.565   5.984   5.452
 4366SOL    HW213998   5.728   5.966   5.447
 4367SOL     OW13999   3.209   4.867   2.949
 4367SOL    HW114000   3.225   4.842   2.853
 4367SOL    HW214001   3.277   4.934   2.978
 4368SOL     OW14002   4.173   6.288   2.574
 4368SOL    HW114003   4.226   6.280   2.659
 4368SOL    HW214004   4.229   6.262   2.496
 4369SOL     OW14005   5.201   5.476   3.438
 4369SOL    HW114006   5.138   5.446   3.366
 4369SOL    HW214007   5.150   5.525   3.508
 4370SOL     OW14008   3.833   4.024   1.557
 4370SOL    HW114009   3.874   3.941   1.519
 4370SOL    HW214010   3.733   4.011   1.564
 4371SOL     OW14011   3.083   0.466   2.482
 4371SOL    HW114012   3.104   0.557   2.446
 4371SOL    HW214013   3.059   0.474   2.579
 4372SOL     OW14014   1.443   2.793   4.839
 4372SOL    HW114015   1.410   2.805   4.932
 4372SOL    HW214016   1.374   2.826   4.774
 4373SOL     OW14017   4.587   0.654   6.206
 4373SOL    HW114018   4.622   0.747   6.222
 4373SOL    HW214019   4.506   0.639   6.261
 4374SOL     OW14020   2.438   2.007   1.090
 4374SOL    HW114021   2.440   2.057   1.177
 4374SOL    HW214022   2.421   1.910   1.107
 4375SOL     OW14023   3.615   0.164   3.630
 4375SOL    HW114024   3.531   0.179   3.579
 4375SOL    HW214025   3.628   0.240   3.694
 4376SOL     OW14026   6.475   6.020   1.513
 4376SOL    HW114027   6.379   5.997   1.532
 4376SOL    HW214028   6.508   6.084   1.582
 4377SOL     OW14029   6.324   6.031   0.298
 4377SOL    HW114030   6.253   6.013   0.366
 4377SOL    HW214031   6.281   6.058   0.212
 4378SOL     OW14032   1.472   4.930   2.031
 4378SOL    HW114033   1.459   4.837   1.997
 4378SOL    HW214034   1.450   4.995   1.958
 4379SOL     OW14035   2.295   0.346   1.883
 4379SOL    HW114036   2.266   0.423   1.940
 4379SOL    HW214037   2.265   0.260   1.926
 4380SOL     OW14038   2.014   6.023   4.678
 4380SOL    HW114039   2.018   6.085   4.600
 4380SOL    HW214040   2.061   6.065   4.756
 4381SOL     OW14041   3.337   5.658   4.637
 4381SOL    HW114042   3.312   5.590   4.706
 4381SOL    HW214043   3.384   5.735   4.682
 4382SOL     OW14044   4.642   4.308   4.371
 4382SOL    HW114045   4.633   4.401   4.408
 4382SOL    HW214046   4.695   4.252   4.434
 4383SOL     OW14047   1.199   1.728   5.409
 4383SOL    HW114048   1.216   1.806   5.349
 4383SOL    HW214049   1.231   1.749   5.501
 4384SOL     OW14050   4.050   0.206   1.550
 4384SOL    HW114051   4.014   0.297   1.529
 4384SOL    HW214052   4.122   0.182   1.485
 4385SOL     OW14053   0.073   1.659   4.037
 4385SOL    HW114054   0.120   1.647   3.949
 4385SOL    HW214055   0.069   1.571   4.084
 4386SOL     OW14056   0.955   4.197   6.332
 4386SOL    HW114057   0.977   4.162   6.423
 4386SOL    HW214058   0.965   4.297   6.331
 4387SOL     OW14059   6.344   2.322   1.332
 4387SOL    HW114060   6.443   2.328   1.325
 4387SOL    HW214061   6.319   2.263   1.408
 4388SOL     OW14062   3.778   0.722   6.715
 4388SOL    HW114063   3.861   0.761   6.754
 4388SOL    HW214064   3.705   0.790   6.716
 4389SOL     OW14065   5.598   2.498   1.461
 4389SOL    HW114066   5.657   2.419   1.474
 4389SOL    HW214067   5.563   2.499   1.368
 4390SOL     OW14068   4.281   2.334   2.085
 4390SOL    HW114069   4.316   2.324   2.179
 4390SOL    HW214070   4.186   2.301   2.082
 4391SOL     OW14071   1.265   5.740   6.535
 4391SOL    HW114072   1.229   5.714   6.625
 4391SOL    HW214073   1.201   5.801   6.489
 4392SOL     OW14074   5.224   3.449   4.700
 4392SOL    HW114075   5.294   3.399   4.751
 4392SOL    HW214076   5.135   3.432   4.741
 4393SOL     OW14077   4.574   7.001   3.661
 4393SOL    HW114078   4.586   0.044   3.586
 4393SOL    HW214079   4.546   6.912   3.625
 4394SOL     OW14080   5.794   5.935   2.730
 4394SOL    HW114081   5.724   5.967   2.793
 4394SOL    HW214082   5.752   5.908   2.644
 4395SOL     OW14083   4.194   1.876   0.837
 4395SOL    HW114084   4.271   1.902   0.895
 4395SOL    HW214085   4.142   1.957   0.812
 4396SOL     OW14086   2.024   1.777   4.288
 4396SOL    HW114087   1.967   1.796   4.208
 4396SOL    HW214088   2.105   1.726   4.261
 4397SOL     OW14089   0.637   1.264   3.843
 4397SOL    HW114090   0.685   1.350   3.825
 4397SOL    HW214091   0.544   1.283   3.875
 4398SOL     OW14092   1.375   4.702   4.464
 4398SOL    HW114093   1.374   4.609   4.501
 4398SOL    HW214094   1.468   4.738   4.467
 4399SOL     OW14095   2.903   0.640   0.898
 4399SOL    HW114096   2.854   0.584   0.831
 4399SOL    HW214097   2.862   0.628   0.988
 4400SOL     OW14098   1.809   6.962   4.578
 4400SOL    HW114099   1.831   0.037   4.597
 4400SOL    HW214100   1.850   6.935   4.491
 4401SOL     OW14101   5.863   6.393   5.374
 4401SOL    HW114102   5.904   6.460   5.436
 4401SOL    HW214103   5.774   6.426   5.343
 4402SOL     OW14104   1.047   5.652   3.307
 4402SOL    HW114105   1.032   5.601   3.223
 4402SOL    HW214106   0.982   5.623   3.377
 4403SOL     OW14107   6.713   0.276   3.226
 4403SOL    HW114108   6.770   0.356   3.243
 4403SOL    HW214109   6.689   0.272   3.129
 4404SOL     OW14110   1.041   3.633   4.627
 4404SOL    HW114111   0.985   3.565   4.673
 4404SOL    HW214112   1.117   3.587   4.580
 4405SOL     OW14113   3.083   4.622   5.716
 4405SOL    HW114114   3.141   4.680   5.658
 4405SOL    HW214115   3.042   4.550   5.660
 4406SOL     OW14116   4.760   4.939   1.190
 4406SOL    HW114117   4.709   4.855   1.206
 4406SOL    HW214118   4.845   4.918   1.141
 4407SOL     OW14119   0.254   5.790   0.779
 4407SOL    HW114120   0.223   5.751   0.693
 4407SOL    HW214121   0.275   5.717   0.843
 4408SOL     OW14122   4.545   0.545   0.980
 4408SOL    HW114123   4.455   0.552   0.938
 4408SOL    HW214124   4.535   0.514   1.075
 4409SOL     OW14125   4.022   1.240   1.748
 4409SOL    HW114126   3.941   1.242   1.690
 4409SOL    HW214127   3.996   1.263   1.842
 4410SOL     OW14128   2.335   4.245   0.003
 4410SOL    HW114129   2.272   4.224   0.078
 4410SOL    HW214130   2.397   4.168   7.011
 4411SOL     OW14131   3.508   3.121   3.025
 4411SOL    HW114132   3.454   3.046   2.986
 4411SOL    HW214133   3.518   3.106   3.124
 4412SOL     OW14134   4.567   1.325   5.192
 4412SOL    HW114135   4.630   1.265   5.241
 4412SOL    HW214136   4.500   1.362   5.257
 4413SOL     OW14137   4.746   5.635   4.743
 4413SOL    HW114138   4.771   5.730   4.728
 4413SOL    HW214139   4.661   5.615   4.695
 4414SOL     OW14140   5.015   5.002   2.322
 4414SOL    HW114141   5.037   4.917   2.370
 4414SOL    HW214142   5.007   5.076   2.389
 4415SOL     OW14143   5.331   3.294   6.429
 4415SOL    HW114144   5.291   3.205   6.408
 4415SOL    HW214145   5.263   3.350   6.476
 4416SOL     OW14146   2.902   1.877   4.128
 4416SOL    HW114147   2.971   1.886   4.056
 4416SOL    HW214148   2.947   1.872   4.217
 4417SOL     OW14149   6.892   4.820   2.811
 4417SOL    HW114150   6.892   4.842   2.714
 4417SOL    HW214151   6.979   4.775   2.835
 4418SOL     OW14152   4.263   6.658   4.015
 4418SOL    HW114153   4.319   6.602   3.953
 4418SOL    HW214154   4.178   6.683   3.969
 4419SOL     OW14155   5.622   5.734   0.366
 4419SOL    HW114156   5.585   5.690   0.284
 4419SOL    HW214157   5.559   5.720   0.443
 4420SOL     OW14158   4.277   1.054   0.528
 4420SOL    HW114159   4.355   1.104   0.566
 4420SOL    HW214160   4.217   1.025   0.603
 4421SOL     OW14161   2.326   1.441   2.606
 4421SOL    HW114162   2.366   1.465   2.518
 4421SOL    HW214163   2.398   1.429   2.674
 4422SOL     OW14164   2.742   3.145   5.741
 4422SOL    HW114165   2.819   3.167   5.801
 4422SOL    HW214166   2.728   3.046   5.739
 4423SOL     OW14167   0.939   2.332   5.582
 4423SOL    HW114168   0.940   2.267   5.658
 4423SOL    HW214169   0.875   2.300   5.512
 4424SOL     OW14170   5.110   0.119   3.301
 4424SOL    HW114171   5.197   0.165   3.281
 4424SOL    HW214172   5.065   0.165   3.377
 4425SOL     OW14173   3.645   5.503   6.169
 4425SOL    HW114174   3.674   5.414   6.203
 4425SOL    HW214175   3.724   5.564   6.161
 4426SOL     OW14176   0.027   1.009   5.201
 4426SOL    HW114177   0.052   0.915   5.176
 4426SOL    HW214178   6.953   1.011   5.231
 4427SOL     OW14179   0.401   0.817   2.747
 4427SOL    HW114180   0.442   0.869   2.822
 4427SOL    HW214181   0.313   0.779   2.778
 4428SOL     OW14182   2.912   4.746   4.011
 4428SOL    HW114183   2.890   4.747   4.109
 4428SOL    HW214184   2.830   4.723   3.959
 4429SOL     OW14185   3.278   0.193   3.782
 4429SOL    HW114186   3.280   0.273   3.722
 4429SOL    HW214187   3.202   0.201   3.846
 4430SOL     OW14188   4.482   2.464   3.447
 4430SOL    HW114189   4.386   2.440   3.462
 4430SOL    HW214190   4.535   2.381   3.429
 4431SOL     OW14191   3.154   1.049   2.752
 4431SOL    HW114192   3.222   1.122   2.750
 4431SOL    HW214193   3.170   0.987   2.675
 4432SOL     OW14194   3.566   2.882   3.814
 4432SOL    HW114195   3.541   2.867   3.909
 4432SOL    HW214196   3.484   2.878   3.757
 4433SOL     OW14197   6.370   0.260   3.662
 4433SOL    HW114198   6.417   0.176   3.688
 4433SOL    HW214199   6.278   0.238   3.631
 4434SOL     OW14200   4.978   1.267   4.253
 4434SOL    HW114201   4.985   1.232   4.160
 4434SOL    HW214202   4.884   1.258   4.285
 4435SOL     OW14203   3.701   3.412   0.724
 4435SOL    HW114204   3.795   3.418   0.690
 4435SOL    HW214205   3.702   3.407   0.824
 4436SOL     OW14206   3.101   1.969   6.911
 4436SOL    HW114207   3.078   2.050   6.857
 4436SOL    HW214208   3.183   1.988   6.966
 4437SOL     OW14209   4.428   0.835   4.564
 4437SOL    HW114210   4.358   0.765   4.580
 4437SOL    HW214211   4.462   0.828   4.470
 4438SOL     OW14212   4.427   1.764   6.942
 4438SOL    HW114213   4.468   1.703   7.009
 4438SOL    HW214214   4.481   1.848   6.936
 4439SOL     OW14215   0.818   4.997   1.503
 4439SOL    HW114216   0.809   5.096   1.491
 4439SOL    HW214217   0.730   4.954   1.485
 4440SOL     OW14218   2.036   5.486   6.786
 4440SOL    HW114219   2.083   5.555   6.842
 4440SOL    HW214220   2.095   5.407   6.773
 4441SOL     OW14221   6.052   1.660   1.480
 4441SOL    HW114222   6.131   1.642   1.538
 4441SOL    HW214223   6.026   1.756   1.486
 4442SOL     OW14224   3.254   6.458   3.632
 4442SOL    HW114225   3.282   6.554   3.637
 4442SOL    HW214226   3.178   6.450   3.567
 4443SOL     OW14227   1.256   2.079   6.936
 4443SOL    HW114228   1.331   2.134   6.899
 4443SOL    HW214229   1.170   2.129   6.926
 4444SOL     OW14230   4.069   6.451   6.400
 4444SOL    HW114231   4.035   6.535   6.358
 4444SOL    HW214232   4.019   6.373   6.364
 4445SOL     OW14233   1.364   1.108   6.398
 4445SOL    HW114234   1.348   1.010   6.409
 4445SOL    HW214235   1.347   1.134   6.303
 4446SOL     OW14236   6.148   0.936   1.429
 4446SOL    HW114237   6.078   0.921   1.359
 4446SOL    HW214238   6.105   0.946   1.518
 4447SOL     OW14239   5.041   3.465   5.625
 4447SOL    HW114240   4.981   3.400   5.579
 4447SOL    HW214241   5.136   3.450   5.596
 4448SOL     OW14242   2.971   3.861   0.273
 4448SOL    HW114243   3.012   3.778   0.236
 4448SOL    HW214244   2.874   3.845   0.292
 4449SOL     OW14245   3.556   0.656   6.125
 4449SOL    HW114246   3.601   0.668   6.213
 4449SOL    HW214247   3.624   0.664   6.051
 4450SOL     OW14248   3.724   2.893   3.131
 4450SOL    HW114249   3.667   2.882   3.049
 4450SOL    HW214250   3.810   2.938   3.105
 4451SOL     OW14251   5.743   4.231   2.485
 4451SOL    HW114252   5.643   4.236   2.481
 4451SOL    HW214253   5.772   4.215   2.579
 4452SOL     OW14254   5.897   6.083   4.644
 4452SOL    HW114255   5.910   6.141   4.564
 4452SOL    HW214256   5.802   6.053   4.648
 4453SOL     OW14257   5.962   3.074   0.799
 4453SOL    HW114258   5.928   2.986   0.832
 4453SOL    HW214259   6.055   3.062   0.764
 4454SOL     OW14260   5.291   2.148   1.085
 4454SOL    HW114261   5.257   2.077   1.023
 4454SOL    HW214262   5.363   2.200   1.039
 4455SOL     OW14263   3.059   6.253   0.846
 4455SOL    HW114264   3.042   6.222   0.753
 4455SOL    HW214265   2.977   6.297   0.883
 4456SOL     OW14266   2.238   5.297   2.422
 4456SOL    HW114267   2.189   5.230   2.479
 4456SOL    HW214268   2.196   5.387   2.434
 4457SOL     OW14269   4.256   2.418   6.783
 4457SOL    HW114270   4.245   2.367   6.698
 4457SOL    HW214271   4.167   2.429   6.827
 4458SOL     OW14272   1.909   3.173   6.704
 4458SOL    HW114273   1.918   3.077   6.677
 4458SOL    HW214274   1.819   3.188   6.745
 4459SOL     OW14275   5.354   0.104   4.245
 4459SOL    HW114276   5.312   0.146   4.325
 4459SOL    HW214277   5.446   0.073   4.268
 4460SOL     OW14278   2.479   3.076   6.531
 4460SOL    HW114279   2.482   3.171   6.498
 4460SOL    HW214280   2.439   3.017   6.460
 4461SOL     OW14281   1.057   0.214   2.454
 4461SOL    HW114282   0.961   0.233   2.477
 4461SOL    HW214283   1.115   0.288   2.490
 4462SOL     OW14284   6.653   4.188   1.179
 4462SOL    HW114285   6.746   4.221   1.170
 4462SOL    HW214286   6.652   4.088   1.173
 4463SOL     OW14287   1.937   2.715   6.882
 4463SOL    HW114288   1.903   2.663   6.961
 4463SOL    HW214289   1.916   2.812   6.895
 4464SOL     OW14290   6.204   5.120   0.609
 4464SOL    HW114291   6.190   5.201   0.665
 4464SOL    HW214292   6.252   5.144   0.525
 4465SOL     OW14293   1.876   6.011   2.782
 4465SOL    HW114294   1.976   6.006   2.789
 4465SOL    HW214295   1.847   6.105   2.796
 4466SOL     OW14296   0.991   0.927   2.812
 4466SOL    HW114297   0.920   0.961   2.752
 4466SOL    HW214298   1.065   0.993   2.817
 4467SOL     OW14299   0.809   6.931   3.540
 4467SOL    HW114300   0.776   7.021   3.512
 4467SOL    HW214301   0.839   6.934   3.635
 4468SOL     OW14302   0.520   1.726   0.308
 4468SOL    HW114303   0.500   1.748   0.403
 4468SOL    HW214304   0.446   1.760   0.249
 4469SOL     OW14305   3.043   6.636   1.671
 4469SOL    HW114306   2.961   6.579   1.660
 4469SOL    HW214307   3.123   6.577   1.682
 4470SOL     OW14308   5.513   3.355   1.860
 4470SOL    HW114309   5.438   3.421   1.865
 4470SOL    HW214310   5.477   3.262   1.872
 4471SOL     OW14311   0.390   2.722   0.107
 4471SOL    HW114312   0.314   2.660   0.088
 4471SOL    HW214313   0.358   2.800   0.160
 4472SOL     OW14314   1.385   4.298   2.863
 4472SOL    HW114315   1.385   4.204   2.895
 4472SOL    HW214316   1.451   4.352   2.915
 4473SOL     OW14317   0.221   0.164   4.889
 4473SOL    HW114318   0.316   0.134   4.880
 4473SOL    HW214319   0.162   0.107   4.832
 4474SOL     OW14320   3.339   0.539   2.646
 4474SOL    HW114321   3.308   0.489   2.565
 4474SOL    HW214322   3.413   0.602   2.620
 4475SOL     OW14323   1.502   3.723   1.584
 4475SOL    HW114324   1.582   3.757   1.535
 4475SOL    HW214325   1.439   3.680   1.519
 4476SOL     OW14326   5.284   6.654   3.190
 4476SOL    HW114327   5.364   6.594   3.196
 4476SOL    HW214328   5.207   6.612   3.238
 4477SOL     OW14329   1.613   0.237   6.664
 4477SOL    HW114330   1.557   0.160   6.632
 4477SOL    HW214331   1.662   0.276   6.587
 4478SOL     OW14332   2.035   6.301   2.959
 4478SOL    HW114333   2.107   6.258   3.014
 4478SOL    HW214334   1.980   6.360   3.018
 4479SOL     OW14335   1.367   0.651   6.475
 4479SOL    HW114336   1.358   0.567   6.421
 4479SOL    HW214337   1.446   0.643   6.536
 4480SOL     OW14338   2.161   3.250   4.407
 4480SOL    HW114339   2.096   3.185   4.370
 4480SOL    HW214340   2.181   3.227   4.502
 4481SOL     OW14341   2.034   6.620   4.374
 4481SOL    HW114342   2.133   6.621   4.387
 4481SOL    HW214343   1.989   6.609   4.463
 4482SOL     OW14344   0.820   3.780   3.934
 4482SOL    HW114345   0.852   3.720   4.007
 4482SOL    HW214346   0.895   3.798   3.870
 4483SOL     OW14347   6.777   2.688   1.367
 4483SOL    HW114348   6.722   2.764   1.400
 4483SOL    HW214349   6.781   2.691   1.267
 4484SOL     OW14350   3.667   1.773   5.301
 4484SOL    HW114351   3.750   1.829   5.300
 4484SOL    HW214352   3.652   1.736   5.210
 4485SOL     OW14353   4.965   2.563   6.565
 4485SOL    HW114354   5.058   2.591   6.543
 4485SOL    HW214355   4.932   2.615   6.644
 4486SOL     OW14356   6.596   4.223   4.852
 4486SOL    HW114357   6.543   4.298   4.813
 4486SOL    HW214358   6.604   4.150   4.784
 4487SOL     OW14359   2.475   3.480   6.874
 4487SOL    HW114360   2.570   3.496   6.848
 4487SOL    HW214361   2.445   3.391   6.839
 4488SOL     OW14362   5.373   2.651   6.762
 4488SOL    HW114363   5.380   2.573   6.824
 4488SOL    HW214364   5.340   2.731   6.813
 4489SOL     OW14365   5.178   6.250   4.177
 4489SOL    HW114366   5.221   6.167   4.142
 4489SOL    HW214367   5.087   6.229   4.212
 4490SOL     OW14368   5.453   1.956   1.703
 4490SOL    HW114369   5.404   2.022   1.647
 4490SOL    HW214370   5.532   2.000   1.746
 4491SOL     OW14371   0.877   3.169   3.109
 4491SOL    HW114372   0.784   3.205   3.120
 4491SOL    HW214373   0.906   3.125   3.194
 4492SOL     OW14374   5.233   2.784   0.439
 4492SOL    HW114375   5.318   2.831   0.463
 4492SOL    HW214376   5.223   2.701   0.494
 4493SOL     OW14377   3.839   4.936   4.313
 4493SOL    HW114378   3.828   5.033   4.291
 4493SOL    HW214379   3.858   4.926   4.410
 4494SOL     OW14380   6.953   2.506   6.055
 4494SOL    HW114381   6.956   2.495   6.154
 4494SOL    HW214382   6.989   2.596   6.030
 4495SOL     OW14383   5.471   6.999   3.560
 4495SOL    HW114384   5.529   6.981   3.639
 4495SOL    HW214385   5.401   6.928   3.554
 4496SOL     OW14386   5.427   4.908   0.525
 4496SOL    HW114387   5.492   4.841   0.489
 4496SOL    HW214388   5.441   4.918   0.623
 4497SOL     OW14389   5.375   6.245   6.910
 4497SOL    HW114390   5.411   6.249   6.817
 4497SOL    HW214391   5.291   6.190   6.911
 4498SOL     OW14392   0.460   3.528   6.512
 4498SOL    HW114393   0.480   3.583   6.593
 4498SOL    HW214394   0.394   3.576   6.455
 4499SOL     OW14395   6.710   3.288   4.289
 4499SOL    HW114396   6.700   3.317   4.384
 4499SOL    HW214397   6.707   3.188   4.283
 4500SOL     OW14398   2.986   3.869   3.851
 4500SOL    HW114399   2.905   3.925   3.869
 4500SOL    HW214400   2.968   3.807   3.775
 4501SOL     OW14401   0.841   3.788   5.525
 4501SOL    HW114402   0.883   3.778   5.615
 4501SOL    HW214403   0.759   3.731   5.519
 4502SOL     OW14404   2.059   2.602   6.073
 4502SOL    HW114405   2.075   2.507   6.046
 4502SOL    HW214406   2.005   2.647   6.002
 4503SOL     OW14407   2.267   0.522   3.035
 4503SOL    HW114408   2.193   0.479   3.087
 4503SOL    HW214409   2.310   0.593   3.092
 4504SOL     OW14410   6.504   2.165   5.535
 4504SOL    HW114411   6.440   2.207   5.471
 4504SOL    HW214412   6.476   2.186   5.629
 4505SOL     OW14413   0.321   6.146   4.857
 4505SOL    HW114414   0.315   6.104   4.766
 4505SOL    HW214415   0.230   6.176   4.885
 4506SOL     OW14416   4.165   2.257   4.618
 4506SOL    HW114417   4.166   2.254   4.518
 4506SOL    HW214418   4.072   2.241   4.650
 4507SOL     OW14419   4.984   4.535   1.751
 4507SOL    HW114420   5.009   4.613   1.808
 4507SOL    HW214421   4.893   4.550   1.713
 4508SOL     OW14422   1.221   4.212   6.687
 4508SOL    HW114423   1.275   4.220   6.603
 4508SOL    HW214424   1.166   4.129   6.684
 4509SOL     OW14425   4.570   1.797   4.233
 4509SOL    HW114426   4.622   1.850   4.301
 4509SOL    HW214427   4.632   1.739   4.180
 4510SOL     OW14428   5.400   0.431   5.007
 4510SOL    HW114429   5.392   0.523   4.969
 4510SOL    HW214430   5.491   0.395   4.987
 4511SOL     OW14431   0.159   3.196   6.524
 4511SOL    HW114432   0.153   3.117   6.585
 4511SOL    HW214433   0.076   3.201   6.468
 4512SOL     OW14434   2.498   6.863   6.022
 4512SOL    HW114435   2.462   6.890   5.933
 4512SOL    HW214436   2.573   6.923   6.048
 4513SOL     OW14437   4.818   6.701   1.132
 4513SOL    HW114438   4.781   6.789   1.164
 4513SOL    HW214439   4.823   6.701   1.032
 4514SOL     OW14440   3.985   0.907   4.737
 4514SOL    HW114441   4.048   0.917   4.660
 4514SOL    HW214442   3.958   0.998   4.770
 4515SOL     OW14443   6.404   4.196   6.960
 4515SOL    HW114444   6.347   4.114   6.966
 4515SOL    HW214445   6.349   4.271   6.923
 4516SOL     OW14446   1.361   1.281   6.167
 4516SOL    HW114447   1.422   1.345   6.121
 4516SOL    HW214448   1.267   1.295   6.134
 4517SOL     OW14449   2.697   0.304   5.868
 4517SOL    HW114450   2.598   0.314   5.854
 4517SOL    HW214451   2.718   0.208   5.887
 4518SOL     OW14452   0.009   2.076   3.877
 4518SOL    HW114453   7.001   2.003   3.939
 4518SOL    HW214454   6.967   2.081   3.800
 4519SOL     OW14455   6.924   1.714   2.283
 4519SOL    HW114456   6.830   1.688   2.305
 4519SOL    HW214457   6.985   1.685   2.357
 4520SOL     OW14458   5.626   5.050   2.878
 4520SOL    HW114459   5.633   4.974   2.813
 4520SOL    HW214460   5.663   5.022   2.966
 4521SOL     OW14461   4.873   1.678   5.920
 4521SOL    HW114462   4.868   1.774   5.893
 4521SOL    HW214463   4.863   1.670   6.019
 4522SOL     OW14464   5.127   6.996   3.636
 4522SOL    HW114465   5.187   0.054   3.631
 4522SOL    HW214466   5.169   6.926   3.694
 4523SOL     OW14467   1.624   4.103   0.055
 4523SOL    HW114468   1.534   4.104   0.013
 4523SOL    HW214469   1.665   4.194   0.047
 4524SOL     OW14470   5.231   1.983   5.516
 4524SOL    HW114471   5.231   1.962   5.419
 4524SOL    HW214472   5.277   1.909   5.566
 4525SOL     OW14473   6.593   1.907   3.972
 4525SOL    HW114474   6.614   1.933   3.877
 4525SOL    HW214475   6.582   1.990   4.027
 4526SOL     OW14476   5.160   0.207   1.439
 4526SOL    HW114477   5.148   0.126   1.495
 4526SOL    HW214478   5.081   0.267   1.448
 4527SOL     OW14479   4.451   1.147   3.955
 4527SOL    HW114480   4.427   1.050   3.960
 4527SOL    HW214481   4.402   1.190   3.880
 4528SOL     OW14482   4.912   6.285   0.046
 4528SOL    HW114483   4.986   6.345   0.075
 4528SOL    HW214484   4.824   6.327   0.070
 4529SOL     OW14485   2.658   1.251   3.416
 4529SOL    HW114486   2.640   1.178   3.482
 4529SOL    HW214487   2.619   1.337   3.449
 4530SOL     OW14488   0.621   3.769   5.901
 4530SOL    HW114489   0.573   3.689   5.938
 4530SOL    HW214490   0.576   3.800   5.817
 4531SOL     OW14491   0.965   3.902   3.246
 4531SOL    HW114492   0.876   3.924   3.287
 4531SOL    HW214493   0.986   3.806   3.261
 4532SOL     OW14494   0.074   1.617   2.074
 4532SOL    HW114495   0.118   1.697   2.033
 4532SOL    HW214496   0.017   1.646   2.151
 4533SOL     OW14497   1.579   0.380   3.743
 4533SOL    HW114498   1.560   0.461   3.799
 4533SOL    HW214499   1.578   0.298   3.802
 4534SOL     OW14500   6.273   3.550   4.785
 4534SOL    HW114501   6.224   3.604   4.853
 4534SOL    HW214502   6.214   3.532   4.707
 4535SOL     OW14503   4.522   2.091   2.439
 4535SOL    HW114504   4.459   2.084   2.517
 4535SOL    HW214505   4.509   2.011   2.379
 4536SOL     OW14506   5.025   1.588   4.541
 4536SOL    HW114507   5.037   1.492   4.516
 4536SOL    HW214508   4.929   1.613   4.530
 4537SOL     OW14509   3.633   3.400   6.389
 4537SOL    HW114510   3.597   3.484   6.431
 4537SOL    HW214511   3.559   3.351   6.344
 4538SOL     OW14512   3.521   1.978   4.194
 4538SOL    HW114513   3.548   1.898   4.141
 4538SOL    HW214514   3.602   2.022   4.233
 4539SOL     OW14515   2.692   2.017   4.071
 4539SOL    HW114516   2.653   2.078   4.141
 4539SOL    HW214517   2.779   1.981   4.103
 4540SOL     OW14518   4.123   3.693   3.492
 4540SOL    HW114519   4.084   3.659   3.407
 4540SOL    HW214520   4.211   3.649   3.509
 4541SOL     OW14521   5.497   0.506   0.421
 4541SOL    HW114522   5.485   0.416   0.380
 4541SOL    HW214523   5.428   0.568   0.385
 4542SOL     OW14524   6.034   6.177   1.887
 4542SOL    HW114525   5.962   6.168   1.819
 4542SOL    HW214526   6.010   6.126   1.969
 4543SOL     OW14527   4.692   1.444   6.892
 4543SOL    HW114528   4.649   1.504   6.960
 4543SOL    HW214529   4.707   1.495   6.808
 4544SOL     OW14530   2.638   6.198   6.141
 4544SOL    HW114531   2.590   6.197   6.053
 4544SOL    HW214532   2.619   6.284   6.189
 4545SOL     OW14533   4.990   2.357   5.353
 4545SOL    HW114534   5.001   2.440   5.408
 4545SOL    HW214535   4.911   2.306   5.384
 4546SOL     OW14536   0.810   7.001   6.211
 4546SOL    HW114537   0.830   0.072   6.244
 4546SOL    HW214538   0.872   6.936   6.256
 4547SOL     OW14539   5.953   3.221   2.080
 4547SOL    HW114540   5.897   3.172   2.146
 4547SOL    HW214541   6.032   3.165   2.054
 4548SOL     OW14542   1.507   4.974   4.247
 4548SOL    HW114543   1.546   4.940   4.332
 4548SOL    HW214544   1.495   5.073   4.253
 4549SOL     OW14545   6.789   3.953   3.036
 4549SOL    HW114546   6.870   4.010   3.019
 4549SOL    HW214547   6.814   3.857   3.030
 4550SOL     OW14548   0.645   5.842   3.788
 4550SOL    HW114549   0.630   5.898   3.707
 4550SOL    HW214550   0.584   5.872   3.861
 4551SOL     OW14551   0.355   1.680   5.262
 4551SOL    HW114552   0.266   1.721   5.284
 4551SOL    HW214553   0.381   1.705   5.169
 4552SOL     OW14554   0.129   3.361   5.951
 4552SOL    HW114555   0.053   3.307   5.912
 4552SOL    HW214556   0.094   3.417   6.026
 4553SOL     OW14557   3.917   4.646   6.902
 4553SOL    HW114558   3.835   4.688   6.864
 4553SOL    HW214559   3.916   4.654   7.001
 4554SOL     OW14560   4.207   1.138   2.218
 4554SOL    HW114561   4.168   1.051   2.248
 4554SOL    HW214562   4.136   1.194   2.177
 4555SOL     OW14563   4.282   1.281   6.659
 4555SOL    HW114564   4.209   1.336   6.699
 4555SOL    HW214565   4.351   1.260   6.728
 4556SOL     OW14566   4.140   1.148   3.788
 4556SOL    HW114567   4.125   1.239   3.825
 4556SOL    HW214568   4.097   1.080   3.848
 4557SOL     OW14569   5.228   0.220   4.848
 4557SOL    HW114570   5.315   0.266   4.860
 4557SOL    HW214571   5.159   0.286   4.816
 4558SOL     OW14572   6.515   3.630   6.500
 4558SOL    HW114573   6.581   3.702   6.483
 4558SOL    HW214574   6.502   3.619   6.599
 4559SOL     OW14575   1.726   6.867   1.843
 4559SOL    HW114576   1.823   6.850   1.857
 4559SOL    HW214577   1.679   6.867   1.931
 4560SOL     OW14578   4.960   4.396   3.184
 4560SOL    HW114579   4.868   4.356   3.192
 4560SOL    HW214580   5.012   4.377   3.267
 4561SOL     OW14581   2.790   0.599   1.142
 4561SOL    HW114582   2.707   0.622   1.192
 4561SOL    HW214583   2.867   0.596   1.206
 4562SOL     OW14584   2.870   5.602   5.369
 4562SOL    HW114585   2.857   5.685   5.314
 4562SOL    HW214586   2.833   5.523   5.320
 4563SOL     OW14587   5.991   4.021   0.531
 4563SOL    HW114588   6.002   3.961   0.451
 4563SOL    HW214589   5.902   4.003   0.573
 4564SOL     OW14590   1.360   5.532   0.915
 4564SOL    HW114591   1.288   5.472   0.950
 4564SOL    HW214592   1.413   5.569   0.991
 4565SOL     OW14593   0.358   1.104   5.444
 4565SOL    HW114594   0.330   1.129   5.537
 4565SOL    HW214595   0.433   1.163   5.414
 4566SOL     OW14596   6.736   0.671   0.442
 4566SOL    HW114597   6.820   0.693   0.393
 4566SOL    HW214598   6.658   0.710   0.394
 4567SOL     OW14599   0.359   1.090   0.725
 4567SOL    HW114600   0.327   1.049   0.811
 4567SOL    HW214601   0.308   1.050   0.649
 4568SOL     OW14602   1.834   3.844   5.218
 4568SOL    HW114603   1.926   3.882   5.220
 4568SOL    HW214604   1.771   3.912   5.181
 4569SOL     OW14605   1.678   2.266   3.953
 4569SOL    HW114606   1.706   2.317   3.872
 4569SOL    HW214607   1.753   2.263   4.019
 4570SOL     OW14608   6.969   6.145   3.253
 4570SOL    HW114609   6.982   6.166   3.350
 4570SOL    HW214610   6.872   6.149   3.230
 4571SOL     OW14611   3.680   3.950   5.155
 4571SOL    HW114612   3.599   3.894   5.171
 4571SOL    HW214613   3.758   3.910   5.203
 4572SOL     OW14614   0.125   0.118   1.080
 4572SOL    HW114615   0.087   0.091   0.992
 4572SOL    HW214616   0.167   0.038   1.124
 4573SOL     OW14617   6.179   5.618   1.018
 4573SOL    HW114618   6.159   5.701   0.966
 4573SOL    HW214619   6.094   5.574   1.044
 4574SOL     OW14620   0.028   4.428   0.967
 4574SOL    HW114621   0.020   4.440   0.868
 4574SOL    HW214622   6.958   4.426   1.008
 4575SOL     OW14623   0.069   1.978   0.428
 4575SOL    HW114624   0.146   2.036   0.400
 4575SOL    HW214625   0.082   1.886   0.391
 4576SOL     OW14626   2.888   5.656   5.943
 4576SOL    HW114627   2.984   5.647   5.916
 4576SOL    HW214628   2.880   5.728   6.012
 4577SOL     OW14629   0.116   3.432   2.776
 4577SOL    HW114630   0.129   3.346   2.826
 4577SOL    HW214631   0.199   3.453   2.724
 4578SOL     OW14632   0.529   4.077   3.580
 4578SOL    HW114633   0.568   3.985   3.582
 4578SOL    HW214634   0.483   4.095   3.667
 4579SOL     OW14635   4.326   1.535   3.094
 4579SOL    HW114636   4.401   1.592   3.060
 4579SOL    HW214637   4.350   1.439   3.084
 4580SOL     OW14638   6.294   4.838   0.625
 4580SOL    HW114639   6.227   4.899   0.667
 4580SOL    HW214640   6.318   4.874   0.534
 4581SOL     OW14641   3.073   5.005   2.253
 4581SOL    HW114642   3.068   4.953   2.168
 4581SOL    HW214643   2.996   4.980   2.312
 4582SOL     OW14644   5.834   6.524   4.340
 4582SOL    HW114645   5.743   6.537   4.378
 4582SOL    HW214646   5.890   6.605   4.358
 4583SOL     OW14647   3.021   1.713   4.947
 4583SOL    HW114648   3.022   1.622   4.906
 4583SOL    HW214649   3.016   1.704   5.047
 4584SOL     OW14650   0.343   5.886   6.393
 4584SOL    HW114651   0.360   5.802   6.445
 4584SOL    HW214652   0.273   5.869   6.324
 4585SOL     OW14653   2.629   6.438   3.066
 4585SOL    HW114654   2.646   6.524   3.114
 4585SOL    HW214655   2.615   6.456   2.969
 4586SOL     OW14656   3.676   4.973   1.328
 4586SOL    HW114657   3.638   4.882   1.311
 4586SOL    HW214658   3.760   4.984   1.275
 4587SOL     OW14659   4.271   3.743   1.635
 4587SOL    HW114660   4.185   3.744   1.686
 4587SOL    HW214661   4.339   3.689   1.684
 4588SOL     OW14662   3.631   3.261   5.240
 4588SOL    HW114663   3.704   3.192   5.243
 4588SOL    HW214664   3.551   3.227   5.289
 4589SOL     OW14665   5.806   1.975   2.634
 4589SOL    HW114666   5.879   2.043   2.628
 4589SOL    HW214667   5.723   2.010   2.591
 4590SOL     OW14668   4.460   5.867   1.507
 4590SOL    HW114669   4.398   5.798   1.544
 4590SOL    HW214670   4.420   5.958   1.519
 4591SOL     OW14671   6.787   6.051   5.513
 4591SOL    HW114672   6.731   6.127   5.547
 4591SOL    HW214673   6.763   6.032   5.418
 4592SOL     OW14674   3.991   3.173   1.608
 4592SOL    HW114675   4.017   3.132   1.520
 4592SOL    HW214676   3.901   3.139   1.635
 4593SOL     OW14677   4.581   5.337   3.245
 4593SOL    HW114678   4.532   5.354   3.330
 4593SOL    HW214679   4.567   5.414   3.182
 4594SOL     OW14680   4.549   1.550   1.581
 4594SOL    HW114681   4.461   1.523   1.542
 4594SOL    HW214682   4.623   1.509   1.528
 4595SOL     OW14683   3.614   2.882   6.264
 4595SOL    HW114684   3.606   2.782   6.269
 4595SOL    HW214685   3.711   2.907   6.262
 4596SOL     OW14686   6.016   6.574   1.852
 4596SOL    HW114687   6.015   6.665   1.895
 4596SOL    HW214688   6.072   6.512   1.907
 4597SOL     OW14689   5.048   4.965   6.421
 4597SOL    HW114690   5.085   5.058   6.415
 4597SOL    HW214691   5.017   4.948   6.515
 4598SOL     OW14692   0.951   5.001   6.657
 4598SOL    HW114693   0.937   4.923   6.595
 4598SOL    HW214694   0.911   4.979   6.746
 4599SOL     OW14695   1.299   3.651   1.388
 4599SOL    HW114696   1.337   3.560   1.402
 4599SOL    HW214697   1.232   3.671   1.460
 4600SOL     OW14698   2.982   4.926   6.096
 4600SOL    HW114699   2.911   4.937   6.165
 4600SOL    HW214700   2.945   4.874   6.018
 4601SOL     OW14701   1.889   1.113   5.573
 4601SOL    HW114702   1.962   1.108   5.505
 4601SOL    HW214703   1.837   1.197   5.560
 4602SOL     OW14704   1.249   6.735   1.295
 4602SOL    HW114705   1.213   6.656   1.246
 4602SOL    HW214706   1.219   6.819   1.249
 4603SOL     OW14707   3.831   6.410   1.146
 4603SOL    HW114708   3.759   6.341   1.153
 4603SOL    HW214709   3.801   6.494   1.191
 4604SOL     OW14710   4.090   1.066   0.969
 4604SOL    HW114711   4.109   1.019   1.055
 4604SOL    HW214712   3.993   1.091   0.965
 4605SOL     OW14713   5.118   0.604   3.976
 4605SOL    HW114714   5.192   0.665   4.006
 4605SOL    HW214715   5.104   0.532   4.044
 4606SOL     OW14716   6.926   6.548   2.581
 4606SOL    HW114717   0.004   6.564   2.586
 4606SOL    HW214718   6.910   6.453   2.555
 4607SOL     OW14719   2.159   2.002   0.756
 4607SOL    HW114720   2.196   2.070   0.819
 4607SOL    HW214721   2.127   2.049   0.673
 4608SOL     OW14722   1.342   5.113   5.108
 4608SOL    HW114723   1.296   5.188   5.061
 4608SOL    HW214724   1.296   5.027   5.086
 4609SOL     OW14725   4.613   5.174   6.327
 4609SOL    HW114726   4.516   5.196   6.316
 4609SOL    HW214727   4.656   5.240   6.389
 4610SOL     OW14728   6.968   2.776   0.321
 4610SOL    HW114729   6.902   2.706   0.293
 4610SOL    HW214730   7.015   2.810   0.240
 4611SOL     OW14731   6.492   4.104   6.311
 4611SOL    HW114732   6.511   4.099   6.409
 4611SOL    HW214733   6.407   4.055   6.292
 4612SOL     OW14734   1.747   6.186   6.740
 4612SOL    HW114735   1.780   6.258   6.680
 4612SOL    HW214736   1.771   6.096   6.702
 4613SOL     OW14737   2.169   5.978   2.642
 4613SOL    HW114738   2.263   5.950   2.624
 4613SOL    HW214739   2.108   5.937   2.574
 4614SOL     OW14740   1.726   4.973   6.137
 4614SOL    HW114741   1.662   5.000   6.209
 4614SOL    HW214742   1.760   4.880   6.156
 4615SOL     OW14743   2.020   1.728   0.060
 4615SOL    HW114744   1.968   1.676   0.126
 4615SOL    HW214745   1.975   1.724   6.992
 4616SOL     OW14746   7.015   0.428   6.403
 4616SOL    HW114747   6.983   0.442   6.309
 4616SOL    HW214748   0.094   0.424   6.404
 4617SOL     OW14749   1.001   2.646   2.206
 4617SOL    HW114750   0.995   2.583   2.129
 4617SOL    HW214751   0.968   2.601   2.289
 4618SOL     OW14752   1.525   2.482   5.183
 4618SOL    HW114753   1.431   2.451   5.171
 4618SOL    HW214754   1.585   2.436   5.118
 4619SOL     OW14755   4.515   6.742   3.563
 4619SOL    HW114756   4.524   6.713   3.468
 4619SOL    HW214757   4.569   6.682   3.622
 4620SOL     OW14758   3.377   3.796   6.674
 4620SOL    HW114759   3.281   3.816   6.693
 4620SOL    HW214760   3.429   3.881   6.672
 4621SOL     OW14761   6.218   2.261   4.379
 4621SOL    HW114762   6.209   2.186   4.445
 4621SOL    HW214763   6.169   2.341   4.412
 4622SOL     OW14764   1.222   2.650   1.013
 4622SOL    HW114765   1.278   2.723   1.052
 4622SOL    HW214766   1.172   2.604   1.086
 4623SOL     OW14767   0.053   5.126   0.790
 4623SOL    HW114768   0.112   5.055   0.828
 4623SOL    HW214769   0.047   5.114   0.691
 4624SOL     OW14770   4.705   0.289   3.888
 4624SOL    HW114771   4.785   0.246   3.846
 4624SOL    HW214772   4.710   0.277   3.988
 4625SOL     OW14773   1.316   4.408   6.836
 4625SOL    HW114774   1.292   4.331   6.776
 4625SOL    HW214775   1.322   4.375   6.930
 4626SOL     OW14776   6.055   4.998   1.563
 4626SOL    HW114777   6.069   5.009   1.662
 4626SOL    HW214778   6.016   4.908   1.545
 4627SOL     OW14779   3.203   5.690   5.416
 4627SOL    HW114780   3.113   5.649   5.406
 4627SOL    HW214781   3.271   5.618   5.434
 4628SOL     OW14782   5.895   4.100   3.114
 4628SOL    HW114783   5.994   4.113   3.116
 4628SOL    HW214784   5.850   4.181   3.151
 4629SOL     OW14785   2.050   4.873   5.987
 4629SOL    HW114786   1.989   4.865   6.066
 4629SOL    HW214787   2.115   4.948   6.004
 4630SOL     OW14788   3.269   5.746   3.481
 4630SOL    HW114789   3.348   5.690   3.455
 4630SOL    HW214790   3.192   5.723   3.422
 4631SOL     OW14791   2.979   0.210   3.618
 4631SOL    HW114792   3.058   0.226   3.558
 4631SOL    HW214793   2.984   0.272   3.696
 4632SOL     OW14794   4.458   5.268   2.918
 4632SOL    HW114795   4.388   5.232   2.857
 4632SOL    HW214796   4.431   5.360   2.949
 4633SOL     OW14797   6.830   1.924   4.380
 4633SOL    HW114798   6.751   1.929   4.441
 4633SOL    HW214799   6.805   1.875   4.296
 4634SOL     OW14800   2.799   4.411   6.745
 4634SOL    HW114801   2.853   4.353   6.807
 4634SOL    HW214802   2.813   4.380   6.651
 4635SOL     OW14803   5.976   3.437   2.383
 4635SOL    HW114804   6.022   3.349   2.392
 4635SOL    HW214805   5.981   3.467   2.287
 4636SOL     OW14806   2.918   4.778   6.860
 4636SOL    HW114807   2.993   4.783   6.926
 4636SOL    HW214808   2.954   4.752   6.771
 4637SOL     OW14809   1.275   0.898   6.727
 4637SOL    HW114810   1.366   0.903   6.686
 4637SOL    HW214811   1.222   0.825   6.683
 4638SOL     OW14812   3.962   2.514   6.396
 4638SOL    HW114813   3.992   2.563   6.477
 4638SOL    HW214814   3.975   2.571   6.315
 4639SOL     OW14815   1.511   4.481   5.435
 4639SOL    HW114816   1.582   4.542   5.471
 4639SOL    HW214817   1.422   4.526   5.441
 4640SOL     OW14818   4.927   5.489   3.878
 4640SOL    HW114819   4.983   5.465   3.958
 4640SOL    HW214820   4.926   5.588   3.867
 4641SOL     OW14821   2.649   5.312   4.039
 4641SOL    HW114822   2.569   5.298   4.097
 4641SOL    HW214823   2.711   5.378   4.083
 4642SOL     OW14824   6.235   6.188   5.422
 4642SOL    HW114825   6.218   6.240   5.339
 4642SOL    HW214826   6.150   6.178   5.474
 4643SOL     OW14827   4.400   2.443   0.533
 4643SOL    HW114828   4.479   2.444   0.594
 4643SOL    HW214829   4.317   2.432   0.588
 4644SOL     OW14830   1.548   5.237   5.317
 4644SOL    HW114831   1.504   5.164   5.368
 4644SOL    HW214832   1.592   5.199   5.236
 4645SOL     OW14833   1.838   0.225   4.603
 4645SOL    HW114834   1.917   0.284   4.584
 4645SOL    HW214835   1.758   0.261   4.555
 4646SOL     OW14836   2.545   6.608   2.369
 4646SOL    HW114837   2.614   6.588   2.439
 4646SOL    HW214838   2.566   6.556   2.286
 4647SOL     OW14839   0.915   6.560   3.132
 4647SOL    HW114840   0.943   6.548   3.227
 4647SOL    HW214841   0.906   6.470   3.088
 4648SOL     OW14842   3.661   0.086   1.411
 4648SOL    HW114843   3.725   0.088   1.487
 4648SOL    HW214844   3.685   0.011   1.349
 4649SOL     OW14845   4.870   0.498   5.602
 4649SOL    HW114846   4.922   0.424   5.559
 4649SOL    HW214847   4.815   0.462   5.676
 4650SOL     OW14848   3.578   5.860   3.058
 4650SOL    HW114849   3.563   5.912   2.974
 4650SOL    HW214850   3.492   5.855   3.110
 4651SOL     OW14851   0.178   2.273   1.669
 4651SOL    HW114852   0.158   2.186   1.714
 4651SOL    HW214853   0.119   2.344   1.706
 4652SOL     OW14854   0.644   0.143   3.511
 4652SOL    HW114855   0.661   0.240   3.494
 4652SOL    HW214856   0.556   0.132   3.557
 4653SOL     OW14857   6.542   5.572   0.080
 4653SOL    HW114858   6.622   5.552   0.136
 4653SOL    HW214859   6.525   5.670   0.079
 4654SOL     OW14860   0.753   0.186   0.257
 4654SOL    HW114861   0.836   0.242   0.254
 4654SOL    HW214862   0.763   0.107   0.196
 4655SOL     OW14863   0.268   4.711   2.196
 4655SOL    HW114864   0.246   4.784   2.131
 4655SOL    HW214865   0.193   4.645   2.198
 4656SOL     OW14866   1.005   6.977   2.660
 4656SOL    HW114867   1.077   6.964   2.727
 4656SOL    HW214868   0.960   0.044   2.675
 4657SOL     OW14869   5.297   6.848   2.067
 4657SOL    HW114870   5.262   6.942   2.073
 4657SOL    HW214871   5.397   6.850   2.063
 4658SOL     OW14872   3.491   0.221   2.693
 4658SOL    HW114873   3.513   0.311   2.730
 4658SOL    HW214874   3.425   0.231   2.618
 4659SOL     OW14875   1.979   3.575   5.157
 4659SOL    HW114876   2.024   3.659   5.186
 4659SOL    HW214877   2.034   3.530   5.087
 4660SOL     OW14878   1.382   2.501   4.612
 4660SOL    HW114879   1.291   2.483   4.649
 4660SOL    HW214880   1.441   2.422   4.628
 4661SOL     OW14881   3.743   3.781   4.647
 4661SOL    HW114882   3.807   3.787   4.570
 4661SOL    HW214883   3.649   3.794   4.613
 4662SOL     OW14884   4.786   0.745   5.115
 4662SOL    HW114885   4.781   0.818   5.047
 4662SOL    HW214886   4.824   0.781   5.200
 4663SOL     OW14887   6.725   1.376   2.771
 4663SOL    HW114888   6.685   1.411   2.856
 4663SOL    HW214889   6.655   1.373   2.700
 4664SOL     OW14890   2.224   2.311   6.396
 4664SOL    HW114891   2.233   2.271   6.488
 4664SOL    HW214892   2.253   2.407   6.399
 4665SOL     OW14893   4.791   6.820   6.884
 4665SOL    HW114894   4.747   6.879   6.952
 4665SOL    HW214895   4.863   6.767   6.928
 4666SOL     OW14896   2.306   1.211   6.847
 4666SOL    HW114897   2.346   1.119   6.848
 4666SOL    HW214898   2.292   1.243   6.941
 4667SOL     OW14899   6.712   4.808   0.026
 4667SOL    HW114900   6.693   4.754   6.966
 4667SOL    HW214901   6.626   4.837   0.068
 4668SOL     OW14902   0.312   1.864   4.403
 4668SOL    HW114903   0.232   1.854   4.345
 4668SOL    HW214904   0.358   1.776   4.412
 4669SOL     OW14905   3.259   6.416   0.789
 4669SOL    HW114906   3.268   6.431   0.691
 4669SOL    HW214907   3.187   6.350   0.806
 4670SOL     OW14908   3.374   1.195   4.967
 4670SOL    HW114909   3.440   1.162   4.899
 4670SOL    HW214910   3.281   1.181   4.934
 4671SOL     OW14911   5.999   3.465   1.661
 4671SOL    HW114912   5.947   3.400   1.716
 4671SOL    HW214913   6.001   3.553   1.708
 4672SOL     OW14914   2.724   4.662   6.194
 4672SOL    HW114915   2.681   4.744   6.154
 4672SOL    HW214916   2.740   4.677   6.291
 4673SOL     OW14917   3.906   0.388   1.230
 4673SOL    HW114918   3.937   0.473   1.188
 4673SOL    HW214919   3.964   0.312   1.198
 4674SOL     OW14920   5.414   6.032   6.471
 4674SOL    HW114921   5.392   6.060   6.378
 4674SOL    HW214922   5.489   5.966   6.470
 4675SOL     OW14923   0.573   3.561   0.753
 4675SOL    HW114924   0.575   3.626   0.677
 4675SOL    HW214925   0.529   3.476   0.723
 4676SOL     OW14926   0.884   5.462   3.857
 4676SOL    HW114927   0.792   5.499   3.843
 4676SOL    HW214928   0.878   5.366   3.885
 4677SOL     OW14929   1.649   1.746   0.531
 4677SOL    HW114930   1.722   1.697   0.578
 4677SOL    HW214931   1.599   1.682   0.473
 4678SOL     OW14932   2.390   4.384   2.948
 4678SOL    HW114933   2.326   4.335   2.890
 4678SOL    HW214934   2.472   4.407   2.896
 4679SOL     OW14935   4.800   7.015   2.201
 4679SOL    HW114936   4.806   6.964   2.287
 4679SOL    HW214937   4.802   6.951   2.124
 4680SOL     OW14938   4.233   1.519   1.013
 4680SOL    HW114939   4.161   1.589   1.006
 4680SOL    HW214940   4.206   1.438   0.961
 4681SOL     OW14941   4.429   4.895   6.949
 4681SOL    HW114942   4.441   4.804   6.910
 4681SOL    HW214943   4.517   4.929   6.983
 4682SOL     OW14944   5.524   3.046   6.251
 4682SOL    HW114945   5.594   2.994   6.202
 4682SOL    HW214946   5.556   3.139   6.267
 4683SOL     OW14947   5.720   5.307   2.993
 4683SOL    HW114948   5.695   5.222   2.947
 4683SOL    HW214949   5.749   5.375   2.925
 4684SOL     OW14950   4.706   5.748   6.068
 4684SOL    HW114951   4.783   5.766   6.130
 4684SOL    HW214952   4.625   5.795   6.101
 4685SOL     OW14953   2.068   4.006   6.126
 4685SOL    HW114954   1.991   4.027   6.186
 4685SOL    HW214955   2.123   4.089   6.112
 4686SOL     OW14956   3.969   5.553   0.156
 4686SOL    HW114957   4.031   5.476   0.138
 4686SOL    HW214958   4.018   5.624   0.206
 4687SOL     OW14959   4.228   1.901   3.953
 4687SOL    HW114960   4.129   1.900   3.938
 4687SOL    HW214961   4.248   1.945   4.041
 4688SOL     OW14962   5.869   2.612   5.714
 4688SOL    HW114963   5.960   2.589   5.750
 4688SOL    HW214964   5.871   2.705   5.677
 4689SOL     OW14965   5.568   0.276   1.114
 4689SOL    HW114966   5.663   0.298   1.135
 4689SOL    HW214967   5.536   0.335   1.040
 4690SOL     OW14968   1.924   1.051   0.582
 4690SOL    HW114969   1.873   0.991   0.644
 4690SOL    HW214970   2.011   1.077   0.626
 4691SOL     OW14971   4.330   3.858   0.294
 4691SOL    HW114972   4.283   3.818   0.216
 4691SOL    HW214973   4.428   3.840   0.289
 4692SOL     OW14974   6.069   4.409   3.361
 4692SOL    HW114975   6.137   4.343   3.329
 4692SOL    HW214976   6.098   4.502   3.336
 4693SOL     OW14977   1.299   1.031   3.828
 4693SOL    HW114978   1.208   1.072   3.834
 4693SOL    HW214979   1.369   1.100   3.846
 4694SOL     OW14980   2.320   2.346   0.422
 4694SOL    HW114981   2.411   2.366   0.459
 4694SOL    HW214982   2.264   2.429   0.425
 4695SOL     OW14983   1.550   6.032   0.754
 4695SOL    HW114984   1.618   6.040   0.826
 4695SOL    HW214985   1.549   5.939   0.718
 4696SOL     OW14986   0.450   5.672   6.559
 4696SOL    HW114987   0.515   5.633   6.624
 4696SOL    HW214988   0.405   5.597   6.509
 4697SOL     OW14989   1.392   3.375   2.203
 4697SOL    HW114990   1.341   3.372   2.117
 4697SOL    HW214991   1.341   3.430   2.269
 4698SOL     OW14992   3.700   6.848   3.266
 4698SOL    HW114993   3.656   6.762   3.239
 4698SOL    HW214994   3.738   6.892   3.185
 4699SOL     OW14995   0.504   6.496   2.826
 4699SOL    HW114996   0.502   6.443   2.910
 4699SOL    HW214997   0.561   6.577   2.839
 4700SOL     OW14998   6.690   1.571   1.955
 4700SOL    HW114999   6.767   1.601   1.899
 4700SOL    HW215000   6.718   1.492   2.010
 4701SOL     OW15001   3.250   2.161   1.814
 4701SOL    HW115002   3.330   2.218   1.795
 4701SOL    HW215003   3.241   2.147   1.912
 4702SOL     OW15004   4.639   5.105   0.633
 4702SOL    HW115005   4.558   5.159   0.656
 4702SOL    HW215006   4.610   5.017   0.595
 4703SOL     OW15007   1.194   5.503   2.713
 4703SOL    HW115008   1.245   5.447   2.648
 4703SOL    HW215009   1.142   5.573   2.663
 4704SOL     OW15010   0.576   6.298   5.633
 4704SOL    HW115011   0.484   6.331   5.653
 4704SOL    HW215012   0.571   6.208   5.591
 4705SOL     OW15013   2.977   2.227   0.694
 4705SOL    HW115014   3.069   2.190   0.685
 4705SOL    HW215015   2.949   2.223   0.791
 4706SOL     OW15016   1.760   0.380   0.751
 4706SOL    HW115017   1.728   0.287   0.733
 4706SOL    HW215018   1.784   0.424   0.665
 4707SOL     OW15019   1.199   5.741   1.791
 4707SOL    HW115020   1.181   5.719   1.887
 4707SOL    HW215021   1.297   5.746   1.776
 4708SOL     OW15022   1.022   1.883   5.659
 4708SOL    HW115023   0.960   1.809   5.689
 4708SOL    HW215024   1.116   1.850   5.661
 4709SOL     OW15025   4.282   5.082   4.605
 4709SOL    HW115026   4.361   5.081   4.544
 4709SOL    HW215027   4.208   5.133   4.562
 4710SOL     OW15028   6.265   0.323   5.176
 4710SOL    HW115029   6.327   0.383   5.226
 4710SOL    HW215030   6.306   0.232   5.169
 4711SOL     OW15031   6.533   2.638   3.070
 4711SOL    HW115032   6.435   2.655   3.063
 4711SOL    HW215033   6.581   2.692   3.002
 4712SOL     OW15034   4.011   4.465   6.332
 4712SOL    HW115035   3.998   4.496   6.238
 4712SOL    HW215036   3.960   4.380   6.346
 4713SOL     OW15037   5.357   5.709   0.897
 4713SOL    HW115038   5.317   5.764   0.823
 4713SOL    HW215039   5.363   5.765   0.980
 4714SOL     OW15040   0.273   1.834   6.677
 4714SOL    HW115041   0.357   1.825   6.624
 4714SOL    HW215042   0.195   1.803   6.622
 4715SOL     OW15043   5.848   2.547   1.088
 4715SOL    HW115044   5.912   2.483   1.045
 4715SOL    HW215045   5.823   2.618   1.023
 4716SOL     OW15046   4.901   5.399   5.931
 4716SOL    HW115047   4.889   5.462   6.008
 4716SOL    HW215048   4.865   5.309   5.955
 4717SOL     OW15049   2.152   5.320   5.105
 4717SOL    HW115050   2.063   5.302   5.148
 4717SOL    HW215051   2.150   5.409   5.061
 4718SOL     OW15052   5.049   2.966   0.960
 4718SOL    HW115053   5.048   2.912   0.876
 4718SOL    HW215054   5.139   3.008   0.972
 4719SOL     OW15055   5.131   3.776   2.740
 4719SOL    HW115056   5.180   3.709   2.796
 4719SOL    HW215057   5.091   3.846   2.800
 4720SOL     OW15058   2.360   4.349   5.643
 4720SOL    HW115059   2.296   4.423   5.621
 4720SOL    HW215060   2.452   4.375   5.615
 4721SOL     OW15061   5.796   2.468   1.853
 4721SOL    HW115062   5.817   2.561   1.824
 4721SOL    HW215063   5.832   2.403   1.787
 4722SOL     OW15064   1.145   5.695   0.113
 4722SOL    HW115065   1.153   5.795   0.112
 4722SOL    HW215066   1.152   5.660   0.020
 4723SOL     OW15067   3.914   4.073   5.427
 4723SOL    HW115068   3.862   4.108   5.348
 4723SOL    HW215069   3.996   4.129   5.440
 4724SOL     OW15070   0.196   6.904   4.057
 4724SOL    HW115071   0.207   6.951   3.969
 4724SOL    HW215072   0.115   6.940   4.103
 4725SOL     OW15073   6.171   4.715   0.277
 4725SOL    HW115074   6.265   4.723   0.311
 4725SOL    HW215075   6.121   4.799   0.299
 4726SOL     OW15076   1.230   3.121   6.078
 4726SOL    HW115077   1.282   3.125   5.992
 4726SOL    HW215078   1.254   3.039   6.128
 4727SOL     OW15079   0.364   5.827   0.218
 4727SOL    HW115080   0.443   5.842   0.159
 4727SOL    HW215081   0.361   5.732   0.248
 4728SOL     OW15082   6.549   1.702   2.912
 4728SOL    HW115083   6.598   1.720   2.826
 4728SOL    HW215084   6.510   1.787   2.947
 4729SOL     OW15085   4.881   0.097   0.470
 4729SOL    HW115086   4.886   0.138   0.562
 4729SOL    HW215087   4.973   0.095   0.430
 4730SOL     OW15088   3.393   6.270   5.290
 4730SOL    HW115089   3.393   6.293   5.193
 4730SOL    HW215090   3.307   6.225   5.314
 4731SOL     OW15091   3.143   0.760   0.993
 4731SOL    HW115092   3.059   0.750   0.940
 4731SOL    HW215093   3.216   0.796   0.934
 4732SOL     OW15094   0.884   3.906   5.269
 4732SOL    HW115095   0.982   3.929   5.268
 4732SOL    HW215096   0.859   3.870   5.358
 4733SOL     OW15097   1.610   4.300   2.680
 4733SOL    HW115098   1.546   4.262   2.747
 4733SOL    HW215099   1.639   4.228   2.617
 4734SOL     OW15100   5.141   3.279   0.258
 4734SOL    HW115101   5.218   3.342   0.250
 4734SOL    HW215102   5.104   3.283   0.351
 4735SOL     OW15103   6.614   5.675   3.976
 4735SOL    HW115104   6.610   5.609   4.051
 4735SOL    HW215105   6.576   5.632   3.893
 4736SOL     OW15106   5.912   2.103   4.301
 4736SOL    HW115107   5.923   2.012   4.342
 4736SOL    HW215108   5.842   2.099   4.230
 4737SOL     OW15109   2.367   4.369   0.713
 4737SOL    HW115110   2.429   4.429   0.662
 4737SOL    HW215111   2.355   4.283   0.662
 4738SOL     OW15112   3.487   6.649   4.060
 4738SOL    HW115113   3.447   6.711   4.129
 4738SOL    HW215114   3.416   6.624   3.994
 4739SOL     OW15115   5.715   2.106   4.110
 4739SOL    HW115116   5.647   2.177   4.128
 4739SOL    HW215117   5.674   2.033   4.055
 4740SOL     OW15118   0.562   0.559   0.750
 4740SOL    HW115119   0.551   0.464   0.720
 4740SOL    HW215120   0.506   0.618   0.692
 4741SOL     OW15121   4.668   4.735   0.810
 4741SOL    HW115122   4.682   4.831   0.835
 4741SOL    HW215123   4.757   4.691   0.794
 4742SOL     OW15124   2.957   5.185   1.262
 4742SOL    HW115125   2.871   5.193   1.312
 4742SOL    HW215126   3.012   5.267   1.275
 4743SOL     OW15127   2.032   1.308   5.700
 4743SOL    HW115128   1.968   1.323   5.775
 4743SOL    HW215129   2.010   1.221   5.655
 4744SOL     OW15130   2.455   3.130   5.621
 4744SOL    HW115131   2.411   3.179   5.546
 4744SOL    HW215132   2.549   3.164   5.632
 4745SOL     OW15133   2.545   5.008   5.477
 4745SOL    HW115134   2.589   5.090   5.440
 4745SOL    HW215135   2.448   5.026   5.492
 4746SOL     OW15136   5.856   6.245   1.312
 4746SOL    HW115137   5.939   6.300   1.317
 4746SOL    HW215138   5.808   6.264   1.226
 4747SOL     OW15139   1.255   3.534   6.265
 4747SOL    HW115140   1.282   3.545   6.361
 4747SOL    HW215141   1.195   3.610   6.238
 4748SOL     OW15142   1.454   0.147   1.258
 4748SOL    HW115143   1.487   0.142   1.353
 4748SOL    HW215144   1.529   0.176   1.198
 4749SOL     OW15145   3.219   6.330   6.022
 4749SOL    HW115146   3.203   6.426   6.045
 4749SOL    HW215147   3.272   6.324   5.938
 4750SOL     OW15148   0.498   1.868   4.040
 4750SOL    HW115149   0.409   1.914   4.033
 4750SOL    HW215150   0.563   1.929   4.085
 4751SOL     OW15151   1.998   3.305   0.305
 4751SOL    HW115152   2.065   3.230   0.302
 4751SOL    HW215153   1.941   3.301   0.223
 4752SOL     OW15154   3.084   6.722   0.521
 4752SOL    HW115155   3.089   6.770   0.609
 4752SOL    HW215156   3.008   6.657   0.523
 4753SOL     OW15157   5.446   6.808   4.388
 4753SOL    HW115158   5.349   6.832   4.390
 4753SOL    HW215159   5.490   6.855   4.311
 4754SOL     OW15160   6.357   0.403   5.844
 4754SOL    HW115161   6.373   0.423   5.941
 4754SOL    HW215162   6.444   0.382   5.800
 4755SOL     OW15163   2.427   0.631   0.144
 4755SOL    HW115164   2.338   0.677   0.139
 4755SOL    HW215165   2.499   0.695   0.118
 4756SOL     OW15166   5.724   2.230   1.557
 4756SOL    HW115167   5.695   2.191   1.470
 4756SOL    HW215168   5.675   2.185   1.632
 4757SOL     OW15169   2.032   1.682   1.952
 4757SOL    HW115170   1.935   1.699   1.971
 4757SOL    HW215171   2.052   1.706   1.857
 4758SOL     OW15172   3.217   5.887   5.012
 4758SOL    HW115173   3.270   5.903   5.095
 4758SOL    HW215174   3.164   5.803   5.021
 4759SOL     OW15175   5.287   5.661   4.765
 4759SOL    HW115176   5.348   5.652   4.844
 4759SOL    HW215177   5.279   5.757   4.740
 4760SOL     OW15178   3.281   2.126   1.315
 4760SOL    HW115179   3.182   2.110   1.312
 4760SOL    HW215180   3.299   2.220   1.342
 4761SOL     OW15181   6.475   0.735   6.857
 4761SOL    HW115182   6.509   0.711   6.766
 4761SOL    HW215183   6.547   0.717   6.925
 4762SOL     OW15184   2.930   4.770   3.353
 4762SOL    HW115185   2.995   4.713   3.304
 4762SOL    HW215186   2.966   4.863   3.361
 4763SOL     OW15187   5.709   6.181   3.272
 4763SOL    HW115188   5.737   6.275   3.250
 4763SOL    HW215189   5.756   6.117   3.211
 4764SOL     OW15190   5.166   3.958   5.083
 4764SOL    HW115191   5.122   3.936   5.170
 4764SOL    HW215192   5.137   3.893   5.013
 4765SOL     OW15193   5.081   6.682   4.504
 4765SOL    HW115194   5.081   6.626   4.421
 4765SOL    HW215195   5.025   6.637   4.574
 4766SOL     OW15196   4.183   0.465   3.908
 4766SOL    HW115197   4.153   0.544   3.854
 4766SOL    HW215198   4.268   0.428   3.869
 4767SOL     OW15199   4.621   5.780   0.028
 4767SOL    HW115200   4.591   5.838   6.974
 4767SOL    HW215201   4.561   5.793   0.106
 4768SOL     OW15202   5.360   2.034   4.932
 4768SOL    HW115203   5.292   1.972   4.971
 4768SOL    HW215204   5.418   2.070   5.005
 4769SOL     OW15205   4.291   5.285   1.418
 4769SOL    HW115206   4.238   5.206   1.387
 4769SOL    HW215207   4.254   5.317   1.505
 4770SOL     OW15208   2.031   0.130   3.705
 4770SOL    HW115209   2.126   0.130   3.674
 4770SOL    HW215210   1.981   0.056   3.658
 4771SOL     OW15211   3.452   5.046   6.075
 4771SOL    HW115212   3.449   5.139   6.038
 4771SOL    HW215213   3.372   4.995   6.044
 4772SOL     OW15214   2.134   6.130   2.163
 4772SOL    HW115215   2.142   6.163   2.257
 4772SOL    HW215216   2.217   6.155   2.112
 4773SOL     OW15217   6.791   5.580   4.601
 4773SOL    HW115218   6.767   5.655   4.540
 4773SOL    HW215219   6.710   5.523   4.618
 4774SOL     OW15220   0.795   2.780   2.615
 4774SOL    HW115221   0.723   2.840   2.651
 4774SOL    HW215222   0.883   2.807   2.654
 4775SOL     OW15223   5.549   0.629   3.187
 4775SOL    HW115224   5.565   0.612   3.285
 4775SOL    HW215225   5.634   0.619   3.137
 4776SOL     OW15226   2.416   6.679   3.869
 4776SOL    HW115227   2.370   6.606   3.818
 4776SOL    HW215228   2.463   6.640   3.948
 4777SOL     OW15229   2.407   4.898   1.075
 4777SOL    HW115230   2.415   4.878   0.978
 4777SOL    HW215231   2.420   4.813   1.128
 4778SOL     OW15232   5.178   2.740   1.899
 4778SOL    HW115233   5.151   2.699   1.986
 4778SOL    HW215234   5.216   2.670   1.839
 4779SOL     OW15235   6.286   6.936   2.153
 4779SOL    HW115236   6.350   6.891   2.090
 4779SOL    HW215237   6.255   0.001   2.113
 4780SOL     OW15238   0.951   6.607   6.999
 4780SOL    HW115239   1.010   6.529   6.978
 4780SOL    HW215240   0.987   6.657   0.057
 4781SOL     OW15241   3.180   6.131   1.141
 4781SOL    HW115242   3.216   6.067   1.074
 4781SOL    HW215243   3.090   6.162   1.113
 4782SOL     OW15244   4.788   6.559   0.141
 4782SOL    HW115245   4.853   6.629   0.112
 4782SOL    HW215246   4.731   6.594   0.215
 4783SOL     OW15247   4.711   4.305   0.531
 4783SOL    HW115248   4.770   4.354   0.466
 4783SOL    HW215249   4.761   4.226   0.567
 4784SOL     OW15250   6.118   4.701   0.012
 4784SOL    HW115251   6.109   4.691   0.111
 4784SOL    HW215252   6.215   4.697   7.008
 4785SOL     OW15253   6.994   5.990   1.559
 4785SOL    HW115254   6.943   6.022   1.480
 4785SOL    HW215255   6.930   5.958   1.629
 4786SOL     OW15256   1.894   2.277   2.061
 4786SOL    HW115257   1.801   2.240   2.072
 4786SOL    HW215258   1.953   2.239   2.132
 4787SOL     OW15259   3.476   2.041   3.480
 4787SOL    HW115260   3.493   2.097   3.561
 4787SOL    HW215261   3.499   1.946   3.500
 4788SOL     OW15262   1.560   5.085   6.327
 4788SOL    HW115263   1.537   5.175   6.365
 4788SOL    HW215264   1.521   5.014   6.385
 4789SOL     OW15265   5.298   0.663   0.301
 4789SOL    HW115266   5.272   0.630   0.210
 4789SOL    HW215267   5.260   0.754   0.316
 4790SOL     OW15268   6.445   3.538   6.740
 4790SOL    HW115269   6.418   3.451   6.782
 4790SOL    HW215270   6.420   3.613   6.801
 4791SOL     OW15271   5.397   2.272   1.920
 4791SOL    HW115272   5.373   2.319   1.835
 4791SOL    HW215273   5.395   2.337   1.996
 4792SOL     OW15274   1.605   2.989   2.558
 4792SOL    HW115275   1.672   3.059   2.534
 4792SOL    HW215276   1.517   3.032   2.579
 4793SOL     OW15277   1.013   2.592   5.644
 4793SOL    HW115278   1.068   2.593   5.728
 4793SOL    HW215279   0.973   2.501   5.632
 4794SOL     OW15280   3.976   0.696   3.357
 4794SOL    HW115281   3.877   0.687   3.364
 4794SOL    HW215282   3.998   0.782   3.310
 4795SOL     OW15283   6.777   2.538   4.060
 4795SOL    HW115284   6.837   2.539   4.140
 4795SOL    HW215285   6.791   2.454   4.007
 4796SOL     OW15286   4.862   1.842   6.522
 4796SOL    HW115287   4.887   1.934   6.491
 4796SOL    HW215288   4.814   1.849   6.609
 4797SOL     OW15289   1.576   5.906   4.885
 4797SOL    HW115290   1.502   5.849   4.849
 4797SOL    HW215291   1.623   5.856   4.958
 4798SOL     OW15292   0.012   3.817   5.644
 4798SOL    HW115293   6.998   3.908   5.664
 4798SOL    HW215294   0.076   3.791   5.716
 4799SOL     OW15295   4.934   1.952   5.903
 4799SOL    HW115296   4.977   1.985   5.988
 4799SOL    HW215297   4.869   2.021   5.870
 4800SOL     OW15298   3.518   3.080   6.050
 4800SOL    HW115299   3.573   2.997   6.045
 4800SOL    HW215300   3.426   3.062   6.016
 4801SOL     OW15301   2.339   1.997   0.117
 4801SOL    HW115302   2.357   1.909   0.072
 4801SOL    HW215303   2.381   1.996   0.208
 4802SOL     OW15304   1.252   6.518   2.426
 4802SOL    HW115305   1.284   6.572   2.504
 4802SOL    HW215306   1.204   6.436   2.460
 4803SOL     OW15307   0.777   6.752   0.581
 4803SOL    HW115308   0.732   6.754   0.670
 4803SOL    HW215309   0.863   6.703   0.587
 4804SOL     OW15310   4.071   5.157   6.302
 4804SOL    HW115311   4.074   5.085   6.371
 4804SOL    HW215312   4.005   5.132   6.231
 4805SOL     OW15313   6.855   6.623   1.386
 4805SOL    HW115314   6.792   6.574   1.447
 4805SOL    HW215315   6.826   6.718   1.378
 4806SOL     OW15316   6.979   3.547   3.424
 4806SOL    HW115317   6.907   3.521   3.487
 4806SOL    HW215318   7.008   3.641   3.443
 4807SOL     OW15319   1.235   5.442   0.532
 4807SOL    HW115320   1.332   5.424   0.511
 4807SOL    HW215321   1.194   5.360   0.572
 4808SOL     OW15322   5.984   3.852   0.332
 4808SOL    HW115323   5.953   3.770   0.285
 4808SOL    HW215324   6.082   3.845   0.351
 4809SOL     OW15325   3.810   3.923   6.642
 4809SOL    HW115326   3.901   3.962   6.629
 4809SOL    HW215327   3.798   3.846   6.580
 4810SOL     OW15328   1.472   4.331   2.333
 4810SOL    HW115329   1.481   4.381   2.419
 4810SOL    HW215330   1.460   4.395   2.257
 4811SOL     OW15331   2.368   4.395   2.190
 4811SOL    HW115332   2.413   4.365   2.274
 4811SOL    HW215333   2.427   4.461   2.143
 4812SOL     OW15334   6.611   4.826   5.218
 4812SOL    HW115335   6.706   4.858   5.223
 4812SOL    HW215336   6.579   4.802   5.309
 4813SOL     OW15337   4.911   1.224   2.009
 4813SOL    HW115338   4.825   1.221   1.960
 4813SOL    HW215339   4.960   1.137   1.996
 4814SOL     OW15340   6.090   4.476   0.387
 4814SOL    HW115341   6.059   4.409   0.320
 4814SOL    HW215342   6.111   4.562   0.341
 4815SOL     OW15343   5.509   4.532   2.037
 4815SOL    HW115344   5.420   4.509   1.997
 4815SOL    HW215345   5.578   4.531   1.965
 4816SOL     OW15346   5.919   5.199   2.662
 4816SOL    HW115347   5.935   5.114   2.611
 4816SOL    HW215348   5.822   5.221   2.659
 4817SOL     OW15349   0.745   2.198   6.100
 4817SOL    HW115350   0.795   2.270   6.052
 4817SOL    HW215351   0.796   2.169   6.181
 4818SOL     OW15352   0.820   0.077   4.506
 4818SOL    HW115353   0.890   0.130   4.554
 4818SOL    HW215354   0.854   0.050   4.416
 4819SOL     OW15355   1.798   3.238   0.713
 4819SOL    HW115356   1.719   3.176   0.713
 4819SOL    HW215357   1.802   3.286   0.626
 4820SOL     OW15358   7.004   3.201   1.721
 4820SOL    HW115359   0.041   3.132   1.679
 4820SOL    HW215360   0.009   3.291   1.688
 4821SOL     OW15361   0.622   5.912   3.010
 4821SOL    HW115362   0.715   5.881   2.989
 4821SOL    HW215363   0.598   5.989   2.951
 4822SOL     OW15364   1.210   3.607   4.250
 4822SOL    HW115365   1.288   3.638   4.194
 4822SOL    HW215366   1.238   3.601   4.345
 4823SOL     OW15367   1.650   2.130   2.812
 4823SOL    HW115368   1.713   2.111   2.736
 4823SOL    HW215369   1.616   2.043   2.849
 4824SOL     OW15370   5.567   2.063   5.539
 4824SOL    HW115371   5.531   2.112   5.460
 4824SOL    HW215372   5.649   2.012   5.511
 4825SOL     OW15373   1.243   1.896   4.245
 4825SOL    HW115374   1.163   1.915   4.302
 4825SOL    HW215375   1.321   1.872   4.303
 4826SOL     OW15376   5.086   0.691   0.641
 4826SOL    HW115377   5.054   0.604   0.604
 4826SOL    HW215378   5.066   0.694   0.739
 4827SOL     OW15379   6.060   1.830   0.221
 4827SOL    HW115380   6.128   1.894   0.258
 4827SOL    HW215381   6.099   1.782   0.143
 4828SOL     OW15382   4.543   0.682   1.411
 4828SOL    HW115383   4.525   0.776   1.441
 4828SOL    HW215384   4.641   0.668   1.401
 4829SOL     OW15385   4.517   6.638   6.613
 4829SOL    HW115386   4.535   6.540   6.614
 4829SOL    HW215387   4.603   6.689   6.606
 4830SOL     OW15388   3.908   5.821   4.073
 4830SOL    HW115389   3.929   5.732   4.033
 4830SOL    HW215390   3.810   5.839   4.065
 4831SOL     OW15391   2.758   5.420   5.199
 4831SOL    HW115392   2.784   5.372   5.115
 4831SOL    HW215393   2.727   5.512   5.177
 4832SOL     OW15394   3.225   2.983   4.443
 4832SOL    HW115395   3.173   2.915   4.391
 4832SOL    HW215396   3.162   3.046   4.489
 4833SOL     OW15397   5.568   2.132   3.140
 4833SOL    HW115398   5.521   2.112   3.054
 4833SOL    HW215399   5.539   2.221   3.174
 4834SOL     OW15400   2.566   6.011   2.401
 4834SOL    HW115401   2.522   5.990   2.488
 4834SOL    HW215402   2.548   5.937   2.336
 4835SOL     OW15403   5.986   3.223   6.003
 4835SOL    HW115404   5.998   3.224   5.904
 4835SOL    HW215405   6.051   3.159   6.044
 4836SOL     OW15406   5.131   1.384   5.550
 4836SOL    HW115407   5.108   1.350   5.458
 4836SOL    HW215408   5.177   1.472   5.542
 4837SOL     OW15409   6.810   3.422   2.698
 4837SOL    HW115410   6.898   3.467   2.686
 4837SOL    HW215411   6.793   3.361   2.621
 4838SOL     OW15412   2.058   5.123   6.632
 4838SOL    HW115413   2.147   5.165   6.618
 4838SOL    HW215414   2.069   5.039   6.685
 4839SOL     OW15415   1.274   3.465   6.833
 4839SOL    HW115416   1.364   3.445   6.795
 4839SOL    HW215417   1.225   3.379   6.849
 4840SOL     OW15418   5.532   3.924   5.436
 4840SOL    HW115419   5.622   3.889   5.461
 4840SOL    HW215420   5.522   4.017   5.470
 4841SOL     OW15421   3.418   5.677   2.892
 4841SOL    HW115422   3.428   5.668   2.793
 4841SOL    HW215423   3.476   5.751   2.925
 4842SOL     OW15424   2.584   5.322   3.178
 4842SOL    HW115425   2.508   5.336   3.243
 4842SOL    HW215426   2.562   5.245   3.118
 4843SOL     OW15427   6.419   2.509   1.740
 4843SOL    HW115428   6.442   2.606   1.731
 4843SOL    HW215429   6.429   2.482   1.836
 4844SOL     OW15430   1.189   3.752   5.532
 4844SOL    HW115431   1.257   3.791   5.469
 4844SOL    HW215432   1.217   3.770   5.626
 4845SOL     OW15433   4.570   4.861   5.429
 4845SOL    HW115434   4.623   4.946   5.432
 4845SOL    HW215435   4.500   4.868   5.358
 4846SOL     OW15436   0.043   2.046   3.427
 4846SOL    HW115437   0.020   2.137   3.392
 4846SOL    HW215438   0.135   2.048   3.467
 4847SOL     OW15439   2.489   0.886   5.188
 4847SOL    HW115440   2.585   0.904   5.167
 4847SOL    HW215441   2.481   0.846   5.279
 4848SOL     OW15442   2.713   1.350   4.105
 4848SOL    HW115443   2.690   1.253   4.106
 4848SOL    HW215444   2.713   1.383   4.010
 4849SOL     OW15445   1.976   0.108   0.772
 4849SOL    HW115446   1.987   0.189   0.830
 4849SOL    HW215447   1.910   0.046   0.814
 4850SOL     OW15448   4.338   0.516   1.630
 4850SOL    HW115449   4.290   0.526   1.542
 4850SOL    HW215450   4.333   0.602   1.680
 4851SOL     OW15451   4.024   5.649   6.495
 4851SOL    HW115452   4.033   5.580   6.423
 4851SOL    HW215453   4.076   5.621   6.575
 4852SOL     OW15454   3.363   5.798   4.378
 4852SOL    HW115455   3.327   5.891   4.373
 4852SOL    HW215456   3.307   5.745   4.442
 4853SOL     OW15457   3.717   1.189   2.988
 4853SOL    HW115458   3.639   1.249   3.005
 4853SOL    HW215459   3.793   1.241   2.950
 4854SOL     OW15460   5.738   6.611   1.993
 4854SOL    HW115461   5.790   6.530   1.966
 4854SOL    HW215462   5.800   6.678   2.035
 4855SOL     OW15463   6.963   3.500   4.974
 4855SOL    HW115464   6.957   3.525   4.877
 4855SOL    HW215465   0.025   3.448   4.990
 4856SOL     OW15466   0.366   3.010   2.264
 4856SOL    HW115467   0.428   2.985   2.189
 4856SOL    HW215468   0.286   2.950   2.263
 4857SOL     OW15469   3.486   2.139   3.746
 4857SOL    HW115470   3.419   2.152   3.819
 4857SOL    HW215471   3.556   2.210   3.752
 4858SOL     OW15472   1.044   0.183   4.653
 4858SOL    HW115473   1.092   0.173   4.566
 4858SOL    HW215474   1.079   0.115   4.718
 4859SOL     OW15475   1.225   4.958   1.453
 4859SOL    HW115476   1.231   4.892   1.528
 4859SOL    HW215477   1.307   5.015   1.452
 4860SOL     OW15478   3.986   4.503   0.364
 4860SOL    HW115479   4.052   4.437   0.400
 4860SOL    HW215480   3.996   4.590   0.412
 4861SOL     OW15481   6.425   4.907   5.894
 4861SOL    HW115482   6.349   4.901   5.829
 4861SOL    HW215483   6.474   4.993   5.881
 4862SOL     OW15484   3.053   4.882   4.700
 4862SOL    HW115485   3.026   4.977   4.692
 4862SOL    HW215486   2.973   4.826   4.722
 4863SOL     OW15487   4.881   3.146   2.696
 4863SOL    HW115488   4.903   3.184   2.786
 4863SOL    HW215489   4.833   3.059   2.708
 4864SOL     OW15490   3.019   1.463   1.723
 4864SOL    HW115491   3.023   1.559   1.749
 4864SOL    HW215492   3.005   1.456   1.624
 4865SOL     OW15493   2.586   5.017   5.977
 4865SOL    HW115494   2.598   5.066   5.890
 4865SOL    HW215495   2.615   5.076   6.052
 4866SOL     OW15496   6.081   5.024   1.831
 4866SOL    HW115497   5.982   5.030   1.831
 4866SOL    HW215498   6.109   4.939   1.877
 4867SOL     OW15499   5.018   6.049   3.544
 4867SOL    HW115500   5.110   6.030   3.579
 4867SOL    HW215501   4.950   6.024   3.613
 4868SOL     OW15502   0.835   5.251   1.433
 4868SOL    HW115503   0.793   5.340   1.415
 4868SOL    HW215504   0.916   5.263   1.490
 4869SOL     OW15505   6.487   1.948   0.870
 4869SOL    HW115506   6.552   2.003   0.922
 4869SOL    HW215507   6.395   1.959   0.906
 4870SOL     OW15508   4.129   5.727   1.661
 4870SOL    HW115509   4.155   5.680   1.576
 4870SOL    HW215510   4.030   5.718   1.674
 4871SOL     OW15511   1.278   1.597   3.176
 4871SOL    HW115512   1.239   1.672   3.123
 4871SOL    HW215513   1.303   1.522   3.114
 4872SOL     OW15514   1.026   0.073   3.124
 4872SOL    HW115515   1.030   0.076   3.224
 4872SOL    HW215516   1.113   0.107   3.087
 4873SOL     OW15517   0.201   5.027   5.120
 4873SOL    HW115518   0.112   5.029   5.074
 4873SOL    HW215519   0.251   4.945   5.092
 4874SOL     OW15520   5.610   3.915   2.428
 4874SOL    HW115521   5.528   3.873   2.390
 4874SOL    HW215522   5.624   4.005   2.387
 4875SOL     OW15523   5.457   2.244   1.323
 4875SOL    HW115524   5.384   2.237   1.255
 4875SOL    HW215525   5.540   2.200   1.289
 4876SOL     OW15526   6.063   0.279   5.624
 4876SOL    HW115527   5.976   0.232   5.636
 4876SOL    HW215528   6.117   0.272   5.707
 4877SOL     OW15529   6.723   1.566   1.019
 4877SOL    HW115530   6.626   1.541   1.019
 4877SOL    HW215531   6.734   1.658   0.981
 4878SOL     OW15532   0.226   1.802   1.939
 4878SOL    HW115533   0.202   1.886   1.989
 4878SOL    HW215534   0.324   1.799   1.923
 4879SOL     OW15535   4.445   4.503   2.828
 4879SOL    HW115536   4.390   4.521   2.909
 4879SOL    HW215537   4.521   4.443   2.851
 4880SOL     OW15538   5.451   2.161   0.278
 4880SOL    HW115539   5.532   2.118   0.319
 4880SOL    HW215540   5.419   2.106   0.201
 4881SOL     OW15541   2.816   6.552   6.108
 4881SOL    HW115542   2.717   6.554   6.095
 4881SOL    HW215543   2.861   6.555   6.018
 4882SOL     OW15544   6.413   1.674   5.483
 4882SOL    HW115545   6.397   1.765   5.446
 4882SOL    HW215546   6.510   1.662   5.502
 4883SOL     OW15547   5.497   4.422   2.526
 4883SOL    HW115548   5.451   4.334   2.539
 4883SOL    HW215549   5.508   4.440   2.429
 4884SOL     OW15550   4.581   0.418   1.738
 4884SOL    HW115551   4.640   0.397   1.660
 4884SOL    HW215552   4.487   0.433   1.706
 4885SOL     OW15553   1.820   6.445   2.169
 4885SOL    HW115554   1.779   6.533   2.193
 4885SOL    HW215555   1.918   6.456   2.152
 4886SOL     OW15556   0.191   6.540   6.777
 4886SOL    HW115557   0.151   6.454   6.747
 4886SOL    HW215558   0.290   6.531   6.782
 4887SOL     OW15559   6.501   2.282   3.674
 4887SOL    HW115560   6.510   2.226   3.757
 4887SOL    HW215561   6.469   2.373   3.699
 4888SOL     OW15562   1.853   6.907   3.620
 4888SOL    HW115563   1.821   6.886   3.527
 4888SOL    HW215564   1.878   6.822   3.666
 4889SOL     OW15565   0.539   2.139   0.420
 4889SOL    HW115566   0.445   2.162   0.397
 4889SOL    HW215567   0.558   2.164   0.515
 4890SOL     OW15568   0.993   1.518   4.166
 4890SOL    HW115569   1.055   1.594   4.146
 4890SOL    HW215570   0.898   1.549   4.157
 4891SOL     OW15571   1.027   5.071   0.190
 4891SOL    HW115572   0.931   5.043   0.184
 4891SOL    HW215573   1.075   5.012   0.254
 4892SOL     OW15574   1.118   5.713   2.520
 4892SOL    HW115575   1.048   5.749   2.459
 4892SOL    HW215576   1.200   5.689   2.467
 4893SOL     OW15577   6.881   4.404   6.887
 4893SOL    HW115578   6.876   4.322   6.830
 4893SOL    HW215579   6.793   4.419   6.932
 4894SOL     OW15580   1.876   0.298   2.995
 4894SOL    HW115581   1.914   0.372   2.940
 4894SOL    HW215582   1.883   0.212   2.945
 4895SOL     OW15583   0.758   3.481   0.959
 4895SOL    HW115584   0.692   3.522   0.895
 4895SOL    HW215585   0.776   3.386   0.933
 4896SOL     OW15586   3.411   5.576   3.336
 4896SOL    HW115587   3.403   5.550   3.240
 4896SOL    HW215588   3.386   5.498   3.393
 4897SOL     OW15589   3.429   5.042   6.352
 4897SOL    HW115590   3.371   5.111   6.395
 4897SOL    HW215591   3.425   5.053   6.252
 4898SOL     OW15592   5.400   2.348   5.672
 4898SOL    HW115593   5.312   2.335   5.717
 4898SOL    HW215594   5.436   2.260   5.641
 4899SOL     OW15595   6.301   4.835   2.683
 4899SOL    HW115596   6.364   4.793   2.617
 4899SOL    HW215597   6.294   4.933   2.664
 4900SOL     OW15598   0.104   6.694   5.612
 4900SOL    HW115599   0.082   6.632   5.688
 4900SOL    HW215600   0.035   6.682   5.540
 4901SOL     OW15601   1.987   0.244   4.251
 4901SOL    HW115602   1.894   0.277   4.237
 4901SOL    HW215603   2.049   0.293   4.190
 4902SOL     OW15604   1.114   3.770   2.332
 4902SOL    HW115605   1.149   3.851   2.285
 4902SOL    HW215606   1.091   3.794   2.427
 4903SOL     OW15607   4.175   6.311   6.607
 4903SOL    HW115608   4.138   6.369   6.535
 4903SOL    HW215609   4.145   6.346   6.696
 4904SOL     OW15610   2.257   5.704   4.322
 4904SOL    HW115611   2.170   5.681   4.277
 4904SOL    HW215612   2.324   5.727   4.252
 4905SOL     OW15613   4.796   2.340   2.249
 4905SOL    HW115614   4.862   2.333   2.174
 4905SOL    HW215615   4.722   2.402   2.223
 4906SOL     OW15616   4.622   6.704   0.312
 4906SOL    HW115617   4.574   6.618   0.331
 4906SOL    HW215618   4.556   6.779   0.311
 4907SOL     OW15619   4.232   6.304   3.281
 4907SOL    HW115620   4.141   6.338   3.260
 4907SOL    HW215621   4.225   6.216   3.329
 4908SOL     OW15622   4.191   5.882   6.722
 4908SOL    HW115623   4.263   5.815   6.704
 4908SOL    HW215624   4.204   5.961   6.662
 4909SOL     OW15625   5.790   0.214   5.681
 4909SOL    HW115626   5.755   0.266   5.759
 4909SOL    HW215627   5.740   0.128   5.673
 4910SOL     OW15628   5.040   0.312   5.480
 4910SOL    HW115629   5.009   0.234   5.535
 4910SOL    HW215630   5.126   0.290   5.436
 4911SOL     OW15631   6.853   2.075   6.099
 4911SOL    HW115632   6.826   2.168   6.072
 4911SOL    HW215633   6.801   2.008   6.046
 4912SOL     OW15634   4.678   1.255   1.884
 4912SOL    HW115635   4.701   1.348   1.912
 4912SOL    HW215636   4.595   1.225   1.930
 4913SOL     OW15637   3.249   3.887   3.858
 4913SOL    HW115638   3.279   3.949   3.786
 4913SOL    HW215639   3.156   3.855   3.838
 4914SOL     OW15640   2.966   1.148   4.333
 4914SOL    HW115641   2.939   1.244   4.334
 4914SOL    HW215642   2.946   1.108   4.243
 4915SOL     OW15643   4.551   6.842   4.378
 4915SOL    HW115644   4.649   6.825   4.385
 4915SOL    HW215645   4.531   6.888   4.291
 4916SOL     OW15646   2.280   1.991   3.091
 4916SOL    HW115647   2.349   2.038   3.037
 4916SOL    HW215648   2.211   1.951   3.030
 4917SOL     OW15649   1.356   3.787   0.888
 4917SOL    HW115650   1.401   3.821   0.806
 4917SOL    HW215651   1.317   3.697   0.871
 4918SOL     OW15652   2.620   0.011   2.993
 4918SOL    HW115653   2.659   6.959   2.938
 4918SOL    HW215654   2.572   0.075   2.934
 4919SOL     OW15655   1.591   1.955   3.035
 4919SOL    HW115656   1.526   1.914   3.098
 4919SOL    HW215657   1.553   2.040   2.998
 4920SOL     OW15658   4.240   0.316   6.982
 4920SOL    HW115659   4.224   0.325   0.059
 4920SOL    HW215660   4.316   0.375   6.955
 4921SOL     OW15661   2.355   3.740   1.721
 4921SOL    HW115662   2.353   3.652   1.768
 4921SOL    HW215663   2.331   3.813   1.786
 4922SOL     OW15664   1.260   3.245   5.408
 4922SOL    HW115665   1.250   3.211   5.314
 4922SOL    HW215666   1.204   3.327   5.420
 4923SOL     OW15667   5.142   7.001   2.388
 4923SOL    HW115668   5.138   0.015   2.294
 4923SOL    HW215669   5.136   6.901   2.386
 4924SOL     OW15670   1.629   3.282   4.582
 4924SOL    HW115671   1.617   3.189   4.546
 4924SOL    HW215672   1.724   3.296   4.608
 4925SOL     OW15673   5.482   6.316   0.978
 4925SOL    HW115674   5.421   6.370   1.036
 4925SOL    HW215675   5.571   6.307   1.022
 4926SOL     OW15676   5.276   2.862   1.546
 4926SOL    HW115677   5.326   2.947   1.558
 4926SOL    HW215678   5.193   2.863   1.603
 4927SOL     OW15679   4.073   3.159   2.881
 4927SOL    HW115680   3.986   3.203   2.859
 4927SOL    HW215681   4.147   3.207   2.832
 4928SOL     OW15682   0.553   6.614   6.444
 4928SOL    HW115683   0.500   6.532   6.464
 4928SOL    HW215684   0.566   6.666   6.528
 4929SOL     OW15685   1.310   4.428   5.084
 4929SOL    HW115686   1.291   4.366   5.008
 4929SOL    HW215687   1.302   4.378   5.170
 4930SOL     OW15688   0.639   1.123   0.396
 4930SOL    HW115689   0.668   1.151   0.488
 4930SOL    HW215690   0.634   1.023   0.392
 4931SOL     OW15691   0.577   0.589   0.031
 4931SOL    HW115692   0.665   0.635   0.024
 4931SOL    HW215693   0.565   0.527   6.975
 4932SOL     OW15694   2.261   3.080   1.776
 4932SOL    HW115695   2.225   3.142   1.707
 4932SOL    HW215696   2.361   3.086   1.778
 4933SOL     OW15697   2.441   1.149   4.358
 4933SOL    HW115698   2.469   1.244   4.344
 4933SOL    HW215699   2.360   1.129   4.303
 4934SOL     OW15700   0.870   5.288   4.507
 4934SOL    HW115701   0.951   5.313   4.560
 4934SOL    HW215702   0.805   5.239   4.565
 4935SOL     OW15703   1.532   0.935   6.620
 4935SOL    HW115704   1.504   1.020   6.667
 4935SOL    HW215705   1.569   0.958   6.530
 4936SOL     OW15706   2.704   5.812   1.459
 4936SOL    HW115707   2.791   5.855   1.436
 4936SOL    HW215708   2.719   5.716   1.481
 4937SOL     OW15709   0.664   3.880   6.139
 4937SOL    HW115710   0.718   3.961   6.117
 4937SOL    HW215711   0.647   3.828   6.055
 4938SOL     OW15712   3.217   4.670   1.676
 4938SOL    HW115713   3.132   4.629   1.643
 4938SOL    HW215714   3.295   4.624   1.634
 4939SOL     OW15715   1.416   1.994   1.864
 4939SOL    HW115716   1.510   2.030   1.860
 4939SOL    HW215717   1.408   1.931   1.940
 4940SOL     OW15718   0.065   1.704   4.988
 4940SOL    HW115719   0.114   1.791   4.993
 4940SOL    HW215720   0.062   1.672   4.894
 4941SOL     OW15721   3.988   2.549   5.391
 4941SOL    HW115722   3.948   2.457   5.385
 4941SOL    HW215723   4.066   2.555   5.328
 4942SOL     OW15724   5.501   3.096   3.750
 4942SOL    HW115725   5.546   3.173   3.704
 4942SOL    HW215726   5.473   3.125   3.842
 4943SOL     OW15727   5.943   4.065   6.768
 4943SOL    HW115728   5.898   3.992   6.818
 4943SOL    HW215729   6.004   4.026   6.699
 4944SOL     OW15730   2.277   4.536   0.449
 4944SOL    HW115731   2.332   4.613   0.416
 4944SOL    HW215732   2.242   4.556   0.540
 4945SOL     OW15733   1.759   1.362   5.526
 4945SOL    HW115734   1.729   1.365   5.430
 4945SOL    HW215735   1.682   1.386   5.585
 4946SOL     OW15736   0.906   4.717   6.617
 4946SOL    HW115737   0.994   4.672   6.628
 4946SOL    HW215738   0.846   4.692   6.693
 4947SOL     OW15739   3.056   0.840   2.021
 4947SOL    HW115740   3.019   0.764   2.074
 4947SOL    HW215741   3.151   0.856   2.048
 4948SOL     OW15742   1.585   2.502   2.318
 4948SOL    HW115743   1.680   2.487   2.292
 4948SOL    HW215744   1.578   2.586   2.373
 4949SOL     OW15745   6.608   3.976   5.935
 4949SOL    HW115746   6.603   4.069   5.971
 4949SOL    HW215747   6.612   3.979   5.835
 4950SOL     OW15748   2.209   3.964   4.755
 4950SOL    HW115749   2.228   4.006   4.666
 4950SOL    HW215750   2.250   4.020   4.827
 4951SOL     OW15751   6.134   6.094   3.941
 4951SOL    HW115752   6.134   6.158   4.018
 4951SOL    HW215753   6.126   6.001   3.975
 4952SOL     OW15754   6.922   0.139   6.629
 4952SOL    HW115755   7.000   0.157   6.688
 4952SOL    HW215756   6.952   0.088   6.549
 4953SOL     OW15757   2.006   1.523   4.139
 4953SOL    HW115758   2.095   1.562   4.163
 4953SOL    HW215759   1.953   1.590   4.086
 4954SOL     OW15760   2.439   3.870   6.061
 4954SOL    HW115761   2.351   3.832   6.087
 4954SOL    HW215762   2.426   3.962   6.022
 4955SOL     OW15763   3.198   5.416   0.244
 4955SOL    HW115764   3.176   5.407   0.147
 4955SOL    HW215765   3.119   5.453   0.293
 4956SOL     OW15766   3.028   0.882   5.439
 4956SOL    HW115767   3.122   0.848   5.452
 4956SOL    HW215768   3.030   0.963   5.381
 4957SOL     OW15769   5.863   3.616   0.258
 4957SOL    HW115770   5.766   3.640   0.254
 4957SOL    HW215771   5.885   3.582   0.349
 4958SOL     OW15772   2.307   6.124   5.381
 4958SOL    HW115773   2.228   6.179   5.353
 4958SOL    HW215774   2.307   6.038   5.330
 4959SOL     OW15775   6.726   2.031   1.220
 4959SOL    HW115776   6.773   1.953   1.179
 4959SOL    HW215777   6.782   2.114   1.208
 4960SOL     OW15778   4.157   4.716   3.485
 4960SOL    HW115779   4.061   4.741   3.481
 4960SOL    HW215780   4.207   4.761   3.411
 4961SOL     OW15781   3.145   0.676   6.900
 4961SOL    HW115782   3.103   0.765   6.881
 4961SOL    HW215783   3.127   0.651   6.995
 4962SOL     OW15784   5.502   2.358   0.976
 4962SOL    HW115785   5.484   2.318   0.886
 4962SOL    HW215786   5.590   2.323   1.010
 4963SOL     OW15787   1.707   6.063   0.997
 4963SOL    HW115788   1.677   6.159   0.991
 4963SOL    HW215789   1.807   6.060   0.999
 4964SOL     OW15790   2.100   6.364   5.053
 4964SOL    HW115791   2.005   6.389   5.031
 4964SOL    HW215792   2.162   6.428   5.008
 4965SOL     OW15793   0.949   6.763   2.900
 4965SOL    HW115794   1.019   6.832   2.883
 4965SOL    HW215795   0.954   6.732   2.995
 4966SOL     OW15796   2.284   6.619   4.499
 4966SOL    HW115797   2.378   6.585   4.503
 4966SOL    HW215798   2.252   6.640   4.591
 4967SOL     OW15799   3.140   4.835   6.317
 4967SOL    HW115800   3.132   4.873   6.224
 4967SOL    HW215801   3.236   4.822   6.339
 4968SOL     OW15802   0.281   0.911   3.872
 4968SOL    HW115803   0.360   0.911   3.933
 4968SOL    HW215804   0.209   0.855   3.911
 4969SOL     OW15805   0.308   6.100   2.346
 4969SOL    HW115806   0.310   6.178   2.408
 4969SOL    HW215807   0.339   6.127   2.255
 4970SOL     OW15808   2.372   0.784   1.703
 4970SOL    HW115809   2.352   0.729   1.623
 4970SOL    HW215810   2.302   0.855   1.713
 4971SOL     OW15811   5.930   5.714   2.894
 4971SOL    HW115812   5.926   5.790   2.829
 4971SOL    HW215813   6.025   5.681   2.901
 4972SOL     OW15814   1.504   4.382   0.165
 4972SOL    HW115815   1.593   4.373   0.121
 4972SOL    HW215816   1.437   4.324   0.119
 4973SOL     OW15817   0.564   0.597   1.773
 4973SOL    HW115818   0.664   0.592   1.763
 4973SOL    HW215819   0.523   0.610   1.682
 4974SOL     OW15820   4.964   4.583   0.196
 4974SOL    HW115821   5.011   4.537   0.121
 4974SOL    HW215822   4.926   4.670   0.164
 4975SOL     OW15823   5.270   3.876   0.877
 4975SOL    HW115824   5.299   3.902   0.970
 4975SOL    HW215825   5.171   3.865   0.875
 4976SOL     OW15826   1.187   0.589   4.530
 4976SOL    HW115827   1.147   0.521   4.591
 4976SOL    HW215828   1.275   0.620   4.568
 4977SOL     OW15829   3.266   3.554   6.870
 4977SOL    HW115830   3.280   3.648   6.841
 4977SOL    HW215831   3.352   3.516   6.903
 4978SOL     OW15832   4.995   4.469   5.172
 4978SOL    HW115833   5.079   4.420   5.151
 4978SOL    HW215834   5.003   4.564   5.142
 4979SOL     OW15835   0.361   6.450   0.064
 4979SOL    HW115836   0.393   6.455   6.991
 4979SOL    HW215837   0.262   6.462   0.067
 4980SOL     OW15838   6.129   4.519   2.544
 4980SOL    HW115839   6.064   4.517   2.620
 4980SOL    HW215840   6.222   4.523   2.580
 4981SOL     OW15841   3.308   5.956   1.609
 4981SOL    HW115842   3.278   5.910   1.526
 4981SOL    HW215843   3.350   6.044   1.585
 4982SOL     OW15844   3.946   1.723   6.903
 4982SOL    HW115845   3.847   1.713   6.887
 4982SOL    HW215846   3.971   1.819   6.892
 4983SOL     OW15847   5.834   5.004   4.123
 4983SOL    HW115848   5.869   4.975   4.033
 4983SOL    HW215849   5.799   4.924   4.172
 4984SOL     OW15850   4.685   4.258   3.173
 4984SOL    HW115851   4.683   4.308   3.087
 4984SOL    HW215852   4.664   4.162   3.156
 4985SOL     OW15853   5.099   6.457   2.672
 4985SOL    HW115854   5.004   6.427   2.677
 4985SOL    HW215855   5.140   6.424   2.587
 4986SOL     OW15856   6.613   4.951   1.169
 4986SOL    HW115857   6.612   4.926   1.265
 4986SOL    HW215858   6.547   4.894   1.119
 4987SOL     OW15859   1.434   6.017   2.843
 4987SOL    HW115860   1.386   5.962   2.774
 4987SOL    HW215861   1.463   6.103   2.801
 4988SOL     OW15862   6.287   1.134   3.292
 4988SOL    HW115863   6.195   1.158   3.325
 4988SOL    HW215864   6.328   1.068   3.355
 4989SOL     OW15865   4.858   0.516   1.878
 4989SOL    HW115866   4.955   0.499   1.858
 4989SOL    HW215867   4.832   0.606   1.844
 4990SOL     OW15868   3.668   1.702   6.905
 4990SOL    HW115869   3.579   1.660   6.884
 4990SOL    HW215870   3.662   1.801   6.893
 4991SOL     OW15871   6.859   5.708   3.872
 4991SOL    HW115872   6.850   5.736   3.777
 4991SOL    HW215873   6.768   5.696   3.912
 4992SOL     OW15874   6.135   1.394   2.884
 4992SOL    HW115875   6.067   1.458   2.849
 4992SOL    HW215876   6.113   1.302   2.852
 4993SOL     OW15877   3.918   6.814   4.728
 4993SOL    HW115878   3.908   6.753   4.649
 4993SOL    HW215879   3.840   6.801   4.789
 4994SOL     OW15880   2.402   5.509   4.765
 4994SOL    HW115881   2.448   5.422   4.785
 4994SOL    HW215882   2.375   5.511   4.669
 4995SOL     OW15883   0.619   0.939   5.149
 4995SOL    HW115884   0.701   0.931   5.206
 4995SOL    HW215885   0.539   0.909   5.201
 4996SOL     OW15886   6.925   1.407   3.780
 4996SOL    HW115887   6.951   1.495   3.741
 4996SOL    HW215888   6.911   1.340   3.707
 4997SOL     OW15889   3.673   2.238   1.089
 4997SOL    HW115890   3.679   2.157   1.148
 4997SOL    HW215891   3.606   2.302   1.125
 4998SOL     OW15892   1.790   3.550   3.740
 4998SOL    HW115893   1.751   3.460   3.759
 4998SOL    HW215894   1.719   3.620   3.749
 4999SOL     OW15895   0.186   3.369   4.968
 4999SOL    HW115896   0.259   3.436   4.981
 4999SOL    HW215897   0.175   3.315   5.052
 5000SOL     OW15898   3.261   6.267   3.136
 5000SOL    HW115899   3.247   6.245   3.233
 5000SOL    HW215900   3.177   6.250   3.085
 5001SOL     OW15901   0.340   5.730   2.510
 5001SOL    HW115902   0.387   5.733   2.598
 5001SOL    HW215903   0.284   5.647   2.505
 5002SOL     OW15904   0.232   5.112   2.116
 5002SOL    HW115905   0.201   5.197   2.074
 5002SOL    HW215906   0.322   5.126   2.157
 5003SOL     OW15907   4.172   6.609   2.798
 5003SOL    HW115908   4.157   6.702   2.764
 5003SOL    HW215909   4.267   6.582   2.781
 5004SOL     OW15910   2.338   5.266   5.318
 5004SOL    HW115911   2.293   5.234   5.235
 5004SOL    HW215912   2.315   5.204   5.393
 5005SOL     OW15913   2.444   3.368   6.484
 5005SOL    HW115914   2.406   3.358   6.392
 5005SOL    HW215915   2.398   3.443   6.531
 5006SOL     OW15916   5.765   1.030   2.537
 5006SOL    HW115917   5.778   0.993   2.445
 5006SOL    HW215918   5.813   0.973   2.603
 5007SOL     OW15919   6.820   0.469   1.230
 5007SOL    HW115920   6.721   0.479   1.233
 5007SOL    HW215921   6.853   0.490   1.138
 5008SOL     OW15922   6.488   5.567   1.404
 5008SOL    HW115923   6.539   5.629   1.345
 5008SOL    HW215924   6.419   5.519   1.350
 5009SOL     OW15925   0.770   2.733   0.424
 5009SOL    HW115926   0.819   2.664   0.370
 5009SOL    HW215927   0.830   2.768   0.496
 5010SOL     OW15928   3.992   2.590   0.877
 5010SOL    HW115929   3.988   2.500   0.920
 5010SOL    HW215930   4.065   2.591   0.808
 5011SOL     OW15931   2.225   3.957   1.337
 5011SOL    HW115932   2.174   3.929   1.418
 5011SOL    HW215933   2.183   3.916   1.255
 5012SOL     OW15934   6.387   3.124   5.383
 5012SOL    HW115935   6.300   3.075   5.395
 5012SOL    HW215936   6.390   3.165   5.292
 5013SOL     OW15937   5.733   0.442   5.886
 5013SOL    HW115938   5.757   0.495   5.967
 5013SOL    HW215939   5.690   0.502   5.819
 5014SOL     OW15940   6.635   4.390   7.008
 5014SOL    HW115941   6.544   4.353   6.988
 5014SOL    HW215942   6.632   4.443   0.072
 5015SOL     OW15943   5.132   0.930   4.797
 5015SOL    HW115944   5.157   0.925   4.894
 5015SOL    HW215945   5.037   0.961   4.789
 5016SOL     OW15946   0.665   3.223   4.631
 5016SOL    HW115947   0.566   3.214   4.632
 5016SOL    HW215948   0.708   3.137   4.659
 5017SOL     OW15949   1.416   2.019   1.399
 5017SOL    HW115950   1.363   1.944   1.361
 5017SOL    HW215951   1.503   1.984   1.435
 5018SOL     OW15952   1.182   5.124   2.458
 5018SOL    HW115953   1.163   5.046   2.517
 5018SOL    HW215954   1.207   5.091   2.367
 5019SOL     OW15955   2.501   6.348   5.811
 5019SOL    HW115956   2.516   6.299   5.725
 5019SOL    HW215957   2.405   6.375   5.818
 5020SOL     OW15958   6.940   6.943   5.486
 5020SOL    HW115959   7.010   7.010   5.510
 5020SOL    HW215960   6.890   6.975   5.406
 5021SOL     OW15961   1.059   0.758   0.936
 5021SOL    HW115962   0.997   0.684   0.908
 5021SOL    HW215963   1.100   0.800   0.856
 5022SOL     OW15964   0.960   2.512   1.977
 5022SOL    HW115965   0.963   2.559   1.889
 5022SOL    HW215966   1.015   2.428   1.972
 5023SOL     OW15967   0.081   4.357   1.708
 5023SOL    HW115968   0.032   4.272   1.692
 5023SOL    HW215969   0.115   4.393   1.621
 5024SOL     OW15970   6.049   5.143   0.981
 5024SOL    HW115971   6.099   5.207   0.922
 5024SOL    HW215972   6.100   5.057   0.986
 5025SOL     OW15973   4.427   2.013   3.822
 5025SOL    HW115974   4.419   1.991   3.725
 5025SOL    HW215975   4.354   1.966   3.873
 5026SOL     OW15976   6.890   5.310   4.804
 5026SOL    HW115977   6.816   5.343   4.863
 5026SOL    HW215978   6.978   5.321   4.850
 5027SOL     OW15979   6.222   0.166   2.062
 5027SOL    HW115980   6.169   0.142   1.981
 5027SOL    HW215981   6.293   0.231   2.038
 5028SOL     OW15982   6.519   1.808   3.659
 5028SOL    HW115983   6.506   1.860   3.574
 5028SOL    HW215984   6.433   1.807   3.710
 5029SOL     OW15985   6.141   2.242   2.187
 5029SOL    HW115986   6.199   2.322   2.172
 5029SOL    HW215987   6.129   2.193   2.101
 5030SOL     OW15988   6.683   5.932   5.975
 5030SOL    HW115989   6.770   5.959   6.017
 5030SOL    HW215990   6.699   5.901   5.882
 5031SOL     OW15991   6.856   1.454   5.413
 5031SOL    HW115992   6.829   1.518   5.341
 5031SOL    HW215993   6.783   1.387   5.427
 5032SOL     OW15994   2.985   1.188   5.562
 5032SOL    HW115995   3.083   1.166   5.571
 5032SOL    HW215996   2.942   1.185   5.652
 5033SOL     OW15997   1.880   0.404   6.916
 5033SOL    HW115998   1.817   0.478   6.941
 5033SOL    HW215999   1.922   0.366   6.998
 5034SOL     OW16000   5.882   6.548   3.907
 5034SOL    HW116001   5.815   6.480   3.877
 5034SOL    HW216002   5.847   6.640   3.891
 5035SOL     OW16003   0.638   3.978   5.635
 5035SOL    HW116004   0.694   3.895   5.624
 5035SOL    HW216005   0.628   4.022   5.546
 5036SOL     OW16006   6.678   4.992   6.618
 5036SOL    HW116007   6.762   4.990   6.673
 5036SOL    HW216008   6.659   4.901   6.581
 5037SOL     OW16009   4.784   4.597   1.521
 5037SOL    HW116010   4.825   4.624   1.434
 5037SOL    HW216011   4.735   4.511   1.509
 5038SOL     OW16012   3.678   3.072   4.200
 5038SOL    HW116013   3.692   3.071   4.299
 5038SOL    HW216014   3.618   2.996   4.175
 5039SOL     OW16015   1.951   3.186   5.396
 5039SOL    HW116016   1.879   3.149   5.455
 5039SOL    HW216017   1.963   3.126   5.317
 5040SOL     OW16018   0.903   6.467   5.152
 5040SOL    HW116019   0.982   6.481   5.091
 5040SOL    HW216020   0.922   6.510   5.240
 5041SOL     OW16021   1.045   1.923   1.743
 5041SOL    HW116022   1.106   1.848   1.768
 5041SOL    HW216023   0.966   1.885   1.693
 5042SOL     OW16024   6.860   3.043   0.382
 5042SOL    HW116025   6.882   3.044   0.480
 5042SOL    HW216026   6.818   2.955   0.358
 5043SOL     OW16027   4.444   0.470   6.883
 5043SOL    HW116028   4.470   0.476   6.786
 5043SOL    HW216029   4.524   0.481   6.940
 5044SOL     OW16030   0.724   5.549   1.064
 5044SOL    HW116031   0.659   5.591   1.000
 5044SOL    HW216032   0.817   5.570   1.036
 5045SOL     OW16033   6.289   6.050   6.174
 5045SOL    HW116034   6.274   6.105   6.256
 5045SOL    HW216035   6.362   6.091   6.120
 5046SOL     OW16036   3.583   3.783   3.506
 5046SOL    HW116037   3.582   3.734   3.419
 5046SOL    HW216038   3.582   3.882   3.489
 5047SOL     OW16039   1.959   4.504   2.899
 5047SOL    HW116040   1.970   4.577   2.967
 5047SOL    HW216041   2.020   4.522   2.822
 5048SOL     OW16042   1.459   1.373   4.025
 5048SOL    HW116043   1.360   1.386   4.020
 5048SOL    HW216044   1.491   1.331   3.940
 5049SOL     OW16045   4.729   0.972   7.015
 5049SOL    HW116046   4.766   1.063   6.996
 5049SOL    HW216047   4.705   0.966   0.090
 5050SOL     OW16048   1.373   1.159   0.026
 5050SOL    HW116049   1.434   1.153   6.968
 5050SOL    HW216050   1.352   1.066   0.058
 5051SOL     OW16051   4.527   4.328   1.644
 5051SOL    HW116052   4.596   4.370   1.703
 5051SOL    HW216053   4.463   4.275   1.699
 5052SOL     OW16054   2.862   1.774   5.649
 5052SOL    HW116055   2.855   1.873   5.655
 5052SOL    HW216056   2.913   1.749   5.566
 5053SOL     OW16057   0.835   4.972   3.238
 5053SOL    HW116058   0.890   4.888   3.240
 5053SOL    HW216059   0.782   4.979   3.323
 5054SOL     OW16060   2.772   5.018   4.789
 5054SOL    HW116061   2.776   4.918   4.798
 5054SOL    HW216062   2.807   5.045   4.700
 5055SOL     OW16063   0.913   2.124   5.804
 5055SOL    HW116064   0.814   2.137   5.804
 5055SOL    HW216065   0.935   2.036   5.762
 5056SOL     OW16066   5.133   3.721   5.936
 5056SOL    HW116067   5.214   3.670   5.966
 5056SOL    HW216068   5.151   3.763   5.847
 5057SOL     OW16069   6.882   0.071   3.288
 5057SOL    HW116070   6.922   0.038   3.203
 5057SOL    HW216071   6.805   0.131   3.268
 5058SOL     OW16072   3.609   3.320   5.959
 5058SOL    HW116073   3.578   3.230   5.991
 5058SOL    HW216074   3.556   3.391   6.005
 5059SOL     OW16075   0.446   0.807   3.389
 5059SOL    HW116076   0.360   0.786   3.342
 5059SOL    HW216077   0.428   0.874   3.462
 5060SOL     OW16078   0.516   2.804   6.092
 5060SOL    HW116079   0.556   2.880   6.041
 5060SOL    HW216080   0.534   2.718   6.044
 5061SOL     OW16081   4.786   2.625   0.388
 5061SOL    HW116082   4.862   2.690   0.378
 5061SOL    HW216083   4.721   2.638   0.313
 5062SOL     OW16084   5.885   0.057   2.710
 5062SOL    HW116085   5.929   0.006   2.636
 5062SOL    HW216086   5.787   0.037   2.710
 5063SOL     OW16087   0.583   6.883   2.617
 5063SOL    HW116088   0.615   6.978   2.614
 5063SOL    HW216089   0.602   6.844   2.707
 5064SOL     OW16090   5.016   3.322   0.945
 5064SOL    HW116091   5.032   3.342   1.042
 5064SOL    HW216092   5.056   3.234   0.922
 5065SOL     OW16093   2.961   0.591   5.700
 5065SOL    HW116094   3.016   0.570   5.619
 5065SOL    HW216095   2.998   0.540   5.778
 5066SOL     OW16096   4.886   4.676   1.984
 5066SOL    HW116097   4.813   4.686   2.052
 5066SOL    HW216098   4.893   4.760   1.930
 5067SOL     OW16099   4.876   1.583   0.957
 5067SOL    HW116100   4.934   1.648   1.007
 5067SOL    HW216101   4.933   1.510   0.920
 5068SOL     OW16102   2.719   4.667   0.993
 5068SOL    HW116103   2.731   4.754   0.945
 5068SOL    HW216104   2.637   4.671   1.049
 5069SOL     OW16105   1.641   4.495   3.348
 5069SOL    HW116106   1.637   4.578   3.292
 5069SOL    HW216107   1.548   4.466   3.372
 5070SOL     OW16108   5.151   3.234   3.702
 5070SOL    HW116109   5.068   3.245   3.757
 5070SOL    HW216110   5.208   3.162   3.742
 5071SOL     OW16111   4.484   2.562   4.571
 5071SOL    HW116112   4.447   2.648   4.607
 5071SOL    HW216113   4.525   2.510   4.645
 5072SOL     OW16114   0.841   6.536   0.940
 5072SOL    HW116115   0.827   6.624   0.984
 5072SOL    HW216116   0.931   6.534   0.897
 5073SOL     OW16117   6.301   6.784   3.098
 5073SOL    HW116118   6.322   6.687   3.084
 5073SOL    HW216119   6.386   6.834   3.114
 5074SOL     OW16120   3.454   3.110   6.689
 5074SOL    HW116121   3.480   3.068   6.602
 5074SOL    HW216122   3.376   3.171   6.675
 5075SOL     OW16123   0.595   1.880   5.857
 5075SOL    HW116124   0.524   1.813   5.877
 5075SOL    HW216125   0.651   1.895   5.939
 5076SOL     OW16126   3.261   0.804   1.379
 5076SOL    HW116127   3.332   0.873   1.367
 5076SOL    HW216128   3.294   0.716   1.345
 5077SOL     OW16129   0.177   2.762   4.480
 5077SOL    HW116130   0.185   2.665   4.503
 5077SOL    HW216131   0.194   2.775   4.382
 5078SOL     OW16132   0.876   1.895   3.472
 5078SOL    HW116133   0.923   1.905   3.560
 5078SOL    HW216134   0.943   1.900   3.398
 5079SOL     OW16135   2.497   4.577   6.342
 5079SOL    HW116136   2.542   4.578   6.431
 5079SOL    HW216137   2.563   4.601   6.271
 5080SOL     OW16138   5.822   6.755   5.499
 5080SOL    HW116139   5.779   6.795   5.580
 5080SOL    HW216140   5.881   6.680   5.527
 5081SOL     OW16141   4.067   3.407   3.166
 5081SOL    HW116142   3.973   3.376   3.154
 5081SOL    HW216143   4.110   3.355   3.241
 5082SOL     OW16144   5.896   5.149   5.510
 5082SOL    HW116145   5.953   5.085   5.560
 5082SOL    HW216146   5.861   5.105   5.427
 5083SOL     OW16147   1.874   6.612   2.683
 5083SOL    HW116148   1.792   6.653   2.644
 5083SOL    HW216149   1.878   6.515   2.656
 5084SOL     OW16150   1.125   5.000   4.885
 5084SOL    HW116151   1.026   4.990   4.872
 5084SOL    HW216152   1.173   4.949   4.814
 5085SOL     OW16153   5.668   2.316   6.985
 5085SOL    HW116154   5.632   2.231   6.947
 5085SOL    HW216155   5.751   2.343   6.936
 5086SOL     OW16156   6.491   5.435   4.220
 5086SOL    HW116157   6.590   5.427   4.226
 5086SOL    HW216158   6.457   5.497   4.290
 5087SOL     OW16159   6.567   6.098   3.412
 5087SOL    HW116160   6.620   6.174   3.375
 5087SOL    HW216161   6.604   6.072   3.501
 5088SOL     OW16162   5.777   1.443   5.070
 5088SOL    HW116163   5.857   1.476   5.021
 5088SOL    HW216164   5.801   1.428   5.166
 5089SOL     OW16165   6.307   3.340   3.044
 5089SOL    HW116166   6.372   3.271   3.077
 5089SOL    HW216167   6.358   3.416   3.002
 5090SOL     OW16168   2.038   3.890   1.521
 5090SOL    HW116169   1.982   3.872   1.440
 5090SOL    HW216170   2.042   3.807   1.577
 5091SOL     OW16171   0.635   5.649   2.926
 5091SOL    HW116172   0.712   5.711   2.914
 5091SOL    HW216173   0.615   5.604   2.839
 5092SOL     OW16174   3.284   2.721   1.120
 5092SOL    HW116175   3.302   2.634   1.075
 5092SOL    HW216176   3.233   2.705   1.205
 5093SOL     OW16177   1.666   1.638   1.763
 5093SOL    HW116178   1.706   1.660   1.674
 5093SOL    HW216179   1.610   1.556   1.755
 5094SOL     OW16180   0.999   0.138   5.046
 5094SOL    HW116181   1.056   0.213   5.080
 5094SOL    HW216182   0.903   0.158   5.065
 5095SOL     OW16183   0.865   1.325   4.427
 5095SOL    HW116184   0.846   1.345   4.331
 5095SOL    HW216185   0.882   1.411   4.477
 5096SOL     OW16186   4.333   3.958   0.817
 5096SOL    HW116187   4.262   3.934   0.883
 5096SOL    HW216188   4.315   3.912   0.730
 5097SOL     OW16189   1.890   0.077   6.371
 5097SOL    HW116190   1.861   0.006   6.307
 5097SOL    HW216191   1.964   0.042   6.429
 5098SOL     OW16192   0.473   0.627   1.509
 5098SOL    HW116193   0.403   0.698   1.499
 5098SOL    HW216194   0.498   0.591   1.420
 5099SOL     OW16195   1.028   0.713   6.192
 5099SOL    HW116196   1.084   0.671   6.121
 5099SOL    HW216197   0.942   0.663   6.199
 5100SOL     OW16198   4.572   6.452   5.887
 5100SOL    HW116199   4.577   6.503   5.973
 5100SOL    HW216200   4.595   6.356   5.903
 5101SOL     OW16201   5.390   6.532   6.910
 5101SOL    HW116202   5.411   6.439   6.943
 5101SOL    HW216203   5.297   6.557   6.937
 5102SOL     OW16204   5.821   0.773   5.777
 5102SOL    HW116205   5.886   0.729   5.716
 5102SOL    HW216206   5.831   0.736   5.869
 5103SOL     OW16207   0.007   1.032   4.544
 5103SOL    HW116208   6.975   0.957   4.583
 5103SOL    HW216209   0.089   0.996   4.500
 5104SOL     OW16210   1.963   6.573   1.859
 5104SOL    HW116211   1.930   6.668   1.869
 5104SOL    HW216212   1.977   6.533   1.949
 5105SOL     OW16213   3.956   3.472   6.931
 5105SOL    HW116214   3.967   3.421   7.017
 5105SOL    HW216215   3.865   3.514   6.929
 5106SOL     OW16216   3.341   0.219   2.494
 5106SOL    HW116217   3.386   0.285   2.434
 5106SOL    HW216218   3.304   0.144   2.439
 5107SOL     OW16219   3.204   0.685   0.172
 5107SOL    HW116220   3.165   0.594   0.162
 5107SOL    HW216221   3.143   0.741   0.228
 5108SOL     OW16222   3.031   3.332   3.644
 5108SOL    HW116223   2.973   3.363   3.720
 5108SOL    HW216224   3.093   3.405   3.617
 5109SOL     OW16225   0.613   1.482   1.029
 5109SOL    HW116226   0.601   1.413   0.958
 5109SOL    HW216227   0.710   1.487   1.054
 5110SOL     OW16228   1.188   6.772   6.632
 5110SOL    HW116229   1.221   6.729   6.548
 5110SOL    HW216230   1.097   6.738   6.653
 5111SOL     OW16231   0.724   1.349   5.862
 5111SOL    HW116232   0.733   1.434   5.914
 5111SOL    HW216233   0.807   1.336   5.807
 5112SOL     OW16234   0.750   6.776   3.324
 5112SOL    HW116235   0.781   6.823   3.407
 5112SOL    HW216236   0.675   6.828   3.282
 5113SOL     OW16237   1.125   0.134   0.987
 5113SOL    HW116238   1.188   0.074   1.036
 5113SOL    HW216239   1.169   0.168   0.903
 5114SOL     OW16240   3.410   3.036   0.051
 5114SOL    HW116241   3.390   2.938   0.057
 5114SOL    HW216242   3.495   3.049   0.000
 5115SOL     OW16243   1.602   4.300   5.209
 5115SOL    HW116244   1.557   4.357   5.277
 5115SOL    HW216245   1.662   4.356   5.152
 5116SOL     OW16246   5.533   5.701   5.866
 5116SOL    HW116247   5.623   5.742   5.880
 5116SOL    HW216248   5.507   5.648   5.947
 5117SOL     OW16249   2.138   4.460   4.051
 5117SOL    HW116250   2.229   4.465   4.009
 5117SOL    HW216251   2.144   4.410   4.137
 5118SOL     OW16252   5.050   6.086   0.202
 5118SOL    HW116253   5.002   5.999   0.208
 5118SOL    HW216254   4.997   6.150   0.146
 5119SOL     OW16255   5.158   0.508   1.794
 5119SOL    HW116256   5.180   0.424   1.844
 5119SOL    HW216257   5.229   0.576   1.809
 5120SOL     OW16258   5.837   1.450   3.222
 5120SOL    HW116259   5.927   1.438   3.262
 5120SOL    HW216260   5.815   1.547   3.217
 5121SOL     OW16261   1.383   2.736   6.664
 5121SOL    HW116262   1.477   2.708   6.684
 5121SOL    HW216263   1.330   2.739   6.750
 5122SOL     OW16264   2.872   0.949   4.138
 5122SOL    HW116265   2.817   0.929   4.057
 5122SOL    HW216266   2.961   0.905   4.129
 5123SOL     OW16267   5.442   3.394   4.512
 5123SOL    HW116268   5.526   3.419   4.561
 5123SOL    HW216269   5.366   3.392   4.577
 5124SOL     OW16270   2.561   5.339   6.365
 5124SOL    HW116271   2.509   5.335   6.450
 5124SOL    HW216272   2.530   5.416   6.310
 5125SOL     OW16273   0.222   3.756   4.594
 5125SOL    HW116274   0.297   3.734   4.531
 5125SOL    HW216275   0.154   3.811   4.547
 5126SOL     OW16276   6.231   4.772   5.441
 5126SOL    HW116277   6.294   4.846   5.464
 5126SOL    HW216278   6.275   4.710   5.376
 5127SOL     OW16279   5.819   4.057   0.876
 5127SOL    HW116280   5.794   4.024   0.785
 5127SOL    HW216281   5.752   4.023   0.943
 5128SOL     OW16282   0.934   0.421   0.294
 5128SOL    HW116283   0.949   0.406   0.196
 5128SOL    HW216284   1.022   0.429   0.340
 5129SOL     OW16285   4.913   1.286   2.969
 5129SOL    HW116286   4.978   1.288   2.893
 5129SOL    HW216287   4.940   1.352   3.038
 5130SOL     OW16288   1.165   5.841   4.911
 5130SOL    HW116289   1.165   5.799   5.001
 5130SOL    HW216290   1.225   5.789   4.850
 5131SOL     OW16291   3.244   5.052   3.362
 5131SOL    HW116292   3.193   5.133   3.391
 5131SOL    HW216293   3.189   4.999   3.298
 5132SOL     OW16294   3.622   1.469   6.102
 5132SOL    HW116295   3.675   1.388   6.124
 5132SOL    HW216296   3.683   1.548   6.095
 5133SOL     OW16297   3.422   5.292   5.951
 5133SOL    HW116298   3.340   5.293   5.894
 5133SOL    HW216299   3.423   5.374   6.008
 5134SOL     OW16300   6.482   6.930   1.968
 5134SOL    HW116301   6.494   6.923   1.869
 5134SOL    HW216302   6.506   0.001   1.998
 5135SOL     OW16303   6.566   3.564   2.823
 5135SOL    HW116304   6.533   3.555   2.728
 5135SOL    HW216305   6.647   3.507   2.836
 5136SOL     OW16306   6.692   1.639   5.565
 5136SOL    HW116307   6.738   1.567   5.513
 5136SOL    HW216308   6.746   1.661   5.647
 5137SOL     OW16309   4.877   3.066   4.978
 5137SOL    HW116310   4.862   3.133   5.051
 5137SOL    HW216311   4.920   3.111   4.900
 5138SOL     OW16312   3.381   3.651   3.926
 5138SOL    HW116313   3.463   3.680   3.876
 5138SOL    HW216314   3.311   3.722   3.921
 5139SOL     OW16315   1.052   0.461   4.786
 5139SOL    HW116316   1.038   0.365   4.808
 5139SOL    HW216317   0.972   0.497   4.739
 5140SOL     OW16318   3.877   1.607   6.259
 5140SOL    HW116319   3.865   1.621   6.160
 5140SOL    HW216320   3.957   1.550   6.275
 5141SOL     OW16321   6.150   2.746   0.839
 5141SOL    HW116322   6.181   2.822   0.895
 5141SOL    HW216323   6.062   2.769   0.797
 5142SOL     OW16324   5.843   6.832   4.459
 5142SOL    HW116325   5.898   6.821   4.542
 5142SOL    HW216326   5.766   6.768   4.461
 5143SOL     OW16327   1.126   4.021   4.403
 5143SOL    HW116328   1.156   4.053   4.313
 5143SOL    HW216329   1.065   3.942   4.391
 5144SOL     OW16330   2.019   3.733   6.827
 5144SOL    HW116331   2.101   3.789   6.840
 5144SOL    HW216332   2.047   3.640   6.802
 5145SOL     OW16333   3.559   6.041   6.480
 5145SOL    HW116334   3.597   5.962   6.432
 5145SOL    HW216335   3.460   6.044   6.466
 5146SOL     OW16336   4.123   4.134   5.619
 5146SOL    HW116337   4.113   4.157   5.716
 5146SOL    HW216338   4.158   4.212   5.568
 5147SOL     OW16339   5.468   4.101   3.268
 5147SOL    HW116340   5.469   4.003   3.249
 5147SOL    HW216341   5.386   4.142   3.228
 5148SOL     OW16342   0.812   0.575   2.218
 5148SOL    HW116343   0.821   0.567   2.317
 5148SOL    HW216344   0.724   0.616   2.196
 5149SOL     OW16345   5.548   4.764   4.313
 5149SOL    HW116346   5.617   4.695   4.333
 5149SOL    HW216347   5.577   4.852   4.349
 5150SOL     OW16348   1.231   4.985   3.722
 5150SOL    HW116349   1.268   4.949   3.637
 5150SOL    HW216350   1.266   4.931   3.799
 5151SOL     OW16351   5.451   4.408   1.438
 5151SOL    HW116352   5.482   4.464   1.361
 5151SOL    HW216353   5.530   4.359   1.477
 5152SOL     OW16354   1.344   6.180   6.952
 5152SOL    HW116355   1.331   6.143   6.860
 5152SOL    HW216356   1.256   6.186   6.999
 5153SOL     OW16357   1.710   1.391   0.337
 5153SOL    HW116358   1.720   1.302   0.381
 5153SOL    HW216359   1.624   1.433   0.366
 5154SOL     OW16360   1.222   2.755   6.875
 5154SOL    HW116361   1.216   2.815   6.955
 5154SOL    HW216362   1.158   2.786   6.805
 5155SOL     OW16363   2.720   1.786   0.734
 5155SOL    HW116364   2.642   1.732   0.766
 5155SOL    HW216365   2.721   1.874   0.782
 5156SOL     OW16366   5.505   5.145   5.143
 5156SOL    HW116367   5.467   5.189   5.061
 5156SOL    HW216368   5.580   5.085   5.116
 5157SOL     OW16369   3.180   1.709   1.789
 5157SOL    HW116370   3.194   1.773   1.865
 5157SOL    HW216371   3.142   1.758   1.711
 5158SOL     OW16372   3.317   1.923   1.131
 5158SOL    HW116373   3.363   1.837   1.155
 5158SOL    HW216374   3.312   1.981   1.212
 5159SOL     OW16375   6.058   3.886   6.593
 5159SOL    HW116376   6.020   3.800   6.627
 5159SOL    HW216377   6.083   3.876   6.497
 5160SOL     OW16378   6.320   6.164   3.328
 5160SOL    HW116379   6.290   6.252   3.364
 5160SOL    HW216380   6.415   6.147   3.356
 5161SOL     OW16381   1.124   3.686   6.841
 5161SOL    HW116382   1.160   3.746   6.911
 5161SOL    HW216383   1.187   3.609   6.826
 5162SOL     OW16384   0.506   5.220   2.216
 5162SOL    HW116385   0.594   5.263   2.194
 5162SOL    HW216386   0.522   5.125   2.244
 5163SOL     OW16387   3.026   6.258   1.722
 5163SOL    HW116388   3.108   6.303   1.685
 5163SOL    HW216389   2.945   6.296   1.678
 5164SOL     OW16390   2.845   3.112   0.478
 5164SOL    HW116391   2.843   3.016   0.506
 5164SOL    HW216392   2.937   3.149   0.489
 5165SOL     OW16393   1.177   4.606   6.647
 5165SOL    HW116394   1.245   4.666   6.603
 5165SOL    HW216395   1.224   4.537   6.701
 5166SOL     OW16396   1.455   5.569   2.140
 5166SOL    HW116397   1.397   5.529   2.068
 5166SOL    HW216398   1.504   5.648   2.103
 5167SOL     OW16399   5.993   4.147   5.311
 5167SOL    HW116400   5.913   4.169   5.366
 5167SOL    HW216401   6.041   4.231   5.287
 5168SOL     OW16402   4.521   1.908   2.233
 5168SOL    HW116403   4.444   1.879   2.176
 5168SOL    HW216404   4.585   1.961   2.178
 5169SOL     OW16405   4.417   1.702   3.925
 5169SOL    HW116406   4.335   1.759   3.925
 5169SOL    HW216407   4.391   1.606   3.916
 5170SOL     OW16408   1.628   3.719   6.266
 5170SOL    HW116409   1.634   3.803   6.211
 5170SOL    HW216410   1.608   3.642   6.206
 5171SOL     OW16411   1.462   5.022   5.473
 5171SOL    HW116412   1.446   4.994   5.568
 5171SOL    HW216413   1.392   4.983   5.414
 5172SOL     OW16414   1.471   5.235   4.174
 5172SOL    HW116415   1.513   5.315   4.131
 5172SOL    HW216416   1.478   5.243   4.273
 5173SOL     OW16417   4.481   3.740   6.182
 5173SOL    HW116418   4.578   3.765   6.179
 5173SOL    HW216419   4.465   3.674   6.256
 5174SOL     OW16420   1.777   0.137   3.908
 5174SOL    HW116421   1.796   0.187   3.824
 5174SOL    HW216422   1.861   0.093   3.940
 5175SOL     OW16423   2.992   4.427   6.522
 5175SOL    HW116424   3.085   4.442   6.553
 5175SOL    HW216425   2.989   4.344   6.465
 5176SOL     OW16426   5.623   5.408   5.863
 5176SOL    HW116427   5.710   5.372   5.828
 5176SOL    HW216428   5.555   5.410   5.789
 5177SOL     OW16429   5.334   6.929   0.905
 5177SOL    HW116430   5.419   6.935   0.958
 5177SOL    HW216431   5.318   6.834   0.880
 5178SOL     OW16432   0.245   4.499   1.882
 5178SOL    HW116433   0.314   4.501   1.810
 5178SOL    HW216434   0.169   4.441   1.854
 5179SOL     OW16435   5.098   4.001   2.950
 5179SOL    HW116436   5.089   4.100   2.952
 5179SOL    HW216437   5.094   3.965   3.043
 5180SOL     OW16438   3.212   6.876   1.311
 5180SOL    HW116439   3.236   6.962   1.355
 5180SOL    HW216440   3.120   6.882   1.273
 5181SOL     OW16441   0.160   0.357   0.083
 5181SOL    HW116442   0.140   0.432   0.146
 5181SOL    HW216443   0.138   0.385   7.011
 5182SOL     OW16444   4.424   4.526   2.053
 5182SOL    HW116445   4.447   4.449   1.993
 5182SOL    HW216446   4.356   4.584   2.008
 5183SOL     OW16447   4.113   2.271   2.835
 5183SOL    HW116448   4.146   2.185   2.873
 5183SOL    HW216449   4.165   2.294   2.753
 5184SOL     OW16450   1.969   2.547   3.303
 5184SOL    HW116451   1.931   2.460   3.270
 5184SOL    HW216452   2.037   2.580   3.237
 5185SOL     OW16453   4.797   0.452   2.839
 5185SOL    HW116454   4.893   0.481   2.846
 5185SOL    HW216455   4.793   0.356   2.813
 5186SOL     OW16456   5.926   2.979   5.828
 5186SOL    HW116457   5.983   2.946   5.753
 5186SOL    HW216458   5.960   2.942   5.914
 5187SOL     OW16459   2.617   5.245   4.516
 5187SOL    HW116460   2.616   5.210   4.610
 5187SOL    HW216461   2.600   5.169   4.452
 5188SOL     OW16462   7.004   6.470   1.718
 5188SOL    HW116463   7.020   6.558   1.761
 5188SOL    HW216464   0.050   6.454   1.646
 5189SOL     OW16465   5.725   6.417   6.569
 5189SOL    HW116466   5.708   6.431   6.667
 5189SOL    HW216467   5.787   6.488   6.536
 5190SOL     OW16468   1.839   2.870   2.392
 5190SOL    HW116469   1.742   2.852   2.375
 5190SOL    HW216470   1.849   2.956   2.442
 5191SOL     OW16471   2.707   6.097   2.728
 5191SOL    HW116472   2.633   6.102   2.795
 5191SOL    HW216473   2.794   6.088   2.775
 5192SOL     OW16474   1.854   5.947   1.593
 5192SOL    HW116475   1.864   6.030   1.649
 5192SOL    HW216476   1.796   5.967   1.514
 5193SOL     OW16477   5.281   6.940   6.710
 5193SOL    HW116478   5.248   6.975   6.623
 5193SOL    HW216479   5.369   6.895   6.698
 5194SOL     OW16480   3.041   1.763   6.340
 5194SOL    HW116481   3.137   1.778   6.318
 5194SOL    HW216482   3.033   1.691   6.409
 5195SOL     OW16483   0.815   0.823   3.504
 5195SOL    HW116484   0.741   0.889   3.495
 5195SOL    HW216485   0.901   0.871   3.519
 5196SOL     OW16486   4.629   6.612   2.857
 5196SOL    HW116487   4.666   6.524   2.886
 5196SOL    HW216488   4.609   6.668   2.938
 5197SOL     OW16489   1.776   3.442   6.376
 5197SOL    HW116490   1.827   3.495   6.309
 5197SOL    HW216491   1.742   3.358   6.333
 5198SOL     OW16492   4.357   5.523   2.911
 5198SOL    HW116493   4.275   5.552   2.961
 5198SOL    HW216494   4.344   5.538   2.813
 5199SOL     OW16495   0.386   5.495   1.155
 5199SOL    HW116496   0.331   5.502   1.071
 5199SOL    HW216497   0.456   5.567   1.154
 5200SOL     OW16498   0.654   4.052   5.380
 5200SOL    HW116499   0.709   4.002   5.314
 5200SOL    HW216500   0.557   4.047   5.354
 5201SOL     OW16501   0.560   6.743   3.833
 5201SOL    HW116502   0.622   6.740   3.912
 5201SOL    HW216503   0.479   6.687   3.851
 5202SOL     OW16504   6.904   2.860   6.349
 5202SOL    HW116505   6.974   2.792   6.372
 5202SOL    HW216506   6.931   2.949   6.385
 5203SOL     OW16507   1.072   2.224   0.276
 5203SOL    HW116508   1.000   2.236   0.208
 5203SOL    HW216509   1.111   2.132   0.267
 5204SOL     OW16510   3.963   5.249   0.401
 5204SOL    HW116511   3.967   5.191   0.320
 5204SOL    HW216512   4.025   5.327   0.391
 5205SOL     OW16513   1.823   6.947   1.363
 5205SOL    HW116514   1.817   6.853   1.397
 5205SOL    HW216515   1.739   6.969   1.312
 5206SOL     OW16516   0.574   4.762   6.484
 5206SOL    HW116517   0.519   4.761   6.568
 5206SOL    HW216518   0.650   4.698   6.494
 5207SOL     OW16519   1.065   5.369   4.107
 5207SOL    HW116520   1.031   5.459   4.082
 5207SOL    HW216521   0.995   5.320   4.159
 5208SOL     OW16522   3.660   0.845   0.546
 5208SOL    HW116523   3.754   0.827   0.515
 5208SOL    HW216524   3.607   0.882   0.471
 5209SOL     OW16525   5.912   5.799   4.055
 5209SOL    HW116526   5.963   5.765   3.976
 5209SOL    HW216527   5.821   5.759   4.056
 5210SOL     OW16528   5.436   3.798   5.174
 5210SOL    HW116529   5.406   3.866   5.106
 5210SOL    HW216530   5.478   3.845   5.251
 5211SOL     OW16531   3.566   3.159   3.893
 5211SOL    HW116532   3.618   3.197   3.817
 5211SOL    HW216533   3.577   3.059   3.894
 5212SOL     OW16534   6.596   2.161   1.006
 5212SOL    HW116535   6.641   2.246   0.980
 5212SOL    HW216536   6.648   2.117   1.080
 5213SOL     OW16537   5.239   1.740   0.086
 5213SOL    HW116538   5.275   1.647   0.090
 5213SOL    HW216539   5.140   1.737   0.074
 5214SOL     OW16540   5.505   1.423   6.666
 5214SOL    HW116541   5.583   1.486   6.670
 5214SOL    HW216542   5.538   1.329   6.671
 5215SOL     OW16543   5.525   5.283   3.183
 5215SOL    HW116544   5.598   5.301   3.118
 5215SOL    HW216545   5.456   5.224   3.141
 5216SOL     OW16546   5.225   6.079   1.543
 5216SOL    HW116547   5.151   6.081   1.609
 5216SOL    HW216548   5.222   5.993   1.491
 5217SOL     OW16549   3.304   5.307   4.060
 5217SOL    HW116550   3.308   5.345   3.968
 5217SOL    HW216551   3.210   5.280   4.081
 5218SOL     OW16552   1.897   0.374   3.762
 5218SOL    HW116553   1.949   0.290   3.748
 5218SOL    HW216554   1.851   0.400   3.677
 5219SOL     OW16555   3.652   6.960   6.838
 5219SOL    HW116556   3.723   6.932   6.774
 5219SOL    HW216557   3.576   7.002   6.788
 5220SOL     OW16558   1.350   5.360   2.466
 5220SOL    HW116559   1.319   5.443   2.419
 5220SOL    HW216560   1.281   5.289   2.458
 5221SOL     OW16561   5.829   2.363   4.385
 5221SOL    HW116562   5.855   2.378   4.481
 5221SOL    HW216563   5.866   2.275   4.354
 5222SOL     OW16564   2.745   6.822   4.180
 5222SOL    HW116565   2.683   6.866   4.245
 5222SOL    HW216566   2.735   6.723   4.185
 5223SOL     OW16567   4.319   0.731   1.217
 5223SOL    HW116568   4.414   0.700   1.218
 5223SOL    HW216569   4.269   0.687   1.291
 5224SOL     OW16570   0.122   1.682   3.389
 5224SOL    HW116571   0.053   1.682   3.317
 5224SOL    HW216572   0.190   1.753   3.370
 5225SOL     OW16573   6.473   0.960   2.841
 5225SOL    HW116574   6.413   1.028   2.882
 5225SOL    HW216575   6.567   0.995   2.838
 5226SOL     OW16576   0.117   6.286   5.500
 5226SOL    HW116577   0.131   6.279   5.401
 5226SOL    HW216578   0.022   6.309   5.519
 5227SOL     OW16579   1.065   5.028   4.415
 5227SOL    HW116580   0.990   4.991   4.469
 5227SOL    HW216581   1.122   5.087   4.473
 5228SOL     OW16582   6.375   2.916   0.418
 5228SOL    HW116583   6.351   2.841   0.480
 5228SOL    HW216584   6.294   2.972   0.401
 5229SOL     OW16585   2.244   4.263   6.780
 5229SOL    HW116586   2.314   4.304   6.721
 5229SOL    HW216587   2.280   4.250   6.872
 5230SOL     OW16588   0.231   0.355   0.651
 5230SOL    HW116589   0.261   0.376   0.557
 5230SOL    HW216590   0.301   0.300   0.696
 5231SOL     OW16591   3.017   3.171   4.601
 5231SOL    HW116592   3.024   3.205   4.507
 5231SOL    HW216593   2.986   3.246   4.661
 5232SOL     OW16594   3.410   1.884   6.287
 5232SOL    HW116595   3.362   1.807   6.246
 5232SOL    HW216596   3.353   1.925   6.358
 5233SOL     OW16597   6.785   6.910   1.224
 5233SOL    HW116598   6.761   6.896   1.128
 5233SOL    HW216599   6.811   7.005   1.238
 5234SOL     OW16600   3.225   6.841   6.919
 5234SOL    HW116601   3.286   6.896   6.977
 5234SOL    HW216602   3.274   6.814   6.836
 5235SOL     OW16603   2.034   2.892   1.236
 5235SOL    HW116604   2.028   2.990   1.223
 5235SOL    HW216605   2.073   2.873   1.326
 5236SOL     OW16606   5.377   3.121   1.548
 5236SOL    HW116607   5.286   3.126   1.589
 5236SOL    HW216608   5.418   3.213   1.548
 5237SOL     OW16609   2.443   1.991   5.278
 5237SOL    HW116610   2.442   1.998   5.178
 5237SOL    HW216611   2.403   1.903   5.306
 5238SOL     OW16612   1.994   5.175   0.099
 5238SOL    HW116613   2.036   5.214   0.018
 5238SOL    HW216614   2.057   5.110   0.141
 5239SOL     OW16615   3.571   3.789   3.791
 5239SOL    HW116616   3.647   3.840   3.830
 5239SOL    HW216617   3.559   3.814   3.695
 5240SOL     OW16618   3.058   2.176   5.559
 5240SOL    HW116619   3.151   2.145   5.577
 5240SOL    HW216620   3.000   2.097   5.537
 5241SOL     OW16621   1.786   5.946   6.637
 5241SOL    HW116622   1.712   5.905   6.690
 5241SOL    HW216623   1.816   5.881   6.567
 5242SOL     OW16624   6.070   0.132   5.011
 5242SOL    HW116625   6.037   0.118   5.104
 5242SOL    HW216626   6.169   0.150   5.012
 5243SOL     OW16627   1.638   6.609   1.298
 5243SOL    HW116628   1.652   6.627   1.395
 5243SOL    HW216629   1.726   6.585   1.255
 5244SOL     OW16630   4.294   3.763   6.001
 5244SOL    HW116631   4.371   3.788   6.060
 5244SOL    HW216632   4.304   3.667   5.973
 5245SOL     OW16633   4.412   4.062   6.458
 5245SOL    HW116634   4.399   4.158   6.435
 5245SOL    HW216635   4.342   4.007   6.413
 5246SOL     OW16636   6.488   4.333   2.869
 5246SOL    HW116637   6.518   4.239   2.885
 5246SOL    HW216638   6.426   4.361   2.942
 5247SOL     OW16639   1.409   6.490   0.688
 5247SOL    HW116640   1.393   6.408   0.743
 5247SOL    HW216641   1.417   6.569   0.748
 5248SOL     OW16642   5.541   6.977   5.821
 5248SOL    HW116643   5.465   7.002   5.761
 5248SOL    HW216644   5.584   0.038   5.858
 5249SOL     OW16645   0.419   5.678   5.015
 5249SOL    HW116646   0.508   5.639   5.037
 5249SOL    HW216647   0.347   5.616   5.046
 5250SOL     OW16648   6.964   1.382   5.904
 5250SOL    HW116649   7.015   1.371   5.819
 5250SOL    HW216650   7.011   1.332   5.977
 5251SOL     OW16651   6.823   2.556   1.142
 5251SOL    HW116652   6.908   2.555   1.089
 5251SOL    HW216653   6.844   2.554   1.240
 5252SOL     OW16654   2.299   5.583   0.741
 5252SOL    HW116655   2.358   5.507   0.714
 5252SOL    HW216656   2.267   5.570   0.834
 5253SOL     OW16657   5.916   3.863   4.637
 5253SOL    HW116658   5.896   3.958   4.612
 5253SOL    HW216659   5.833   3.808   4.627
 5254SOL     OW16660   5.225   1.404   3.635
 5254SOL    HW116661   5.191   1.348   3.710
 5254SOL    HW216662   5.175   1.490   3.631
 5255SOL     OW16663   4.035   0.262   4.640
 5255SOL    HW116664   4.100   0.294   4.709
 5255SOL    HW216665   4.069   0.176   4.601
 5256SOL     OW16666   5.030   1.313   3.237
 5256SOL    HW116667   4.995   1.265   3.317
 5256SOL    HW216668   5.062   1.246   3.170
 5257SOL     OW16669   4.651   0.215   2.232
 5257SOL    HW116670   4.703   0.130   2.234
 5257SOL    HW216671   4.619   0.232   2.139
 5258SOL     OW16672   5.082   4.444   1.503
 5258SOL    HW116673   5.026   4.482   1.577
 5258SOL    HW216674   5.141   4.516   1.466
 5259SOL     OW16675   4.553   6.427   1.249
 5259SOL    HW116676   4.603   6.469   1.173
 5259SOL    HW216677   4.568   6.328   1.248
 5260SOL     OW16678   5.503   3.122   1.086
 5260SOL    HW116679   5.584   3.095   1.138
 5260SOL    HW216680   5.510   3.089   0.992
 5261SOL     OW16681   1.165   2.575   5.866
 5261SOL    HW116682   1.099   2.540   5.933
 5261SOL    HW216683   1.246   2.516   5.865
 5262SOL     OW16684   2.326   6.853   3.044
 5262SOL    HW116685   2.260   6.925   3.065
 5262SOL    HW216686   2.419   6.887   3.059
 5263SOL     OW16687   0.906   0.219   6.323
 5263SOL    HW116688   0.853   0.255   6.400
 5263SOL    HW216689   1.004   0.228   6.343
 5264SOL     OW16690   6.026   1.013   1.676
 5264SOL    HW116691   5.931   1.043   1.662
 5264SOL    HW216692   6.085   1.094   1.684
 5265SOL     OW16693   5.052   4.152   2.406
 5265SOL    HW116694   5.126   4.087   2.391
 5265SOL    HW216695   4.975   4.131   2.346
 5266SOL     OW16696   2.648   6.498   1.476
 5266SOL    HW116697   2.688   6.583   1.442
 5266SOL    HW216698   2.605   6.449   1.401
 5267SOL     OW16699   4.275   4.586   5.648
 5267SOL    HW116700   4.192   4.541   5.617
 5267SOL    HW216701   4.348   4.518   5.658
 5268SOL     OW16702   6.754   5.525   5.394
 5268SOL    HW116703   6.750   5.543   5.492
 5268SOL    HW216704   6.667   5.486   5.363
 5269SOL     OW16705   2.192   6.208   4.181
 5269SOL    HW116706   2.111   6.262   4.205
 5269SOL    HW216707   2.194   6.125   4.237
 5270SOL     OW16708   4.329   2.094   1.764
 5270SOL    HW116709   4.370   2.017   1.714
 5270SOL    HW216710   4.384   2.113   1.845
 5271SOL     OW16711   4.577   5.297   4.231
 5271SOL    HW116712   4.519   5.226   4.190
 5271SOL    HW216713   4.588   5.372   4.166
 5272SOL     OW16714   0.918   5.957   3.790
 5272SOL    HW116715   0.828   5.930   3.826
 5272SOL    HW216716   0.986   5.889   3.814
 5273SOL     OW16717   0.950   3.021   3.333
 5273SOL    HW116718   1.045   3.007   3.359
 5273SOL    HW216719   0.896   3.044   3.414
 5274SOL     OW16720   5.959   4.945   2.589
 5274SOL    HW116721   5.991   4.947   2.683
 5274SOL    HW216722   6.000   4.868   2.541
 5275SOL     OW16723   3.089   1.159   6.174
 5275SOL    HW116724   3.047   1.222   6.239
 5275SOL    HW216725   3.024   1.138   6.101
 5276SOL     OW16726   0.303   6.068   0.814
 5276SOL    HW116727   0.275   5.973   0.797
 5276SOL    HW216728   0.225   6.129   0.801
 5277SOL     OW16729   1.653   2.683   2.711
 5277SOL    HW116730   1.709   2.685   2.628
 5277SOL    HW216731   1.712   2.690   2.791
 5278SOL     OW16732   5.335   0.081   5.639
 5278SOL    HW116733   5.386   0.128   5.567
 5278SOL    HW216734   5.273   0.015   5.597
 5279SOL     OW16735   1.511   6.335   6.798
 5279SOL    HW116736   1.454   6.282   6.861
 5279SOL    HW216737   1.586   6.277   6.764
 5280SOL     OW16738   3.537   5.894   5.407
 5280SOL    HW116739   3.603   5.820   5.391
 5280SOL    HW216740   3.453   5.877   5.356
 5281SOL     OW16741   1.301   1.815   3.824
 5281SOL    HW116742   1.364   1.893   3.825
 5281SOL    HW216743   1.302   1.772   3.734
 5282SOL     OW16744   1.826   0.243   2.085
 5282SOL    HW116745   1.737   0.210   2.053
 5282SOL    HW216746   1.888   0.253   2.007
 5283SOL     OW16747   1.643   0.947   3.068
 5283SOL    HW116748   1.635   0.988   2.977
 5283SOL    HW216749   1.566   0.886   3.084
 5284SOL     OW16750   4.583   2.632   3.210
 5284SOL    HW116751   4.528   2.577   3.272
 5284SOL    HW216752   4.605   2.720   3.253
 5285SOL     OW16753   0.934   3.637   4.164
 5285SOL    HW116754   0.887   3.549   4.157
 5285SOL    HW216755   1.030   3.621   4.188
 5286SOL     OW16756   6.237   3.251   0.968
 5286SOL    HW116757   6.219   3.300   0.882
 5286SOL    HW216758   6.336   3.250   0.985
 5287SOL     OW16759   2.841   5.525   1.208
 5287SOL    HW116760   2.747   5.511   1.241
 5287SOL    HW216761   2.905   5.514   1.284
 5288SOL     OW16762   3.896   0.199   2.902
 5288SOL    HW116763   3.862   0.127   2.962
 5288SOL    HW216764   3.966   0.252   2.949
 5289SOL     OW16765   2.442   5.315   5.950
 5289SOL    HW116766   2.469   5.264   5.868
 5289SOL    HW216767   2.479   5.270   6.031
 5290SOL     OW16768   1.585   3.733   5.700
 5290SOL    HW116769   1.485   3.736   5.702
 5290SOL    HW216770   1.615   3.681   5.620
 5291SOL     OW16771   3.267   4.431   6.181
 5291SOL    HW116772   3.319   4.428   6.096
 5291SOL    HW216773   3.171   4.451   6.162
 5292SOL     OW16774   5.813   4.896   5.958
 5292SOL    HW116775   5.744   4.938   5.900
 5292SOL    HW216776   5.772   4.870   6.045
 5293SOL     OW16777   2.057   0.026   5.010
 5293SOL    HW116778   1.973   0.079   5.024
 5293SOL    HW216779   2.130   0.088   4.980
 5294SOL     OW16780   4.679   2.080   5.284
 5294SOL    HW116781   4.583   2.081   5.311
 5294SOL    HW216782   4.691   2.135   5.201
 5295SOL     OW16783   3.684   0.922   2.997
 5295SOL    HW116784   3.704   1.012   2.958
 5295SOL    HW216785   3.755   0.898   3.063
 5296SOL     OW16786   3.399   4.187   0.044
 5296SOL    HW116787   3.355   4.272   0.073
 5296SOL    HW216788   3.329   4.119   0.020
 5297SOL     OW16789   1.361   3.830   0.026
 5297SOL    HW116790   1.290   3.852   0.093
 5297SOL    HW216791   1.392   3.736   0.040
 5298SOL     OW16792   1.564   6.023   7.016
 5298SOL    HW116793   1.624   6.087   0.043
 5298SOL    HW216794   1.482   6.072   6.985
 5299SOL     OW16795   2.901   2.844   0.599
 5299SOL    HW116796   2.960   2.817   0.523
 5299SOL    HW216797   2.947   2.822   0.686
 5300SOL     OW16798   0.529   5.744   1.209
 5300SOL    HW116799   0.577   5.761   1.295
 5300SOL    HW216800   0.594   5.741   1.133
 5301SOL     OW16801   4.256   1.530   6.090
 5301SOL    HW116802   4.306   1.563   6.010
 5301SOL    HW216803   4.295   1.443   6.120
 5302SOL     OW16804   5.812   5.808   3.410
 5302SOL    HW116805   5.717   5.813   3.440
 5302SOL    HW216806   5.815   5.783   3.313
 5303SOL     OW16807   0.220   5.172   4.795
 5303SOL    HW116808   0.136   5.118   4.799
 5303SOL    HW216809   0.198   5.268   4.812
 5304SOL     OW16810   5.884   0.321   0.307
 5304SOL    HW116811   5.873   0.265   0.389
 5304SOL    HW216812   5.855   0.415   0.327
 5305SOL     OW16813   0.930   5.237   2.808
 5305SOL    HW116814   1.005   5.210   2.868
 5305SOL    HW216815   0.849   5.258   2.863
 5306SOL     OW16816   0.696   4.767   5.433
 5306SOL    HW116817   0.652   4.707   5.500
 5306SOL    HW216818   0.782   4.726   5.402
 5307SOL     OW16819   3.608   1.388   7.014
 5307SOL    HW116820   3.652   1.466   6.969
 5307SOL    HW216821   3.586   1.318   6.947
 5308SOL     OW16822   1.255   4.438   2.671
 5308SOL    HW116823   1.323   4.457   2.600
 5308SOL    HW216824   1.296   4.384   2.744
 5309SOL     OW16825   3.991   5.038   1.829
 5309SOL    HW116826   3.929   4.977   1.878
 5309SOL    HW216827   3.958   5.132   1.836
 5310SOL     OW16828   5.726   3.764   1.855
 5310SOL    HW116829   5.698   3.693   1.919
 5310SOL    HW216830   5.740   3.723   1.764
 5311SOL     OW16831   6.678   6.763   0.222
 5311SOL    HW116832   6.699   6.675   0.266
 5311SOL    HW216833   6.759   6.795   0.172
 5312SOL     OW16834   0.926   5.443   1.882
 5312SOL    HW116835   0.918   5.510   1.956
 5312SOL    HW216836   0.836   5.425   1.843
 5313SOL     OW16837   1.320   2.652   6.188
 5313SOL    HW116838   1.281   2.744   6.194
 5313SOL    HW216839   1.256   2.586   6.226
 5314SOL     OW16840   4.240   6.565   0.062
 5314SOL    HW116841   4.159   6.553   0.119
 5314SOL    HW216842   4.248   6.661   0.035
 5315SOL     OW16843   4.992   3.644   2.093
 5315SOL    HW116844   5.077   3.676   2.134
 5315SOL    HW216845   4.952   3.572   2.150
 5316SOL     OW16846   0.866   3.446   5.426
 5316SOL    HW116847   0.812   3.476   5.504
 5316SOL    HW216848   0.812   3.384   5.369
 5317SOL     OW16849   6.037   1.698   5.177
 5317SOL    HW116850   5.944   1.728   5.197
 5317SOL    HW216851   6.065   1.629   5.244
 5318SOL     OW16852   0.839   2.213   0.723
 5318SOL    HW116853   0.832   2.313   0.723
 5318SOL    HW216854   0.912   2.185   0.661
 5319SOL     OW16855   4.549   5.837   0.474
 5319SOL    HW116856   4.638   5.882   0.470
 5319SOL    HW216857   4.494   5.878   0.547
 5320SOL     OW16858   4.315   4.716   0.643
 5320SOL    HW116859   4.296   4.709   0.545
 5320SOL    HW216860   4.239   4.763   0.688
 5321SOL     OW16861   2.280   4.887   4.489
 5321SOL    HW116862   2.263   4.788   4.483
 5321SOL    HW216863   2.216   4.935   4.430
 5322SOL     OW16864   5.584   5.944   6.954
 5322SOL    HW116865   5.681   5.963   6.943
 5322SOL    HW216866   5.542   5.929   6.865
 5323SOL     OW16867   4.123   1.463   6.307
 5323SOL    HW116868   4.180   1.401   6.362
 5323SOL    HW216869   4.176   1.498   6.230
 5324SOL     OW16870   3.381   2.569   0.758
 5324SOL    HW116871   3.468   2.619   0.759
 5324SOL    HW216872   3.355   2.546   0.852
 5325SOL     OW16873   4.379   0.334   4.490
 5325SOL    HW116874   4.287   0.350   4.455
 5325SOL    HW216875   4.417   0.251   4.448
 5326SOL     OW16876   6.583   4.979   3.403
 5326SOL    HW116877   6.652   4.943   3.341
 5326SOL    HW216878   6.524   5.043   3.355
 5327SOL     OW16879   5.822   2.879   5.577
 5327SOL    HW116880   5.723   2.868   5.567
 5327SOL    HW216881   5.852   2.958   5.523
 5328SOL     OW16882   3.614   3.275   5.674
 5328SOL    HW116883   3.617   3.310   5.768
 5328SOL    HW216884   3.626   3.176   5.675
 5329SOL     OW16885   0.428   4.734   6.248
 5329SOL    HW116886   0.446   4.654   6.191
 5329SOL    HW216887   0.483   4.729   6.331
 5330SOL     OW16888   4.516   4.080   6.948
 5330SOL    HW116889   4.439   4.092   6.886
 5330SOL    HW216890   4.531   4.164   7.000
 5331SOL     OW16891   5.723   1.612   6.694
 5331SOL    HW116892   5.788   1.623   6.619
 5331SOL    HW216893   5.749   1.534   6.751
 5332SOL     OW16894   0.561   2.903   1.453
 5332SOL    HW116895   0.469   2.902   1.412
 5332SOL    HW216896   0.630   2.905   1.380
 5333SOL     OW16897   0.916   0.722   2.989
 5333SOL    HW116898   0.940   0.784   2.914
 5333SOL    HW216899   0.856   0.769   3.053
 5334SOL     OW16900   3.200   0.069   4.151
 5334SOL    HW116901   3.203   6.992   4.132
 5334SOL    HW216902   3.293   0.104   4.159
 5335SOL     OW16903   6.866   6.236   0.895
 5335SOL    HW116904   6.927   6.310   0.923
 5335SOL    HW216905   6.920   6.156   0.870
 5336SOL     OW16906   1.963   3.557   3.104
 5336SOL    HW116907   1.888   3.511   3.152
 5336SOL    HW216908   2.043   3.496   3.101
 5337SOL     OW16909   4.807   4.310   1.098
 5337SOL    HW116910   4.729   4.348   1.147
 5337SOL    HW216911   4.822   4.216   1.127
 5338SOL     OW16912   5.676   1.671   0.418
 5338SOL    HW116913   5.770   1.639   0.412
 5338SOL    HW216914   5.650   1.714   0.331
 5339SOL     OW16915   6.902   2.193   4.215
 5339SOL    HW116916   6.909   2.228   4.122
 5339SOL    HW216917   6.826   2.128   4.221
 5340SOL     OW16918   4.345   4.211   0.943
 5340SOL    HW116919   4.364   4.137   0.879
 5340SOL    HW216920   4.305   4.173   1.027
 5341SOL     OW16921   3.506   2.622   6.243
 5341SOL    HW116922   3.477   2.664   6.157
 5341SOL    HW216923   3.538   2.529   6.226
 5342SOL     OW16924   3.768   6.896   4.145
 5342SOL    HW116925   3.829   6.830   4.188
 5342SOL    HW216926   3.684   6.904   4.199
 5343SOL     OW16927   3.742   4.120   4.168
 5343SOL    HW116928   3.786   4.183   4.105
 5343SOL    HW216929   3.800   4.107   4.248
 5344SOL     OW16930   2.195   2.962   2.848
 5344SOL    HW116931   2.165   3.031   2.914
 5344SOL    HW216932   2.263   2.902   2.891
 5345SOL     OW16933   4.039   6.330   1.305
 5345SOL    HW116934   3.966   6.339   1.238
 5345SOL    HW216935   4.120   6.290   1.262
 5346SOL     OW16936   3.384   6.057   4.029
 5346SOL    HW116937   3.325   6.063   3.948
 5346SOL    HW216938   3.421   6.148   4.050
 5347SOL     OW16939   0.695   2.825   2.174
 5347SOL    HW116940   0.747   2.844   2.258
 5347SOL    HW216941   0.651   2.909   2.142
 5348SOL     OW16942   0.182   2.017   0.836
 5348SOL    HW116943   0.129   1.942   0.875
 5348SOL    HW216944   0.120   2.091   0.807
 5349SOL     OW16945   1.357   2.655   0.189
 5349SOL    HW116946   1.368   2.622   0.282
 5349SOL    HW216947   1.272   2.620   0.150
 5350SOL     OW16948   1.993   0.285   5.343
 5350SOL    HW116949   2.024   0.324   5.257
 5350SOL    HW216950   2.071   0.245   5.391
 5351SOL     OW16951   5.972   6.033   2.100
 5351SOL    HW116952   6.007   6.070   2.187
 5351SOL    HW216953   5.936   5.941   2.116
 5352SOL     OW16954   2.047   5.380   3.637
 5352SOL    HW116955   2.136   5.401   3.678
 5352SOL    HW216956   2.027   5.447   3.565
 5353SOL     OW16957   4.075   5.354   3.481
 5353SOL    HW116958   4.160   5.333   3.530
 5353SOL    HW216959   3.997   5.347   3.544
 5354SOL     OW16960   2.501   5.487   1.796
 5354SOL    HW116961   2.543   5.557   1.854
 5354SOL    HW216962   2.452   5.532   1.721
 5355SOL     OW16963   5.423   3.202   3.368
 5355SOL    HW116964   5.410   3.111   3.408
 5355SOL    HW216965   5.521   3.223   3.364
 5356SOL     OW16966   5.681   4.537   1.797
 5356SOL    HW116967   5.634   4.457   1.760
 5356SOL    HW216968   5.651   4.620   1.749
 5357SOL     OW16969   4.643   6.191   0.105
 5357SOL    HW116970   4.646   6.101   0.061
 5357SOL    HW216971   4.553   6.232   0.090
 5358SOL     OW16972   4.223   1.305   0.187
 5358SOL    HW116973   4.163   1.385   0.180
 5358SOL    HW216974   4.316   1.334   0.210
 5359SOL     OW16975   1.564   2.010   6.752
 5359SOL    HW116976   1.628   2.006   6.676
 5359SOL    HW216977   1.488   1.948   6.736
 5360SOL     OW16978   4.590   6.237   5.411
 5360SOL    HW116979   4.598   6.209   5.316
 5360SOL    HW216980   4.521   6.310   5.418
 5361SOL     OW16981   2.272   0.552   5.199
 5361SOL    HW116982   2.282   0.515   5.291
 5361SOL    HW216983   2.257   0.651   5.203
 5362SOL     OW16984   5.621   4.814   3.598
 5362SOL    HW116985   5.666   4.724   3.602
 5362SOL    HW216986   5.662   4.868   3.524
 5363SOL     OW16987   0.353   6.942   6.386
 5363SOL    HW116988   0.406   6.996   6.320
 5363SOL    HW216989   0.415   6.894   6.448
 5364SOL     OW16990   6.654   5.851   2.000
 5364SOL    HW116991   6.559   5.848   1.970
 5364SOL    HW216992   6.691   5.943   1.987
 5365SOL     OW16993   3.622   3.257   6.835
 5365SOL    HW116994   3.552   3.201   6.791
 5365SOL    HW216995   3.595   3.353   6.833
 5366SOL     OW16996   5.153   5.677   1.761
 5366SOL    HW116997   5.243   5.711   1.733
 5366SOL    HW216998   5.081   5.729   1.716
 5367SOL     OW16999   0.523   6.177   0.639
 5367SOL    HW117000   0.435   6.133   0.656
 5367SOL    HW217001   0.593   6.138   0.699
 5368SOL     OW17002   5.395   0.510   2.976
 5368SOL    HW117003   5.479   0.539   3.022
 5368SOL    HW217004   5.322   0.576   2.994
 5369SOL     OW17005   2.971   0.031   1.964
 5369SOL    HW117006   3.016   0.044   2.052
 5369SOL    HW217007   2.972   6.955   1.941
 5370SOL     OW17008   4.241   2.886   1.545
 5370SOL    HW117009   4.238   2.798   1.592
 5370SOL    HW217010   4.295   2.950   1.599
 5371SOL     OW17011   1.623   4.125   4.427
 5371SOL    HW117012   1.617   4.026   4.439
 5371SOL    HW217013   1.699   4.146   4.365
 5372SOL     OW17014   2.362   5.649   3.483
 5372SOL    HW117015   2.322   5.732   3.444
 5372SOL    HW217016   2.446   5.673   3.532
 5373SOL     OW17017   3.652   6.121   3.815
 5373SOL    HW117018   3.680   6.214   3.838
 5373SOL    HW217019   3.684   6.099   3.723
 5374SOL     OW17020   0.841   4.107   6.974
 5374SOL    HW117021   0.858   4.008   6.969
 5374SOL    HW217022   0.791   4.127   0.037
 5375SOL     OW17023   2.012   5.012   4.956
 5375SOL    HW117024   1.979   5.092   5.006
 5375SOL    HW217025   2.029   4.937   5.020
 5376SOL     OW17026   1.810   3.365   0.477
 5376SOL    HW117027   1.753   3.425   0.419
 5376SOL    HW217028   1.888   3.333   0.424
 5377SOL     OW17029   0.598   0.405   1.977
 5377SOL    HW117030   0.587   0.483   1.916
 5377SOL    HW217031   0.553   0.423   2.064
 5378SOL     OW17032   0.135   0.530   2.202
 5378SOL    HW117033   0.137   0.489   2.293
 5378SOL    HW217034   0.229   0.542   2.169
 5379SOL     OW17035   2.050   5.601   5.144
 5379SOL    HW117036   1.969   5.601   5.085
 5379SOL    HW217037   2.130   5.629   5.091
 5380SOL     OW17038   1.993   1.968   3.581
 5380SOL    HW117039   2.027   1.925   3.665
 5380SOL    HW217040   1.930   2.042   3.606
 5381SOL     OW17041   6.312   4.039   1.264
 5381SOL    HW117042   6.327   4.066   1.169
 5381SOL    HW217043   6.216   4.016   1.277
 5382SOL     OW17044   3.446   0.412   2.346
 5382SOL    HW117045   3.463   0.505   2.313
 5382SOL    HW217046   3.530   0.374   2.384
 5383SOL     OW17047   2.272   2.583   5.398
 5383SOL    HW117048   2.257   2.649   5.325
 5383SOL    HW217049   2.253   2.491   5.364
 5384SOL     OW17050   5.612   0.288   4.675
 5384SOL    HW117051   5.685   0.289   4.607
 5384SOL    HW217052   5.650   0.301   4.766
 5385SOL     OW17053   2.975   3.515   4.013
 5385SOL    HW117054   2.917   3.488   4.090
 5385SOL    HW217055   3.069   3.489   4.031
 5386SOL     OW17056   4.995   0.250   4.566
 5386SOL    HW117057   4.987   0.162   4.614
 5386SOL    HW217058   5.000   0.324   4.633
 5387SOL     OW17059   3.088   6.250   3.773
 5387SOL    HW117060   3.161   6.317   3.769
 5387SOL    HW217061   3.001   6.295   3.795
 5388SOL     OW17062   6.780   0.177   3.794
 5388SOL    HW117063   6.710   0.172   3.866
 5388SOL    HW217064   6.743   0.139   3.709
 5389SOL     OW17065   4.522   0.948   1.542
 5389SOL    HW117066   4.560   0.911   1.626
 5389SOL    HW217067   4.524   1.048   1.545
 5390SOL     OW17068   4.862   4.145   3.429
 5390SOL    HW117069   4.883   4.243   3.430
 5390SOL    HW217070   4.818   4.122   3.342
 5391SOL     OW17071   1.716   2.249   1.477
 5391SOL    HW117072   1.813   2.272   1.478
 5391SOL    HW217073   1.662   2.333   1.475
 5392SOL     OW17074   5.531   3.393   1.494
 5392SOL    HW117075   5.620   3.384   1.450
 5392SOL    HW217076   5.531   3.475   1.552
 5393SOL     OW17077   5.332   6.670   6.408
 5393SOL    HW117078   5.358   6.651   6.503
 5393SOL    HW217079   5.375   6.756   6.379
 5394SOL     OW17080   6.934   4.538   6.369
 5394SOL    HW117081   6.862   4.481   6.408
 5394SOL    HW217082   6.920   4.633   6.396
 5395SOL     OW17083   4.527   0.907   1.911
 5395SOL    HW117084   4.576   0.957   1.982
 5395SOL    HW217085   4.584   0.832   1.877
 5396SOL     OW17086   4.948   4.415   2.725
 5396SOL    HW117087   4.862   4.380   2.688
 5396SOL    HW217088   4.931   4.503   2.771
 5397SOL     OW17089   6.781   2.838   1.776
 5397SOL    HW117090   6.831   2.846   1.862
 5397SOL    HW217091   6.802   2.751   1.733
 5398SOL     OW17092   3.455   2.045   2.731
 5398SOL    HW117093   3.407   2.060   2.644
 5398SOL    HW217094   3.543   2.093   2.728
 5399SOL     OW17095   2.404   5.361   0.067
 5399SOL    HW117096   2.453   5.292   0.120
 5399SOL    HW217097   2.330   5.399   0.123
 5400SOL     OW17098   2.184   4.150   0.961
 5400SOL    HW117099   2.256   4.152   1.030
 5400SOL    HW217100   2.206   4.082   0.891
 5401SOL     OW17101   5.747   3.634   1.613
 5401SOL    HW117102   5.803   3.557   1.580
 5401SOL    HW217103   5.657   3.599   1.641
 5402SOL     OW17104   2.244   4.606   1.549
 5402SOL    HW117105   2.304   4.645   1.619
 5402SOL    HW217106   2.187   4.535   1.591
 5403SOL     OW17107   6.275   2.488   6.254
 5403SOL    HW117108   6.227   2.564   6.299
 5403SOL    HW217109   6.372   2.508   6.248
 5404SOL     OW17110   0.855   1.251   2.974
 5404SOL    HW117111   0.845   1.222   3.069
 5404SOL    HW217112   0.770   1.232   2.924
 5405SOL     OW17113   5.997   5.889   0.201
 5405SOL    HW117114   6.089   5.878   0.164
 5405SOL    HW217115   5.977   5.813   0.263
 5406SOL     OW17116   2.615   0.440   0.220
 5406SOL    HW117117   2.541   0.493   0.178
 5406SOL    HW217118   2.699   0.454   0.168
 5407SOL     OW17119   4.062   3.024   1.404
 5407SOL    HW117120   4.017   2.961   1.342
 5407SOL    HW217121   4.130   2.975   1.459
 5408SOL     OW17122   3.355   1.212   6.202
 5408SOL    HW117123   3.357   1.305   6.237
 5408SOL    HW217124   3.261   1.188   6.175
 5409SOL     OW17125   6.272   1.262   3.921
 5409SOL    HW117126   6.189   1.220   3.957
 5409SOL    HW217127   6.349   1.241   3.982
 5410SOL     OW17128   1.995   3.060   1.606
 5410SOL    HW117129   2.033   3.142   1.563
 5410SOL    HW217130   2.042   2.979   1.570
 5411SOL     OW17131   6.460   5.315   5.636
 5411SOL    HW117132   6.442   5.402   5.590
 5411SOL    HW217133   6.521   5.259   5.580
 5412SOL     OW17134   4.131   0.815   6.431
 5412SOL    HW117135   4.073   0.759   6.490
 5412SOL    HW217136   4.086   0.828   6.343
 5413SOL     OW17137   1.866   0.990   1.331
 5413SOL    HW117138   1.784   1.021   1.282
 5413SOL    HW217139   1.839   0.949   1.418
 5414SOL     OW17140   5.666   2.819   4.855
 5414SOL    HW117141   5.647   2.848   4.762
 5414SOL    HW217142   5.751   2.766   4.857
 5415SOL     OW17143   1.572   6.185   1.268
 5415SOL    HW117144   1.552   6.203   1.171
 5415SOL    HW217145   1.630   6.104   1.276
 5416SOL     OW17146   4.628   4.567   6.300
 5416SOL    HW117147   4.627   4.595   6.204
 5416SOL    HW217148   4.576   4.633   6.354
 5417SOL     OW17149   4.082   6.549   5.510
 5417SOL    HW117150   4.108   6.589   5.422
 5417SOL    HW217151   4.006   6.486   5.497
 5418SOL     OW17152   4.138   6.366   4.202
 5418SOL    HW117153   4.144   6.296   4.273
 5418SOL    HW217154   4.217   6.428   4.209
 5419SOL     OW17155   3.018   5.064   0.210
 5419SOL    HW117156   3.020   4.988   0.276
 5419SOL    HW217157   3.111   5.081   0.177
 5420SOL     OW17158   1.312   1.993   2.254
 5420SOL    HW117159   1.288   2.086   2.226
 5420SOL    HW217160   1.250   1.928   2.211
 5421SOL     OW17161   2.073   3.361   2.685
 5421SOL    HW117162   2.016   3.410   2.620
 5421SOL    HW217163   2.133   3.425   2.732
 5422SOL     OW17164   0.959   5.512   6.977
 5422SOL    HW117165   0.908   5.598   6.977
 5422SOL    HW217166   0.937   5.460   0.037
 5423SOL     OW17167   5.720   2.602   0.101
 5423SOL    HW117168   5.785   2.647   0.039
 5423SOL    HW217169   5.666   2.535   0.050
 5424SOL     OW17170   4.818   3.064   3.993
 5424SOL    HW117171   4.868   3.028   4.072
 5424SOL    HW217172   4.818   2.995   3.920
 5425SOL     OW17173   4.425   1.355   4.239
 5425SOL    HW117174   4.428   1.256   4.229
 5425SOL    HW217175   4.429   1.379   4.336
 5426SOL     OW17176   6.341   5.052   3.845
 5426SOL    HW117177   6.388   5.095   3.922
 5426SOL    HW217178   6.297   5.122   3.789
 5427SOL     OW17179   4.972   4.948   0.396
 5427SOL    HW117180   4.880   4.963   0.361
 5427SOL    HW217181   5.000   5.026   0.452
 5428SOL     OW17182   0.339   0.284   1.744
 5428SOL    HW117183   0.278   0.306   1.668
 5428SOL    HW217184   0.367   0.367   1.791
 5429SOL     OW17185   1.276   1.801   5.660
 5429SOL    HW117186   1.291   1.727   5.725
 5429SOL    HW217187   1.320   1.884   5.693
 5430SOL     OW17188   0.893   3.485   5.847
 5430SOL    HW117189   0.851   3.395   5.835
 5430SOL    HW217190   0.983   3.486   5.804
 5431SOL     OW17191   3.568   5.666   6.936
 5431SOL    HW117192   3.655   5.688   6.980
 5431SOL    HW217193   3.576   5.577   6.890
 5432SOL     OW17194   4.747   6.493   6.519
 5432SOL    HW117195   4.787   6.583   6.537
 5432SOL    HW217196   4.789   6.454   6.437
 5433SOL     OW17197   0.930   1.776   3.952
 5433SOL    HW117198   0.878   1.735   4.027
 5433SOL    HW217199   0.957   1.705   3.887
 5434SOL     OW17200   3.862   1.153   4.779
 5434SOL    HW117201   3.832   1.187   4.690
 5434SOL    HW217202   3.790   1.171   4.847
 5435SOL     OW17203   5.257   1.067   1.544
 5435SOL    HW117204   5.181   1.108   1.493
 5435SOL    HW217205   5.338   1.064   1.486
 5436SOL     OW17206   5.142   3.685   3.964
 5436SOL    HW117207   5.193   3.657   3.883
 5436SOL    HW217208   5.194   3.753   4.015
 5437SOL     OW17209   2.925   4.936   6.479
 5437SOL    HW117210   2.832   4.972   6.471
 5437SOL    HW217211   2.922   4.836   6.475
 5438SOL     OW17212   6.248   4.005   2.791
 5438SOL    HW117213   6.285   3.923   2.834
 5438SOL    HW217214   6.217   4.068   2.862
 5439SOL     OW17215   1.230   2.529   1.510
 5439SOL    HW117216   1.287   2.447   1.500
 5439SOL    HW217217   1.192   2.532   1.602
 5440SOL     OW17218   0.454   1.077   2.052
 5440SOL    HW117219   0.383   1.063   2.121
 5440SOL    HW217220   0.464   0.994   1.997
 5441SOL     OW17221   5.074   2.141   2.800
 5441SOL    HW117222   5.039   2.092   2.720
 5441SOL    HW217223   5.063   2.240   2.785
 5442SOL     OW17224   3.330   5.872   3.223
 5442SOL    HW117225   3.351   5.790   3.276
 5442SOL    HW217226   3.236   5.867   3.189
 5443SOL     OW17227   2.639   0.793   3.608
 5443SOL    HW117228   2.644   0.876   3.663
 5443SOL    HW217229   2.655   0.713   3.666
 5444SOL     OW17230   1.643   0.622   4.166
 5444SOL    HW117231   1.547   0.645   4.179
 5444SOL    HW217232   1.694   0.643   4.250
 5445SOL     OW17233   5.666   4.031   4.283
 5445SOL    HW117234   5.612   4.049   4.201
 5445SOL    HW217235   5.627   3.951   4.331
 5446SOL     OW17236   6.444   5.120   5.027
 5446SOL    HW117237   6.516   5.059   4.993
 5446SOL    HW217238   6.459   5.139   5.124
 5447SOL     OW17239   2.390   1.706   6.392
 5447SOL    HW117240   2.369   1.681   6.487
 5447SOL    HW217241   2.484   1.738   6.387
 5448SOL     OW17242   4.964   3.190   4.736
 5448SOL    HW117243   4.904   3.142   4.672
 5448SOL    HW217244   5.058   3.160   4.722
 5449SOL     OW17245   1.604   2.598   6.724
 5449SOL    HW117246   1.646   2.540   6.653
 5449SOL    HW217247   1.595   2.546   6.809
 5450SOL     OW17248   1.732   0.620   2.208
 5450SOL    HW117249   1.800   0.686   2.241
 5450SOL    HW217250   1.729   0.622   2.108
 5451SOL     OW17251   1.090   6.081   3.598
 5451SOL    HW117252   1.183   6.071   3.632
 5451SOL    HW217253   1.027   6.035   3.660
 5452SOL     OW17254   2.486   4.016   0.128
 5452SOL    HW117255   2.427   3.939   0.153
 5452SOL    HW217256   2.518   4.061   0.211
 5453SOL     OW17257   5.147   4.257   1.965
 5453SOL    HW117258   5.164   4.197   2.043
 5453SOL    HW217259   5.131   4.202   1.883
 5454SOL     OW17260   0.215   3.727   6.166
 5454SOL    HW117261   0.279   3.804   6.170
 5454SOL    HW217262   0.121   3.760   6.176
 5455SOL     OW17263   6.432   2.854   0.804
 5455SOL    HW117264   6.352   2.899   0.842
 5455SOL    HW217265   6.492   2.823   0.878
 5456SOL     OW17266   2.846   0.238   6.938
 5456SOL    HW117267   2.875   0.231   0.012
 5456SOL    HW217268   2.751   0.206   6.930
 5457SOL     OW17269   6.288   2.456   6.564
 5457SOL    HW117270   6.380   2.475   6.600
 5457SOL    HW217271   6.292   2.452   6.464
 5458SOL     OW17272   1.006   4.449   0.316
 5458SOL    HW117273   1.096   4.483   0.290
 5458SOL    HW217274   1.008   4.349   0.322
 5459SOL     OW17275   1.840   3.958   0.157
 5459SOL    HW117276   1.878   3.869   0.132
 5459SOL    HW217277   1.774   3.987   0.087
 5460SOL     OW17278   3.448   0.904   3.106
 5460SOL    HW117279   3.378   0.841   3.073
 5460SOL    HW217280   3.518   0.917   3.035
 5461SOL     OW17281   5.703   0.400   5.495
 5461SOL    HW117282   5.752   0.337   5.556
 5461SOL    HW217283   5.630   0.446   5.546
 5462SOL     OW17284   0.851   0.030   6.709
 5462SOL    HW117285   0.890   6.960   6.701
 5462SOL    HW217286   0.752   0.026   6.694
 5463SOL     OW17287   6.701   2.363   0.476
 5463SOL    HW117288   6.610   2.350   0.516
 5463SOL    HW217289   6.761   2.288   0.504
 5464SOL     OW17290   1.197   1.347   4.068
 5464SOL    HW117291   1.132   1.396   4.125
 5464SOL    HW217292   1.210   1.254   4.104
 5465SOL     OW17293   3.517   6.073   3.264
 5465SOL    HW117294   3.445   6.004   3.269
 5465SOL    HW217295   3.523   6.109   3.171
 5466SOL     OW17296   5.271   3.513   5.487
 5466SOL    HW117297   5.325   3.440   5.444
 5466SOL    HW217298   5.327   3.595   5.496
 5467SOL     OW17299   5.301   2.710   2.983
 5467SOL    HW117300   5.331   2.798   2.947
 5467SOL    HW217301   5.240   2.725   3.061
 5468SOL     OW17302   5.775   2.427   4.841
 5468SOL    HW117303   5.820   2.337   4.839
 5468SOL    HW217304   5.677   2.415   4.829
 5469SOL     OW17305   4.129   6.009   6.309
 5469SOL    HW117306   4.058   5.955   6.355
 5469SOL    HW217307   4.193   6.045   6.376
 5470SOL     OW17308   3.280   6.132   2.536
 5470SOL    HW117309   3.209   6.191   2.576
 5470SOL    HW217310   3.236   6.062   2.479
 5471SOL     OW17311   4.939   6.990   2.603
 5471SOL    HW117312   4.981   0.013   2.682
 5471SOL    HW217313   4.991   7.012   2.521
 5472SOL     OW17314   4.478   3.410   6.132
 5472SOL    HW117315   4.472   3.310   6.131
 5472SOL    HW217316   4.462   3.443   6.225
 5473SOL     OW17317   0.093   3.203   2.395
 5473SOL    HW117318   0.074   3.177   2.300
 5473SOL    HW217319   0.183   3.247   2.400
 5474SOL     OW17320   1.640   4.998   4.668
 5474SOL    HW117321   1.724   5.044   4.639
 5474SOL    HW217322   1.649   4.969   4.764
 5475SOL     OW17323   2.492   3.157   1.636
 5475SOL    HW117324   2.485   3.249   1.675
 5475SOL    HW217325   2.588   3.137   1.614
 5476SOL     OW17326   1.915   4.255   5.534
 5476SOL    HW117327   1.951   4.345   5.510
 5476SOL    HW217328   1.929   4.192   5.458
 5477SOL     OW17329   2.486   4.955   3.274
 5477SOL    HW117330   2.543   4.885   3.316
 5477SOL    HW217331   2.508   5.044   3.314
 5478SOL     OW17332   3.747   5.347   4.866
 5478SOL    HW117333   3.698   5.260   4.856
 5478SOL    HW217334   3.724   5.387   4.955
 5479SOL     OW17335   4.969   1.487   6.325
 5479SOL    HW117336   4.869   1.483   6.336
 5479SOL    HW217337   5.010   1.408   6.371
 5480SOL     OW17338   6.439   4.431   3.248
 5480SOL    HW117339   6.457   4.521   3.207
 5480SOL    HW217340   6.507   4.365   3.214
 5481SOL     OW17341   4.424   1.655   4.466
 5481SOL    HW117342   4.482   1.686   4.391
 5481SOL    HW217343   4.421   1.725   4.537
 5482SOL     OW17344   3.347   5.012   1.629
 5482SOL    HW117345   3.371   4.928   1.677
 5482SOL    HW217346   3.412   5.084   1.653
 5483SOL     OW17347   0.317   2.004   5.555
 5483SOL    HW117348   0.417   2.005   5.551
 5483SOL    HW217349   0.281   2.005   5.462
 5484SOL     OW17350   4.433   1.465   4.672
 5484SOL    HW117351   4.447   1.511   4.760
 5484SOL    HW217352   4.430   1.534   4.599
 5485SOL     OW17353   4.735   0.228   5.747
 5485SOL    HW117354   4.661   0.163   5.729
 5485SOL    HW217355   4.823   0.180   5.740
 5486SOL     OW17356   2.489   5.807   5.435
 5486SOL    HW117357   2.501   5.711   5.410
 5486SOL    HW217358   2.391   5.826   5.449
 5487SOL     OW17359   3.993   3.011   6.693
 5487SOL    HW117360   3.932   3.082   6.656
 5487SOL    HW217361   4.081   3.053   6.718
 5488SOL     OW17362   5.536   0.014   1.024
 5488SOL    HW117363   5.504   0.080   1.092
 5488SOL    HW217364   5.607   0.056   0.968
 5489SOL     OW17365   0.143   3.765   1.312
 5489SOL    HW117366   0.215   3.833   1.306
 5489SOL    HW217367   0.057   3.803   1.278
 5490SOL     OW17368   2.747   0.364   2.605
 5490SOL    HW117369   2.792   0.287   2.649
 5490SOL    HW217370   2.702   0.421   2.675
 5491SOL     OW17371   0.727   2.851   0.162
 5491SOL    HW117372   0.746   2.827   0.258
 5491SOL    HW217373   0.713   2.767   0.109
 5492SOL     OW17374   0.426   3.242   6.766
 5492SOL    HW117375   0.479   3.310   6.818
 5492SOL    HW217376   0.441   3.256   6.668
 5493SOL     OW17377   4.156   3.391   3.671
 5493SOL    HW117378   4.149   3.351   3.763
 5493SOL    HW217379   4.095   3.470   3.664
 5494SOL     OW17380   6.692   3.410   5.434
 5494SOL    HW117381   6.785   3.446   5.436
 5494SOL    HW217382   6.695   3.311   5.447
 5495SOL     OW17383   5.828   0.677   1.387
 5495SOL    HW117384   5.913   0.635   1.356
 5495SOL    HW217385   5.750   0.627   1.348
 5496SOL     OW17386   4.361   0.879   3.947
 5496SOL    HW117387   4.261   0.880   3.936
 5496SOL    HW217388   4.386   0.813   4.017
 5497SOL     OW17389   0.574   1.202   5.105
 5497SOL    HW117390   0.598   1.232   5.198
 5497SOL    HW217391   0.585   1.103   5.097
 5498SOL     OW17392   0.125   4.942   2.315
 5498SOL    HW117393   0.185   4.987   2.249
 5498SOL    HW217394   0.067   4.876   2.266
 5499SOL     OW17395   0.819   0.538   4.015
 5499SOL    HW117396   0.804   0.458   3.956
 5499SOL    HW217397   0.762   0.614   3.982
 5500SOL     OW17398   0.708   1.047   6.387
 5500SOL    HW117399   0.677   0.952   6.400
 5500SOL    HW217400   0.768   1.052   6.308
 5501SOL     OW17401   3.504   1.924   0.751
 5501SOL    HW117402   3.596   1.959   0.770
 5501SOL    HW217403   3.438   1.972   0.808
 5502SOL     OW17404   5.529   3.368   6.236
 5502SOL    HW117405   5.441   3.339   6.271
 5502SOL    HW217406   5.586   3.401   6.311
 5503SOL     OW17407   7.008   4.171   0.761
 5503SOL    HW117408   6.978   4.102   0.827
 5503SOL    HW217409   6.928   4.211   0.717
 5504SOL     OW17410   4.927   1.177   5.283
 5504SOL    HW117411   4.896   1.182   5.188
 5504SOL    HW217412   5.003   1.241   5.296
 5505SOL     OW17413   2.045   5.026   3.185
 5505SOL    HW117414   2.138   5.004   3.155
 5505SOL    HW217415   2.029   4.985   3.275
 5506SOL     OW17416   0.258   3.116   0.619
 5506SOL    HW117417   0.188   3.148   0.555
 5506SOL    HW217418   0.215   3.061   0.691
 5507SOL     OW17419   3.379   0.514   5.253
 5507SOL    HW117420   3.353   0.596   5.202
 5507SOL    HW217421   3.447   0.462   5.201
 5508SOL     OW17422   1.197   0.516   0.394
 5508SOL    HW117423   1.214   0.442   0.458
 5508SOL    HW217424   1.275   0.527   0.332
 5509SOL     OW17425   0.982   6.023   0.594
 5509SOL    HW117426   0.900   6.038   0.539
 5509SOL    HW217427   0.985   5.928   0.625
 5510SOL     OW17428   4.321   5.313   6.852
 5510SOL    HW117429   4.270   5.274   6.929
 5510SOL    HW217430   4.268   5.301   6.768
 5511SOL     OW17431   1.695   0.976   5.270
 5511SOL    HW117432   1.637   1.007   5.345
 5511SOL    HW217433   1.673   1.028   5.187
 5512SOL     OW17434   3.430   1.467   0.578
 5512SOL    HW117435   3.493   1.475   0.501
 5512SOL    HW217436   3.441   1.547   0.638
 5513SOL     OW17437   3.543   5.226   5.711
 5513SOL    HW117438   3.506   5.268   5.793
 5513SOL    HW217439   3.559   5.297   5.642
 5514SOL     OW17440   3.450   0.440   4.861
 5514SOL    HW117441   3.505   0.386   4.798
 5514SOL    HW217442   3.485   0.430   4.954
 5515SOL     OW17443   1.648   5.590   1.759
 5515SOL    HW117444   1.705   5.663   1.797
 5515SOL    HW217445   1.688   5.501   1.782
 5516SOL     OW17446   2.160   2.962   4.494
 5516SOL    HW117447   2.149   2.903   4.574
 5516SOL    HW217448   2.251   2.949   4.455
 5517SOL     OW17449   2.091   3.715   1.898
 5517SOL    HW117450   2.152   3.794   1.889
 5517SOL    HW217451   2.138   3.642   1.946
 5518SOL     OW17452   6.191   4.843   5.732
 5518SOL    HW117453   6.190   4.808   5.638
 5518SOL    HW217454   6.135   4.926   5.737
 5519SOL     OW17455   5.799   3.507   3.234
 5519SOL    HW117456   5.770   3.576   3.167
 5519SOL    HW217457   5.787   3.415   3.194
 5520SOL     OW17458   5.353   6.795   2.666
 5520SOL    HW117459   5.408   6.713   2.683
 5520SOL    HW217460   5.258   6.776   2.688
 5521SOL     OW17461   5.875   6.031   1.672
 5521SOL    HW117462   5.884   5.950   1.614
 5521SOL    HW217463   5.799   6.087   1.639
 5522SOL     OW17464   6.644   5.306   1.056
 5522SOL    HW117465   6.704   5.243   1.006
 5522SOL    HW217466   6.696   5.350   1.129
 5523SOL     OW17467   4.569   1.143   2.149
 5523SOL    HW117468   4.484   1.145   2.097
 5523SOL    HW217469   4.549   1.156   2.246
 5524SOL     OW17470   3.339   0.101   4.798
 5524SOL    HW117471   3.404   0.165   4.757
 5524SOL    HW217472   3.257   0.094   4.741
 5525SOL     OW17473   1.059   2.230   0.545
 5525SOL    HW117474   1.059   2.232   0.445
 5525SOL    HW217475   1.150   2.204   0.578
 5526SOL     OW17476   5.080   4.799   2.953
 5526SOL    HW117477   5.073   4.809   2.853
 5526SOL    HW217478   5.095   4.889   2.994
 5527SOL     OW17479   4.869   3.690   3.261
 5527SOL    HW117480   4.851   3.628   3.337
 5527SOL    HW217481   4.968   3.706   3.254
 5528SOL     OW17482   2.011   0.514   1.153
 5528SOL    HW117483   1.932   0.573   1.165
 5528SOL    HW217484   1.983   0.430   1.108
 5529SOL     OW17485   3.033   0.143   3.935
 5529SOL    HW117486   2.979   0.059   3.941
 5529SOL    HW217487   3.095   0.148   4.013
 5530SOL     OW17488   5.971   2.225   1.292
 5530SOL    HW117489   6.007   2.181   1.374
 5530SOL    HW217490   6.042   2.231   1.222
 5531SOL     OW17491   3.881   3.533   1.473
 5531SOL    HW117492   3.816   3.460   1.452
 5531SOL    HW217493   3.970   3.492   1.496
 5532SOL     OW17494   1.466   3.091   0.667
 5532SOL    HW117495   1.532   3.028   0.709
 5532SOL    HW217496   1.414   3.137   0.739
 5533SOL     OW17497   5.041   1.383   3.883
 5533SOL    HW117498   5.078   1.459   3.936
 5533SOL    HW217499   4.941   1.391   3.880
 5534SOL     OW17500   1.033   1.122   6.374
 5534SOL    HW117501   0.991   1.178   6.445
 5534SOL    HW217502   1.132   1.124   6.384
 5535SOL     OW17503   0.960   1.296   2.552
 5535SOL    HW117504   0.997   1.286   2.460
 5535SOL    HW217505   0.916   1.211   2.580
 5536SOL     OW17506   4.273   0.623   4.532
 5536SOL    HW117507   4.178   0.615   4.502
 5536SOL    HW217508   4.328   0.553   4.487
 5537SOL     OW17509   3.817   1.314   2.544
 5537SOL    HW117510   3.888   1.381   2.527
 5537SOL    HW217511   3.728   1.359   2.548
 5538SOL     OW17512   3.741   6.296   4.903
 5538SOL    HW117513   3.673   6.355   4.859
 5538SOL    HW217514   3.716   6.201   4.889
 5539SOL     OW17515   1.661   3.604   1.782
 5539SOL    HW117516   1.700   3.529   1.729
 5539SOL    HW217517   1.594   3.653   1.726
 5540SOL     OW17518   4.906   4.386   3.945
 5540SOL    HW117519   4.812   4.419   3.943
 5540SOL    HW217520   4.957   4.431   4.018
 5541SOL     OW17521   5.200   0.442   6.530
 5541SOL    HW117522   5.193   0.457   6.431
 5541SOL    HW217523   5.280   0.491   6.565
 5542SOL     OW17524   4.236   3.394   6.330
 5542SOL    HW117525   4.204   3.384   6.236
 5542SOL    HW217526   4.162   3.371   6.393
 5543SOL     OW17527   5.548   3.708   6.631
 5543SOL    HW117528   5.458   3.731   6.594
 5543SOL    HW217529   5.609   3.682   6.556
 5544SOL     OW17530   5.170   7.003   6.156
 5544SOL    HW117531   5.182   7.007   6.255
 5544SOL    HW217532   5.247   6.954   6.115
 5545SOL     OW17533   4.167   2.017   2.922
 5545SOL    HW117534   4.150   2.020   3.020
 5545SOL    HW217535   4.162   1.923   2.889
 5546SOL     OW17536   1.271   5.656   5.533
 5546SOL    HW117537   1.335   5.583   5.511
 5546SOL    HW217538   1.181   5.634   5.495
 5547SOL     OW17539   2.769   6.372   4.870
 5547SOL    HW117540   2.709   6.383   4.950
 5547SOL    HW217541   2.724   6.314   4.802
 5548SOL     OW17542   6.263   3.505   6.008
 5548SOL    HW117543   6.318   3.588   6.011
 5548SOL    HW217544   6.187   3.514   6.072
 5549SOL     OW17545   3.702   4.749   0.091
 5549SOL    HW117546   3.745   4.784   0.174
 5549SOL    HW217547   3.722   4.651   0.082
 5550SOL     OW17548   2.327   5.742   1.929
 5550SOL    HW117549   2.363   5.814   1.869
 5550SOL    HW217550   2.399   5.714   1.993
 5551SOL     OW17551   1.570   0.661   3.117
 5551SOL    HW117552   1.529   0.632   3.203
 5551SOL    HW217553   1.504   0.647   3.042
 5552SOL     OW17554   6.695   1.419   0.143
 5552SOL    HW117555   6.612   1.470   0.166
 5552SOL    HW217556   6.747   1.469   0.074
 5553SOL     OW17557   4.274   6.875   0.135
 5553SOL    HW117558   4.356   6.821   0.120
 5553SOL    HW217559   4.260   6.938   0.059
 5554SOL     OW17560   2.926   2.379   5.717
 5554SOL    HW117561   2.989   2.326   5.660
 5554SOL    HW217562   2.832   2.355   5.694
 5555SOL     OW17563   0.297   5.606   3.413
 5555SOL    HW117564   0.324   5.587   3.319
 5555SOL    HW217565   0.259   5.524   3.455
 5556SOL     OW17566   0.931   2.207   4.819
 5556SOL    HW117567   0.930   2.116   4.778
 5556SOL    HW217568   0.899   2.274   4.751
 5557SOL     OW17569   2.777   5.842   3.884
 5557SOL    HW117570   2.755   5.752   3.848
 5557SOL    HW217571   2.698   5.903   3.872
 5558SOL     OW17572   5.259   2.582   4.933
 5558SOL    HW117573   5.191   2.511   4.913
 5558SOL    HW217574   5.245   2.615   5.027
 5559SOL     OW17575   2.397   0.283   1.163
 5559SOL    HW117576   2.497   0.276   1.164
 5559SOL    HW217577   2.361   0.231   1.086
 5560SOL     OW17578   0.175   0.650   2.828
 5560SOL    HW117579   0.207   0.556   2.842
 5560SOL    HW217580   0.085   0.648   2.784
 5561SOL     OW17581   1.304   3.285   3.833
 5561SOL    HW117582   1.295   3.234   3.747
 5561SOL    HW217583   1.236   3.252   3.899
 5562SOL     OW17584   1.925   2.770   6.273
 5562SOL    HW117585   1.832   2.735   6.289
 5562SOL    HW217586   1.961   2.731   6.189
 5563SOL     OW17587   4.488   6.397   2.317
 5563SOL    HW117588   4.541   6.359   2.392
 5563SOL    HW217589   4.440   6.479   2.349
 5564SOL     OW17590   5.064   3.835   1.792
 5564SOL    HW117591   5.071   3.758   1.856
 5564SOL    HW217592   5.031   3.801   1.704
 5565SOL     OW17593   4.248   2.475   5.567
 5565SOL    HW117594   4.247   2.549   5.634
 5565SOL    HW217595   4.248   2.513   5.474
 5566SOL     OW17596   1.550   5.683   0.690
 5566SOL    HW117597   1.548   5.583   0.687
 5566SOL    HW217598   1.508   5.715   0.775
 5567SOL     OW17599   1.756   5.643   1.190
 5567SOL    HW117600   1.800   5.554   1.185
 5567SOL    HW217601   1.657   5.633   1.177
 5568SOL     OW17602   4.428   1.747   0.666
 5568SOL    HW117603   4.343   1.787   0.702
 5568SOL    HW217604   4.505   1.781   0.720
 5569SOL     OW17605   4.115   1.542   1.660
 5569SOL    HW117606   4.171   1.506   1.585
 5569SOL    HW217607   4.092   1.468   1.723
 5570SOL     OW17608   5.965   4.751   5.244
 5570SOL    HW117609   6.011   4.739   5.157
 5570SOL    HW217610   6.032   4.772   5.315
 5571SOL     OW17611   0.552   5.891   0.566
 5571SOL    HW117612   0.555   5.792   0.585
 5571SOL    HW217613   0.457   5.921   0.561
 5572SOL     OW17614   4.423   2.209   6.493
 5572SOL    HW117615   4.366   2.288   6.518
 5572SOL    HW217616   4.518   2.228   6.514
 5573SOL     OW17617   1.166   3.979   0.512
 5573SOL    HW117618   1.150   3.889   0.552
 5573SOL    HW217619   1.264   3.993   0.499
 5574SOL     OW17620   0.617   6.770   4.890
 5574SOL    HW117621   0.708   6.731   4.899
 5574SOL    HW217622   0.624   6.866   4.863
 5575SOL     OW17623   1.789   0.881   0.740
 5575SOL    HW117624   1.695   0.900   0.712
 5575SOL    HW217625   1.792   0.794   0.790
 5576SOL     OW17626   6.038   5.583   0.635
 5576SOL    HW117627   6.007   5.671   0.599
 5576SOL    HW217628   5.971   5.512   0.615
 5577SOL     OW17629   2.154   3.297   5.576
 5577SOL    HW117630   2.088   3.243   5.524
 5577SOL    HW217631   2.205   3.356   5.514
 5578SOL     OW17632   3.797   2.011   0.128
 5578SOL    HW117633   3.831   1.964   0.209
 5578SOL    HW217634   3.865   2.005   0.055
 5579SOL     OW17635   4.899   3.468   6.976
 5579SOL    HW117636   4.858   3.378   6.963
 5579SOL    HW217637   4.855   3.534   6.914
 5580SOL     OW17638   5.120   1.340   0.382
 5580SOL    HW117639   5.158   1.432   0.390
 5580SOL    HW217640   5.131   1.292   0.468
 5581SOL     OW17641   1.986   0.406   6.666
 5581SOL    HW117642   2.080   0.432   6.686
 5581SOL    HW217643   1.932   0.407   6.751
 5582SOL     OW17644   3.570   3.489   4.035
 5582SOL    HW117645   3.475   3.518   4.049
 5582SOL    HW217646   3.613   3.548   3.966
 5583SOL     OW17647   3.198   0.007   2.141
 5583SOL    HW117648   3.270   0.046   2.083
 5583SOL    HW217649   3.184   6.932   2.116
 5584SOL     OW17650   6.201   4.105   3.195
 5584SOL    HW117651   6.298   4.115   3.213
 5584SOL    HW217652   6.153   4.079   3.279
 5585SOL     OW17653   6.641   0.575   3.600
 5585SOL    HW117654   6.677   0.511   3.668
 5585SOL    HW217655   6.678   0.666   3.617
 5586SOL     OW17656   2.377   1.595   6.002
 5586SOL    HW117657   2.316   1.669   5.971
 5586SOL    HW217658   2.465   1.603   5.955
 5587SOL     OW17659   4.142   0.482   3.326
 5587SOL    HW117660   4.079   0.559   3.336
 5587SOL    HW217661   4.188   0.486   3.238
 5588SOL     OW17662   2.237   0.035   5.239
 5588SOL    HW117663   2.167   0.009   5.173
 5588SOL    HW217664   2.321   7.006   5.220
 5589SOL     OW17665   4.935   2.329   6.417
 5589SOL    HW117666   4.952   2.387   6.497
 5589SOL    HW217667   4.931   2.386   6.335
 5590SOL     OW17668   6.584   6.165   4.568
 5590SOL    HW117669   6.492   6.127   4.581
 5590SOL    HW217670   6.584   6.225   4.487
 5591SOL     OW17671   5.779   0.748   0.059
 5591SOL    HW117672   5.681   0.736   0.068
 5591SOL    HW217673   5.817   0.674   0.004
 5592SOL     OW17674   1.150   3.986   2.525
 5592SOL    HW117675   1.100   4.053   2.471
 5592SOL    HW217676   1.122   3.994   2.621
 5593SOL     OW17677   1.166   2.845   5.883
 5593SOL    HW117678   1.171   2.746   5.864
 5593SOL    HW217679   1.190   2.895   5.800
 5594SOL     OW17680   2.255   0.078   0.186
 5594SOL    HW117681   2.269   0.126   0.272
 5594SOL    HW217682   2.344   0.059   0.144
 5595SOL     OW17683   6.406   1.227   5.532
 5595SOL    HW117684   6.384   1.143   5.581
 5595SOL    HW217685   6.367   1.306   5.580
 5596SOL     OW17686   5.061   0.563   2.193
 5596SOL    HW117687   4.963   0.545   2.184
 5596SOL    HW217688   5.108   0.478   2.216
 5597SOL     OW17689   5.872   1.255   6.176
 5597SOL    HW117690   5.834   1.321   6.110
 5597SOL    HW217691   5.965   1.281   6.199
 5598SOL     OW17692   5.595   1.880   3.866
 5598SOL    HW117693   5.695   1.880   3.871
 5598SOL    HW217694   5.566   1.831   3.783
 5599SOL     OW17695   5.050   4.099   1.770
 5599SOL    HW117696   5.068   4.002   1.788
 5599SOL    HW217697   4.951   4.115   1.765
 5600SOL     OW17698   1.958   0.481   2.820
 5600SOL    HW117699   2.051   0.517   2.812
 5600SOL    HW217700   1.897   0.555   2.848
 5601SOL     OW17701   5.256   2.843   5.913
 5601SOL    HW117702   5.254   2.922   5.975
 5601SOL    HW217703   5.317   2.863   5.837
 5602SOL     OW17704   0.857   2.435   3.681
 5602SOL    HW117705   0.806   2.351   3.662
 5602SOL    HW217706   0.944   2.433   3.632
 5603SOL     OW17707   4.446   2.501   4.838
 5603SOL    HW117708   4.410   2.430   4.777
 5603SOL    HW217709   4.397   2.499   4.925
 5604SOL     OW17710   1.025   0.193   4.068
 5604SOL    HW117711   1.039   0.250   4.149
 5604SOL    HW217712   1.028   0.250   3.986
 5605SOL     OW17713   1.893   6.844   4.341
 5605SOL    HW117714   1.856   6.852   4.248
 5605SOL    HW217715   1.959   6.769   4.344
 5606SOL     OW17716   4.733   2.082   0.504
 5606SOL    HW117717   4.832   2.067   0.497
 5606SOL    HW217718   4.700   2.122   0.418
 5607SOL     OW17719   6.212   2.439   2.581
 5607SOL    HW117720   6.135   2.402   2.634
 5607SOL    HW217721   6.178   2.472   2.493
 5608SOL     OW17722   5.406   1.127   3.847
 5608SOL    HW117723   5.438   1.157   3.757
 5608SOL    HW217724   5.484   1.122   3.910
 5609SOL     OW17725   5.774   6.613   1.204
 5609SOL    HW117726   5.740   6.705   1.182
 5609SOL    HW217727   5.874   6.616   1.209
 5610SOL     OW17728   5.469   4.545   0.055
 5610SOL    HW117729   5.457   4.644   0.059
 5610SOL    HW217730   5.392   4.500   0.099
 5611SOL     OW17731   0.495   5.071   1.481
 5611SOL    HW117732   0.522   5.165   1.458
 5611SOL    HW217733   0.495   5.015   1.399
 5612SOL     OW17734   3.019   1.133   0.751
 5612SOL    HW117735   3.084   1.193   0.798
 5612SOL    HW217736   2.972   1.075   0.818
 5613SOL     OW17737   6.984   5.044   4.815
 5613SOL    HW117738   6.927   4.961   4.809
 5613SOL    HW217739   6.925   5.124   4.821
 5614SOL     OW17740   5.830   1.979   4.803
 5614SOL    HW117741   5.740   2.013   4.774
 5614SOL    HW217742   5.833   1.974   4.903
 5615SOL     OW17743   6.755   2.439   2.223
 5615SOL    HW117744   6.658   2.413   2.220
 5615SOL    HW217745   6.796   2.403   2.306
 5616SOL     OW17746   1.870   3.423   3.500
 5616SOL    HW117747   1.944   3.358   3.521
 5616SOL    HW217748   1.856   3.484   3.577
 5617SOL     OW17749   2.277   5.524   5.928
 5617SOL    HW117750   2.221   5.470   5.865
 5617SOL    HW217751   2.358   5.472   5.953
 5618SOL     OW17752   6.750   5.457   4.253
 5618SOL    HW117753   6.775   5.509   4.335
 5618SOL    HW217754   6.828   5.403   4.223
 5619SOL     OW17755   3.493   3.135   4.670
 5619SOL    HW117756   3.509   3.207   4.738
 5619SOL    HW217757   3.395   3.116   4.665
 5620SOL     OW17758   4.074   4.431   5.572
 5620SOL    HW117759   4.053   4.386   5.486
 5620SOL    HW217760   3.990   4.449   5.622
 5621SOL     OW17761   1.684   2.640   4.879
 5621SOL    HW117762   1.587   2.663   4.886
 5621SOL    HW217763   1.712   2.645   4.783
 5622SOL     OW17764   4.486   5.436   4.877
 5622SOL    HW117765   4.551   5.398   4.810
 5622SOL    HW217766   4.403   5.465   4.829
 5623SOL     OW17767   4.456   6.365   4.076
 5623SOL    HW117768   4.458   6.450   4.128
 5623SOL    HW217769   4.368   6.357   4.028
 5624SOL     OW17770   6.951   5.802   4.149
 5624SOL    HW117771   6.916   5.818   4.056
 5624SOL    HW217772   6.874   5.796   4.213
 5625SOL     OW17773   1.387   5.695   4.808
 5625SOL    HW117774   1.395   5.711   4.709
 5625SOL    HW217775   1.389   5.596   4.826
 5626SOL     OW17776   2.151   3.963   4.175
 5626SOL    HW117777   2.163   3.893   4.104
 5626SOL    HW217778   2.125   3.920   4.261
 5627SOL     OW17779   1.418   6.011   0.470
 5627SOL    HW117780   1.401   5.969   0.559
 5627SOL    HW217781   1.434   5.940   0.402
 5628SOL     OW17782   3.066   2.718   0.404
 5628SOL    HW117783   3.056   2.644   0.337
 5628SOL    HW217784   3.105   2.682   0.489
 5629SOL     OW17785   4.854   3.866   1.142
 5629SOL    HW117786   4.827   3.943   1.200
 5629SOL    HW217787   4.772   3.818   1.110
 5630SOL     OW17788   1.552   3.995   6.688
 5630SOL    HW117789   1.558   3.974   6.786
 5630SOL    HW217790   1.608   3.929   6.637
 5631SOL     OW17791   4.264   0.661   2.094
 5631SOL    HW117792   4.206   0.715   2.034
 5631SOL    HW217793   4.231   0.566   2.095
 5632SOL     OW17794   5.948   0.281   6.069
 5632SOL    HW117795   5.960   0.182   6.056
 5632SOL    HW217796   5.952   0.327   5.980
 5633SOL     OW17797   0.565   4.601   5.593
 5633SOL    HW117798   0.602   4.511   5.619
 5633SOL    HW217799   0.489   4.588   5.530
 5634SOL     OW17800   2.801   6.030   6.269
 5634SOL    HW117801   2.859   6.095   6.317
 5634SOL    HW217802   2.740   6.079   6.206
 5635SOL     OW17803   2.767   6.816   6.563
 5635SOL    HW117804   2.703   6.885   6.530
 5635SOL    HW217805   2.811   6.770   6.485
 5636SOL     OW17806   6.500   1.006   5.328
 5636SOL    HW117807   6.420   1.015   5.388
 5636SOL    HW217808   6.471   1.014   5.232
 5637SOL     OW17809   4.918   6.054   4.466
 5637SOL    HW117810   4.972   6.060   4.382
 5637SOL    HW217811   4.963   5.991   4.530
 5638SOL     OW17812   5.328   6.061   1.253
 5638SOL    HW117813   5.425   6.079   1.237
 5638SOL    HW217814   5.283   6.144   1.286
 5639SOL     OW17815   1.312   0.313   1.632
 5639SOL    HW117816   1.359   0.226   1.646
 5639SOL    HW217817   1.288   0.322   1.536
 5640SOL     OW17818   2.514   6.122   2.899
 5640SOL    HW117819   2.440   6.064   2.934
 5640SOL    HW217820   2.486   6.218   2.903
 5641SOL     OW17821   1.401   5.121   4.674
 5641SOL    HW117822   1.331   5.055   4.702
 5641SOL    HW217823   1.491   5.077   4.677
 5642SOL     OW17824   1.265   4.760   6.387
 5642SOL    HW117825   1.282   4.700   6.309
 5642SOL    HW217826   1.168   4.782   6.393
 5643SOL     OW17827   3.728   2.122   4.260
 5643SOL    HW117828   3.757   2.151   4.168
 5643SOL    HW217829   3.809   2.103   4.315
 5644SOL     OW17830   5.415   1.458   5.199
 5644SOL    HW117831   5.344   1.526   5.213
 5644SOL    HW217832   5.448   1.463   5.105
 5645SOL     OW17833   5.085   5.310   2.184
 5645SOL    HW117834   5.138   5.226   2.179
 5645SOL    HW217835   5.036   5.314   2.271
 5646SOL     OW17836   0.216   6.048   3.697
 5646SOL    HW117837   0.128   6.071   3.738
 5646SOL    HW217838   0.285   6.114   3.726
 5647SOL     OW17839   6.469   5.810   0.194
 5647SOL    HW117840   6.567   5.800   0.206
 5647SOL    HW217841   6.430   5.860   0.271
 5648SOL     OW17842   2.009   1.801   3.152
 5648SOL    HW117843   2.009   1.702   3.133
 5648SOL    HW217844   2.046   1.849   3.072
 5649SOL     OW17845   2.089   0.397   4.582
 5649SOL    HW117846   2.083   0.461   4.658
 5649SOL    HW217847   2.089   0.448   4.496
 5650SOL     OW17848   6.994   4.794   1.037
 5650SOL    HW117849   6.896   4.789   1.018
 5650SOL    HW217850   7.014   4.744   1.121
 5651SOL     OW17851   6.959   1.352   1.656
 5651SOL    HW117852   0.035   1.351   1.632
 5651SOL    HW217853   6.916   1.432   1.616
 5652SOL     OW17854   5.399   5.763   1.667
 5652SOL    HW117855   5.405   5.862   1.680
 5652SOL    HW217856   5.490   5.726   1.647
 5653SOL     OW17857   6.357   6.138   5.728
 5653SOL    HW117858   6.426   6.150   5.656
 5653SOL    HW217859   6.398   6.162   5.817
 5654SOL     OW17860   0.250   0.360   6.128
 5654SOL    HW117861   0.308   0.307   6.190
 5654SOL    HW217862   0.208   0.298   6.062
 5655SOL     OW17863   1.324   3.549   3.838
 5655SOL    HW117864   1.236   3.596   3.834
 5655SOL    HW217865   1.309   3.451   3.852
 5656SOL     OW17866   2.784   3.858   0.673
 5656SOL    HW117867   2.785   3.905   0.762
 5656SOL    HW217868   2.866   3.884   0.622
 5657SOL     OW17869   4.661   6.879   1.242
 5657SOL    HW117870   4.570   6.857   1.276
 5657SOL    HW217871   4.720   6.905   1.318
 5658SOL     OW17872   3.087   6.736   5.607
 5658SOL    HW117873   2.988   6.728   5.620
 5658SOL    HW217874   3.134   6.686   5.680
 5659SOL     OW17875   2.984   3.291   3.006
 5659SOL    HW117876   3.067   3.313   2.956
 5659SOL    HW217877   3.005   3.224   3.077
 5660SOL     OW17878   5.444   0.314   0.228
 5660SOL    HW117879   5.345   0.309   0.235
 5660SOL    HW217880   5.479   0.227   0.193
 5661SOL     OW17881   0.170   6.328   5.232
 5661SOL    HW117882   0.131   6.264   5.166
 5661SOL    HW217883   0.127   6.417   5.220
 5662SOL     OW17884   2.444   4.524   3.679
 5662SOL    HW117885   2.372   4.589   3.656
 5662SOL    HW217886   2.508   4.518   3.603
 5663SOL     OW17887   1.022   4.177   0.334
 5663SOL    HW117888   1.078   4.109   0.381
 5663SOL    HW217889   0.926   4.163   0.358
 5664SOL     OW17890   0.106   4.800   3.162
 5664SOL    HW117891   0.109   4.752   3.074
 5664SOL    HW217892   0.188   4.779   3.214
 5665SOL     OW17893   1.759   2.415   6.501
 5665SOL    HW117894   1.818   2.352   6.450
 5665SOL    HW217895   1.702   2.467   6.437
 5666SOL     OW17896   4.818   5.651   1.060
 5666SOL    HW117897   4.795   5.660   1.157
 5666SOL    HW217898   4.912   5.681   1.045
 5667SOL     OW17899   0.331   5.113   3.316
 5667SOL    HW117900   0.302   5.038   3.257
 5667SOL    HW217901   0.274   5.115   3.398
 5668SOL     OW17902   4.701   1.459   6.391
 5668SOL    HW117903   4.647   1.536   6.424
 5668SOL    HW217904   4.658   1.373   6.420
 5669SOL     OW17905   0.238   5.139   5.552
 5669SOL    HW117906   0.175   5.118   5.627
 5669SOL    HW217907   0.226   5.234   5.524
 5670SOL     OW17908   0.342   3.241   3.298
 5670SOL    HW117909   0.372   3.300   3.373
 5670SOL    HW217910   0.266   3.284   3.250
 5671SOL     OW17911   2.468   6.721   6.236
 5671SOL    HW117912   2.480   6.755   6.143
 5671SOL    HW217913   2.377   6.681   6.246
 5672SOL     OW17914   5.157   3.582   6.331
 5672SOL    HW117915   5.059   3.601   6.339
 5672SOL    HW217916   5.172   3.509   6.265
 5673SOL     OW17917   0.480   0.600   2.581
 5673SOL    HW117918   0.447   0.678   2.635
 5673SOL    HW217919   0.406   0.566   2.523
 5674SOL     OW17920   7.005   3.925   1.709
 5674SOL    HW117921   6.966   3.873   1.633
 5674SOL    HW217922   0.041   3.865   1.764
 5675SOL     OW17923   4.411   2.678   5.421
 5675SOL    HW117924   4.475   2.668   5.497
 5675SOL    HW217925   4.351   2.756   5.438
 5676SOL     OW17926   1.780   0.667   1.156
 5676SOL    HW117927   1.699   0.721   1.178
 5676SOL    HW217928   1.793   0.664   1.057
 5677SOL     OW17929   6.467   2.036   3.503
 5677SOL    HW117930   6.484   2.080   3.591
 5677SOL    HW217931   6.433   2.104   3.438
 5678SOL     OW17932   3.642   6.313   2.679
 5678SOL    HW117933   3.635   6.359   2.590
 5678SOL    HW217934   3.662   6.216   2.665
 5679SOL     OW17935   1.254   6.765   4.758
 5679SOL    HW117936   1.276   6.686   4.816
 5679SOL    HW217937   1.233   6.733   4.665
 5680SOL     OW17938   1.794   5.182   6.686
 5680SOL    HW117939   1.888   5.171   6.656
 5680SOL    HW217940   1.763   5.276   6.666
 5681SOL     OW17941   0.704   3.023   6.286
 5681SOL    HW117942   0.615   3.028   6.333
 5681SOL    HW217943   0.757   3.105   6.308
 5682SOL     OW17944   1.483   2.980   5.535
 5682SOL    HW117945   1.523   2.923   5.462
 5682SOL    HW217946   1.486   3.076   5.508
 5683SOL     OW17947   3.700   2.524   6.577
 5683SOL    HW117948   3.708   2.567   6.487
 5683SOL    HW217949   3.745   2.434   6.576
 5684SOL     OW17950   3.780   3.415   4.427
 5684SOL    HW117951   3.765   3.316   4.433
 5684SOL    HW217952   3.698   3.463   4.458
 5685SOL     OW17953   0.609   4.723   2.001
 5685SOL    HW117954   0.547   4.799   2.024
 5685SOL    HW217955   0.563   4.636   2.020
 5686SOL     OW17956   3.554   0.087   0.528
 5686SOL    HW117957   3.572   0.129   0.617
 5686SOL    HW217958   3.503   0.002   0.541
 5687SOL     OW17959   6.347   4.183   4.589
 5687SOL    HW117960   6.446   4.173   4.594
 5687SOL    HW217961   6.323   4.277   4.564
 5688SOL     OW17962   5.995   1.875   0.878
 5688SOL    HW117963   5.910   1.927   0.887
 5688SOL    HW217964   6.060   1.904   0.948
 5689SOL     OW17965   4.473   1.391   0.240
 5689SOL    HW117966   4.539   1.315   0.246
 5689SOL    HW217967   4.497   1.461   0.308
 5690SOL     OW17968   3.679   6.106   0.595
 5690SOL    HW117969   3.729   6.121   0.510
 5690SOL    HW217970   3.662   6.194   0.640
 5691SOL     OW17971   3.054   6.220   2.215
 5691SOL    HW117972   2.981   6.287   2.209
 5691SOL    HW217973   3.139   6.265   2.243
 5692SOL     OW17974   6.616   1.902   6.261
 5692SOL    HW117975   6.587   1.972   6.326
 5692SOL    HW217976   6.597   1.934   6.168
 5693SOL     OW17977   5.031   2.917   2.127
 5693SOL    HW117978   4.964   2.985   2.157
 5693SOL    HW217979   4.995   2.867   2.048
 5694SOL     OW17980   0.485   1.242   3.442
 5694SOL    HW117981   0.470   1.288   3.354
 5694SOL    HW217982   0.415   1.272   3.507
 5695SOL     OW17983   1.152   2.541   3.677
 5695SOL    HW117984   1.192   2.496   3.757
 5695SOL    HW217985   1.184   2.495   3.594
 5696SOL     OW17986   3.113   1.176   4.863
 5696SOL    HW117987   3.131   1.245   4.792
 5696SOL    HW217988   3.125   1.085   4.824
 5697SOL     OW17989   0.001   2.230   0.844
 5697SOL    HW117990   6.938   2.255   0.890
 5697SOL    HW217991   0.079   2.271   0.891
 5698SOL     OW17992   0.160   2.274   2.104
 5698SOL    HW117993   0.093   2.344   2.080
 5698SOL    HW217994   0.243   2.318   2.138
 5699SOL     OW17995   6.306   1.495   3.762
 5699SOL    HW117996   6.280   1.425   3.829
 5699SOL    HW217997   6.342   1.575   3.811
 5700SOL     OW17998   0.837   6.438   4.606
 5700SOL    HW117999   0.866   6.350   4.642
 5700SOL    HW218000   0.776   6.424   4.528
 5701SOL     OW18001   0.384   5.558   3.151
 5701SOL    HW118002   0.476   5.574   3.187
 5701SOL    HW218003   0.355   5.636   3.096
 5702SOL     OW18004   1.704   0.219   6.162
 5702SOL    HW118005   1.752   0.160   6.096
 5702SOL    HW218006   1.770   0.253   6.230
 5703SOL     OW18007   4.847   4.976   6.887
 5703SOL    HW118008   4.768   5.028   6.853
 5703SOL    HW218009   4.894   5.030   6.958
 5704SOL     OW18010   4.426   5.816   3.135
 5704SOL    HW118011   4.459   5.724   3.115
 5704SOL    HW218012   4.379   5.853   3.055
 5705SOL     OW18013   6.145   1.029   0.941
 5705SOL    HW118014   6.231   0.982   0.960
 5705SOL    HW218015   6.155   1.127   0.961
 5706SOL     OW18016   1.872   1.653   0.273
 5706SOL    HW118017   1.884   1.600   0.358
 5706SOL    HW218018   1.777   1.644   0.242
 5707SOL     OW18019   1.291   0.008   6.735
 5707SOL    HW118020   1.267   6.937   6.708
 5707SOL    HW218021   1.220   0.071   6.704
 5708SOL     OW18022   5.442   0.016   2.267
 5708SOL    HW118023   5.535   7.001   2.265
 5708SOL    HW218024   5.385   6.979   2.324
 5709SOL     OW18025   0.484   6.364   3.077
 5709SOL    HW118026   0.391   6.394   3.098
 5709SOL    HW218027   0.543   6.382   3.156
 5710SOL     OW18028   2.675   3.740   5.568
 5710SOL    HW118029   2.771   3.765   5.579
 5710SOL    HW218030   2.630   3.808   5.510
 5711SOL     OW18031   4.872   0.791   4.058
 5711SOL    HW118032   4.947   0.740   4.099
 5711SOL    HW218033   4.905   0.882   4.031
 5712SOL     OW18034   0.547   0.164   5.461
 5712SOL    HW118035   0.560   0.246   5.405
 5712SOL    HW218036   0.478   0.182   5.531
 5713SOL     OW18037   0.396   2.330   1.276
 5713SOL    HW118038   0.383   2.279   1.361
 5713SOL    HW218039   0.488   2.368   1.273
 5714SOL     OW18040   1.345   6.719   7.020
 5714SOL    HW118041   1.373   6.815   0.000
 5714SOL    HW218042   1.352   6.684   6.926
 5715SOL     OW18043   1.142   6.077   3.334
 5715SOL    HW118044   1.116   5.993   3.285
 5715SOL    HW218045   1.114   6.069   3.430
 5716SOL     OW18046   1.456   4.037   5.894
 5716SOL    HW118047   1.494   4.098   5.824
 5716SOL    HW218048   1.525   4.019   5.963
 5717SOL     OW18049   1.623   4.765   0.711
 5717SOL    HW118050   1.657   4.807   0.795
 5717SOL    HW218051   1.537   4.808   0.685
 5718SOL     OW18052   1.535   4.539   6.719
 5718SOL    HW118053   1.516   4.627   6.764
 5718SOL    HW218054   1.468   4.471   6.748
 5719SOL     OW18055   2.779   0.908   5.884
 5719SOL    HW118056   2.727   0.908   5.798
 5719SOL    HW218057   2.731   0.853   5.952
 5720SOL     OW18058   0.543   5.095   4.941
 5720SOL    HW118059   0.519   5.002   4.967
 5720SOL    HW218060   0.514   5.112   4.846
 5721SOL     OW18061   1.053   3.467   0.061
 5721SOL    HW118062   1.121   3.518   0.007
 5721SOL    HW218063   1.004   3.403   0.002
 5722SOL     OW18064   5.444   0.819   5.348
 5722SOL    HW118065   5.522   0.882   5.349
 5722SOL    HW218066   5.470   0.735   5.300
 5723SOL     OW18067   4.209   4.819   1.005
 5723SOL    HW118068   4.223   4.876   0.924
 5723SOL    HW218069   4.287   4.828   1.066
 5724SOL     OW18070   4.028   2.249   5.847
 5724SOL    HW118071   3.976   2.332   5.867
 5724SOL    HW218072   3.969   2.169   5.859
 5725SOL     OW18073   5.143   5.673   3.599
 5725SOL    HW118074   5.231   5.650   3.639
 5725SOL    HW218075   5.096   5.739   3.658
 5726SOL     OW18076   6.491   3.768   4.769
 5726SOL    HW118077   6.415   3.704   4.762
 5726SOL    HW218078   6.538   3.755   4.856
 5727SOL     OW18079   5.674   2.987   3.083
 5727SOL    HW118080   5.577   2.975   3.102
 5727SOL    HW218081   5.727   2.929   3.144
 5728SOL     OW18082   5.649   1.320   6.437
 5728SOL    HW118083   5.713   1.303   6.362
 5728SOL    HW218084   5.557   1.333   6.400
 5729SOL     OW18085   0.055   1.693   0.365
 5729SOL    HW118086   0.090   1.620   0.425
 5729SOL    HW218087   6.976   1.691   0.367
 5730SOL     OW18088   3.728   5.713   5.352
 5730SOL    HW118089   3.773   5.769   5.282
 5730SOL    HW218090   3.688   5.632   5.310
 5731SOL     OW18091   1.435   6.670   3.913
 5731SOL    HW118092   1.498   6.736   3.873
 5731SOL    HW218093   1.412   6.600   3.846
 5732SOL     OW18094   6.151   5.067   4.198
 5732SOL    HW118095   6.167   5.106   4.108
 5732SOL    HW218096   6.147   5.140   4.266
 5733SOL     OW18097   3.448   0.916   6.569
 5733SOL    HW118098   3.504   0.933   6.650
 5733SOL    HW218099   3.400   0.829   6.580
 5734SOL     OW18100   1.313   0.033   5.292
 5734SOL    HW118101   1.238   0.089   5.256
 5734SOL    HW218102   1.317   0.043   5.391
 5735SOL     OW18103   3.977   1.290   2.017
 5735SOL    HW118104   3.998   1.332   2.105
 5735SOL    HW218105   3.882   1.260   2.016
 5736SOL     OW18106   5.295   4.437   6.196
 5736SOL    HW118107   5.343   4.385   6.268
 5736SOL    HW218108   5.253   4.374   6.132
 5737SOL     OW18109   4.938   6.373   1.261
 5737SOL    HW118110   5.030   6.359   1.295
 5737SOL    HW218111   4.895   6.449   1.310
 5738SOL     OW18112   3.578   1.187   6.517
 5738SOL    HW118113   3.604   1.264   6.459
 5738SOL    HW218114   3.660   1.149   6.560
 5739SOL     OW18115   1.852   6.696   5.621
 5739SOL    HW118116   1.895   6.614   5.583
 5739SOL    HW218117   1.806   6.673   5.707
 5740SOL     OW18118   4.731   3.444   0.737
 5740SOL    HW118119   4.750   3.345   0.740
 5740SOL    HW218120   4.728   3.473   0.641
 5741SOL     OW18121   0.643   3.828   3.658
 5741SOL    HW118122   0.600   3.816   3.748
 5741SOL    HW218123   0.660   3.738   3.617
 5742SOL     OW18124   3.777   6.771   3.693
 5742SOL    HW118125   3.834   6.851   3.672
 5742SOL    HW218126   3.782   6.752   3.791
 5743SOL     OW18127   3.684   4.690   6.074
 5743SOL    HW118128   3.723   4.738   5.996
 5743SOL    HW218129   3.584   4.691   6.068
 5744SOL     OW18130   6.112   0.786   3.106
 5744SOL    HW118131   6.088   0.815   3.013
 5744SOL    HW218132   6.205   0.816   3.127
 5745SOL     OW18133   2.779   2.034   3.475
 5745SOL    HW118134   2.704   2.088   3.438
 5745SOL    HW218135   2.864   2.087   3.471
 5746SOL     OW18136   4.052   0.191   3.655
 5746SOL    HW118137   3.972   0.134   3.674
 5746SOL    HW218138   4.129   0.161   3.711
 5747SOL     OW18139   0.935   6.146   2.017
 5747SOL    HW118140   0.998   6.128   1.942
 5747SOL    HW218141   0.980   6.204   2.085
 5748SOL     OW18142   0.392   6.890   0.933
 5748SOL    HW118143   0.483   6.852   0.923
 5748SOL    HW218144   0.391   6.984   0.900
 5749SOL     OW18145   2.167   6.658   4.726
 5749SOL    HW118146   2.086   6.607   4.695
 5749SOL    HW218147   2.140   6.752   4.746
 5750SOL     OW18148   6.597   4.530   4.972
 5750SOL    HW118149   6.576   4.613   4.919
 5750SOL    HW218150   6.687   4.541   5.015
 5751SOL     OW18151   1.440   3.649   4.754
 5751SOL    HW118152   1.500   3.721   4.789
 5751SOL    HW218153   1.484   3.604   4.676
 5752SOL     OW18154   5.841   0.262   1.497
 5752SOL    HW118155   5.810   0.213   1.579
 5752SOL    HW218156   5.906   0.333   1.524
 5753SOL     OW18157   3.065   4.073   5.337
 5753SOL    HW118158   3.001   4.149   5.350
 5753SOL    HW218159   3.072   4.051   5.240
 5754SOL     OW18160   1.483   5.922   2.248
 5754SOL    HW118161   1.400   5.944   2.198
 5754SOL    HW218162   1.461   5.900   2.343
 5755SOL     OW18163   1.685   1.883   5.864
 5755SOL    HW118164   1.682   1.968   5.917
 5755SOL    HW218165   1.748   1.819   5.908
 5756SOL     OW18166   6.616   0.210   2.308
 5756SOL    HW118167   6.647   0.139   2.372
 5756SOL    HW218168   6.657   0.298   2.333
 5757SOL     OW18169   0.230   5.705   4.027
 5757SOL    HW118170   0.133   5.693   4.005
 5757SOL    HW218171   0.253   5.648   4.106
 5758SOL     OW18172   2.286   0.141   3.629
 5758SOL    HW118173   2.377   0.134   3.670
 5758SOL    HW218174   2.295   0.177   3.536
 5759SOL     OW18175   4.805   6.820   2.026
 5759SOL    HW118176   4.771   6.743   2.081
 5759SOL    HW218177   4.739   6.841   1.954
 5760SOL     OW18178   6.762   3.162   2.238
 5760SOL    HW118179   6.814   3.233   2.192
 5760SOL    HW218180   6.707   3.111   2.172
 5761SOL     OW18181   5.040   5.934   4.844
 5761SOL    HW118182   5.116   5.997   4.854
 5761SOL    HW218183   5.010   5.902   4.934
 5762SOL     OW18184   4.476   4.432   0.517
 5762SOL    HW118185   4.574   4.414   0.514
 5762SOL    HW218186   4.445   4.461   0.426
 5763SOL     OW18187   5.456   6.286   0.489
 5763SOL    HW118188   5.524   6.213   0.496
 5763SOL    HW218189   5.491   6.360   0.432
 5764SOL     OW18190   4.386   5.397   3.429
 5764SOL    HW118191   4.328   5.386   3.349
 5764SOL    HW218192   4.380   5.491   3.462
 5765SOL     OW18193   6.534   3.869   0.644
 5765SOL    HW118194   6.557   3.775   0.671
 5765SOL    HW218195   6.593   3.933   0.694
 5766SOL     OW18196   2.272   2.082   4.520
 5766SOL    HW118197   2.351   2.138   4.499
 5766SOL    HW218198   2.254   2.084   4.618
 5767SOL     OW18199   2.589   0.164   6.912
 5767SOL    HW118200   2.572   0.097   6.840
 5767SOL    HW218201   2.509   0.224   6.922
 5768SOL     OW18202   6.978   6.894   3.478
 5768SOL    HW118203   6.925   6.978   3.466
 5768SOL    HW218204   6.916   6.821   3.508
 5769SOL     OW18205   2.625   5.207   5.317
 5769SOL    HW118206   2.546   5.263   5.342
 5769SOL    HW218207   2.704   5.267   5.303
 5770SOL     OW18208   0.201   6.144   0.021
 5770SOL    HW118209   0.208   6.161   0.120
 5770SOL    HW218210   0.112   6.174   7.010
 5771SOL     OW18211   1.748   0.356   4.310
 5771SOL    HW118212   1.830   0.399   4.349
 5771SOL    HW218213   1.669   0.416   4.324
 5772SOL     OW18214   4.747   1.385   1.436
 5772SOL    HW118215   4.765   1.345   1.346
 5772SOL    HW218216   4.705   1.317   1.495
 5773SOL     OW18217   4.126   0.725   2.470
 5773SOL    HW118218   4.165   0.791   2.406
 5773SOL    HW218219   4.153   0.633   2.443
 5774SOL     OW18220   1.668   0.883   4.427
 5774SOL    HW118221   1.607   0.840   4.361
 5774SOL    HW218222   1.625   0.884   4.517
 5775SOL     OW18223   1.065   6.094   3.003
 5775SOL    HW118224   1.163   6.087   3.021
 5775SOL    HW218225   1.017   6.017   3.047
 5776SOL     OW18226   1.275   0.413   3.315
 5776SOL    HW118227   1.217   0.410   3.234
 5776SOL    HW218228   1.280   0.507   3.349
 5777SOL     OW18229   1.025   0.599   3.428
 5777SOL    HW118230   0.972   0.527   3.384
 5777SOL    HW218231   1.007   0.687   3.383
 5778SOL     OW18232   1.858   0.619   0.098
 5778SOL    HW118233   1.863   0.719   0.099
 5778SOL    HW218234   1.781   0.590   0.041
 5779SOL     OW18235   4.481   2.472   0.285
 5779SOL    HW118236   4.452   2.449   0.378
 5779SOL    HW218237   4.418   2.540   0.247
 5780SOL     OW18238   5.151   6.313   4.466
 5780SOL    HW118239   5.070   6.366   4.441
 5780SOL    HW218240   5.139   6.276   4.558
 5781SOL     OW18241   6.325   4.441   4.561
 5781SOL    HW118242   6.391   4.470   4.493
 5781SOL    HW218243   6.299   4.518   4.619
 5782SOL     OW18244   1.459   1.541   0.430
 5782SOL    HW118245   1.407   1.498   0.356
 5782SOL    HW218246   1.396   1.581   0.497
 5783SOL     OW18247   0.990   0.679   2.475
 5783SOL    HW118248   1.055   0.608   2.448
 5783SOL    HW218249   0.972   0.740   2.397
 5784SOL     OW18250   0.824   6.497   6.396
 5784SOL    HW118251   0.734   6.521   6.432
 5784SOL    HW218252   0.838   6.542   6.308
 5785SOL     OW18253   1.375   2.216   0.160
 5785SOL    HW118254   1.368   2.159   0.242
 5785SOL    HW218255   1.325   2.174   0.085
 5786SOL     OW18256   6.702   4.549   0.634
 5786SOL    HW118257   6.611   4.557   0.674
 5786SOL    HW218258   6.724   4.452   0.621
 5787SOL     OW18259   2.276   2.304   5.027
 5787SOL    HW118260   2.214   2.359   4.971
 5787SOL    HW218261   2.270   2.208   4.998
 5788SOL     OW18262   2.992   1.243   2.396
 5788SOL    HW118263   2.919   1.290   2.347
 5788SOL    HW218264   3.077   1.247   2.342
 5789SOL     OW18265   3.451   4.399   6.729
 5789SOL    HW118266   3.402   4.386   6.643
 5789SOL    HW218267   3.454   4.496   6.751
 5790SOL     OW18268   1.885   3.982   4.061
 5790SOL    HW118269   1.895   3.883   4.058
 5790SOL    HW218270   1.973   4.026   4.045
 5791SOL     OW18271   4.196   0.453   1.917
 5791SOL    HW118272   4.205   0.514   1.839
 5791SOL    HW218273   4.100   0.449   1.945
 5792SOL     OW18274   6.795   2.579   2.484
 5792SOL    HW118275   6.880   2.560   2.436
 5792SOL    HW218276   6.815   2.608   2.577
 5793SOL     OW18277   5.530   0.766   3.865
 5793SOL    HW118278   5.458   0.783   3.932
 5793SOL    HW218279   5.490   0.757   3.774
 5794SOL     OW18280   3.856   2.224   0.670
 5794SOL    HW118281   3.761   2.236   0.699
 5794SOL    HW218282   3.861   2.223   0.570
 5795SOL     OW18283   6.525   5.394   6.550
 5795SOL    HW118284   6.617   5.358   6.536
 5795SOL    HW218285   6.493   5.367   6.641
 5796SOL     OW18286   3.732   0.437   6.790
 5796SOL    HW118287   3.744   0.531   6.758
 5796SOL    HW218288   3.821   0.400   6.819
 5797SOL     OW18289   4.563   1.769   5.301
 5797SOL    HW118290   4.487   1.779   5.365
 5797SOL    HW218291   4.647   1.751   5.352
 5798SOL     OW18292   0.703   4.664   4.911
 5798SOL    HW118293   0.803   4.659   4.912
 5798SOL    HW218294   0.674   4.745   4.859
 5799SOL     OW18295   5.378   1.552   3.409
 5799SOL    HW118296   5.359   1.475   3.470
 5799SOL    HW218297   5.328   1.541   3.323
 5800SOL     OW18298   5.729   6.147   0.883
 5800SOL    HW118299   5.664   6.219   0.861
 5800SOL    HW218300   5.679   6.064   0.908
 5801SOL     OW18301   1.431   2.343   4.312
 5801SOL    HW118302   1.431   2.345   4.212
 5801SOL    HW218303   1.474   2.258   4.344
 5802SOL     OW18304   1.125   4.411   1.003
 5802SOL    HW118305   1.062   4.439   0.931
 5802SOL    HW218306   1.150   4.315   0.990
 5803SOL     OW18307   1.342   4.505   2.105
 5803SOL    HW118308   1.294   4.435   2.052
 5803SOL    HW218309   1.287   4.588   2.109
 5804SOL     OW18310   6.932   4.994   4.057
 5804SOL    HW118311   6.867   4.996   3.982
 5804SOL    HW218312   7.012   5.049   4.034
 5805SOL     OW18313   2.959   3.384   5.883
 5805SOL    HW118314   2.873   3.433   5.873
 5805SOL    HW218315   2.943   3.298   5.932
 5806SOL     OW18316   6.683   6.494   5.685
 5806SOL    HW118317   6.711   6.590   5.695
 5806SOL    HW218318   6.753   6.445   5.633
 5807SOL     OW18319   1.126   3.915   1.841
 5807SOL    HW118320   1.175   3.852   1.902
 5807SOL    HW218321   1.181   3.931   1.759
 5808SOL     OW18322   6.036   3.948   3.840
 5808SOL    HW118323   6.109   3.882   3.857
 5808SOL    HW218324   6.064   4.038   3.872
 5809SOL     OW18325   0.096   2.176   4.752
 5809SOL    HW118326   0.022   2.199   4.815
 5809SOL    HW218327   0.058   2.139   4.668
 5810SOL     OW18328   3.777   1.464   4.351
 5810SOL    HW118329   3.826   1.549   4.366
 5810SOL    HW218330   3.709   1.477   4.279
 5811SOL     OW18331   2.835   0.340   5.421
 5811SOL    HW118332   2.804   0.268   5.359
 5811SOL    HW218333   2.865   0.300   5.507
 5812SOL     OW18334   6.075   1.165   4.059
 5812SOL    HW118335   6.049   1.097   3.991
 5812SOL    HW218336   6.116   1.119   4.138
 5813SOL     OW18337   1.538   1.294   0.660
 5813SOL    HW118338   1.457   1.236   0.656
 5813SOL    HW218339   1.512   1.387   0.685
 5814SOL     OW18340   6.318   4.951   1.002
 5814SOL    HW118341   6.281   4.866   0.964
 5814SOL    HW218342   6.277   4.967   1.092
 5815SOL     OW18343   4.612   2.475   3.873
 5815SOL    HW118344   4.619   2.389   3.822
 5815SOL    HW218345   4.602   2.455   3.971
 5816SOL     OW18346   4.772   5.618   0.206
 5816SOL    HW118347   4.699   5.570   0.255
 5816SOL    HW218348   4.732   5.692   0.151
 5817SOL     OW18349   5.378   3.252   5.675
 5817SOL    HW118350   5.319   3.299   5.740
 5817SOL    HW218351   5.469   3.240   5.714
 5818SOL     OW18352   6.526   6.142   4.888
 5818SOL    HW118353   6.558   6.047   4.897
 5818SOL    HW218354   6.497   6.157   4.793
 5819SOL     OW18355   4.383   6.938   6.350
 5819SOL    HW118356   4.405   0.007   6.313
 5819SOL    HW218357   4.291   6.939   6.389
 5820SOL     OW18358   4.517   6.028   3.713
 5820SOL    HW118359   4.572   6.110   3.729
 5820SOL    HW218360   4.451   6.016   3.787
 5821SOL     OW18361   0.387   0.303   2.670
 5821SOL    HW118362   0.430   0.384   2.710
 5821SOL    HW218363   0.308   0.276   2.725
 5822SOL     OW18364   0.227   2.551   2.533
 5822SOL    HW118365   0.304   2.502   2.493
 5822SOL    HW218366   0.208   2.514   2.624
 5823SOL     OW18367   0.790   0.960   5.923
 5823SOL    HW118368   0.847   1.017   5.982
 5823SOL    HW218369   0.843   0.883   5.888
 5824SOL     OW18370   6.819   5.461   2.549
 5824SOL    HW118371   6.868   5.448   2.636
 5824SOL    HW218372   6.818   5.375   2.499
 5825SOL     OW18373   2.588   2.167   5.451
 5825SOL    HW118374   2.606   2.225   5.371
 5825SOL    HW218375   2.539   2.085   5.422
 5826SOL     OW18376   6.882   4.935   5.177
 5826SOL    HW118377   6.927   4.870   5.116
 5826SOL    HW218378   6.941   4.956   5.254
 5827SOL     OW18379   2.363   4.858   4.767
 5827SOL    HW118380   2.324   4.944   4.801
 5827SOL    HW218381   2.343   4.849   4.670
 5828SOL     OW18382   6.714   3.057   1.636
 5828SOL    HW118383   6.785   3.111   1.592
 5828SOL    HW218384   6.756   2.980   1.685
 5829SOL     OW18385   2.437   1.465   3.094
 5829SOL    HW118386   2.363   1.410   3.057
 5829SOL    HW218387   2.401   1.553   3.126
 5830SOL     OW18388   4.549   0.018   5.747
 5830SOL    HW118389   4.452   0.014   5.725
 5830SOL    HW218390   4.574   6.959   5.801
 5831SOL     OW18391   0.129   0.469   3.905
 5831SOL    HW118392   0.063   0.403   3.940
 5831SOL    HW218393   0.109   0.487   3.808
 5832SOL     OW18394   3.847   4.545   5.668
 5832SOL    HW118395   3.842   4.636   5.710
 5832SOL    HW218396   3.770   4.490   5.700
 5833SOL     OW18397   3.969   3.218   5.095
 5833SOL    HW118398   3.908   3.196   5.019
 5833SOL    HW218399   4.043   3.277   5.063
 5834SOL     OW18400   6.018   2.737   0.492
 5834SOL    HW118401   6.104   2.706   0.532
 5834SOL    HW218402   5.943   2.715   0.554
 5835SOL     OW18403   4.864   3.496   3.503
 5835SOL    HW118404   4.952   3.531   3.472
 5835SOL    HW218405   4.825   3.557   3.572
 5836SOL     OW18406   2.724   6.744   2.664
 5836SOL    HW118407   2.688   6.712   2.752
 5836SOL    HW218408   2.649   6.779   2.609
 5837SOL     OW18409   4.504   5.116   5.833
 5837SOL    HW118410   4.494   5.081   5.926
 5837SOL    HW218411   4.542   5.045   5.774
 5838SOL     OW18412   2.832   1.288   5.784
 5838SOL    HW118413   2.743   1.282   5.739
 5838SOL    HW218414   2.855   1.384   5.799
 5839SOL     OW18415   0.244   2.231   2.797
 5839SOL    HW118416   0.150   2.197   2.790
 5839SOL    HW218417   0.307   2.161   2.763
 5840SOL     OW18418   1.143   5.398   6.802
 5840SOL    HW118419   1.096   5.330   6.746
 5840SOL    HW218420   1.079   5.436   6.868
 5841SOL     OW18421   5.234   1.654   2.527
 5841SOL    HW118422   5.249   1.738   2.579
 5841SOL    HW218423   5.167   1.671   2.455
 5842SOL     OW18424   4.762   3.114   1.413
 5842SOL    HW118425   4.846   3.157   1.380
 5842SOL    HW218426   4.748   3.028   1.365
 5843SOL     OW18427   2.185   3.875   2.187
 5843SOL    HW118428   2.259   3.817   2.155
 5843SOL    HW218429   2.112   3.819   2.227
 5844SOL     OW18430   1.266   6.741   5.890
 5844SOL    HW118431   1.189   6.797   5.923
 5844SOL    HW218432   1.256   6.726   5.792
 5845SOL     OW18433   0.792   0.302   2.640
 5845SOL    HW118434   0.886   0.307   2.675
 5845SOL    HW218435   0.765   0.392   2.605
 5846SOL     OW18436   6.368   3.166   3.783
 5846SOL    HW118437   6.417   3.162   3.870
 5846SOL    HW218438   6.411   3.104   3.717
 5847SOL     OW18439   1.933   1.970   1.988
 5847SOL    HW118440   2.026   1.976   1.953
 5847SOL    HW218441   1.871   2.024   1.931
 5848SOL     OW18442   2.464   5.161   2.992
 5848SOL    HW118443   2.411   5.083   3.025
 5848SOL    HW218444   2.421   5.197   2.909
 5849SOL     OW18445   0.150   0.433   6.826
 5849SOL    HW118446   0.121   0.483   6.744
 5849SOL    HW218447   0.152   0.335   6.805
 5850SOL     OW18448   0.593   3.879   2.080
 5850SOL    HW118449   0.611   3.935   2.162
 5850SOL    HW218450   0.677   3.867   2.028
 5851SOL     OW18451   4.976   2.893   2.822
 5851SOL    HW118452   5.031   2.946   2.758
 5851SOL    HW218453   5.025   2.886   2.909
 5852SOL     OW18454   4.756   6.641   3.145
 5852SOL    HW118455   4.789   6.547   3.153
 5852SOL    HW218456   4.702   6.665   3.225
 5853SOL     OW18457   3.282   5.542   4.159
 5853SOL    HW118458   3.290   5.453   4.114
 5853SOL    HW218459   3.305   5.532   4.256
 5854SOL     OW18460   5.881   4.310   5.752
 5854SOL    HW118461   5.854   4.399   5.789
 5854SOL    HW218462   5.800   4.253   5.741
 5855SOL     OW18463   0.266   0.436   5.091
 5855SOL    HW118464   0.293   0.341   5.108
 5855SOL    HW218465   0.343   0.496   5.115
 5856SOL     OW18466   1.887   6.296   3.903
 5856SOL    HW118467   1.965   6.344   3.943
 5856SOL    HW218468   1.917   6.242   3.825
 5857SOL     OW18469   6.124   3.040   5.419
 5857SOL    HW118470   6.132   2.941   5.433
 5857SOL    HW218471   6.030   3.063   5.395
 5858SOL     OW18472   2.640   2.270   2.059
 5858SOL    HW118473   2.619   2.222   1.973
 5858SOL    HW218474   2.738   2.286   2.064
 5859SOL     OW18475   5.188   6.810   1.428
 5859SOL    HW118476   5.162   6.758   1.347
 5859SOL    HW218477   5.108   6.860   1.463
 5860SOL     OW18478   1.818   3.391   2.075
 5860SOL    HW118479   1.812   3.490   2.056
 5860SOL    HW218480   1.903   3.356   2.036
 5861SOL     OW18481   4.829   1.825   4.673
 5861SOL    HW118482   4.793   1.739   4.636
 5861SOL    HW218483   4.801   1.835   4.768
 5862SOL     OW18484   5.164   5.165   3.284
 5862SOL    HW118485   5.069   5.196   3.278
 5862SOL    HW218486   5.166   5.065   3.286
 5863SOL     OW18487   2.858   0.905   4.484
 5863SOL    HW118488   2.859   0.987   4.426
 5863SOL    HW218489   2.949   0.863   4.482
 5864SOL     OW18490   4.075   3.645   1.843
 5864SOL    HW118491   4.055   3.581   1.769
 5864SOL    HW218492   4.095   3.595   1.927
 5865SOL     OW18493   5.898   0.291   4.856
 5865SOL    HW118494   5.945   0.366   4.810
 5865SOL    HW218495   5.952   0.260   4.934
 5866SOL     OW18496   4.653   5.541   6.939
 5866SOL    HW118497   4.652   5.621   6.999
 5866SOL    HW218498   4.722   5.555   6.867
 5867SOL     OW18499   0.239   4.008   0.964
 5867SOL    HW118500   0.147   3.996   0.927
 5867SOL    HW218501   0.255   4.105   0.983
 5868SOL     OW18502   0.342   0.752   5.588
 5868SOL    HW118503   0.344   0.795   5.498
 5868SOL    HW218504   0.294   0.812   5.653
 5869SOL     OW18505   2.734   5.519   3.101
 5869SOL    HW118506   2.700   5.429   3.128
 5869SOL    HW218507   2.713   5.585   3.173
 5870SOL     OW18508   5.054   5.860   4.583
 5870SOL    HW118509   5.055   5.858   4.683
 5870SOL    HW218510   5.148   5.869   4.549
 5871SOL     OW18511   4.088   3.189   0.101
 5871SOL    HW118512   4.071   3.102   0.054
 5871SOL    HW218513   4.186   3.203   0.110
 5872SOL     OW18514   3.940   5.267   6.808
 5872SOL    HW118515   3.842   5.245   6.810
 5872SOL    HW218516   3.992   5.188   6.838
 5873SOL     OW18517   2.214   2.599   0.884
 5873SOL    HW118518   2.233   2.526   0.949
 5873SOL    HW218519   2.150   2.566   0.814
 5874SOL     OW18520   2.937   3.255   1.045
 5874SOL    HW118521   2.848   3.253   1.092
 5874SOL    HW218522   3.003   3.201   1.098
 5875SOL     OW18523   3.488   0.982   1.326
 5875SOL    HW118524   3.442   1.039   1.258
 5875SOL    HW218525   3.480   1.025   1.416
 5876SOL     OW18526   2.612   3.118   0.301
 5876SOL    HW118527   2.616   3.056   0.222
 5876SOL    HW218528   2.671   3.083   0.374
 5877SOL     OW18529   0.031   6.805   1.165
 5877SOL    HW118530   0.022   6.784   1.067
 5877SOL    HW218531   6.964   6.837   1.200
 5878SOL     OW18532   5.098   5.065   3.011
 5878SOL    HW118533   5.096   5.126   3.090
 5878SOL    HW218534   5.007   5.062   2.969
 5879SOL     OW18535   2.728   3.733   6.305
 5879SOL    HW118536   2.629   3.722   6.298
 5879SOL    HW218537   2.755   3.744   6.400
 5880SOL     OW18538   4.625   4.249   6.637
 5880SOL    HW118539   4.635   4.280   6.731
 5880SOL    HW218540   4.706   4.275   6.585
 5881SOL     OW18541   1.598   0.259   1.905
 5881SOL    HW118542   1.634   0.343   1.863
 5881SOL    HW218543   1.502   0.273   1.929
 5882SOL     OW18544   0.913   6.471   5.871
 5882SOL    HW118545   1.009   6.444   5.880
 5882SOL    HW218546   0.879   6.507   5.957
 5883SOL     OW18547   0.308   1.338   0.626
 5883SOL    HW118548   0.297   1.251   0.675
 5883SOL    HW218549   0.346   1.321   0.535
 5884SOL     OW18550   5.870   1.159   5.017
 5884SOL    HW118551   5.775   1.177   4.992
 5884SOL    HW218552   5.914   1.245   5.044
 5885SOL     OW18553   0.989   5.530   1.246
 5885SOL    HW118554   1.046   5.448   1.252
 5885SOL    HW218555   1.015   5.593   1.319
 5886SOL     OW18556   0.788   3.324   3.564
 5886SOL    HW118557   0.803   3.342   3.661
 5886SOL    HW218558   0.712   3.260   3.553
 5887SOL     OW18559   2.582   2.115   1.834
 5887SOL    HW118560   2.537   2.040   1.882
 5887SOL    HW218561   2.667   2.083   1.793
 5888SOL     OW18562   2.505   6.911   1.096
 5888SOL    HW118563   2.454   6.912   1.010
 5888SOL    HW218564   2.452   6.956   1.168
 5889SOL     OW18565   6.486   1.197   0.436
 5889SOL    HW118566   6.557   1.199   0.367
 5889SOL    HW218567   6.527   1.183   0.526
 5890SOL     OW18568   1.545   6.792   2.824
 5890SOL    HW118569   1.551   6.818   2.728
 5890SOL    HW218570   1.474   6.722   2.836
 5891SOL     OW18571   2.043   4.125   0.269
 5891SOL    HW118572   1.976   4.092   0.203
 5891SOL    HW218573   1.997   4.151   0.354
 5892SOL     OW18574   0.153   4.973   1.739
 5892SOL    HW118575   0.104   5.058   1.762
 5892SOL    HW218576   0.159   4.916   1.821
 5893SOL     OW18577   1.546   4.580   1.634
 5893SOL    HW118578   1.529   4.622   1.545
 5893SOL    HW218579   1.642   4.552   1.640
 5894SOL     OW18580   0.643   5.567   5.036
 5894SOL    HW118581   0.705   5.634   5.078
 5894SOL    HW218582   0.695   5.510   4.973
 5895SOL     OW18583   6.358   3.835   3.513
 5895SOL    HW118584   6.294   3.910   3.498
 5895SOL    HW218585   6.372   3.823   3.612
 5896SOL     OW18586   5.272   1.315   1.040
 5896SOL    HW118587   5.198   1.267   1.087
 5896SOL    HW218588   5.317   1.253   0.976
 5897SOL     OW18589   3.764   1.277   1.556
 5897SOL    HW118590   3.826   1.298   1.479
 5897SOL    HW218591   3.723   1.187   1.542
 5898SOL     OW18592   2.187   1.456   5.508
 5898SOL    HW118593   2.145   1.404   5.582
 5898SOL    HW218594   2.242   1.530   5.546
 5899SOL     OW18595   6.819   5.648   6.117
 5899SOL    HW118596   6.832   5.614   6.210
 5899SOL    HW218597   6.772   5.737   6.120
 5900SOL     OW18598   6.669   5.328   3.463
 5900SOL    HW118599   6.685   5.257   3.532
 5900SOL    HW218600   6.571   5.342   3.452
 5901SOL     OW18601   2.079   1.285   0.933
 5901SOL    HW118602   2.058   1.191   0.905
 5901SOL    HW218603   2.006   1.346   0.902
 5902SOL     OW18604   5.634   3.255   5.299
 5902SOL    HW118605   5.687   3.333   5.266
 5902SOL    HW218606   5.627   3.186   5.227
 5903SOL     OW18607   5.267   3.066   6.831
 5903SOL    HW118608   5.204   3.086   6.756
 5903SOL    HW218609   5.251   2.973   6.865
 5904SOL     OW18610   1.159   4.153   0.929
 5904SOL    HW118611   1.249   4.111   0.927
 5904SOL    HW218612   1.095   4.092   0.977
 5905SOL     OW18613   5.717   1.255   3.709
 5905SOL    HW118614   5.621   1.282   3.713
 5905SOL    HW218615   5.724   1.159   3.684
 5906SOL     OW18616   5.178   1.860   5.021
 5906SOL    HW118617   5.109   1.901   5.080
 5906SOL    HW218618   5.169   1.760   5.023
 5907SOL     OW18619   1.614   6.944   0.446
 5907SOL    HW118620   1.654   6.926   0.356
 5907SOL    HW218621   1.664   7.018   0.491
 5908SOL     OW18622   5.220   3.808   6.994
 5908SOL    HW118623   5.245   3.841   0.064
 5908SOL    HW218624   5.182   3.716   7.001
 5909SOL     OW18625   0.727   4.722   5.997
 5909SOL    HW118626   0.633   4.700   5.969
 5909SOL    HW218627   0.790   4.659   5.952
 5910SOL     OW18628   0.823   4.572   0.134
 5910SOL    HW118629   0.819   4.522   0.220
 5910SOL    HW218630   0.906   4.628   0.131
 5911SOL     OW18631   0.404   5.787   6.064
 5911SOL    HW118632   0.458   5.707   6.090
 5911SOL    HW218633   0.345   5.765   5.987
 5912SOL     OW18634   6.067   3.372   6.645
 5912SOL    HW118635   6.105   3.388   6.554
 5912SOL    HW218636   6.019   3.284   6.646
 5913SOL     OW18637   2.087   2.822   5.730
 5913SOL    HW118638   2.003   2.820   5.783
 5913SOL    HW218639   2.102   2.733   5.688
 5914SOL     OW18640   2.964   5.492   6.945
 5914SOL    HW118641   2.988   5.586   6.970
 5914SOL    HW218642   2.873   5.469   6.980
 5915SOL     OW18643   5.636   3.624   2.081
 5915SOL    HW118644   5.574   3.699   2.102
 5915SOL    HW218645   5.602   3.539   2.122
 5916SOL     OW18646   4.192   0.518   5.692
 5916SOL    HW118647   4.203   0.445   5.760
 5916SOL    HW218648   4.280   0.560   5.674
 5917SOL     OW18649   3.528   3.504   3.523
 5917SOL    HW118650   3.569   3.449   3.596
 5917SOL    HW218651   3.564   3.597   3.527
 5918SOL     OW18652   2.141   3.561   4.750
 5918SOL    HW118653   2.153   3.661   4.749
 5918SOL    HW218654   2.053   3.539   4.792
 5919SOL     OW18655   3.040   2.181   6.740
 5919SOL    HW118656   3.113   2.249   6.737
 5919SOL    HW218657   3.004   2.166   6.648
 5920SOL     OW18658   3.873   6.888   0.178
 5920SOL    HW118659   3.902   6.830   0.102
 5920SOL    HW218660   3.844   6.831   0.255
 5921SOL     OW18661   3.492   4.950   5.467
 5921SOL    HW118662   3.496   4.945   5.567
 5921SOL    HW218663   3.555   4.883   5.428
 5922SOL     OW18664   6.338   4.913   3.539
 5922SOL    HW118665   6.418   4.952   3.495
 5922SOL    HW218666   6.280   4.987   3.575
 5923SOL     OW18667   6.305   1.125   2.495
 5923SOL    HW118668   6.390   1.177   2.498
 5923SOL    HW218669   6.227   1.186   2.510
 5924SOL     OW18670   5.947   3.110   4.950
 5924SOL    HW118671   5.943   3.179   5.023
 5924SOL    HW218672   5.958   3.019   4.991
 5925SOL     OW18673   4.395   6.700   3.073
 5925SOL    HW118674   4.433   6.792   3.065
 5925SOL    HW218675   4.297   6.703   3.051
 5926SOL     OW18676   3.087   4.909   1.998
 5926SOL    HW118677   3.151   4.839   1.967
 5926SOL    HW218678   3.108   4.996   1.955
 5927SOL     OW18679   2.123   4.316   2.260
 5927SOL    HW118680   2.219   4.342   2.248
 5927SOL    HW218681   2.093   4.264   2.181
 5928SOL     OW18682   3.077   0.536   2.770
 5928SOL    HW118683   3.094   0.505   2.863
 5928SOL    HW218684   3.163   0.534   2.718
 5929SOL     OW18685   0.681   6.309   5.970
 5929SOL    HW118686   0.650   6.251   5.894
 5929SOL    HW218687   0.606   6.366   6.002
 5930SOL     OW18688   6.610   1.555   3.579
 5930SOL    HW118689   6.563   1.632   3.623
 5930SOL    HW218690   6.640   1.583   3.488
 5931SOL     OW18691   5.713   4.687   2.420
 5931SOL    HW118692   5.704   4.700   2.322
 5931SOL    HW218693   5.780   4.615   2.438
 5932SOL     OW18694   2.774   6.343   0.894
 5932SOL    HW118695   2.719   6.307   0.818
 5932SOL    HW218696   2.723   6.416   0.940
 5933SOL     OW18697   6.753   4.927   2.345
 5933SOL    HW118698   6.700   4.923   2.260
 5933SOL    HW218699   6.693   4.951   2.421
 5934SOL     OW18700   3.310   4.077   3.678
 5934SOL    HW118701   3.310   4.059   3.580
 5934SOL    HW218702   3.295   4.174   3.694
 5935SOL     OW18703   3.927   3.360   4.766
 5935SOL    HW118704   3.963   3.307   4.690
 5935SOL    HW218705   3.978   3.446   4.773
 5936SOL     OW18706   4.508   3.423   6.623
 5936SOL    HW118707   4.568   3.344   6.631
 5936SOL    HW218708   4.448   3.428   6.703
 5937SOL     OW18709   0.563   4.315   1.827
 5937SOL    HW118710   0.529   4.342   1.737
 5937SOL    HW218711   0.510   4.361   1.898
 5938SOL     OW18712   1.223   5.187   4.028
 5938SOL    HW118713   1.169   5.262   4.065
 5938SOL    HW218714   1.318   5.195   4.059
 5939SOL     OW18715   3.165   0.274   3.228
 5939SOL    HW118716   3.186   0.371   3.216
 5939SOL    HW218717   3.237   0.218   3.186
 5940SOL     OW18718   4.372   6.636   2.411
 5940SOL    HW118719   4.398   6.730   2.390
 5940SOL    HW218720   4.278   6.620   2.380
 5941SOL     OW18721   6.131   4.324   2.117
 5941SOL    HW118722   6.078   4.384   2.176
 5941SOL    HW218723   6.179   4.256   2.172
 5942SOL     OW18724   4.890   2.299   0.095
 5942SOL    HW118725   4.935   2.389   0.101
 5942SOL    HW218726   4.955   2.228   0.122
 5943SOL     OW18727   3.331   5.695   0.112
 5943SOL    HW118728   3.238   5.682   0.076
 5943SOL    HW218729   3.397   5.694   0.037
 5944SOL     OW18730   5.702   1.708   1.757
 5944SOL    HW118731   5.618   1.654   1.758
 5944SOL    HW218732   5.700   1.771   1.679
 5945SOL     OW18733   0.207   5.384   5.471
 5945SOL    HW118734   0.236   5.470   5.514
 5945SOL    HW218735   0.140   5.404   5.400
 5946SOL     OW18736   3.406   3.352   5.509
 5946SOL    HW118737   3.336   3.304   5.562
 5946SOL    HW218738   3.493   3.347   5.557
 5947SOL     OW18739   3.953   3.226   2.006
 5947SOL    HW118740   4.045   3.212   1.969
 5947SOL    HW218741   3.960   3.268   2.097
 5948SOL     OW18742   4.040   5.243   3.052
 5948SOL    HW118743   4.033   5.215   2.957
 5948SOL    HW218744   3.956   5.290   3.080
 5949SOL     OW18745   3.882   4.054   1.124
 5949SOL    HW118746   3.807   4.010   1.075
 5949SOL    HW218747   3.943   3.984   1.163
 5950SOL     OW18748   5.085   3.272   5.261
 5950SOL    HW118749   5.075   3.372   5.256
 5950SOL    HW218750   5.168   3.251   5.313
 5951SOL     OW18751   0.670   6.332   5.019
 5951SOL    HW118752   0.586   6.385   5.015
 5951SOL    HW218753   0.737   6.380   5.077
 5952SOL     OW18754   6.023   6.517   4.140
 5952SOL    HW118755   5.960   6.497   4.216
 5952SOL    HW218756   5.972   6.520   4.055
 5953SOL     OW18757   6.913   2.751   5.697
 5953SOL    HW118758   6.818   2.774   5.718
 5953SOL    HW218759   6.974   2.804   5.755
 5954SOL     OW18760   0.097   4.409   5.359
 5954SOL    HW118761   0.075   4.483   5.296
 5954SOL    HW218762   0.052   4.426   5.447
 5955SOL     OW18763   6.378   6.022   2.407
 5955SOL    HW118764   6.317   5.948   2.378
 5955SOL    HW218765   6.467   5.984   2.431
 5956SOL     OW18766   3.135   1.725   0.796
 5956SOL    HW118767   3.216   1.669   0.814
 5956SOL    HW218768   3.058   1.665   0.772
 5957SOL     OW18769   4.767   0.132   6.036
 5957SOL    HW118770   4.741   0.104   5.943
 5957SOL    HW218771   4.834   0.206   6.030
 5958SOL     OW18772   5.740   6.870   3.235
 5958SOL    HW118773   5.694   6.861   3.147
 5958SOL    HW218774   5.816   6.934   3.227
 5959SOL     OW18775   3.321   1.606   5.759
 5959SOL    HW118776   3.318   1.678   5.828
 5959SOL    HW218777   3.406   1.613   5.707
 5960SOL     OW18778   3.377   6.736   4.314
 5960SOL    HW118779   3.285   6.742   4.353
 5960SOL    HW218780   3.427   6.661   4.357
 5961SOL     OW18781   4.691   1.260   4.048
 5961SOL    HW118782   4.708   1.254   4.146
 5961SOL    HW218783   4.595   1.236   4.029
 5962SOL     OW18784   5.119   6.076   2.155
 5962SOL    HW118785   5.143   6.082   2.058
 5962SOL    HW218786   5.034   6.024   2.165
 5963SOL     OW18787   3.681   2.878   4.549
 5963SOL    HW118788   3.689   2.786   4.512
 5963SOL    HW218789   3.683   2.875   4.649
 5964SOL     OW18790   0.351   5.387   6.096
 5964SOL    HW118791   0.389   5.472   6.061
 5964SOL    HW218792   0.425   5.326   6.124
 5965SOL     OW18793   1.974   1.952   5.782
 5965SOL    HW118794   1.888   1.999   5.760
 5965SOL    HW218795   1.992   1.961   5.880
 5966SOL     OW18796   2.965   5.223   6.116
 5966SOL    HW118797   2.931   5.254   6.028
 5966SOL    HW218798   3.002   5.130   6.107
 5967SOL     OW18799   4.132   6.253   2.124
 5967SOL    HW118800   4.201   6.280   2.057
 5967SOL    HW218801   4.095   6.163   2.100
 5968SOL     OW18802   5.869   1.712   3.173
 5968SOL    HW118803   5.796   1.735   3.109
 5968SOL    HW218804   5.951   1.765   3.151
 5969SOL     OW18805   6.684   1.914   5.365
 5969SOL    HW118806   6.741   1.834   5.351
 5969SOL    HW218807   6.721   1.970   5.440
 5970SOL     OW18808   0.527   4.729   2.366
 5970SOL    HW118809   0.453   4.742   2.299
 5970SOL    HW218810   0.503   4.655   2.428
 5971SOL     OW18811   2.369   0.274   3.348
 5971SOL    HW118812   2.317   0.229   3.275
 5971SOL    HW218813   2.448   0.321   3.308
 5972SOL     OW18814   4.473   6.261   0.522
 5972SOL    HW118815   4.563   6.237   0.485
 5972SOL    HW218816   4.473   6.250   0.621
 5973SOL     OW18817   1.840   5.140   2.712
 5973SOL    HW118818   1.767   5.205   2.689
 5973SOL    HW218819   1.799   5.054   2.743
 5974SOL     OW18820   5.389   4.080   6.230
 5974SOL    HW118821   5.475   4.031   6.247
 5974SOL    HW218822   5.373   4.145   6.305
 5975SOL     OW18823   3.619   2.320   0.722
 5975SOL    HW118824   3.534   2.322   0.670
 5975SOL    HW218825   3.606   2.368   0.809
 5976SOL     OW18826   2.778   3.562   5.233
 5976SOL    HW118827   2.707   3.501   5.269
 5976SOL    HW218828   2.766   3.653   5.272
 5977SOL     OW18829   1.810   4.805   1.480
 5977SOL    HW118830   1.888   4.867   1.483
 5977SOL    HW218831   1.838   4.716   1.446
 5978SOL     OW18832   5.409   4.979   3.321
 5978SOL    HW118833   5.455   5.006   3.405
 5978SOL    HW218834   5.381   5.060   3.270
 5979SOL     OW18835   6.758   0.611   2.844
 5979SOL    HW118836   6.800   0.615   2.754
 5979SOL    HW218837   6.662   0.586   2.834
 5980SOL     OW18838   3.793   3.692   6.482
 5980SOL    HW118839   3.845   3.610   6.507
 5980SOL    HW218840   3.695   3.670   6.483
 5981SOL     OW18841   6.587   1.831   2.098
 5981SOL    HW118842   6.642   1.748   2.096
 5981SOL    HW218843   6.502   1.814   2.149
 5982SOL     OW18844   6.123   2.012   6.764
 5982SOL    HW118845   6.138   2.028   6.862
 5982SOL    HW218846   6.047   2.069   6.733
 5983SOL     OW18847   2.628   1.695   4.420
 5983SOL    HW118848   2.713   1.702   4.473
 5983SOL    HW218849   2.551   1.727   4.476
 5984SOL     OW18850   0.278   6.944   4.618
 5984SOL    HW118851   0.362   6.892   4.601
 5984SOL    HW218852   0.254   6.996   4.536
 5985SOL     OW18853   5.231   3.153   4.670
 5985SOL    HW118854   5.218   3.202   4.584
 5985SOL    HW218855   5.329   3.134   4.682
 5986SOL     OW18856   2.848   3.423   4.249
 5986SOL    HW118857   2.893   3.349   4.298
 5986SOL    HW218858   2.757   3.438   4.287
 5987SOL     OW18859   4.241   1.587   5.012
 5987SOL    HW118860   4.323   1.643   5.009
 5987SOL    HW218861   4.267   1.491   5.020
 5988SOL     OW18862   4.658   5.850   4.961
 5988SOL    HW118863   4.724   5.876   4.891
 5988SOL    HW218864   4.605   5.930   4.988
 5989SOL     OW18865   2.663   6.194   6.496
 5989SOL    HW118866   2.629   6.101   6.485
 5989SOL    HW218867   2.629   6.251   6.420
 5990SOL     OW18868   3.768   4.200   0.699
 5990SOL    HW118869   3.771   4.268   0.625
 5990SOL    HW218870   3.739   4.112   0.661
 5991SOL     OW18871   4.538   4.661   5.085
 5991SOL    HW118872   4.496   4.750   5.105
 5991SOL    HW218873   4.478   4.609   5.024
 5992SOL     OW18874   3.697   0.588   4.011
 5992SOL    HW118875   3.769   0.596   4.080
 5992SOL    HW218876   3.711   0.505   3.957
 5993SOL     OW18877   3.885   6.979   5.865
 5993SOL    HW118878   3.910   6.887   5.834
 5993SOL    HW218879   3.916   6.991   5.960
 5994SOL     OW18880   5.991   2.209   1.931
 5994SOL    HW118881   6.051   2.278   1.890
 5994SOL    HW218882   5.925   2.255   1.991
 5995SOL     OW18883   6.427   5.047   1.795
 5995SOL    HW118884   6.374   5.132   1.794
 5995SOL    HW218885   6.364   4.969   1.792
 5996SOL     OW18886   0.788   5.404   0.157
 5996SOL    HW118887   0.857   5.425   0.226
 5996SOL    HW218888   0.740   5.488   0.132
 5997SOL     OW18889   0.746   6.316   2.716
 5997SOL    HW118890   0.791   6.378   2.652
 5997SOL    HW218891   0.667   6.363   2.757
 5998SOL     OW18892   5.620   3.162   2.369
 5998SOL    HW118893   5.586   3.136   2.279
 5998SOL    HW218894   5.707   3.115   2.387
 5999SOL     OW18895   0.880   2.347   2.605
 5999SOL    HW118896   0.792   2.301   2.618
 5999SOL    HW218897   0.911   2.383   2.693
 6000SOL     OW18898   4.305   5.684   1.841
 6000SOL    HW118899   4.228   5.715   1.785
 6000SOL    HW218900   4.269   5.630   1.918
 6001SOL     OW18901   0.480   4.193   6.288
 6001SOL    HW118902   0.472   4.283   6.244
 6001SOL    HW218903   0.563   4.191   6.343
 6002SOL     OW18904   0.504   6.629   1.450
 6002SOL    HW118905   0.554   6.604   1.366
 6002SOL    HW218906   0.410   6.653   1.426
 6003SOL     OW18907   6.146   2.488   4.787
 6003SOL    HW118908   6.245   2.495   4.790
 6003SOL    HW218909   6.116   2.468   4.694
 6004SOL     OW18910   0.370   4.482   3.278
 6004SOL    HW118911   0.336   4.488   3.184
 6004SOL    HW218912   0.416   4.394   3.291
 6005SOL     OW18913   3.811   5.172   4.601
 6005SOL    HW118914   3.812   5.073   4.614
 6005SOL    HW218915   3.860   5.216   4.676
 6006SOL     OW18916   4.126   6.514   6.811
 6006SOL    HW118917   4.042   6.496   6.861
 6006SOL    HW218918   4.204   6.513   6.875
 6007SOL     OW18919   4.860   3.070   3.676
 6007SOL    HW118920   4.862   3.155   3.729
 6007SOL    HW218921   4.835   2.994   3.735
 6008SOL     OW18922   2.406   5.606   6.289
 6008SOL    HW118923   2.467   5.605   6.210
 6008SOL    HW218924   2.387   5.700   6.315
 6009SOL     OW18925   3.172   1.336   4.651
 6009SOL    HW118926   3.171   1.287   4.564
 6009SOL    HW218927   3.206   1.429   4.637
 6010SOL     OW18928   2.327   4.317   1.909
 6010SOL    HW118929   2.353   4.349   2.000
 6010SOL    HW218930   2.379   4.367   1.839
 6011SOL     OW18931   5.146   2.637   2.184
 6011SOL    HW118932   5.084   2.564   2.157
 6011SOL    HW218933   5.093   2.714   2.221
 6012SOL     OW18934   6.611   1.987   0.345
 6012SOL    HW118935   6.550   1.996   0.424
 6012SOL    HW218936   6.566   2.022   0.263
 6013SOL     OW18937   5.103   1.733   2.974
 6013SOL    HW118938   5.103   1.801   3.048
 6013SOL    HW218939   5.044   1.657   2.999
 6014SOL     OW18940   4.825   1.519   0.575
 6014SOL    HW118941   4.853   1.611   0.550
 6014SOL    HW218942   4.855   1.498   0.668
 6015SOL     OW18943   5.771   2.368   5.835
 6015SOL    HW118944   5.673   2.387   5.844
 6015SOL    HW218945   5.814   2.441   5.782
 6016SOL     OW18946   0.417   1.420   6.805
 6016SOL    HW118947   0.453   1.485   6.871
 6016SOL    HW218948   0.334   1.377   6.842
 6017SOL     OW18949   6.271   5.122   2.679
 6017SOL    HW118950   6.241   5.146   2.771
 6017SOL    HW218951   6.233   5.186   2.613
 6018SOL     OW18952   3.615   2.644   0.151
 6018SOL    HW118953   3.553   2.655   0.073
 6018SOL    HW218954   3.688   2.713   0.145
 6019SOL     OW18955   4.873   1.871   4.114
 6019SOL    HW118956   4.849   1.962   4.148
 6019SOL    HW218957   4.820   1.851   4.032
 6020SOL     OW18958   1.565   6.345   2.476
 6020SOL    HW118959   1.605   6.258   2.448
 6020SOL    HW218960   1.525   6.390   2.397
 6021SOL     OW18961   4.138   7.005   2.440
 6021SOL    HW118962   4.235   0.004   2.438
 6021SOL    HW218963   4.107   7.000   2.536
 6022SOL     OW18964   4.321   0.624   4.796
 6022SOL    HW118965   4.300   0.611   4.699
 6022SOL    HW218966   4.241   0.662   4.843
 6023SOL     OW18967   6.026   1.677   2.839
 6023SOL    HW118968   5.936   1.719   2.844
 6023SOL    HW218969   6.088   1.722   2.903
 6024SOL     OW18970   0.533   4.580   2.883
 6024SOL    HW118971   0.459   4.645   2.901
 6024SOL    HW218972   0.498   4.506   2.826
 6025SOL     OW18973   4.097   0.449   2.385
 6025SOL    HW118974   4.027   0.485   2.447
 6025SOL    HW218975   4.061   0.368   2.338
 6026SOL     OW18976   0.296   4.413   4.296
 6026SOL    HW118977   0.382   4.386   4.340
 6026SOL    HW218978   0.299   4.389   4.199
 6027SOL     OW18979   2.050   4.061   5.327
 6027SOL    HW118980   2.122   4.113   5.373
 6027SOL    HW218981   2.049   4.085   5.230
 6028SOL     OW18982   1.112   3.896   0.122
 6028SOL    HW118983   1.045   3.824   0.141
 6028SOL    HW218984   1.064   3.980   0.095
 6029SOL     OW18985   2.296   6.528   6.495
 6029SOL    HW118986   2.316   6.483   6.408
 6029SOL    HW218987   2.254   6.463   6.558
 6030SOL     OW18988   2.556   0.038   3.433
 6030SOL    HW118989   2.471   0.089   3.422
 6030SOL    HW218990   2.631   0.101   3.451
 6031SOL     OW18991   4.313   5.418   4.468
 6031SOL    HW118992   4.265   5.330   4.470
 6031SOL    HW218993   4.353   5.432   4.378
 6032SOL     OW18994   1.928   3.490   2.502
 6032SOL    HW118995   1.852   3.485   2.437
 6032SOL    HW218996   1.985   3.569   2.481
 6033SOL     OW18997   2.326   2.710   2.891
 6033SOL    HW118998   2.418   2.671   2.898
 6033SOL    HW218999   2.263   2.642   2.853
 6034SOL     OW19000   2.254   5.497   4.496
 6034SOL    HW119001   2.292   5.415   4.452
 6034SOL    HW219002   2.226   5.563   4.426
 6035SOL     OW19003   6.419   1.616   3.992
 6035SOL    HW119004   6.502   1.662   4.023
 6035SOL    HW219005   6.392   1.546   4.058
 6036SOL     OW19006   0.182   6.589   4.100
 6036SOL    HW119007   0.154   6.663   4.162
 6036SOL    HW219008   0.200   6.507   4.152
 6037SOL     OW19009   4.727   5.193   6.039
 6037SOL    HW119010   4.655   5.258   6.014
 6037SOL    HW219011   4.712   5.160   6.132
 6038SOL     OW19012   1.068   3.327   6.209
 6038SOL    HW119013   1.138   3.396   6.229
 6038SOL    HW219014   1.106   3.259   6.146
 6039SOL     OW19015   3.266   2.899   3.240
 6039SOL    HW119016   3.365   2.890   3.252
 6039SOL    HW219017   3.225   2.933   3.325
 6040SOL     OW19018   0.563   1.996   6.146
 6040SOL    HW119019   0.612   2.067   6.095
 6040SOL    HW219020   0.495   2.039   6.206
 6041SOL     OW19021   1.909   1.381   6.187
 6041SOL    HW119022   1.993   1.360   6.238
 6041SOL    HW219023   1.910   1.476   6.159
 6042SOL     OW19024   5.716   5.370   1.818
 6042SOL    HW119025   5.704   5.388   1.916
 6042SOL    HW219026   5.813   5.370   1.795
 6043SOL     OW19027   1.197   5.322   5.015
 6043SOL    HW119028   1.110   5.299   5.059
 6043SOL    HW219029   1.184   5.328   4.916
 6044SOL     OW19030   0.823   1.858   1.100
 6044SOL    HW119031   0.776   1.907   1.173
 6044SOL    HW219032   0.756   1.809   1.044
 6045SOL     OW19033   5.938   5.525   1.060
 6045SOL    HW119034   5.871   5.573   1.116
 6045SOL    HW219035   5.894   5.488   0.979
 6046SOL     OW19036   2.564   2.286   0.757
 6046SOL    HW119037   2.630   2.295   0.683
 6046SOL    HW219038   2.478   2.330   0.730
 6047SOL     OW19039   6.278   1.741   3.337
 6047SOL    HW119040   6.275   1.644   3.316
 6047SOL    HW219041   6.239   1.758   3.427
 6048SOL     OW19042   4.547   6.651   3.320
 6048SOL    HW119043   4.501   6.562   3.320
 6048SOL    HW219044   4.507   6.709   3.249
 6049SOL     OW19045   5.313   3.722   6.499
 6049SOL    HW119046   5.252   3.787   6.543
 6049SOL    HW219047   5.259   3.657   6.445
 6050SOL     OW19048   3.946   3.644   5.871
 6050SOL    HW119049   3.928   3.636   5.773
 6050SOL    HW219050   3.974   3.738   5.892
 6051SOL     OW19051   2.505   2.071   3.395
 6051SOL    HW119052   2.468   2.019   3.318
 6051SOL    HW219053   2.442   2.145   3.419
 6052SOL     OW19054   6.708   6.524   0.320
 6052SOL    HW119055   6.670   6.457   0.385
 6052SOL    HW219056   6.791   6.486   0.280
 6053SOL     OW19057   3.873   0.375   6.487
 6053SOL    HW119058   3.803   0.304   6.478
 6053SOL    HW219059   3.954   0.337   6.533
 6054SOL     OW19060   2.061   4.199   0.689
 6054SOL    HW119061   2.116   4.203   0.773
 6054SOL    HW219062   2.106   4.138   0.624
 6055SOL     OW19063   6.062   0.873   6.208
 6055SOL    HW119064   5.972   0.915   6.201
 6055SOL    HW219065   6.131   0.944   6.223
 6056SOL     OW19066   5.092   2.384   4.792
 6056SOL    HW119067   5.125   2.326   4.717
 6056SOL    HW219068   5.046   2.327   4.860
 6057SOL     OW19069   4.826   2.224   4.526
 6057SOL    HW119070   4.757   2.196   4.458
 6057SOL    HW219071   4.781   2.239   4.614
 6058SOL     OW19072   5.404   2.386   2.822
 6058SOL    HW119073   5.457   2.390   2.736
 6058SOL    HW219074   5.452   2.439   2.892
 6059SOL     OW19075   4.619   4.906   5.721
 6059SOL    HW119076   4.698   4.933   5.777
 6059SOL    HW219077   4.646   4.905   5.624
 6060SOL     OW19078   3.188   3.782   5.438
 6060SOL    HW119079   3.099   3.815   5.468
 6060SOL    HW219080   3.252   3.859   5.435
 6061SOL     OW19081   3.845   2.638   0.608
 6061SOL    HW119082   3.899   2.581   0.546
 6061SOL    HW219083   3.905   2.684   0.672
 6062SOL     OW19084   2.435   1.369   4.683
 6062SOL    HW119085   2.421   1.329   4.593
 6062SOL    HW219086   2.377   1.322   4.750
 6063SOL     OW19087   4.194   1.881   6.457
 6063SOL    HW119088   4.200   1.839   6.547
 6063SOL    HW219089   4.103   1.863   6.419
 6064SOL     OW19090   2.481   5.565   2.996
 6064SOL    HW119091   2.571   5.593   3.030
 6064SOL    HW219092   2.471   5.466   3.004
 6065SOL     OW19093   5.944   6.884   1.764
 6065SOL    HW119094   5.996   6.852   1.844
 6065SOL    HW219095   5.989   6.852   1.680
 6066SOL     OW19096   4.126   1.334   0.563
 6066SOL    HW119097   4.152   1.256   0.505
 6066SOL    HW219098   4.118   1.416   0.507
 6067SOL     OW19099   6.087   1.812   6.562
 6067SOL    HW119100   6.120   1.878   6.629
 6067SOL    HW219101   5.991   1.831   6.542
 6068SOL     OW19102   5.991   3.488   4.606
 6068SOL    HW119103   6.009   3.397   4.570
 6068SOL    HW219104   5.906   3.524   4.566
 6069SOL     OW19105   0.382   3.388   5.645
 6069SOL    HW119106   0.401   3.307   5.699
 6069SOL    HW219107   0.335   3.456   5.703
 6070SOL     OW19108   2.963   1.588   5.839
 6070SOL    HW119109   2.919   1.643   5.768
 6070SOL    HW219110   3.061   1.606   5.838
 6071SOL     OW19111   4.697   5.852   5.510
 6071SOL    HW119112   4.599   5.867   5.497
 6071SOL    HW219113   4.720   5.858   5.607
 6072SOL     OW19114   0.786   1.112   2.287
 6072SOL    HW119115   0.821   1.167   2.211
 6072SOL    HW219116   0.695   1.144   2.311
 6073SOL     OW19117   6.420   3.745   0.340
 6073SOL    HW119118   6.399   3.652   0.311
 6073SOL    HW219119   6.485   3.743   0.416
 6074SOL     OW19120   1.167   6.691   4.518
 6074SOL    HW119121   1.068   6.688   4.503
 6074SOL    HW219122   1.205   6.772   4.473
 6075SOL     OW19123   6.897   2.316   6.307
 6075SOL    HW119124   6.897   2.220   6.278
 6075SOL    HW219125   6.991   2.351   6.306
 6076SOL     OW19126   2.462   6.901   5.160
 6076SOL    HW119127   2.471   6.863   5.068
 6076SOL    HW219128   2.543   6.877   5.213
 6077SOL     OW19129   4.899   5.659   2.316
 6077SOL    HW119130   4.983   5.613   2.288
 6077SOL    HW219131   4.872   5.626   2.407
 6078SOL     OW19132   3.877   4.851   2.319
 6078SOL    HW119133   3.890   4.851   2.418
 6078SOL    HW219134   3.963   4.826   2.274
 6079SOL     OW19135   2.904   3.487   6.216
 6079SOL    HW119136   2.919   3.422   6.291
 6079SOL    HW219137   2.828   3.454   6.159
 6080SOL     OW19138   0.210   1.657   1.734
 6080SOL    HW119139   0.219   1.732   1.799
 6080SOL    HW219140   0.156   1.583   1.776
 6081SOL     OW19141   6.926   3.663   4.459
 6081SOL    HW119142   6.967   3.754   4.463
 6081SOL    HW219143   6.833   3.666   4.495
 6082SOL     OW19144   3.823   0.986   3.267
 6082SOL    HW119145   3.773   1.060   3.311
 6082SOL    HW219146   3.909   0.970   3.315
 6083SOL     OW19147   1.148   5.495   6.169
 6083SOL    HW119148   1.138   5.563   6.096
 6083SOL    HW219149   1.245   5.481   6.190
 6084SOL     OW19150   7.010   5.476   3.923
 6084SOL    HW119151   6.980   5.415   3.997
 6084SOL    HW219152   6.950   5.556   3.921
 6085SOL     OW19153   0.017   4.109   0.241
 6085SOL    HW119154   7.008   4.037   0.179
 6085SOL    HW219155   0.005   4.198   0.196
 6086SOL     OW19156   3.286   1.405   5.131
 6086SOL    HW119157   3.327   1.333   5.074
 6086SOL    HW219158   3.320   1.494   5.102
 6087SOL     OW19159   5.110   6.715   0.296
 6087SOL    HW119160   5.171   6.767   0.357
 6087SOL    HW219161   5.016   6.727   0.327
 6088SOL     OW19162   0.037   6.383   4.268
 6088SOL    HW119163   0.135   6.400   4.274
 6088SOL    HW219164   7.020   6.437   4.193
 6089SOL     OW19165   0.071   4.085   1.435
 6089SOL    HW119166   0.020   4.158   1.390
 6089SOL    HW219167   0.166   4.087   1.405
 6090SOL     OW19168   1.119   6.261   6.222
 6090SOL    HW119169   1.167   6.227   6.141
 6090SOL    HW219170   1.024   6.283   6.198
 6091SOL     OW19171   1.091   1.622   2.279
 6091SOL    HW119172   1.002   1.616   2.233
 6091SOL    HW219173   1.085   1.578   2.369
 6092SOL     OW19174   2.858   0.518   3.310
 6092SOL    HW119175   2.797   0.497   3.387
 6092SOL    HW219176   2.949   0.539   3.344
 6093SOL     OW19177   1.454   2.483   2.654
 6093SOL    HW119178   1.528   2.549   2.658
 6093SOL    HW219179   1.384   2.515   2.589
 6094SOL     OW19180   2.507   1.045   0.940
 6094SOL    HW119181   2.553   0.957   0.946
 6094SOL    HW219182   2.437   1.050   1.012
 6095SOL     OW19183   4.731   2.420   6.927
 6095SOL    HW119184   4.754   2.514   6.953
 6095SOL    HW219185   4.762   2.357   6.998
 6096SOL     OW19186   5.967   0.897   4.151
 6096SOL    HW119187   5.878   0.865   4.185
 6096SOL    HW219188   5.955   0.931   4.057
 6097SOL     OW19189   1.815   0.054   2.839
 6097SOL    HW119190   1.888   7.021   2.795
 6097SOL    HW219191   1.750   0.083   2.769
 6098SOL     OW19192   1.729   2.116   5.455
 6098SOL    HW119193   1.749   2.198   5.508
 6098SOL    HW219194   1.695   2.045   5.516
 6099SOL     OW19195   5.524   5.971   5.764
 6099SOL    HW119196   5.586   5.963   5.686
 6099SOL    HW219197   5.482   5.882   5.783
 6100SOL     OW19198   5.842   3.149   6.366
 6100SOL    HW119199   5.827   3.082   6.438
 6100SOL    HW219200   5.940   3.165   6.355
 6101SOL     OW19201   6.567   1.846   5.713
 6101SOL    HW119202   6.474   1.876   5.734
 6101SOL    HW219203   6.565   1.765   5.655
 6102SOL     OW19204   3.884   0.951   4.393
 6102SOL    HW119205   3.847   1.031   4.345
 6102SOL    HW219206   3.954   0.980   4.458
 6103SOL     OW19207   6.905   0.989   3.925
 6103SOL    HW119208   6.813   0.950   3.926
 6103SOL    HW219209   6.972   0.915   3.933
 6104SOL     OW19210   6.599   1.716   6.487
 6104SOL    HW119211   6.617   1.732   6.390
 6104SOL    HW219212   6.681   1.737   6.540
 6105SOL     OW19213   3.342   6.332   5.772
 6105SOL    HW119214   3.372   6.236   5.778
 6105SOL    HW219215   3.422   6.392   5.774
 6106SOL     OW19216   2.083   4.789   6.460
 6106SOL    HW119217   2.131   4.796   6.373
 6106SOL    HW219218   1.984   4.782   6.442
 6107SOL     OW19219   2.683   5.474   4.425
 6107SOL    HW119220   2.647   5.385   4.454
 6107SOL    HW219221   2.661   5.543   4.493
 6108SOL     OW19222   0.577   2.115   3.003
 6108SOL    HW119223   0.588   2.214   2.993
 6108SOL    HW219224   0.561   2.093   3.100
 6109SOL     OW19225   4.961   2.825   0.034
 6109SOL    HW119226   4.934   2.891   6.985
 6109SOL    HW219227   4.957   2.869   0.124
 6110SOL     OW19228   2.814   2.770   6.869
 6110SOL    HW119229   2.735   2.825   6.842
 6110SOL    HW219230   2.783   2.682   6.906
 6111SOL     OW19231   1.416   4.919   2.594
 6111SOL    HW119232   1.388   4.905   2.499
 6111SOL    HW219233   1.489   4.854   2.617
 6112SOL     OW19234   2.505   2.227   3.110
 6112SOL    HW119235   2.410   2.248   3.086
 6112SOL    HW219236   2.537   2.291   3.180
 6113SOL     OW19237   0.268   1.072   6.367
 6113SOL    HW119238   0.173   1.042   6.356
 6113SOL    HW219239   0.320   1.001   6.415
 6114SOL     OW19240   5.002   5.384   1.144
 6114SOL    HW119241   4.920   5.442   1.148
 6114SOL    HW219242   5.082   5.441   1.127
 6115SOL     OW19243   5.209   5.641   3.166
 6115SOL    HW119244   5.242   5.585   3.090
 6115SOL    HW219245   5.274   5.636   3.242
 6116SOL     OW19246   2.645   1.330   1.428
 6116SOL    HW119247   2.723   1.316   1.489
 6116SOL    HW219248   2.572   1.376   1.477
 6117SOL     OW19249   0.084   0.052   5.226
 6117SOL    HW119250   0.094   0.029   5.130
 6117SOL    HW219251   0.130   7.005   5.282
 6118SOL     OW19252   0.138   1.810   1.422
 6118SOL    HW119253   0.170   1.772   1.509
 6118SOL    HW219254   0.208   1.794   1.352
 6119SOL     OW19255   0.109   4.508   4.535
 6119SOL    HW119256   0.089   4.526   4.439
 6119SOL    HW219257   0.204   4.478   4.545
 6120SOL     OW19258   3.100   6.937   3.689
 6120SOL    HW119259   3.087   0.001   3.738
 6120SOL    HW219260   3.026   6.873   3.712
 6121SOL     OW19261   6.497   2.778   5.077
 6121SOL    HW119262   6.480   2.800   5.173
 6121SOL    HW219263   6.501   2.863   5.024
 6122SOL     OW19264   3.417   6.613   1.923
 6122SOL    HW119265   3.420   6.514   1.940
 6122SOL    HW219266   3.436   6.631   1.826
 6123SOL     OW19267   6.799   0.799   1.357
 6123SOL    HW119268   6.801   0.740   1.277
 6123SOL    HW219269   6.823   0.892   1.331
 6124SOL     OW19270   3.144   6.727   5.098
 6124SOL    HW119271   3.190   6.713   5.011
 6124SOL    HW219272   3.170   6.816   5.136
 6125SOL     OW19273   2.402   5.592   1.554
 6125SOL    HW119274   2.312   5.558   1.528
 6125SOL    HW219275   2.421   5.678   1.508
 6126SOL     OW19276   5.044   6.029   3.900
 6126SOL    HW119277   5.111   6.035   3.974
 6126SOL    HW219278   5.030   6.120   3.860
 6127SOL     OW19279   2.550   6.769   1.343
 6127SOL    HW119280   2.455   6.742   1.355
 6127SOL    HW219281   2.570   6.777   1.246
 6128SOL     OW19282   6.524   3.147   0.452
 6128SOL    HW119283   6.521   3.183   0.359
 6128SOL    HW219284   6.507   3.048   0.450
 6129SOL     OW19285   6.484   4.049   3.245
 6129SOL    HW119286   6.533   4.070   3.161
 6129SOL    HW219287   6.549   4.043   3.321
 6130SOL     OW19288   6.640   3.032   4.922
 6130SOL    HW119289   6.682   3.112   4.878
 6130SOL    HW219290   6.691   2.950   4.896
 6131SOL     OW19291   0.077   1.689   5.347
 6131SOL    HW119292   7.000   1.703   5.333
 6131SOL    HW219293   0.095   1.681   5.445
 6132SOL     OW19294   3.715   0.684   0.902
 6132SOL    HW119295   3.684   0.779   0.896
 6132SOL    HW219296   3.652   0.632   0.960
 6133SOL     OW19297   0.445   2.549   2.960
 6133SOL    HW119298   0.448   2.632   3.015
 6133SOL    HW219299   0.355   2.541   2.917
 6134SOL     OW19300   4.407   3.155   6.439
 6134SOL    HW119301   4.380   3.249   6.420
 6134SOL    HW219302   4.379   3.096   6.364
 6135SOL     OW19303   5.821   0.152   2.197
 6135SOL    HW119304   5.800   0.198   2.111
 6135SOL    HW219305   5.903   0.193   2.237
 6136SOL     OW19306   0.784   1.541   2.715
 6136SOL    HW119307   0.808   1.637   2.732
 6136SOL    HW219308   0.865   1.493   2.680
 6137SOL     OW19309   4.113   1.043   5.582
 6137SOL    HW119310   4.185   1.079   5.640
 6137SOL    HW219311   4.053   0.983   5.635
 6138SOL     OW19312   3.534   6.684   2.398
 6138SOL    HW119313   3.529   6.690   2.298
 6138SOL    HW219314   3.628   6.664   2.426
 6139SOL     OW19315   2.170   3.247   4.674
 6139SOL    HW119316   2.233   3.315   4.711
 6139SOL    HW219317   2.167   3.167   4.734
 6140SOL     OW19318   0.395   6.569   1.738
 6140SOL    HW119319   0.375   6.657   1.780
 6140SOL    HW219320   0.416   6.582   1.641
 6141SOL     OW19321   5.945   5.996   4.977
 6141SOL    HW119322   5.907   6.045   4.898
 6141SOL    HW219323   5.921   5.899   4.971
 6142SOL     OW19324   6.966   5.049   0.558
 6142SOL    HW119325   6.884   4.991   0.552
 6142SOL    HW219326   6.971   5.108   0.478
 6143SOL     OW19327   5.618   4.289   6.863
 6143SOL    HW119328   5.610   4.207   6.920
 6143SOL    HW219329   5.624   4.370   6.922
 6144SOL     OW19330   6.415   4.884   2.284
 6144SOL    HW119331   6.428   4.793   2.322
 6144SOL    HW219332   6.447   4.953   2.349
 6145SOL     OW19333   4.787   6.157   3.738
 6145SOL    HW119334   4.873   6.207   3.723
 6145SOL    HW219335   4.721   6.182   3.667
 6146SOL     OW19336   4.494   0.907   3.451
 6146SOL    HW119337   4.410   0.869   3.413
 6146SOL    HW219338   4.505   0.874   3.545
 6147SOL     OW19339   1.675   4.787   3.312
 6147SOL    HW119340   1.709   4.775   3.405
 6147SOL    HW219341   1.748   4.825   3.255
 6148SOL     OW19342   7.021   0.039   4.219
 6148SOL    HW119343   6.930   0.020   4.254
 6148SOL    HW219344   7.018   0.121   4.161
 6149SOL     OW19345   3.644   5.188   2.861
 6149SOL    HW119346   3.653   5.095   2.897
 6149SOL    HW219347   3.581   5.187   2.783
 6150SOL     OW19348   4.273   4.977   6.693
 6150SOL    HW119349   4.289   5.014   6.785
 6150SOL    HW219350   4.361   4.956   6.650
 6151SOL     OW19351   6.685   3.756   4.532
 6151SOL    HW119352   6.632   3.776   4.614
 6151SOL    HW219353   6.712   3.842   4.489
 6152SOL     OW19354   4.864   4.441   5.715
 6152SOL    HW119355   4.847   4.474   5.622
 6152SOL    HW219356   4.901   4.516   5.771
 6153SOL     OW19357   4.666   3.852   1.772
 6153SOL    HW119358   4.672   3.763   1.728
 6153SOL    HW219359   4.581   3.897   1.745
 6154SOL     OW19360   5.195   1.363   1.926
 6154SOL    HW119361   5.103   1.352   1.963
 6154SOL    HW219362   5.225   1.457   1.938
 6155SOL     OW19363   1.397   3.003   3.917
 6155SOL    HW119364   1.455   2.997   3.836
 6155SOL    HW219365   1.455   3.009   3.999
 6156SOL     OW19366   4.942   5.262   2.416
 6156SOL    HW119367   4.856   5.289   2.373
 6156SOL    HW219368   4.938   5.284   2.514
 6157SOL     OW19369   1.147   2.033   3.640
 6157SOL    HW119370   1.207   2.113   3.647
 6157SOL    HW219371   1.174   1.978   3.560
 6158SOL     OW19372   4.915   0.737   6.681
 6158SOL    HW119373   5.007   0.772   6.663
 6158SOL    HW219374   4.915   0.637   6.680
 6159SOL     OW19375   4.813   1.235   6.983
 6159SOL    HW119376   4.775   1.317   6.940
 6159SOL    HW219377   4.850   1.258   0.051
 6160SOL     OW19378   5.930   5.893   0.624
 6160SOL    HW119379   5.892   5.845   0.703
 6160SOL    HW219380   5.939   5.991   0.646
 6161SOL     OW19381   5.889   2.352   6.306
 6161SOL    HW119382   5.845   2.267   6.277
 6161SOL    HW219383   5.915   2.405   6.226
 6162SOL     OW19384   1.105   5.370   4.721
 6162SOL    HW119385   1.132   5.288   4.669
 6162SOL    HW219386   1.122   5.451   4.666
 6163SOL     OW19387   5.756   5.470   0.818
 6163SOL    HW119388   5.659   5.485   0.840
 6163SOL    HW219389   5.764   5.440   0.723
 6164SOL     OW19390   1.743   2.972   1.668
 6164SOL    HW119391   1.770   2.881   1.699
 6164SOL    HW219392   1.825   3.024   1.643
 6165SOL     OW19393   3.949   6.025   0.026
 6165SOL    HW119394   3.951   5.959   6.973
 6165SOL    HW219395   3.854   6.046   0.048
 6166SOL     OW19396   3.518   1.107   5.323
 6166SOL    HW119397   3.571   1.112   5.407
 6166SOL    HW219398   3.437   1.165   5.331
 6167SOL     OW19399   0.644   4.948   2.246
 6167SOL    HW119400   0.614   4.947   2.150
 6167SOL    HW219401   0.603   4.870   2.294
 6168SOL     OW19402   0.320   3.805   0.767
 6168SOL    HW119403   0.299   3.885   0.823
 6168SOL    HW219404   0.263   3.728   0.795
 6169SOL     OW19405   1.386   3.086   1.889
 6169SOL    HW119406   1.315   3.138   1.841
 6169SOL    HW219407   1.445   3.149   1.939
 6170SOL     OW19408   0.419   2.996   5.177
 6170SOL    HW119409   0.445   2.904   5.150
 6170SOL    HW219410   0.430   3.006   5.276
 6171SOL     OW19411   0.062   1.465   0.554
 6171SOL    HW119412   7.011   1.396   0.552
 6171SOL    HW219413   0.150   1.420   0.570
 6172SOL     OW19414   0.569   2.556   2.721
 6172SOL    HW119415   0.533   2.554   2.814
 6172SOL    HW219416   0.665   2.527   2.722
 6173SOL     OW19417   6.529   5.662   3.059
 6173SOL    HW119418   6.601   5.682   2.993
 6173SOL    HW219419   6.548   5.709   3.145
 6174SOL     OW19420   4.567   4.990   3.378
 6174SOL    HW119421   4.575   4.893   3.399
 6174SOL    HW219422   4.644   5.040   3.419
 6175SOL     OW19423   3.304   0.737   4.821
 6175SOL    HW119424   3.388   0.734   4.768
 6175SOL    HW219425   3.237   0.673   4.781
 6176SOL     OW19426   4.574   3.454   5.382
 6176SOL    HW119427   4.642   3.494   5.321
 6176SOL    HW219428   4.539   3.369   5.342
 6177SOL     OW19429   5.030   2.074   1.935
 6177SOL    HW119430   5.056   2.156   1.883
 6177SOL    HW219431   5.111   2.035   1.979
 6178SOL     OW19432   4.803   3.890   2.023
 6178SOL    HW119433   4.752   3.900   1.938
 6178SOL    HW219434   4.819   3.793   2.041
 6179SOL     OW19435   6.698   4.454   1.538
 6179SOL    HW119436   6.701   4.533   1.477
 6179SOL    HW219437   6.760   4.469   1.615
 6180SOL     OW19438   3.363   4.730   0.717
 6180SOL    HW119439   3.439   4.762   0.773
 6180SOL    HW219440   3.298   4.680   0.775
 6181SOL     OW19441   4.953   5.565   6.187
 6181SOL    HW119442   5.029   5.537   6.127
 6181SOL    HW219443   4.961   5.663   6.207
 6182SOL     OW19444   4.243   2.275   0.124
 6182SOL    HW119445   4.315   2.345   0.116
 6182SOL    HW219446   4.275   2.190   0.082
 6183SOL     OW19447   1.702   1.993   1.583
 6183SOL    HW119448   1.711   2.068   1.519
 6183SOL    HW219449   1.781   1.932   1.575
 6184SOL     OW19450   2.866   0.453   6.526
 6184SOL    HW119451   2.946   0.426   6.579
 6184SOL    HW219452   2.795   0.384   6.535
 6185SOL     OW19453   2.839   4.071   5.799
 6185SOL    HW119454   2.931   4.033   5.785
 6185SOL    HW219455   2.776   3.996   5.819
 6186SOL     OW19456   6.916   2.024   2.010
 6186SOL    HW119457   6.840   2.059   1.955
 6186SOL    HW219458   6.902   2.047   2.106
 6187SOL     OW19459   4.690   2.836   4.918
 6187SOL    HW119460   4.729   2.928   4.913
 6187SOL    HW219461   4.695   2.792   4.828
 6188SOL     OW19462   1.484   1.541   5.226
 6188SOL    HW119463   1.491   1.619   5.163
 6188SOL    HW219464   1.575   1.510   5.250
 6189SOL     OW19465   3.998   5.592   2.332
 6189SOL    HW119466   3.963   5.542   2.411
 6189SOL    HW219467   4.053   5.670   2.363
 6190SOL     OW19468   6.276   3.964   5.893
 6190SOL    HW119469   6.282   3.897   5.820
 6190SOL    HW219470   6.181   3.993   5.905
 6191SOL     OW19471   2.320   2.921   5.573
 6191SOL    HW119472   2.383   2.994   5.599
 6191SOL    HW219473   2.267   2.892   5.653
 6192SOL     OW19474   2.189   1.830   6.224
 6192SOL    HW119475   2.269   1.823   6.284
 6192SOL    HW219476   2.155   1.738   6.202
 6193SOL     OW19477   5.028   5.351   0.733
 6193SOL    HW119478   5.040   5.256   0.704
 6193SOL    HW219479   5.064   5.412   0.662
 6194SOL     OW19480   6.725   0.688   6.549
 6194SOL    HW119481   6.731   0.788   6.543
 6194SOL    HW219482   6.630   0.660   6.559
 6195SOL     OW19483   5.423   6.848   4.802
 6195SOL    HW119484   5.457   6.907   4.729
 6195SOL    HW219485   5.417   6.754   4.769
 6196SOL     OW19486   5.744   4.652   3.119
 6196SOL    HW119487   5.798   4.637   3.202
 6196SOL    HW219488   5.659   4.700   3.142
 6197SOL     OW19489   2.322   5.249   2.793
 6197SOL    HW119490   2.252   5.189   2.754
 6197SOL    HW219491   2.298   5.345   2.776
 6198SOL     OW19492   5.770   6.264   6.318
 6198SOL    HW119493   5.847   6.316   6.280
 6198SOL    HW219494   5.747   6.301   6.409
 6199SOL     OW19495   0.438   0.731   0.562
 6199SOL    HW119496   0.353   0.748   0.611
 6199SOL    HW219497   0.419   0.710   0.467
 6200SOL     OW19498   1.209   1.058   2.618
 6200SOL    HW119499   1.246   1.144   2.653
 6200SOL    HW219500   1.120   1.075   2.576
 6201SOL     OW19501   0.709   4.592   4.290
 6201SOL    HW119502   0.779   4.589   4.218
 6201SOL    HW219503   0.709   4.682   4.333
 6202SOL     OW19504   6.150   1.725   3.106
 6202SOL    HW119505   6.212   1.732   3.184
 6202SOL    HW219506   6.163   1.804   3.046
 6203SOL     OW19507   6.169   5.411   1.967
 6203SOL    HW119508   6.213   5.346   1.906
 6203SOL    HW219509   6.207   5.403   2.059
 6204SOL     OW19510   1.071   5.952   4.688
 6204SOL    HW119511   1.156   5.999   4.664
 6204SOL    HW219512   1.086   5.895   4.769
 6205SOL     OW19513   4.782   5.057   2.179
 6205SOL    HW119514   4.843   5.008   2.240
 6205SOL    HW219515   4.827   5.072   2.091
 6206SOL     OW19516   4.534   1.853   3.592
 6206SOL    HW119517   4.559   1.942   3.554
 6206SOL    HW219518   4.618   1.803   3.614
 6207SOL     OW19519   1.767   6.281   4.141
 6207SOL    HW119520   1.699   6.211   4.161
 6207SOL    HW219521   1.799   6.270   4.047
 6208SOL     OW19522   3.602   2.379   6.193
 6208SOL    HW119523   3.660   2.359   6.271
 6208SOL    HW219524   3.616   2.311   6.122
 6209SOL     OW19525   3.321   4.160   0.957
 6209SOL    HW119526   3.274   4.136   0.872
 6209SOL    HW219527   3.254   4.187   1.026
 6210SOL     OW19528   5.113   3.716   3.102
 6210SOL    HW119529   5.076   3.735   3.011
 6210SOL    HW219530   5.096   3.620   3.126
 6211SOL     OW19531   4.464   5.376   5.821
 6211SOL    HW119532   4.480   5.426   5.736
 6211SOL    HW219533   4.482   5.279   5.807
 6212SOL     OW19534   2.679   4.667   4.436
 6212SOL    HW119535   2.621   4.606   4.382
 6212SOL    HW219536   2.645   4.670   4.530
 6213SOL     OW19537   4.971   6.539   0.547
 6213SOL    HW119538   5.070   6.544   0.540
 6213SOL    HW219539   4.930   6.608   0.487
 6214SOL     OW19540   5.413   5.354   5.688
 6214SOL    HW119541   5.333   5.322   5.739
 6214SOL    HW219542   5.400   5.334   5.591
 6215SOL     OW19543   5.135   3.117   6.311
 6215SOL    HW119544   5.136   3.075   6.401
 6215SOL    HW219545   5.067   3.072   6.253
 6216SOL     OW19546   6.106   2.926   3.231
 6216SOL    HW119547   6.177   2.947   3.298
 6216SOL    HW219548   6.147   2.895   3.146
 6217SOL     OW19549   0.452   4.508   2.053
 6217SOL    HW119550   0.368   4.491   2.001
 6217SOL    HW219551   0.429   4.545   2.142
 6218SOL     OW19552   4.924   5.863   0.320
 6218SOL    HW119553   4.872   5.922   0.382
 6218SOL    HW219554   4.894   5.768   0.331
 6219SOL     OW19555   1.834   0.855   5.467
 6219SOL    HW119556   1.811   0.904   5.383
 6219SOL    HW219557   1.869   0.920   5.535
 6220SOL     OW19558   3.520   0.549   0.167
 6220SOL    HW119559   3.488   0.509   0.081
 6220SOL    HW219560   3.480   0.639   0.180
 6221SOL     OW19561   6.548   6.120   6.319
 6221SOL    HW119562   6.632   6.069   6.336
 6221SOL    HW219563   6.568   6.198   6.260
 6222SOL     OW19564   5.706   1.337   2.165
 6222SOL    HW119565   5.803   1.316   2.171
 6222SOL    HW219566   5.675   1.328   2.071
 6223SOL     OW19567   0.675   5.436   4.119
 6223SOL    HW119568   0.649   5.453   4.214
 6223SOL    HW219569   0.694   5.524   4.074
 6224SOL     OW19570   4.257   0.989   6.214
 6224SOL    HW119571   4.329   0.957   6.276
 6224SOL    HW219572   4.280   0.962   6.120
 6225SOL     OW19573   3.888   1.360   6.428
 6225SOL    HW119574   3.964   1.387   6.369
 6225SOL    HW219575   3.802   1.367   6.377
 6226SOL     OW19576   1.482   1.448   3.648
 6226SOL    HW119577   1.570   1.484   3.618
 6226SOL    HW219578   1.422   1.524   3.673
 6227SOL     OW19579   3.168   4.498   5.291
 6227SOL    HW119580   3.089   4.495   5.230
 6227SOL    HW219581   3.243   4.546   5.247
 6228SOL     OW19582   1.299   2.749   3.893
 6228SOL    HW119583   1.301   2.844   3.925
 6228SOL    HW219584   1.351   2.742   3.808
 6229SOL     OW19585   6.987   3.528   4.714
 6229SOL    HW119586   6.947   3.586   4.642
 6229SOL    HW219587   0.062   3.511   4.694
 6230SOL     OW19588   0.197   1.658   2.990
 6230SOL    HW119589   0.160   1.748   2.965
 6230SOL    HW219590   0.174   1.592   2.919
 6231SOL     OW19591   5.469   4.229   0.185
 6231SOL    HW119592   5.457   4.163   0.259
 6231SOL    HW219593   5.517   4.186   0.108
 6232SOL     OW19594   5.993   0.637   0.586
 6232SOL    HW119595   5.930   0.581   0.531
 6232SOL    HW219596   6.065   0.674   0.527
 6233SOL     OW19597   0.286   3.471   1.824
 6233SOL    HW119598   0.346   3.408   1.775
 6233SOL    HW219599   0.340   3.528   1.885
 6234SOL     OW19600   0.229   0.055   4.371
 6234SOL    HW119601   0.145   0.038   4.320
 6234SOL    HW219602   0.239   0.154   4.385
 6235SOL     OW19603   0.005   0.554   1.969
 6235SOL    HW119604   0.049   0.551   2.059
 6235SOL    HW219605   6.947   0.615   1.973
 6236SOL     OW19606   0.625   3.703   0.492
 6236SOL    HW119607   0.568   3.631   0.452
 6236SOL    HW219608   0.613   3.787   0.439
 6237SOL     OW19609   3.853   6.691   0.622
 6237SOL    HW119610   3.807   6.775   0.651
 6237SOL    HW219611   3.852   6.625   0.696
 6238SOL     OW19612   3.157   6.189   3.383
 6238SOL    HW119613   3.101   6.258   3.428
 6238SOL    HW219614   3.099   6.117   3.346
 6239SOL     OW19615   3.601   0.013   2.168
 6239SOL    HW119616   3.584   0.019   2.267
 6239SOL    HW219617   3.648   0.095   2.137
 6240SOL     OW19618   3.039   3.967   5.077
 6240SOL    HW119619   3.013   3.877   5.042
 6240SOL    HW219620   3.100   4.012   5.012
 6241SOL     OW19621   3.832   0.039   3.727
 6241SOL    HW119622   3.763   0.094   3.680
 6241SOL    HW219623   3.834   0.063   3.824
 6242SOL     OW19624   2.309   2.064   2.765
 6242SOL    HW119625   2.387   2.079   2.704
 6242SOL    HW219626   2.326   1.983   2.821
 6243SOL     OW19627   6.482   0.672   5.917
 6243SOL    HW119628   6.490   0.574   5.896
 6243SOL    HW219629   6.455   0.683   6.013
 6244SOL     OW19630   4.670   4.236   2.701
 6244SOL    HW119631   4.585   4.211   2.654
 6244SOL    HW219632   4.743   4.173   2.673
 6245SOL     OW19633   0.786   4.685   2.436
 6245SOL    HW119634   0.694   4.694   2.398
 6245SOL    HW219635   0.852   4.728   2.374
 6246SOL     OW19636   1.481   6.921   4.747
 6246SOL    HW119637   1.529   6.871   4.675
 6246SOL    HW219638   1.393   6.878   4.764
 6247SOL     OW19639   0.002   5.184   3.697
 6247SOL    HW119640   0.013   5.155   3.792
 6247SOL    HW219641   0.065   5.260   3.678
 6248SOL     OW19642   4.242   3.112   6.703
 6248SOL    HW119643   4.285   3.171   6.636
 6248SOL    HW219644   4.298   3.108   6.785
 6249SOL     OW19645   0.046   2.829   1.381
 6249SOL    HW119646   0.010   2.896   1.317
 6249SOL    HW219647   0.053   2.740   1.337
 6250SOL     OW19648   0.023   0.054   0.851
 6250SOL    HW119649   6.990   0.137   0.843
 6250SOL    HW219650   0.083   0.046   0.771
 6251SOL     OW19651   3.517   6.861   4.859
 6251SOL    HW119652   3.425   6.830   4.835
 6251SOL    HW219653   3.511   6.943   4.915
 6252SOL     OW19654   3.028   5.059   6.706
 6252SOL    HW119655   2.951   5.028   6.761
 6252SOL    HW219656   3.029   5.009   6.619
 6253SOL     OW19657   3.165   4.945   4.456
 6253SOL    HW119658   3.120   4.895   4.381
 6253SOL    HW219659   3.153   4.894   4.541
 6254SOL     OW19660   0.573   5.651   0.844
 6254SOL    HW119661   0.649   5.659   0.780
 6254SOL    HW219662   0.537   5.558   0.842
 6255SOL     OW19663   1.942   2.037   0.929
 6255SOL    HW119664   1.857   2.014   0.881
 6255SOL    HW219665   2.020   1.998   0.880
 6256SOL     OW19666   5.014   5.899   2.582
 6256SOL    HW119667   5.073   5.830   2.623
 6256SOL    HW219668   4.968   5.860   2.502
 6257SOL     OW19669   4.357   3.620   0.663
 6257SOL    HW119670   4.350   3.717   0.639
 6257SOL    HW219671   4.266   3.585   0.685
 6258SOL     OW19672   3.858   6.964   6.350
 6258SOL    HW119673   3.793   6.918   6.290
 6258SOL    HW219674   3.910   0.011   6.298
 6259SOL     OW19675   1.590   6.954   5.779
 6259SOL    HW119676   1.498   6.937   5.744
 6259SOL    HW219677   1.644   7.002   5.710
 6260SOL     OW19678   1.554   0.693   0.432
 6260SOL    HW119679   1.534   0.656   0.341
 6260SOL    HW219680   1.588   0.786   0.423
 6261SOL     OW19681   4.754   0.282   1.556
 6261SOL    HW119682   4.753   0.223   1.637
 6261SOL    HW219683   4.819   0.356   1.570
 6262SOL     OW19684   6.571   6.027   2.717
 6262SOL    HW119685   6.577   6.067   2.808
 6262SOL    HW219686   6.504   5.953   2.717
 6263SOL     OW19687   6.944   6.677   4.256
 6263SOL    HW119688   6.902   6.646   4.170
 6263SOL    HW219689   6.876   6.724   4.311
 6264SOL     OW19690   0.590   6.954   1.325
 6264SOL    HW119691   0.497   6.928   1.298
 6264SOL    HW219692   0.617   6.900   1.405
 6265SOL     OW19693   3.577   3.175   0.895
 6265SOL    HW119694   3.640   3.253   0.886
 6265SOL    HW219695   3.601   3.123   0.977
 6266SOL     OW19696   3.119   5.927   3.037
 6266SOL    HW119697   3.050   5.978   2.987
 6266SOL    HW219698   3.205   5.929   2.986
 6267SOL     OW19699   1.209   6.239   5.205
 6267SOL    HW119700   1.121   6.201   5.176
 6267SOL    HW219701   1.204   6.266   5.301
 6268SOL     OW19702   3.938   0.463   1.981
 6268SOL    HW119703   3.900   0.448   2.072
 6268SOL    HW219704   3.916   0.386   1.921
 6269SOL     OW19705   5.507   6.375   1.550
 6269SOL    HW119706   5.586   6.315   1.540
 6269SOL    HW219707   5.501   6.436   1.471
 6270SOL     OW19708   1.034   6.452   0.399
 6270SOL    HW119709   0.948   6.451   0.348
 6270SOL    HW219710   1.076   6.361   0.395
 6271SOL     OW19711   5.828   2.811   6.943
 6271SOL    HW119712   5.869   2.771   6.861
 6271SOL    HW219713   5.748   2.864   6.918
 6272SOL     OW19714   6.929   0.524   6.648
 6272SOL    HW119715   6.844   0.574   6.632
 6272SOL    HW219716   6.968   0.495   6.561
 6273SOL     OW19717   0.219   6.592   2.478
 6273SOL    HW119718   0.276   6.647   2.539
 6273SOL    HW219719   0.224   6.629   2.385
 6274SOL     OW19720   3.275   6.700   4.784
 6274SOL    HW119721   3.258   6.602   4.782
 6274SOL    HW219722   3.256   6.739   4.694
 6275SOL     OW19723   2.669   6.403   0.560
 6275SOL    HW119724   2.638   6.326   0.617
 6275SOL    HW219725   2.608   6.413   0.482
 6276SOL     OW19726   3.269   5.508   3.031
 6276SOL    HW119727   3.338   5.436   3.034
 6276SOL    HW219728   3.301   5.584   2.976
 6277SOL     OW19729   4.973   1.855   1.743
 6277SOL    HW119730   5.006   1.764   1.715
 6277SOL    HW219731   4.997   1.870   1.839
 6278SOL     OW19732   3.353   0.018   5.949
 6278SOL    HW119733   3.384   7.005   5.861
 6278SOL    HW219734   3.417   0.088   5.982
 6279SOL     OW19735   3.197   5.278   0.993
 6279SOL    HW119736   3.269   5.343   0.967
 6279SOL    HW219737   3.239   5.198   1.036
 6280SOL     OW19738   6.431   2.033   6.728
 6280SOL    HW119739   6.335   2.030   6.759
 6280SOL    HW219740   6.488   2.074   6.798
 6281SOL     OW19741   6.266   4.124   4.184
 6281SOL    HW119742   6.204   4.097   4.258
 6281SOL    HW219743   6.359   4.127   4.219
 6282SOL     OW19744   6.905   4.054   5.733
 6282SOL    HW119745   6.907   3.984   5.804
 6282SOL    HW219746   6.819   4.049   5.683
 6283SOL     OW19747   0.712   5.825   5.387
 6283SOL    HW119748   0.809   5.813   5.407
 6283SOL    HW219749   0.695   5.804   5.291
 6284SOL     OW19750   1.512   4.776   6.887
 6284SOL    HW119751   1.593   4.723   6.911
 6284SOL    HW219752   1.526   4.872   6.912
 6285SOL     OW19753   1.937   3.827   3.044
 6285SOL    HW119754   2.007   3.865   2.983
 6285SOL    HW219755   1.929   3.729   3.028
 6286SOL     OW19756   0.416   3.668   4.790
 6286SOL    HW119757   0.411   3.601   4.864
 6286SOL    HW219758   0.324   3.701   4.768
 6287SOL     OW19759   4.230   4.711   5.209
 6287SOL    HW119760   4.211   4.615   5.186
 6287SOL    HW219761   4.248   4.719   5.307
 6288SOL     OW19762   4.144   3.474   6.721
 6288SOL    HW119763   4.084   3.493   6.799
 6288SOL    HW219764   4.099   3.409   6.660
 6289SOL     OW19765   2.581   4.070   6.773
 6289SOL    HW119766   2.593   4.022   6.687
 6289SOL    HW219767   2.553   4.164   6.756
 6290SOL     OW19768   6.104   5.278   6.157
 6290SOL    HW119769   6.176   5.256   6.223
 6290SOL    HW219770   6.144   5.321   6.076
 6291SOL     OW19771   3.255   3.339   3.080
 6291SOL    HW119772   3.317   3.286   3.139
 6291SOL    HW219773   3.285   3.331   2.985
 6292SOL     OW19774   2.075   2.370   4.289
 6292SOL    HW119775   2.088   2.460   4.248
 6292SOL    HW219776   2.144   2.306   4.254
 6293SOL     OW19777   4.873   1.236   0.243
 6293SOL    HW119778   4.930   1.222   0.324
 6293SOL    HW219779   4.780   1.206   0.262
 6294SOL     OW19780   3.660   0.832   3.903
 6294SOL    HW119781   3.679   0.740   3.937
 6294SOL    HW219782   3.687   0.899   3.972
 6295SOL     OW19783   5.228   4.997   4.824
 6295SOL    HW119784   5.198   4.975   4.731
 6295SOL    HW219785   5.269   4.916   4.866
 6296SOL     OW19786   0.506   3.534   5.980
 6296SOL    HW119787   0.408   3.527   6.000
 6296SOL    HW219788   0.559   3.522   6.064
 6297SOL     OW19789   5.894   0.121   4.530
 6297SOL    HW119790   5.905   0.045   4.466
 6297SOL    HW219791   5.951   0.105   4.610
 6298SOL     OW19792   5.609   4.050   7.014
 6298SOL    HW119793   5.575   3.959   6.990
 6298SOL    HW219794   5.702   4.043   0.029
 6299SOL     OW19795   5.141   2.426   2.812
 6299SOL    HW119796   5.240   2.416   2.817
 6299SOL    HW219797   5.116   2.469   2.725
 6300SOL     OW19798   4.108   1.061   6.686
 6300SOL    HW119799   4.038   1.088   6.620
 6300SOL    HW219800   4.184   1.127   6.683
 6301SOL     OW19801   3.416   6.450   6.886
 6301SOL    HW119802   3.339   6.487   6.939
 6301SOL    HW219803   3.384   6.374   6.830
 6302SOL     OW19804   2.352   1.648   5.650
 6302SOL    HW119805   2.452   1.639   5.645
 6302SOL    HW219806   2.328   1.702   5.731
 6303SOL     OW19807   1.345   6.463   5.699
 6303SOL    HW119808   1.429   6.444   5.751
 6303SOL    HW219809   1.335   6.562   5.687
 6304SOL     OW19810   4.268   0.751   3.364
 6304SOL    HW119811   4.181   0.715   3.398
 6304SOL    HW219812   4.325   0.675   3.332
 6305SOL     OW19813   6.666   5.636   5.626
 6305SOL    HW119814   6.571   5.662   5.612
 6305SOL    HW219815   6.675   5.582   5.709
 6306SOL     OW19816   0.665   4.019   3.997
 6306SOL    HW119817   0.708   3.929   3.993
 6306SOL    HW219818   0.674   4.055   4.090
 6307SOL     OW19819   3.973   3.848   3.653
 6307SOL    HW119820   3.989   3.873   3.748
 6307SOL    HW219821   4.052   3.799   3.616
 6308SOL     OW19822   0.411   2.302   5.586
 6308SOL    HW119823   0.320   2.274   5.616
 6308SOL    HW219824   0.404   2.350   5.498
 6309SOL     OW19825   0.931   6.688   4.363
 6309SOL    HW119826   0.962   6.689   4.268
 6309SOL    HW219827   0.872   6.608   4.378
 6310SOL     OW19828   1.547   6.825   3.364
 6310SOL    HW119829   1.628   6.789   3.317
 6310SOL    HW219830   1.569   6.913   3.406
 6311SOL     OW19831   5.160   0.823   6.611
 6311SOL    HW119832   5.206   0.893   6.667
 6311SOL    HW219833   5.176   0.842   6.514
 6312SOL     OW19834   2.986   6.628   6.621
 6312SOL    HW119835   2.913   6.696   6.619
 6312SOL    HW219836   2.976   6.571   6.703
 6313SOL     OW19837   5.310   6.326   3.354
 6313SOL    HW119838   5.244   6.261   3.317
 6313SOL    HW219839   5.262   6.398   3.404
 6314SOL     OW19840   2.923   0.106   1.403
 6314SOL    HW119841   2.991   0.162   1.355
 6314SOL    HW219842   2.959   0.076   1.491
 6315SOL     OW19843   1.744   2.530   4.167
 6315SOL    HW119844   1.662   2.524   4.109
 6315SOL    HW219845   1.799   2.609   4.139
 6316SOL     OW19846   4.663   1.793   5.634
 6316SOL    HW119847   4.698   1.700   5.630
 6316SOL    HW219848   4.735   1.857   5.607
 6317SOL     OW19849   5.102   4.422   2.400
 6317SOL    HW119850   5.087   4.324   2.383
 6317SOL    HW219851   5.161   4.432   2.480
 6318SOL     OW19852   6.682   0.174   6.776
 6318SOL    HW119853   6.752   0.173   6.705
 6318SOL    HW219854   6.624   0.254   6.765
 6319SOL     OW19855   5.572   2.637   5.069
 6319SOL    HW119856   5.525   2.565   5.019
 6319SOL    HW219857   5.633   2.687   5.007
 6320SOL     OW19858   0.744   1.028   3.802
 6320SOL    HW119859   0.696   1.112   3.824
 6320SOL    HW219860   0.701   0.984   3.723
 6321SOL     OW19861   5.233   2.545   0.579
 6321SOL    HW119862   5.323   2.529   0.621
 6321SOL    HW219863   5.161   2.516   0.642
 6322SOL     OW19864   2.195   1.337   0.560
 6322SOL    HW119865   2.288   1.337   0.597
 6322SOL    HW219866   2.150   1.250   0.582
 6323SOL     OW19867   2.817   2.847   1.145
 6323SOL    HW119868   2.894   2.845   1.208
 6323SOL    HW219869   2.745   2.786   1.178
 6324SOL     OW19870   4.727   1.269   0.811
 6324SOL    HW119871   4.767   1.178   0.822
 6324SOL    HW219872   4.632   1.269   0.844
 6325SOL     OW19873   1.402   2.406   2.134
 6325SOL    HW119874   1.380   2.451   2.047
 6325SOL    HW219875   1.466   2.463   2.185
 6326SOL     OW19876   4.463   4.724   5.831
 6326SOL    HW119877   4.369   4.723   5.796
 6326SOL    HW219878   4.521   4.776   5.768
 6327SOL     OW19879   0.244   1.962   3.728
 6327SOL    HW119880   0.314   2.023   3.691
 6327SOL    HW219881   0.161   2.015   3.746
 6328SOL     OW19882   4.658   3.608   5.993
 6328SOL    HW119883   4.601   3.576   6.068
 6328SOL    HW219884   4.605   3.669   5.934
 6329SOL     OW19885   1.058   2.520   5.201
 6329SOL    HW119886   1.129   2.455   5.176
 6329SOL    HW219887   0.989   2.474   5.258
 6330SOL     OW19888   5.717   0.989   3.229
 6330SOL    HW119889   5.798   0.964   3.282
 6330SOL    HW219890   5.663   1.056   3.281
 6331SOL     OW19891   6.391   3.163   4.630
 6331SOL    HW119892   6.322   3.131   4.695
 6331SOL    HW219893   6.453   3.226   4.676
 6332SOL     OW19894   1.749   1.639   1.509
 6332SOL    HW119895   1.810   1.718   1.507
 6332SOL    HW219896   1.779   1.572   1.441
 6333SOL     OW19897   4.870   6.761   0.404
 6333SOL    HW119898   4.856   6.848   0.452
 6333SOL    HW219899   4.796   6.747   0.339
 6334SOL     OW19900   2.700   1.740   2.006
 6334SOL    HW119901   2.733   1.824   2.050
 6334SOL    HW219902   2.769   1.669   2.013
 6335SOL     OW19903   5.046   0.709   0.916
 6335SOL    HW119904   5.022   0.631   0.974
 6335SOL    HW219905   4.981   0.783   0.932
 6336SOL     OW19906   7.017   4.584   6.037
 6336SOL    HW119907   0.015   4.681   6.050
 6336SOL    HW219908   0.080   4.534   6.021
 6337SOL     OW19909   4.321   5.813   5.051
 6337SOL    HW119910   4.305   5.847   4.958
 6337SOL    HW219911   4.385   5.736   5.048
 6338SOL     OW19912   3.250   2.017   4.262
 6338SOL    HW119913   3.349   2.004   4.259
 6338SOL    HW219914   3.221   2.072   4.184
 6339SOL     OW19915   0.523   3.567   2.425
 6339SOL    HW119916   0.574   3.652   2.439
 6339SOL    HW219917   0.573   3.491   2.466
 6340SOL     OW19918   2.548   3.966   1.298
 6340SOL    HW119919   2.558   3.929   1.390
 6340SOL    HW219920   2.488   4.046   1.301
 6341SOL     OW19921   1.350   4.279   3.833
 6341SOL    HW119922   1.390   4.333   3.759
 6341SOL    HW219923   1.305   4.198   3.794
 6342SOL     OW19924   2.170   1.019   1.874
 6342SOL    HW119925   2.157   0.952   1.800
 6342SOL    HW219926   2.165   1.111   1.837
 6343SOL     OW19927   3.695   6.110   0.062
 6343SOL    HW119928   3.605   6.068   0.068
 6343SOL    HW219929   3.694   6.183   7.015
 6344SOL     OW19930   5.824   2.775   4.112
 6344SOL    HW119931   5.882   2.696   4.092
 6344SOL    HW219932   5.874   2.838   4.172
 6345SOL     OW19933   5.028   3.439   1.864
 6345SOL    HW119934   4.997   3.462   1.772
 6345SOL    HW219935   4.983   3.498   1.931
 6346SOL     OW19936   0.062   4.209   5.609
 6346SOL    HW119937   7.010   4.163   5.659
 6346SOL    HW219938   0.068   4.171   5.517
 6347SOL     OW19939   2.666   2.301   2.390
 6347SOL    HW119940   2.617   2.219   2.362
 6347SOL    HW219941   2.642   2.377   2.329
 6348SOL     OW19942   0.285   1.812   5.833
 6348SOL    HW119943   0.200   1.762   5.816
 6348SOL    HW219944   0.343   1.759   5.895
 6349SOL     OW19945   1.245   0.244   0.179
 6349SOL    HW119946   1.214   0.153   0.154
 6349SOL    HW219947   1.291   0.241   0.267
 6350SOL     OW19948   1.031   4.889   2.536
 6350SOL    HW119949   1.086   4.815   2.497
 6350SOL    HW219950   1.028   4.881   2.635
 6351SOL     OW19951   6.586   3.756   3.375
 6351SOL    HW119952   6.490   3.768   3.399
 6351SOL    HW219953   6.606   3.659   3.366
 6352SOL     OW19954   2.581   0.822   4.080
 6352SOL    HW119955   2.600   0.733   4.123
 6352SOL    HW219956   2.492   0.855   4.111
 6353SOL     OW19957   2.715   5.436   0.022
 6353SOL    HW119958   2.746   5.342   0.012
 6353SOL    HW219959   2.619   5.442   7.018
 6354SOL     OW19960   4.862   5.065   2.856
 6354SOL    HW119961   4.778   5.048   2.805
 6354SOL    HW219962   4.843   5.125   2.933
 6355SOL     OW19963   2.444   4.994   0.462
 6355SOL    HW119964   2.391   4.980   0.546
 6355SOL    HW219965   2.517   5.060   0.479
 6356SOL     OW19966   5.003   4.906   6.674
 6356SOL    HW119967   5.058   4.823   6.689
 6356SOL    HW219968   4.975   4.943   6.762
 6357SOL     OW19969   5.706   2.067   1.322
 6357SOL    HW119970   5.662   1.995   1.269
 6357SOL    HW219971   5.799   2.082   1.288
 6358SOL     OW19972   0.736   1.745   6.553
 6358SOL    HW119973   0.700   1.776   6.465
 6358SOL    HW219974   0.719   1.647   6.563
 6359SOL     OW19975   5.989   6.656   0.917
 6359SOL    HW119976   5.912   6.601   0.885
 6359SOL    HW219977   6.071   6.632   0.865
 6360SOL     OW19978   6.957   2.737   3.798
 6360SOL    HW119979   6.862   2.770   3.794
 6360SOL    HW219980   6.957   2.637   3.805
 6361SOL     OW19981   0.057   0.612   0.100
 6361SOL    HW119982   7.014   0.660   0.160
 6361SOL    HW219983   0.134   0.672   0.079
 6362SOL     OW19984   1.098   5.879   6.336
 6362SOL    HW119985   1.040   5.904   6.259
 6362SOL    HW219986   1.122   5.961   6.388
 6363SOL     OW19987   2.880   5.076   3.613
 6363SOL    HW119988   2.819   5.109   3.686
 6363SOL    HW219989   2.868   5.134   3.532
 6364SOL     OW19990   2.441   2.604   4.461
 6364SOL    HW119991   2.370   2.637   4.523
 6364SOL    HW219992   2.507   2.549   4.512
 6365SOL     OW19993   6.093   5.790   4.744
 6365SOL    HW119994   6.060   5.861   4.682
 6365SOL    HW219995   6.041   5.706   4.730
 6366SOL     OW19996   5.536   6.589   4.728
 6366SOL    HW119997   5.483   6.553   4.805
 6366SOL    HW219998   5.631   6.599   4.756
 6367SOL     OW19999   2.935   1.778   2.916
 6367SOL    HW120000   2.885   1.770   2.830
 6367SOL    HW220001   2.929   1.871   2.950
 6368SOL     OW20002   4.632   4.291   3.918
 6368SOL    HW120003   4.657   4.239   3.837
 6368SOL    HW220004   4.653   4.238   4.000
 6369SOL     OW20005   2.938   6.211   5.843
 6369SOL    HW120006   2.983   6.131   5.883
 6369SOL    HW220007   3.004   6.261   5.786
 6370SOL     OW20008   5.243   3.784   3.370
 6370SOL    HW120009   5.191   3.699   3.378
 6370SOL    HW220010   5.301   3.780   3.289
 6371SOL     OW20011   5.369   3.874   1.823
 6371SOL    HW120012   5.271   3.895   1.817
 6371SOL    HW220013   5.421   3.959   1.813
 6372SOL     OW20014   0.158   1.454   2.804
 6372SOL    HW120015   0.156   1.355   2.818
 6372SOL    HW220016   0.182   1.473   2.709
 6373SOL     OW20017   5.614   4.177   1.309
 6373SOL    HW120018   5.516   4.179   1.290
 6373SOL    HW220019   5.631   4.120   1.389
 6374SOL     OW20020   4.688   3.080   0.147
 6374SOL    HW120021   4.647   3.143   0.081
 6374SOL    HW220022   4.784   3.105   0.161
 6375SOL     OW20023   0.184   2.661   2.103
 6375SOL    HW120024   0.219   2.711   2.024
 6375SOL    HW220025   0.140   2.724   2.166
 6376SOL     OW20026   4.614   0.555   5.510
 6376SOL    HW120027   4.554   0.601   5.575
 6376SOL    HW220028   4.710   0.571   5.536
 6377SOL     OW20029   6.880   0.546   6.923
 6377SOL    HW120030   6.893   0.513   6.829
 6377SOL    HW220031   6.969   0.555   6.968
 6378SOL     OW20032   5.185   5.680   2.679
 6378SOL    HW120033   5.198   5.660   2.776
 6378SOL    HW220034   5.104   5.631   2.646
 6379SOL     OW20035   2.131   5.634   6.158
 6379SOL    HW120036   2.208   5.593   6.109
 6379SOL    HW220037   2.111   5.580   6.239
 6380SOL     OW20038   0.468   3.475   4.994
 6380SOL    HW120039   0.463   3.482   5.093
 6380SOL    HW220040   0.488   3.380   4.969
 6381SOL     OW20041   3.944   3.172   0.461
 6381SOL    HW120042   3.949   3.078   0.494
 6381SOL    HW220043   4.035   3.203   0.435
 6382SOL     OW20044   2.782   1.665   1.340
 6382SOL    HW120045   2.813   1.747   1.388
 6382SOL    HW220046   2.823   1.661   1.250
 6383SOL     OW20047   1.955   2.712   2.825
 6383SOL    HW120048   1.996   2.801   2.803
 6383SOL    HW220049   1.989   2.681   2.914
 6384SOL     OW20050   6.105   2.452   1.946
 6384SOL    HW120051   6.049   2.500   2.014
 6384SOL    HW220052   6.116   2.508   1.865
 6385SOL     OW20053   6.944   3.655   1.061
 6385SOL    HW120054   6.937   3.752   1.086
 6385SOL    HW220055   6.922   3.599   1.141
 6386SOL     OW20056   1.970   3.590   0.507
 6386SOL    HW120057   1.907   3.518   0.539
 6386SOL    HW220058   1.918   3.668   0.475
 6387SOL     OW20059   5.942   0.860   0.254
 6387SOL    HW120060   5.901   0.814   0.175
 6387SOL    HW220061   6.035   0.890   0.231
 6388SOL     OW20062   6.575   5.196   2.889
 6388SOL    HW120063   6.504   5.129   2.912
 6388SOL    HW220064   6.665   5.157   2.910
 6389SOL     OW20065   1.770   6.949   0.161
 6389SOL    HW120066   1.867   6.928   0.169
 6389SOL    HW220067   1.736   6.917   0.072
 6390SOL     OW20068   5.771   0.554   0.364
 6390SOL    HW120069   5.790   0.616   0.287
 6390SOL    HW220070   5.673   0.533   0.366
 6391SOL     OW20071   0.950   1.317   5.712
 6391SOL    HW120072   0.925   1.279   5.624
 6391SOL    HW220073   1.048   1.339   5.713
 6392SOL     OW20074   3.732   5.682   3.281
 6392SOL    HW120075   3.733   5.583   3.293
 6392SOL    HW220076   3.678   5.724   3.354
 6393SOL     OW20077   5.682   6.649   1.735
 6393SOL    HW120078   5.677   6.644   1.835
 6393SOL    HW220079   5.591   6.669   1.699
 6394SOL     OW20080   0.814   4.677   0.941
 6394SOL    HW120081   0.863   4.632   0.867
 6394SOL    HW220082   0.717   4.685   0.917
 6395SOL     OW20083   0.443   3.942   2.678
 6395SOL    HW120084   0.522   3.910   2.625
 6395SOL    HW220085   0.376   3.868   2.685
 6396SOL     OW20086   6.616   3.473   0.023
 6396SOL    HW120087   6.550   3.496   0.095
 6396SOL    HW220088   6.628   3.552   6.984
 6397SOL     OW20089   6.319   2.417   3.052
 6397SOL    HW120090   6.369   2.423   2.966
 6397SOL    HW220091   6.384   2.398   3.126
 6398SOL     OW20092   1.153   6.017   1.689
 6398SOL    HW120093   1.067   5.966   1.699
 6398SOL    HW220094   1.229   5.953   1.680
 6399SOL     OW20095   2.310   0.065   6.628
 6399SOL    HW120096   2.395   0.116   6.635
 6399SOL    HW220097   2.326   7.000   6.582
 6400SOL     OW20098   1.482   6.127   3.329
 6400SOL    HW120099   1.510   6.073   3.250
 6400SOL    HW220100   1.442   6.213   3.298
 6401SOL     OW20101   4.355   4.928   2.762
 6401SOL    HW120102   4.418   4.903   2.835
 6401SOL    HW220103   4.393   4.902   2.674
 6402SOL     OW20104   1.743   4.424   3.713
 6402SOL    HW120105   1.714   4.492   3.779
 6402SOL    HW220106   1.838   4.398   3.732
 6403SOL     OW20107   5.567   6.402   5.142
 6403SOL    HW120108   5.566   6.455   5.227
 6403SOL    HW220109   5.484   6.420   5.089
 6404SOL     OW20110   3.767   1.033   2.600
 6404SOL    HW120111   3.846   0.984   2.636
 6404SOL    HW220112   3.792   1.129   2.583
 6405SOL     OW20113   5.436   1.196   3.291
 6405SOL    HW120114   5.456   1.227   3.198
 6405SOL    HW220115   5.343   1.158   3.294
 6406SOL     OW20116   1.038   2.827   2.730
 6406SOL    HW120117   1.078   2.877   2.653
 6406SOL    HW220118   1.003   2.892   2.797
 6407SOL     OW20119   2.136   6.303   3.564
 6407SOL    HW120120   2.065   6.373   3.553
 6407SOL    HW220121   2.101   6.215   3.532
 6408SOL     OW20122   6.696   0.689   1.017
 6408SOL    HW120123   6.645   0.709   0.934
 6408SOL    HW220124   6.644   0.625   1.074
 6409SOL     OW20125   6.397   4.779   4.040
 6409SOL    HW120126   6.430   4.852   4.100
 6409SOL    HW220127   6.299   4.764   4.056
 6410SOL     OW20128   2.617   1.383   5.574
 6410SOL    HW120129   2.576   1.450   5.512
 6410SOL    HW220130   2.581   1.292   5.554
 6411SOL     OW20131   0.143   3.342   2.025
 6411SOL    HW120132   0.169   3.385   1.938
 6411SOL    HW220133   0.220   3.348   2.089
 6412SOL     OW20134   3.301   0.678   6.531
 6412SOL    HW120135   3.251   0.723   6.457
 6412SOL    HW220136   3.251   0.598   6.562
 6413SOL     OW20137   4.195   4.755   4.523
 6413SOL    HW120138   4.175   4.666   4.482
 6413SOL    HW220139   4.264   4.802   4.469
 6414SOL     OW20140   0.782   6.966   6.975
 6414SOL    HW120141   0.806   6.957   6.879
 6414SOL    HW220142   0.686   6.940   6.988
 6415SOL     OW20143   1.320   3.497   2.880
 6415SOL    HW120144   1.227   3.530   2.891
 6415SOL    HW220145   1.384   3.574   2.884
 6416SOL     OW20146   2.998   6.940   6.455
 6416SOL    HW120147   3.047   6.931   6.369
 6416SOL    HW220148   2.958   6.851   6.479
 6417SOL     OW20149   4.917   1.910   0.815
 6417SOL    HW120150   4.828   1.916   0.770
 6417SOL    HW220151   4.904   1.912   0.914
 6418SOL     OW20152   4.480   4.625   1.427
 6418SOL    HW120153   4.426   4.558   1.478
 6418SOL    HW220154   4.576   4.617   1.454
 6419SOL     OW20155   1.062   6.255   6.689
 6419SOL    HW120156   0.976   6.205   6.678
 6419SOL    HW220157   1.080   6.268   6.786
 6420SOL     OW20158   1.597   3.295   4.151
 6420SOL    HW120159   1.578   3.364   4.081
 6420SOL    HW220160   1.539   3.311   4.231
 6421SOL     OW20161   5.575   7.019   1.493
 6421SOL    HW120162   5.653   0.034   1.544
 6421SOL    HW220163   5.546   6.933   1.535
 6422SOL     OW20164   0.283   2.528   5.414
 6422SOL    HW120165   0.186   2.541   5.395
 6422SOL    HW220166   0.325   2.477   5.338
 6423SOL     OW20167   2.944   5.873   4.502
 6423SOL    HW120168   2.978   5.797   4.447
 6423SOL    HW220169   2.993   5.874   4.590
 6424SOL     OW20170   0.404   3.126   4.704
 6424SOL    HW120171   0.403   3.050   4.639
 6424SOL    HW220172   0.430   3.092   4.794
 6425SOL     OW20173   0.020   5.686   2.969
 6425SOL    HW120174   0.067   5.697   2.882
 6425SOL    HW220175   0.061   5.611   3.020
 6426SOL     OW20176   4.545   4.527   4.755
 6426SOL    HW120177   4.582   4.620   4.758
 6426SOL    HW220178   4.509   4.502   4.844
 6427SOL     OW20179   3.210   3.703   3.010
 6427SOL    HW120180   3.163   3.618   2.987
 6427SOL    HW220181   3.252   3.741   2.927
 6428SOL     OW20182   4.937   2.408   0.474
 6428SOL    HW120183   4.929   2.310   0.489
 6428SOL    HW220184   4.853   2.443   0.432
 6429SOL     OW20185   1.932   0.893   5.077
 6429SOL    HW120186   1.863   0.900   5.149
 6429SOL    HW220187   1.888   0.863   4.992
 6430SOL     OW20188   0.119   0.759   5.163
 6430SOL    HW120189   0.062   0.686   5.201
 6430SOL    HW220190   0.124   0.750   5.064
 6431SOL     OW20191   4.895   5.683   2.964
 6431SOL    HW120192   4.845   5.599   2.943
 6431SOL    HW220193   4.886   5.704   3.062
 6432SOL     OW20194   3.519   3.664   6.462
 6432SOL    HW120195   3.457   3.613   6.403
 6432SOL    HW220196   3.465   3.725   6.521
 6433SOL     OW20197   3.099   5.732   6.991
 6433SOL    HW120198   3.075   5.819   0.012
 6433SOL    HW220199   3.134   5.748   6.899
 6434SOL     OW20200   3.236   6.156   6.211
 6434SOL    HW120201   3.227   6.217   6.132
 6434SOL    HW220202   3.149   6.153   6.260
 6435SOL     OW20203   5.470   0.002   0.288
 6435SOL    HW120204   5.471   6.991   0.382
 6435SOL    HW220205   5.378   0.035   0.265
 6436SOL     OW20206   0.949   4.006   3.575
 6436SOL    HW120207   0.952   4.104   3.594
 6436SOL    HW220208   0.856   3.972   3.588
 6437SOL     OW20209   1.081   1.071   5.379
 6437SOL    HW120210   1.049   1.166   5.382
 6437SOL    HW220211   1.144   1.059   5.303
 6438SOL     OW20212   0.609   5.606   6.779
 6438SOL    HW120213   0.666   5.530   6.749
 6438SOL    HW220214   0.573   5.586   6.870
 6439SOL     OW20215   6.482   1.059   4.046
 6439SOL    HW120216   6.510   0.981   3.992
 6439SOL    HW220217   6.553   1.081   4.113
 6440SOL     OW20218   2.195   0.297   6.406
 6440SOL    HW120219   2.189   0.244   6.490
 6440SOL    HW220220   2.157   0.243   6.330
 6441SOL     OW20221   0.285   0.446   3.342
 6441SOL    HW120222   0.211   0.409   3.286
 6441SOL    HW220223   0.368   0.454   3.287
 6442SOL     OW20224   2.301   2.101   4.817
 6442SOL    HW120225   2.289   2.004   4.835
 6442SOL    HW220226   2.396   2.126   4.832
 6443SOL     OW20227   3.756   1.927   0.876
 6443SOL    HW120228   3.812   1.878   0.942
 6443SOL    HW220229   3.803   1.931   0.788
 6444SOL     OW20230   0.016   2.493   5.318
 6444SOL    HW120231   0.043   2.487   5.222
 6444SOL    HW220232   6.955   2.439   5.333
 6445SOL     OW20233   3.386   3.222   3.523
 6445SOL    HW120234   3.467   3.200   3.469
 6445SOL    HW220235   3.356   3.315   3.503
 6446SOL     OW20236   1.860   1.792   6.328
 6446SOL    HW120237   1.918   1.860   6.283
 6446SOL    HW220238   1.902   1.764   6.414
 6447SOL     OW20239   6.510   4.628   1.184
 6447SOL    HW120240   6.433   4.680   1.148
 6447SOL    HW220241   6.480   4.572   1.261
 6448SOL     OW20242   4.678   5.430   1.870
 6448SOL    HW120243   4.625   5.350   1.845
 6448SOL    HW220244   4.757   5.402   1.925
 6449SOL     OW20245   2.453   5.796   1.344
 6449SOL    HW120246   2.413   5.887   1.353
 6449SOL    HW220247   2.547   5.797   1.381
 6450SOL     OW20248   0.612   3.978   1.040
 6450SOL    HW120249   0.676   3.941   0.973
 6450SOL    HW220250   0.526   4.002   0.995
 6451SOL     OW20251   3.354   2.009   6.996
 6451SOL    HW120252   3.336   2.105   7.018
 6451SOL    HW220253   3.427   2.003   6.928
 6452SOL     OW20254   5.256   3.570   2.882
 6452SOL    HW120255   5.222   3.487   2.839
 6452SOL    HW220256   5.356   3.572   2.877
 6453SOL     OW20257   3.658   0.323   1.267
 6453SOL    HW120258   3.659   0.236   1.316
 6453SOL    HW220259   3.752   0.353   1.250
 6454SOL     OW20260   6.789   2.060   2.763
 6454SOL    HW120261   6.692   2.071   2.787
 6454SOL    HW220262   6.818   1.967   2.787
 6455SOL     OW20263   6.777   4.525   3.082
 6455SOL    HW120264   6.877   4.533   3.082
 6455SOL    HW220265   6.741   4.542   3.174
 6456SOL     OW20266   0.453   1.224   2.644
 6456SOL    HW120267   0.359   1.240   2.674
 6456SOL    HW220268   0.470   1.126   2.638
 6457SOL     OW20269   4.922   6.951   1.487
 6457SOL    HW120270   4.854   6.879   1.475
 6457SOL    HW220271   4.906   6.998   1.574
 6458SOL     OW20272   1.234   4.906   4.641
 6458SOL    HW120273   1.262   4.827   4.696
 6458SOL    HW220274   1.230   4.880   4.545
 6459SOL     OW20275   5.846   2.843   3.257
 6459SOL    HW120276   5.828   2.807   3.349
 6459SOL    HW220277   5.940   2.877   3.252
 6460SOL     OW20278   6.767   5.416   5.064
 6460SOL    HW120279   6.671   5.442   5.071
 6460SOL    HW220280   6.781   5.328   5.110
 6461SOL     OW20281   3.208   4.570   0.884
 6461SOL    HW120282   3.166   4.497   0.829
 6461SOL    HW220283   3.277   4.531   0.944
 6462SOL     OW20284   1.801   3.599   4.405
 6462SOL    HW120285   1.901   3.597   4.412
 6462SOL    HW220286   1.767   3.688   4.436
 6463SOL     OW20287   4.873   0.933   0.903
 6463SOL    HW120288   4.798   0.951   0.839
 6463SOL    HW220289   4.851   0.975   0.992
 6464SOL     OW20290   1.159   6.310   4.740
 6464SOL    HW120291   1.194   6.218   4.723
 6464SOL    HW220292   1.149   6.358   4.653
 6465SOL     OW20293   5.915   2.658   2.213
 6465SOL    HW120294   5.842   2.618   2.158
 6465SOL    HW220295   5.878   2.685   2.302
 6466SOL     OW20296   6.890   3.131   6.433
 6466SOL    HW120297   6.840   3.155   6.517
 6466SOL    HW220298   6.862   3.193   6.360
 6467SOL     OW20299   3.269   0.822   0.779
 6467SOL    HW120300   3.339   0.773   0.726
 6467SOL    HW220301   3.185   0.827   0.726
 6468SOL     OW20302   4.244   6.286   0.321
 6468SOL    HW120303   4.238   6.339   0.405
 6468SOL    HW220304   4.328   6.309   0.272
 6469SOL     OW20305   3.121   2.189   4.091
 6469SOL    HW120306   3.055   2.176   4.017
 6469SOL    HW220307   3.073   2.204   4.177
 6470SOL     OW20308   6.776   2.568   0.298
 6470SOL    HW120309   6.830   2.520   0.229
 6470SOL    HW220310   6.750   2.505   0.370
 6471SOL     OW20311   0.527   6.600   5.226
 6471SOL    HW120312   0.526   6.507   5.263
 6471SOL    HW220313   0.446   6.613   5.167
 6472SOL     OW20314   6.880   6.266   2.624
 6472SOL    HW120315   6.803   6.262   2.560
 6472SOL    HW220316   6.846   6.272   2.718
 6473SOL     OW20317   1.785   1.574   4.352
 6473SOL    HW120318   1.721   1.555   4.278
 6473SOL    HW220319   1.877   1.586   4.315
 6474SOL     OW20320   4.393   4.957   5.242
 6474SOL    HW120321   4.404   5.029   5.174
 6474SOL    HW220322   4.317   4.898   5.216
 6475SOL     OW20323   5.789   5.271   3.283
 6475SOL    HW120324   5.876   5.317   3.264
 6475SOL    HW220325   5.714   5.325   3.245
 6476SOL     OW20326   3.855   2.233   6.801
 6476SOL    HW120327   3.907   2.310   6.839
 6476SOL    HW220328   3.770   2.267   6.761
 6477SOL     OW20329   0.198   6.043   1.109
 6477SOL    HW120330   0.226   6.089   1.025
 6477SOL    HW220331   0.104   6.067   1.131
 6478SOL     OW20332   2.621   6.048   1.587
 6478SOL    HW120333   2.656   5.960   1.554
 6478SOL    HW220334   2.522   6.052   1.570
 6479SOL     OW20335   3.641   5.914   4.012
 6479SOL    HW120336   3.548   5.929   4.044
 6479SOL    HW220337   3.668   5.989   3.951
 6480SOL     OW20338   2.348   0.763   6.544
 6480SOL    HW120339   2.292   0.844   6.527
 6480SOL    HW220340   2.300   0.682   6.511
 6481SOL     OW20341   2.996   2.284   1.705
 6481SOL    HW120342   2.948   2.311   1.789
 6481SOL    HW220343   3.094   2.279   1.724
 6482SOL     OW20344   6.971   2.455   5.763
 6482SOL    HW120345   6.968   2.461   5.863
 6482SOL    HW220346   6.966   2.547   5.724
 6483SOL     OW20347   1.259   5.529   4.224
 6483SOL    HW120348   1.241   5.628   4.225
 6483SOL    HW220349   1.183   5.481   4.180
 6484SOL     OW20350   3.200   1.414   2.917
 6484SOL    HW120351   3.218   1.334   2.974
 6484SOL    HW220352   3.187   1.495   2.976
 6485SOL     OW20353   2.299   6.541   4.935
 6485SOL    HW120354   2.391   6.580   4.933
 6485SOL    HW220355   2.252   6.561   4.849
 6486SOL     OW20356   0.964   4.871   2.801
 6486SOL    HW120357   0.880   4.843   2.755
 6486SOL    HW220358   0.946   4.884   2.899
 6487SOL     OW20359   1.242   5.244   4.509
 6487SOL    HW120360   1.302   5.198   4.574
 6487SOL    HW220361   1.281   5.237   4.417
 6488SOL     OW20362   4.727   5.338   4.738
 6488SOL    HW120363   4.744   5.436   4.721
 6488SOL    HW220364   4.774   5.284   4.669
 6489SOL     OW20365   3.761   3.166   6.443
 6489SOL    HW120366   3.695   3.105   6.399
 6489SOL    HW220367   3.740   3.261   6.419
 6490SOL     OW20368   1.576   1.665   6.731
 6490SOL    HW120369   1.619   1.726   6.798
 6490SOL    HW220370   1.514   1.718   6.673
 6491SOL     OW20371   2.316   0.098   0.920
 6491SOL    HW120372   2.259   0.071   0.843
 6491SOL    HW220373   2.404   0.130   0.887
 6492SOL     OW20374   3.476   4.168   4.270
 6492SOL    HW120375   3.486   4.191   4.367
 6492SOL    HW220376   3.564   4.180   4.224
 6493SOL     OW20377   1.693   4.385   6.205
 6493SOL    HW120378   1.711   4.320   6.279
 6493SOL    HW220379   1.766   4.380   6.137
 6494SOL     OW20380   5.810   6.551   2.335
 6494SOL    HW120381   5.715   6.551   2.303
 6494SOL    HW220382   5.812   6.545   2.434
 6495SOL     OW20383   6.508   0.116   4.507
 6495SOL    HW120384   6.493   0.145   4.412
 6495SOL    HW220385   6.605   0.103   4.523
 6496SOL     OW20386   4.947   6.336   1.948
 6496SOL    HW120387   4.962   6.376   1.858
 6496SOL    HW220388   4.873   6.268   1.943
 6497SOL     OW20389   0.206   1.553   1.146
 6497SOL    HW120390   0.198   1.479   1.079
 6497SOL    HW220391   0.127   1.552   1.207
 6498SOL     OW20392   1.029   4.637   4.491
 6498SOL    HW120393   1.008   4.598   4.401
 6498SOL    HW220394   1.128   4.633   4.506
 6499SOL     OW20395   5.311   4.185   4.140
 6499SOL    HW120396   5.290   4.254   4.072
 6499SOL    HW220397   5.385   4.127   4.108
 6500SOL     OW20398   0.460   3.624   1.973
 6500SOL    HW120399   0.545   3.582   1.942
 6500SOL    HW220400   0.475   3.721   1.991
 6501SOL     OW20401   6.979   1.639   0.745
 6501SOL    HW120402   6.984   1.734   0.713
 6501SOL    HW220403   7.021   1.579   0.677
 6502SOL     OW20404   6.224   3.672   1.392
 6502SOL    HW120405   6.212   3.661   1.293
 6502SOL    HW220406   6.169   3.748   1.425
 6503SOL     OW20407   6.639   2.551   5.913
 6503SOL    HW120408   6.582   2.619   5.960
 6503SOL    HW220409   6.639   2.570   5.815
 6504SOL     OW20410   4.976   6.418   6.384
 6504SOL    HW120411   5.025   6.456   6.463
 6504SOL    HW220412   4.984   6.481   6.307
 6505SOL     OW20413   6.053   6.197   0.357
 6505SOL    HW120414   6.044   6.178   0.260
 6505SOL    HW220415   5.995   6.133   0.409
 6506SOL     OW20416   0.160   3.397   3.681
 6506SOL    HW120417   0.150   3.305   3.717
 6506SOL    HW220418   0.077   3.423   3.631
 6507SOL     OW20419   3.530   5.567   6.437
 6507SOL    HW120420   3.518   5.501   6.363
 6507SOL    HW220421   3.447   5.570   6.493
 6508SOL     OW20422   1.422   6.596   2.037
 6508SOL    HW120423   1.333   6.551   2.037
 6508SOL    HW220424   1.446   6.624   1.944
 6509SOL     OW20425   3.852   1.278   5.295
 6509SOL    HW120426   3.811   1.353   5.347
 6509SOL    HW220427   3.847   1.194   5.348
 6510SOL     OW20428   4.502   5.958   5.762
 6510SOL    HW120429   4.528   5.863   5.741
 6510SOL    HW220430   4.446   5.959   5.844
 6511SOL     OW20431   4.030   1.308   5.553
 6511SOL    HW120432   4.101   1.367   5.591
 6511SOL    HW220433   4.061   1.213   5.555
 6512SOL     OW20434   2.692   0.295   2.281
 6512SOL    HW120435   2.660   0.291   2.186
 6512SOL    HW220436   2.781   0.251   2.287
 6513SOL     OW20437   2.659   5.944   4.678
 6513SOL    HW120438   2.755   5.927   4.652
 6513SOL    HW220439   2.600   5.880   4.628
 6514SOL     OW20440   6.183   0.520   5.494
 6514SOL    HW120441   6.145   0.442   5.545
 6514SOL    HW220442   6.110   0.567   5.445
 6515SOL     OW20443   2.120   4.595   2.321
 6515SOL    HW120444   2.129   4.540   2.238
 6515SOL    HW220445   2.041   4.564   2.373
 6516SOL     OW20446   6.871   3.288   2.022
 6516SOL    HW120447   6.964   3.259   1.995
 6516SOL    HW220448   6.823   3.321   1.941
 6517SOL     OW20449   6.494   2.046   0.572
 6517SOL    HW120450   6.483   2.145   0.561
 6517SOL    HW220451   6.445   2.016   0.654
 6518SOL     OW20452   6.756   0.913   2.245
 6518SOL    HW120453   6.718   0.869   2.326
 6518SOL    HW220454   6.820   0.985   2.273
 6519SOL     OW20455   0.545   0.932   2.934
 6519SOL    HW120456   0.569   0.905   3.027
 6519SOL    HW220457   0.573   1.027   2.918
 6520SOL     OW20458   0.010   5.927   6.819
 6520SOL    HW120459   0.049   5.956   6.732
 6520SOL    HW220460   6.965   5.854   6.804
 6521SOL     OW20461   1.768   3.388   3.236
 6521SOL    HW120462   1.807   3.408   3.326
 6521SOL    HW220463   1.696   3.454   3.215
 6522SOL     OW20464   2.897   4.321   5.702
 6522SOL    HW120465   2.853   4.407   5.727
 6522SOL    HW220466   2.877   4.252   5.773
 6523SOL     OW20467   5.232   0.113   0.183
 6523SOL    HW120468   5.277   0.092   0.097
 6523SOL    HW220469   5.140   0.148   0.164
 6524SOL     OW20470   2.667   2.461   1.778
 6524SOL    HW120471   2.750   2.460   1.834
 6524SOL    HW220472   2.599   2.399   1.818
 6525SOL     OW20473   1.781   5.297   4.041
 6525SOL    HW120474   1.744   5.204   4.032
 6525SOL    HW220475   1.837   5.319   3.961
 6526SOL     OW20476   6.918   0.149   1.248
 6526SOL    HW120477   6.889   0.245   1.241
 6526SOL    HW220478   6.998   0.134   1.189
 6527SOL     OW20479   0.396   2.475   0.398
 6527SOL    HW120480   0.429   2.534   0.471
 6527SOL    HW220481   0.472   2.454   0.335
 6528SOL     OW20482   6.390   1.608   6.137
 6528SOL    HW120483   6.355   1.668   6.210
 6528SOL    HW220484   6.442   1.533   6.177
 6529SOL     OW20485   0.430   0.904   2.384
 6529SOL    HW120486   0.385   0.982   2.340
 6529SOL    HW220487   0.361   0.838   2.413
 6530SOL     OW20488   0.358   2.456   2.163
 6530SOL    HW120489   0.319   2.548   2.153
 6530SOL    HW220490   0.448   2.463   2.206
 6531SOL     OW20491   3.959   3.183   5.617
 6531SOL    HW120492   3.966   3.181   5.517
 6531SOL    HW220493   4.031   3.241   5.654
 6532SOL     OW20494   1.686   1.136   0.462
 6532SOL    HW120495   1.779   1.114   0.494
 6532SOL    HW220496   1.623   1.133   0.540
 6533SOL     OW20497   4.566   5.535   0.360
 6533SOL    HW120498   4.552   5.572   0.452
 6533SOL    HW220499   4.515   5.591   0.294
 6534SOL     OW20500   5.309   5.041   1.906
 6534SOL    HW120501   5.357   5.128   1.896
 6534SOL    HW220502   5.363   4.978   1.962
 6535SOL     OW20503   5.854   4.141   4.635
 6535SOL    HW120504   5.761   4.176   4.631
 6535SOL    HW220505   5.917   4.216   4.657
 6536SOL     OW20506   0.572   2.239   4.660
 6536SOL    HW120507   0.575   2.144   4.628
 6536SOL    HW220508   0.665   2.274   4.672
 6537SOL     OW20509   6.344   4.445   4.912
 6537SOL    HW120510   6.423   4.498   4.943
 6537SOL    HW220511   6.343   4.357   4.960
 6538SOL     OW20512   1.899   3.540   5.784
 6538SOL    HW120513   1.856   3.526   5.694
 6538SOL    HW220514   1.937   3.454   5.816
 6539SOL     OW20515   5.509   0.792   6.798
 6539SOL    HW120516   5.439   0.862   6.813
 6539SOL    HW220517   5.544   0.760   6.886
 6540SOL     OW20518   3.008   2.756   6.025
 6540SOL    HW120519   3.076   2.804   5.969
 6540SOL    HW220520   2.935   2.720   5.966
 6541SOL     OW20521   5.506   2.331   5.956
 6541SOL    HW120522   5.474   2.426   5.955
 6541SOL    HW220523   5.459   2.279   5.885
 6542SOL     OW20524   1.219   3.842   4.697
 6542SOL    HW120525   1.146   3.781   4.667
 6542SOL    HW220526   1.304   3.790   4.708
 6543SOL     OW20527   3.517   2.349   5.369
 6543SOL    HW120528   3.434   2.356   5.424
 6543SOL    HW220529   3.571   2.433   5.379
 6544SOL     OW20530   0.276   6.799   2.273
 6544SOL    HW120531   0.363   6.807   2.322
 6544SOL    HW220532   0.209   6.861   2.314
 6545SOL     OW20533   4.314   6.855   1.055
 6545SOL    HW120534   4.399   6.902   1.034
 6545SOL    HW220535   4.334   6.772   1.108
 6546SOL     OW20536   4.192   4.619   6.798
 6546SOL    HW120537   4.112   4.658   6.845
 6546SOL    HW220538   4.272   4.675   6.817
 6547SOL     OW20539   5.148   7.016   5.855
 6547SOL    HW120540   5.229   0.028   5.807
 6547SOL    HW220541   5.165   7.016   5.954
 6548SOL     OW20542   0.771   2.678   6.232
 6548SOL    HW120543   0.827   2.706   6.309
 6548SOL    HW220544   0.711   2.754   6.206
 6549SOL     OW20545   4.748   0.124   1.783
 6549SOL    HW120546   4.683   0.050   1.805
 6549SOL    HW220547   4.788   0.159   1.867
 6550SOL     OW20548   6.532   0.423   3.391
 6550SOL    HW120549   6.580   0.471   3.464
 6550SOL    HW220550   6.596   0.363   3.343
 6551SOL     OW20551   2.850   3.422   1.705
 6551SOL    HW120552   2.755   3.448   1.687
 6551SOL    HW220553   2.886   3.372   1.626
 6552SOL     OW20554   2.187   6.658   0.921
 6552SOL    HW120555   2.275   6.674   0.877
 6552SOL    HW220556   2.130   6.598   0.865
 6553SOL     OW20557   0.439   1.500   2.984
 6553SOL    HW120558   0.351   1.546   2.992
 6553SOL    HW220559   0.457   1.479   2.888
 6554SOL     OW20560   2.706   1.133   5.245
 6554SOL    HW120561   2.693   1.099   5.338
 6554SOL    HW220562   2.747   1.060   5.188
 6555SOL     OW20563   6.220   2.034   4.203
 6555SOL    HW120564   6.130   1.999   4.230
 6555SOL    HW220565   6.236   2.123   4.246
 6556SOL     OW20566   6.488   3.221   2.643
 6556SOL    HW120567   6.530   3.132   2.624
 6556SOL    HW220568   6.400   3.208   2.689
 6557SOL     OW20569   1.774   0.269   2.558
 6557SOL    HW120570   1.799   0.342   2.621
 6557SOL    HW220571   1.787   0.299   2.464
 6558SOL     OW20572   5.852   5.014   6.942
 6558SOL    HW120573   5.755   4.994   6.958
 6558SOL    HW220574   5.899   4.931   6.914
 6559SOL     OW20575   6.911   3.519   6.765
 6559SOL    HW120576   6.964   3.587   6.712
 6559SOL    HW220577   6.835   3.565   6.811
 6560SOL     OW20578   3.958   4.733   0.491
 6560SOL    HW120579   3.969   4.793   0.570
 6560SOL    HW220580   3.935   4.787   0.410
 6561SOL     OW20581   4.161   4.983   0.769
 6561SOL    HW120582   4.182   5.035   0.686
 6561SOL    HW220583   4.074   4.935   0.757
 6562SOL     OW20584   5.501   2.891   1.298
 6562SOL    HW120585   5.527   2.859   1.389
 6562SOL    HW220586   5.404   2.871   1.282
 6563SOL     OW20587   4.867   0.199   6.317
 6563SOL    HW120588   4.828   0.243   6.398
 6563SOL    HW220589   4.825   0.109   6.304
 6564SOL     OW20590   6.262   3.992   1.967
 6564SOL    HW120591   6.238   4.032   2.056
 6564SOL    HW220592   6.266   3.893   1.976
 6565SOL     OW20593   6.050   6.828   3.039
 6565SOL    HW120594   6.006   6.905   3.085
 6565SOL    HW220595   6.143   6.816   3.074
 6566SOL     OW20596   2.992   5.656   2.264
 6566SOL    HW120597   2.939   5.730   2.306
 6566SOL    HW220598   3.043   5.692   2.186
 6567SOL     OW20599   3.981   0.809   2.004
 6567SOL    HW120600   3.998   0.841   1.910
 6567SOL    HW220601   3.927   0.725   2.001
 6568SOL     OW20602   4.606   1.526   2.697
 6568SOL    HW120603   4.605   1.430   2.670
 6568SOL    HW220604   4.701   1.558   2.702
 6569SOL     OW20605   0.707   3.003   5.974
 6569SOL    HW120606   0.686   3.017   6.071
 6569SOL    HW220607   0.806   3.003   5.961
 6570SOL     OW20608   3.973   0.887   2.683
 6570SOL    HW120609   4.016   0.824   2.619
 6570SOL    HW220610   3.992   0.858   2.777
 6571SOL     OW20611   2.475   5.167   3.474
 6571SOL    HW120612   2.420   5.116   3.540
 6571SOL    HW220613   2.430   5.254   3.453
 6572SOL     OW20614   0.923   4.214   4.350
 6572SOL    HW120615   0.930   4.306   4.390
 6572SOL    HW220616   1.002   4.160   4.377
 6573SOL     OW20617   1.535   1.070   3.432
 6573SOL    HW120618   1.523   1.109   3.340
 6573SOL    HW220619   1.622   1.103   3.470
 6574SOL     OW20620   2.825   6.613   3.551
 6574SOL    HW120621   2.770   6.692   3.581
 6574SOL    HW220622   2.874   6.637   3.467
 6575SOL     OW20623   0.234   6.916   2.819
 6575SOL    HW120624   0.276   6.862   2.891
 6575SOL    HW220625   0.247   6.870   2.731
 6576SOL     OW20626   3.547   5.020   0.240
 6576SOL    HW120627   3.608   5.025   0.319
 6576SOL    HW220628   3.593   5.057   0.159
 6577SOL     OW20629   1.676   2.556   3.138
 6577SOL    HW120630   1.666   2.632   3.073
 6577SOL    HW220631   1.767   2.560   3.180
 6578SOL     OW20632   1.229   6.183   1.941
 6578SOL    HW120633   1.246   6.276   1.907
 6578SOL    HW220634   1.216   6.121   1.864
 6579SOL     OW20635   0.370   1.639   4.107
 6579SOL    HW120636   0.428   1.720   4.095
 6579SOL    HW220637   0.274   1.666   4.106
 6580SOL     OW20638   1.120   0.868   0.636
 6580SOL    HW120639   1.057   0.814   0.580
 6580SOL    HW220640   1.207   0.818   0.646
 6581SOL     OW20641   1.323   1.153   0.638
 6581SOL    HW120642   1.323   1.156   0.538
 6581SOL    HW220643   1.238   1.193   0.673
 6582SOL     OW20644   6.971   0.736   2.352
 6582SOL    HW120645   0.003   0.708   2.272
 6582SOL    HW220646   6.933   0.828   2.336
 6583SOL     OW20647   5.024   6.523   5.315
 6583SOL    HW120648   4.947   6.463   5.336
 6583SOL    HW220649   5.087   6.524   5.393
 6584SOL     OW20650   3.617   2.696   0.757
 6584SOL    HW120651   3.700   2.656   0.716
 6584SOL    HW220652   3.602   2.787   0.720
 6585SOL     OW20653   0.016   6.464   0.120
 6585SOL    HW120654   0.014   6.547   0.177
 6585SOL    HW220655   0.035   6.385   0.178
 6586SOL     OW20656   6.409   2.087   6.016
 6586SOL    HW120657   6.359   2.001   6.026
 6586SOL    HW220658   6.423   2.128   6.107
 6587SOL     OW20659   1.473   4.663   5.822
 6587SOL    HW120660   1.375   4.648   5.812
 6587SOL    HW220661   1.506   4.614   5.903
 6588SOL     OW20662   0.857   2.950   0.808
 6588SOL    HW120663   0.907   2.918   0.728
 6588SOL    HW220664   0.760   2.961   0.785
 6589SOL     OW20665   5.464   0.966   1.870
 6589SOL    HW120666   5.463   0.897   1.798
 6589SOL    HW220667   5.411   1.046   1.840
 6590SOL     OW20668   0.708   0.238   5.093
 6590SOL    HW120669   0.691   0.309   5.161
 6590SOL    HW220670   0.628   0.178   5.087
 6591SOL     OW20671   5.175   5.626   4.018
 6591SOL    HW120672   5.131   5.544   4.055
 6591SOL    HW220673   5.122   5.662   3.942
 6592SOL     OW20674   5.135   0.382   2.783
 6592SOL    HW120675   5.202   0.365   2.710
 6592SOL    HW220676   5.143   0.477   2.813
 6593SOL     OW20677   2.919   2.201   2.296
 6593SOL    HW120678   2.849   2.254   2.344
 6593SOL    HW220679   2.929   2.237   2.203
 6594SOL     OW20680   3.578   1.631   5.669
 6594SOL    HW120681   3.651   1.699   5.667
 6594SOL    HW220682   3.612   1.545   5.631
 6595SOL     OW20683   1.024   3.052   4.768
 6595SOL    HW120684   1.090   2.990   4.726
 6595SOL    HW220685   1.074   3.123   4.819
 6596SOL     OW20686   4.268   5.883   2.924
 6596SOL    HW120687   4.170   5.889   2.905
 6596SOL    HW220688   4.319   5.923   2.848
 6597SOL     OW20689   1.312   5.286   1.617
 6597SOL    HW120690   1.341   5.248   1.705
 6597SOL    HW220691   1.251   5.363   1.632
 6598SOL     OW20692   1.839   4.268   3.241
 6598SOL    HW120693   1.862   4.356   3.281
 6598SOL    HW220694   1.922   4.223   3.210
 6599SOL     OW20695   5.481   5.915   6.726
 6599SOL    HW120696   5.465   5.979   6.651
 6599SOL    HW220697   5.394   5.879   6.758
 6600SOL     OW20698   4.333   7.009   4.824
 6600SOL    HW120699   4.419   7.004   4.875
 6600SOL    HW220700   4.274   6.933   4.851
 6601SOL     OW20701   0.685   2.822   2.985
 6601SOL    HW120702   0.742   2.742   3.005
 6601SOL    HW220703   0.728   2.904   3.020
 6602SOL     OW20704   2.696   0.241   1.389
 6602SOL    HW120705   2.791   0.210   1.388
 6602SOL    HW220706   2.685   0.317   1.324
 6603SOL     OW20707   0.598   3.128   3.555
 6603SOL    HW120708   0.591   3.034   3.521
 6603SOL    HW220709   0.538   3.138   3.635
 6604SOL     OW20710   2.154   0.232   1.341
 6604SOL    HW120711   2.076   0.278   1.297
 6604SOL    HW220712   2.231   0.295   1.345
 6605SOL     OW20713   5.659   5.744   1.871
 6605SOL    HW120714   5.623   5.836   1.881
 6605SOL    HW220715   5.649   5.714   1.776
 6606SOL     OW20716   0.181   4.105   3.139
 6606SOL    HW120717   0.212   4.124   3.232
 6606SOL    HW220718   0.238   4.034   3.099
 6607SOL     OW20719   6.482   4.805   3.767
 6607SOL    HW120720   6.419   4.863   3.715
 6607SOL    HW220721   6.457   4.809   3.864
 6608SOL     OW20722   6.711   0.429   0.594
 6608SOL    HW120723   6.741   0.515   0.553
 6608SOL    HW220724   6.753   0.352   0.546
 6609SOL     OW20725   4.927   1.031   6.362
 6609SOL    HW120726   4.999   0.965   6.341
 6609SOL    HW220727   4.890   1.011   6.453
 6610SOL     OW20728   2.680   5.874   0.177
 6610SOL    HW120729   2.636   5.909   0.094
 6610SOL    HW220730   2.614   5.820   0.230
 6611SOL     OW20731   5.007   2.722   3.801
 6611SOL    HW120732   5.041   2.798   3.857
 6611SOL    HW220733   4.957   2.658   3.859
 6612SOL     OW20734   6.673   2.381   6.457
 6612SOL    HW120735   6.751   2.345   6.406
 6612SOL    HW220736   6.613   2.432   6.394
 6613SOL     OW20737   5.757   6.902   6.424
 6613SOL    HW120738   5.831   6.885   6.359
 6613SOL    HW220739   5.786   6.972   6.490
 6614SOL     OW20740   4.596   6.826   0.925
 6614SOL    HW120741   4.561   6.824   0.831
 6614SOL    HW220742   4.633   6.736   0.948
 6615SOL     OW20743   1.802   5.386   0.131
 6615SOL    HW120744   1.745   5.382   0.213
 6615SOL    HW220745   1.869   5.312   0.132
 6616SOL     OW20746   4.225   6.723   5.660
 6616SOL    HW120747   4.271   6.780   5.592
 6616SOL    HW220748   4.192   6.639   5.618
 6617SOL     OW20749   3.966   6.756   3.402
 6617SOL    HW120750   3.876   6.741   3.361
 6617SOL    HW220751   3.971   6.850   3.437
 6618SOL     OW20752   0.563   1.206   2.969
 6618SOL    HW120753   0.469   1.181   2.991
 6618SOL    HW220754   0.573   1.305   2.973
 6619SOL     OW20755   4.740   6.783   3.916
 6619SOL    HW120756   4.762   6.802   4.011
 6619SOL    HW220757   4.777   6.856   3.858
 6620SOL     OW20758   2.086   3.556   3.711
 6620SOL    HW120759   2.114   3.462   3.730
 6620SOL    HW220760   1.995   3.572   3.750
 6621SOL     OW20761   3.707   2.990   5.106
 6621SOL    HW120762   3.628   2.937   5.073
 6621SOL    HW220763   3.731   3.060   5.038
 6622SOL     OW20764   5.957   5.933   1.223
 6622SOL    HW120765   5.957   6.031   1.240
 6622SOL    HW220766   6.024   5.889   1.283
 6623SOL     OW20767   3.698   4.150   4.977
 6623SOL    HW120768   3.605   4.150   4.941
 6623SOL    HW220769   3.707   4.081   5.048
 6624SOL     OW20770   0.603   3.174   5.573
 6624SOL    HW120771   0.693   3.133   5.587
 6624SOL    HW220772   0.569   3.211   5.659
 6625SOL     OW20773   6.150   2.020   5.462
 6625SOL    HW120774   6.215   1.979   5.526
 6625SOL    HW220775   6.058   1.989   5.483
 6626SOL     OW20776   3.483   0.274   5.469
 6626SOL    HW120777   3.448   0.202   5.529
 6626SOL    HW220778   3.575   0.249   5.438
 6627SOL     OW20779   1.720   6.536   3.918
 6627SOL    HW120780   1.788   6.463   3.911
 6627SOL    HW220781   1.672   6.529   4.005
 6628SOL     OW20782   5.360   5.071   3.794
 6628SOL    HW120783   5.385   5.067   3.891
 6628SOL    HW220784   5.359   4.979   3.756
 6629SOL     OW20785   4.534   4.974   6.603
 6629SOL    HW120786   4.561   5.013   6.515
 6629SOL    HW220787   4.593   4.896   6.624
 6630SOL     OW20788   3.892   1.703   1.745
 6630SOL    HW120789   3.829   1.642   1.794
 6630SOL    HW220790   3.973   1.651   1.719
 6631SOL     OW20791   2.221   5.189   4.661
 6631SOL    HW120792   2.239   5.184   4.759
 6631SOL    HW220793   2.148   5.125   4.638
 6632SOL     OW20794   1.617   1.187   0.898
 6632SOL    HW120795   1.612   1.237   0.812
 6632SOL    HW220796   1.525   1.157   0.925
 6633SOL     OW20797   2.914   4.727   5.910
 6633SOL    HW120798   2.858   4.648   5.938
 6633SOL    HW220799   2.965   4.704   5.827
 6634SOL     OW20800   4.805   2.475   5.161
 6634SOL    HW120801   4.883   2.451   5.218
 6634SOL    HW220802   4.723   2.486   5.218
 6635SOL     OW20803   4.807   3.967   3.216
 6635SOL    HW120804   4.744   3.943   3.141
 6635SOL    HW220805   4.823   3.887   3.274
 6636SOL     OW20806   3.302   0.881   2.241
 6636SOL    HW120807   3.401   0.891   2.257
 6636SOL    HW220808   3.262   0.971   2.223
 6637SOL     OW20809   2.507   0.395   0.474
 6637SOL    HW120810   2.526   0.388   0.376
 6637SOL    HW220811   2.494   0.491   0.498
 6638SOL     OW20812   3.058   3.490   3.213
 6638SOL    HW120813   3.129   3.436   3.168
 6638SOL    HW220814   2.980   3.501   3.151
 6639SOL     OW20815   3.883   3.334   6.705
 6639SOL    HW120816   3.909   3.366   6.796
 6639SOL    HW220817   3.795   3.285   6.711
 6640SOL     OW20818   6.800   2.318   5.597
 6640SOL    HW120819   6.859   2.364   5.664
 6640SOL    HW220820   6.807   2.219   5.611
 6641SOL     OW20821   3.491   1.822   0.482
 6641SOL    HW120822   3.420   1.802   0.415
 6641SOL    HW220823   3.449   1.849   0.569
 6642SOL     OW20824   2.458   5.014   6.667
 6642SOL    HW120825   2.437   4.954   6.745
 6642SOL    HW220826   2.384   5.008   6.600
 6643SOL     OW20827   6.579   6.670   1.100
 6643SOL    HW120828   6.614   6.615   1.025
 6643SOL    HW220829   6.500   6.625   1.141
 6644SOL     OW20830   1.657   6.467   3.467
 6644SOL    HW120831   1.611   6.444   3.553
 6644SOL    HW220832   1.592   6.458   3.391
 6645SOL     OW20833   5.546   2.882   0.499
 6645SOL    HW120834   5.625   2.899   0.440
 6645SOL    HW220835   5.491   2.966   0.506
 6646SOL     OW20836   4.302   0.608   6.334
 6646SOL    HW120837   4.278   0.678   6.401
 6646SOL    HW220838   4.239   0.614   6.256
 6647SOL     OW20839   4.437   6.447   0.898
 6647SOL    HW120840   4.368   6.511   0.932
 6647SOL    HW220841   4.392   6.378   0.840
 6648SOL     OW20842   3.651   5.800   4.390
 6648SOL    HW120843   3.708   5.721   4.367
 6648SOL    HW220844   3.555   5.776   4.378
 6649SOL     OW20845   6.015   3.099   6.632
 6649SOL    HW120846   5.933   3.042   6.635
 6649SOL    HW220847   6.083   3.065   6.697
 6650SOL     OW20848   3.766   1.510   4.992
 6650SOL    HW120849   3.764   1.411   4.986
 6650SOL    HW220850   3.858   1.543   4.973
 6651SOL     OW20851   1.535   1.800   0.228
 6651SOL    HW120852   1.547   1.880   0.287
 6651SOL    HW220853   1.440   1.796   0.197
 6652SOL     OW20854   0.571   4.541   7.018
 6652SOL    HW120855   0.524   4.622   6.984
 6652SOL    HW220856   0.644   4.568   0.058
 6653SOL     OW20857   4.788   3.003   0.861
 6653SOL    HW120858   4.717   2.933   0.861
 6653SOL    HW220859   4.862   2.975   0.921
 6654SOL     OW20860   0.364   5.154   2.706
 6654SOL    HW120861   0.402   5.107   2.786
 6654SOL    HW220862   0.438   5.176   2.642
 6655SOL     OW20863   0.340   6.168   2.077
 6655SOL    HW120864   0.344   6.211   1.987
 6655SOL    HW220865   0.323   6.238   2.147
 6656SOL     OW20866   4.849   1.739   2.599
 6656SOL    HW120867   4.778   1.737   2.528
 6656SOL    HW220868   4.864   1.647   2.634
 6657SOL     OW20869   6.025   2.851   4.732
 6657SOL    HW120870   5.964   2.792   4.785
 6657SOL    HW220871   6.111   2.862   4.781
 6658SOL     OW20872   6.652   0.251   5.333
 6658SOL    HW120873   6.607   0.321   5.278
 6658SOL    HW220874   6.750   0.251   5.313
 6659SOL     OW20875   1.203   4.343   1.924
 6659SOL    HW120876   1.295   4.310   1.905
 6659SOL    HW220877   1.138   4.298   1.863
 6660SOL     OW20878   1.745   5.064   1.697
 6660SOL    HW120879   1.775   4.971   1.675
 6660SOL    HW220880   1.645   5.068   1.698
 6661SOL     OW20881   2.817   0.653   4.682
 6661SOL    HW120882   2.756   0.713   4.630
 6661SOL    HW220883   2.790   0.653   4.778
 6662SOL     OW20884   2.289   0.538   1.209
 6662SOL    HW120885   2.342   0.455   1.192
 6662SOL    HW220886   2.192   0.519   1.191
 6663SOL     OW20887   1.131   6.090   5.731
 6663SOL    HW120888   1.065   6.099   5.657
 6663SOL    HW220889   1.221   6.121   5.700
 6664SOL     OW20890   2.324   0.637   1.493
 6664SOL    HW120891   2.322   0.587   1.407
 6664SOL    HW220892   2.250   0.604   1.552
 6665SOL     OW20893   2.030   6.372   5.996
 6665SOL    HW120894   2.039   6.461   5.951
 6665SOL    HW220895   2.052   6.299   5.931
 6666SOL     OW20896   6.424   5.432   5.049
 6666SOL    HW120897   6.392   5.524   5.026
 6666SOL    HW220898   6.419   5.374   4.968
 6667SOL     OW20899   7.001   6.574   5.832
 6667SOL    HW120900   6.978   6.550   5.927
 6667SOL    HW220901   6.933   6.638   5.796
 6668SOL     OW20902   6.936   6.088   1.294
 6668SOL    HW120903   6.840   6.068   1.272
 6668SOL    HW220904   6.946   6.186   1.312
 6669SOL     OW20905   3.976   2.125   1.386
 6669SOL    HW120906   3.948   2.066   1.462
 6669SOL    HW220907   3.934   2.215   1.397
 6670SOL     OW20908   3.113   0.979   6.631
 6670SOL    HW120909   3.118   0.991   6.730
 6670SOL    HW220910   3.061   0.896   6.611
 6671SOL     OW20911   5.483   6.780   0.622
 6671SOL    HW120912   5.492   6.699   0.564
 6671SOL    HW220913   5.542   6.771   0.702
 6672SOL     OW20914   1.325   2.185   0.621
 6672SOL    HW120915   1.342   2.133   0.538
 6672SOL    HW220916   1.329   2.124   0.700
 6673SOL     OW20917   4.821   3.948   3.821
 6673SOL    HW120918   4.762   4.011   3.770
 6673SOL    HW220919   4.873   3.998   3.889
 6674SOL     OW20920   0.086   3.097   6.887
 6674SOL    HW120921   0.152   3.062   6.821
 6674SOL    HW220922   0.114   3.188   6.918
 6675SOL     OW20923   5.157   2.418   0.335
 6675SOL    HW120924   5.224   2.448   0.403
 6675SOL    HW220925   5.066   2.416   0.378
 6676SOL     OW20926   1.016   3.557   2.573
 6676SOL    HW120927   1.019   3.567   2.672
 6676SOL    HW220928   0.974   3.638   2.532
 6677SOL     OW20929   0.803   0.624   6.639
 6677SOL    HW120930   0.863   0.691   6.597
 6677SOL    HW220931   0.722   0.669   6.675
 6678SOL     OW20932   2.029   4.352   1.084
 6678SOL    HW120933   2.007   4.306   1.170
 6678SOL    HW220934   2.051   4.283   1.015
 6679SOL     OW20935   4.033   0.878   3.904
 6679SOL    HW120936   4.016   0.814   3.830
 6679SOL    HW220937   3.946   0.912   3.940
 6680SOL     OW20938   4.518   6.095   6.454
 6680SOL    HW120939   4.563   6.012   6.487
 6680SOL    HW220940   4.575   6.174   6.476
 6681SOL     OW20941   4.999   5.548   1.411
 6681SOL    HW120942   5.094   5.523   1.431
 6681SOL    HW220943   4.937   5.488   1.463
 6682SOL     OW20944   2.384   4.597   6.696
 6682SOL    HW120945   2.369   4.600   6.597
 6682SOL    HW220946   2.425   4.684   6.726
 6683SOL     OW20947   5.640   3.239   6.027
 6683SOL    HW120948   5.619   3.282   6.115
 6683SOL    HW220949   5.739   3.245   6.010
 6684SOL     OW20950   3.607   6.756   2.138
 6684SOL    HW120951   3.557   6.740   2.053
 6684SOL    HW220952   3.615   6.854   2.154
 6685SOL     OW20953   4.726   2.747   6.748
 6685SOL    HW120954   4.658   2.722   6.679
 6685SOL    HW220955   4.689   2.730   6.839
 6686SOL     OW20956   6.333   5.943   3.547
 6686SOL    HW120957   6.275   6.010   3.592
 6686SOL    HW220958   6.420   5.985   3.521
 6687SOL     OW20959   0.505   2.871   1.788
 6687SOL    HW120960   0.568   2.903   1.718
 6687SOL    HW220961   0.548   2.798   1.841
 6688SOL     OW20962   4.115   4.438   0.800
 6688SOL    HW120963   4.069   4.405   0.882
 6688SOL    HW220964   4.201   4.482   0.825
 6689SOL     OW20965   4.128   3.226   6.060
 6689SOL    HW120966   4.134   3.157   5.988
 6689SOL    HW220967   4.103   3.314   6.019
 6690SOL     OW20968   1.346   6.326   0.224
 6690SOL    HW120969   1.430   6.373   0.195
 6690SOL    HW220970   1.349   6.230   0.196
 6691SOL     OW20971   1.255   0.389   2.538
 6691SOL    HW120972   1.237   0.453   2.464
 6691SOL    HW220973   1.354   0.378   2.549
 6692SOL     OW20974   4.118   3.910   1.824
 6692SOL    HW120975   4.070   3.827   1.855
 6692SOL    HW220976   4.146   3.964   1.904
 6693SOL     OW20977   4.483   1.750   5.048
 6693SOL    HW120978   4.400   1.803   5.033
 6693SOL    HW220979   4.518   1.769   5.140
 6694SOL     OW20980   4.565   5.871   1.243
 6694SOL    HW120981   4.524   5.845   1.330
 6694SOL    HW220982   4.658   5.836   1.238
 6695SOL     OW20983   2.674   1.914   6.847
 6695SOL    HW120984   2.574   1.918   6.844
 6695SOL    HW220985   2.708   1.865   6.767
 6696SOL     OW20986   4.062   3.668   3.105
 6696SOL    HW120987   4.001   3.705   3.176
 6696SOL    HW220988   4.075   3.570   3.121
 6697SOL     OW20989   4.820   2.566   3.118
 6697SOL    HW120990   4.729   2.605   3.126
 6697SOL    HW220991   4.834   2.533   3.025
 6698SOL     OW20992   3.107   3.565   1.387
 6698SOL    HW120993   3.015   3.555   1.425
 6698SOL    HW220994   3.110   3.529   1.294
 6699SOL     OW20995   2.373   6.456   5.373
 6699SOL    HW120996   2.345   6.386   5.307
 6699SOL    HW220997   2.461   6.494   5.347
 6700SOL     OW20998   5.511   0.724   1.031
 6700SOL    HW120999   5.572   0.723   1.111
 6700SOL    HW221000   5.566   0.719   0.948
 6701SOL     OW21001   5.577   6.517   2.215
 6701SOL    HW121002   5.480   6.511   2.190
 6701SOL    HW221003   5.631   6.537   2.133
 6702SOL     OW21004   1.911   2.530   1.934
 6702SOL    HW121005   1.904   2.441   1.979
 6702SOL    HW221006   1.970   2.590   1.989
 6703SOL     OW21007   1.069   1.274   6.961
 6703SOL    HW121008   1.044   1.358   7.009
 6703SOL    HW221009   1.052   1.195   7.020
 6704SOL     OW21010   3.969   2.062   4.413
 6704SOL    HW121011   3.944   2.095   4.504
 6704SOL    HW221012   4.056   2.014   4.417
 6705SOL     OW21013   6.241   2.537   1.049
 6705SOL    HW121014   6.205   2.617   1.002
 6705SOL    HW221015   6.304   2.566   1.121
 6706SOL     OW21016   1.636   6.338   0.695
 6706SOL    HW121017   1.667   6.320   0.602
 6706SOL    HW221018   1.540   6.310   0.704
 6707SOL     OW21019   5.413   0.249   3.256
 6707SOL    HW121020   5.424   0.150   3.248
 6707SOL    HW221021   5.355   0.283   3.181
 6708SOL     OW21022   5.907   5.268   1.165
 6708SOL    HW121023   5.950   5.358   1.159
 6708SOL    HW221024   5.943   5.208   1.093
 6709SOL     OW21025   0.534   4.908   2.626
 6709SOL    HW121026   0.631   4.886   2.618
 6709SOL    HW221027   0.495   4.926   2.535
 6710SOL     OW21028   4.382   1.436   0.687
 6710SOL    HW121029   4.286   1.429   0.716
 6710SOL    HW221030   4.399   1.525   0.646
 6711SOL     OW21031   4.899   6.710   5.701
 6711SOL    HW121032   4.844   6.661   5.633
 6711SOL    HW221033   4.915   6.651   5.780
 6712SOL     OW21034   6.026   3.331   1.412
 6712SOL    HW121035   6.001   3.368   1.501
 6712SOL    HW221036   6.091   3.255   1.424
 6713SOL     OW21037   1.226   1.422   3.374
 6713SOL    HW121038   1.285   1.350   3.336
 6713SOL    HW221039   1.230   1.502   3.315
 6714SOL     OW21040   5.729   0.942   0.725
 6714SOL    HW121041   5.723   0.851   0.767
 6714SOL    HW221042   5.805   0.944   0.660
 6715SOL     OW21043   1.538   0.785   1.239
 6715SOL    HW121044   1.464   0.717   1.243
 6715SOL    HW221045   1.569   0.806   1.332
 6716SOL     OW21046   6.755   5.683   2.928
 6716SOL    HW121047   6.851   5.664   2.948
 6716SOL    HW221048   6.719   5.613   2.867
 6717SOL     OW21049   2.696   2.329   6.284
 6717SOL    HW121050   2.787   2.342   6.244
 6717SOL    HW221051   2.653   2.249   6.244
 6718SOL     OW21052   3.668   0.824   1.188
 6718SOL    HW121053   3.661   0.853   1.092
 6718SOL    HW221054   3.622   0.892   1.246
 6719SOL     OW21055   2.203   6.782   0.416
 6719SOL    HW121056   2.109   6.814   0.405
 6719SOL    HW221057   2.208   6.685   0.394
 6720SOL     OW21058   2.689   1.392   4.829
 6720SOL    HW121059   2.605   1.373   4.778
 6720SOL    HW221060   2.717   1.310   4.878
 6721SOL     OW21061   6.830   6.942   0.639
 6721SOL    HW121062   6.733   6.928   0.617
 6721SOL    HW221063   6.843   6.932   0.737
 6722SOL     OW21064   0.189   2.233   0.577
 6722SOL    HW121065   0.249   2.311   0.595
 6722SOL    HW221066   0.176   2.180   0.661
 6723SOL     OW21067   1.830   6.834   6.119
 6723SOL    HW121068   1.840   6.912   6.058
 6723SOL    HW221069   1.742   6.789   6.101
 6724SOL     OW21070   2.277   2.267   6.134
 6724SOL    HW121071   2.371   2.276   6.104
 6724SOL    HW221072   2.275   2.249   6.233
 6725SOL     OW21073   6.727   2.706   2.171
 6725SOL    HW121074   6.718   2.630   2.236
 6725SOL    HW221075   6.773   2.783   2.216
 6726SOL     OW21076   0.605   1.920   4.365
 6726SOL    HW121077   0.505   1.920   4.372
 6726SOL    HW221078   0.636   2.011   4.337
 6727SOL     OW21079   0.342   4.161   5.998
 6727SOL    HW121080   0.327   4.179   5.901
 6727SOL    HW221081   0.406   4.228   6.035
 6728SOL     OW21082   3.383   1.400   3.427
 6728SOL    HW121083   3.428   1.358   3.506
 6728SOL    HW221084   3.285   1.381   3.430
 6729SOL     OW21085   6.877   1.958   0.247
 6729SOL    HW121086   6.786   1.967   0.288
 6729SOL    HW221087   6.946   1.976   0.316
 6730SOL     OW21088   1.868   0.215   1.246
 6730SOL    HW121089   1.881   0.117   1.232
 6730SOL    HW221090   1.775   0.241   1.218
 6731SOL     OW21091   1.785   6.845   1.011
 6731SOL    HW121092   1.787   6.856   0.912
 6731SOL    HW221093   1.690   6.842   1.043
 6732SOL     OW21094   5.157   4.096   4.338
 6732SOL    HW121095   5.062   4.065   4.342
 6732SOL    HW221096   5.175   4.142   4.251
 6733SOL     OW21097   4.060   5.454   6.297
 6733SOL    HW121098   4.155   5.478   6.278
 6733SOL    HW221099   4.045   5.357   6.276
 6734SOL     OW21100   5.239   2.098   6.011
 6734SOL    HW121101   5.242   2.082   6.109
 6734SOL    HW221102   5.218   2.013   5.963
 6735SOL     OW21103   5.271   3.376   4.061
 6735SOL    HW121104   5.276   3.420   4.151
 6735SOL    HW221105   5.298   3.441   3.990
 6736SOL     OW21106   3.271   3.513   6.330
 6736SOL    HW121107   3.309   3.426   6.298
 6736SOL    HW221108   3.237   3.566   6.252
 6737SOL     OW21109   1.435   3.127   1.270
 6737SOL    HW121110   1.383   3.210   1.249
 6737SOL    HW221111   1.407   3.092   1.360
 6738SOL     OW21112   1.336   5.669   3.908
 6738SOL    HW121113   1.312   5.665   3.811
 6738SOL    HW221114   1.281   5.603   3.959
 6739SOL     OW21115   6.682   6.029   3.632
 6739SOL    HW121116   6.782   6.031   3.626
 6739SOL    HW221117   6.654   6.049   3.727
 6740SOL     OW21118   6.885   0.114   4.956
 6740SOL    HW121119   6.944   0.149   4.884
 6740SOL    HW221120   6.875   0.183   5.028
 6741SOL     OW21121   3.678   2.051   6.173
 6741SOL    HW121122   3.736   2.063   6.254
 6741SOL    HW221123   3.597   1.998   6.197
 6742SOL     OW21124   5.650   5.485   3.886
 6742SOL    HW121125   5.629   5.421   3.812
 6742SOL    HW221126   5.572   5.545   3.902
 6743SOL     OW21127   3.859   3.868   6.263
 6743SOL    HW121128   3.818   3.823   6.343
 6743SOL    HW221129   3.954   3.839   6.254
 6744SOL     OW21130   0.465   6.464   6.037
 6744SOL    HW121131   0.497   6.555   6.064
 6744SOL    HW221132   0.371   6.470   6.003
 6745SOL     OW21133   6.844   6.449   3.540
 6745SOL    HW121134   6.943   6.453   3.550
 6745SOL    HW221135   6.805   6.397   3.616
 6746SOL     OW21136   1.709   0.465   3.513
 6746SOL    HW121137   1.661   0.528   3.452
 6746SOL    HW221138   1.648   0.437   3.587
 6747SOL     OW21139   6.440   0.220   0.181
 6747SOL    HW121140   6.489   0.307   0.192
 6747SOL    HW221141   6.364   0.233   0.117
 6748SOL     OW21142   3.120   1.917   3.665
 6748SOL    HW121143   3.117   1.848   3.592
 6748SOL    HW221144   3.121   2.009   3.624
 6749SOL     OW21145   3.644   4.436   1.125
 6749SOL    HW121146   3.719   4.435   1.058
 6749SOL    HW221147   3.681   4.419   1.216
 6750SOL     OW21148   3.404   1.739   4.373
 6750SOL    HW121149   3.355   1.826   4.372
 6750SOL    HW221150   3.477   1.741   4.304
 6751SOL     OW21151   4.982   0.844   3.290
 6751SOL    HW121152   5.008   0.808   3.379
 6751SOL    HW221153   4.885   0.824   3.273
 6752SOL     OW21154   1.977   0.433   3.448
 6752SOL    HW121155   1.880   0.438   3.472
 6752SOL    HW221156   2.030   0.490   3.510
 6753SOL     OW21157   3.339   2.076   5.630
 6753SOL    HW121158   3.394   2.004   5.589
 6753SOL    HW221159   3.392   2.122   5.702
 6754SOL     OW21160   6.475   1.407   0.749
 6754SOL    HW121161   6.381   1.411   0.713
 6754SOL    HW221162   6.472   1.419   0.848
 6755SOL     OW21163   4.015   3.806   1.170
 6755SOL    HW121164   4.038   3.765   1.082
 6755SOL    HW221165   4.058   3.754   1.243
 6756SOL     OW21166   3.763   0.222   5.488
 6756SOL    HW121167   3.776   0.194   5.583
 6756SOL    HW221168   3.848   0.205   5.437
 6757SOL     OW21169   3.423   2.155   0.969
 6757SOL    HW121170   3.423   2.082   1.037
 6757SOL    HW221171   3.512   2.201   0.970
 6758SOL     OW21172   6.297   3.179   1.756
 6758SOL    HW121173   6.370   3.122   1.794
 6758SOL    HW221174   6.264   3.242   1.827
 6759SOL     OW21175   0.002   3.019   2.660
 6759SOL    HW121176   0.055   2.938   2.636
 6759SOL    HW221177   0.036   3.097   2.608
 6760SOL     OW21178   6.391   3.832   2.473
 6760SOL    HW121179   6.396   3.738   2.441
 6760SOL    HW221180   6.458   3.847   2.546
 6761SOL     OW21181   5.805   3.149   4.721
 6761SOL    HW121182   5.864   3.126   4.798
 6761SOL    HW221183   5.770   3.242   4.732
 6762SOL     OW21184   0.870   4.878   4.550
 6762SOL    HW121185   0.943   4.810   4.555
 6762SOL    HW221186   0.824   4.872   4.461
 6763SOL     OW21187   5.096   5.441   4.389
 6763SOL    HW121188   5.182   5.464   4.434
 6763SOL    HW221189   5.031   5.516   4.400
 6764SOL     OW21190   2.050   5.295   1.635
 6764SOL    HW121191   2.080   5.265   1.726
 6764SOL    HW221192   2.008   5.219   1.586
 6765SOL     OW21193   5.708   4.465   2.736
 6765SOL    HW121194   5.625   4.455   2.682
 6765SOL    HW221195   5.690   4.438   2.831
 6766SOL     OW21196   5.167   6.462   5.578
 6766SOL    HW121197   5.227   6.384   5.558
 6766SOL    HW221198   5.089   6.431   5.633
 6767SOL     OW21199   3.332   0.464   1.254
 6767SOL    HW121200   3.408   0.518   1.218
 6767SOL    HW221201   3.255   0.470   1.191
 6768SOL     OW21202   1.825   0.464   5.479
 6768SOL    HW121203   1.839   0.373   5.439
 6768SOL    HW221204   1.914   0.506   5.497
 6769SOL     OW21205   3.185   1.524   0.461
 6769SOL    HW121206   3.109   1.480   0.508
 6769SOL    HW221207   3.270   1.508   0.512
 6770SOL     OW21208   6.757   1.256   1.907
 6770SOL    HW121209   6.842   1.219   1.943
 6770SOL    HW221210   6.765   1.270   1.808
 6771SOL     OW21211   4.821   2.326   3.414
 6771SOL    HW121212   4.877   2.243   3.417
 6771SOL    HW221213   4.788   2.341   3.321
 6772SOL     OW21214   3.604   1.359   3.256
 6772SOL    HW121215   3.580   1.263   3.244
 6772SOL    HW221216   3.521   1.415   3.247
 6773SOL     OW21217   0.146   5.308   1.929
 6773SOL    HW121218   0.118   5.403   1.940
 6773SOL    HW221219   0.077   5.258   1.877
 6774SOL     OW21220   0.370   1.975   5.249
 6774SOL    HW121221   0.445   2.038   5.270
 6774SOL    HW221222   0.403   1.903   5.189
 6775SOL     OW21223   2.545   2.726   1.761
 6775SOL    HW121224   2.597   2.642   1.775
 6775SOL    HW221225   2.605   2.798   1.727
 6776SOL     OW21226   4.156   4.848   0.008
 6776SOL    HW121227   4.218   4.892   0.074
 6776SOL    HW221228   4.135   4.755   0.038
 6777SOL     OW21229   4.275   3.742   0.027
 6777SOL    HW121230   4.241   3.830   7.017
 6777SOL    HW221231   4.369   3.729   7.017
 6778SOL     OW21232   5.903   4.898   2.148
 6778SOL    HW121233   5.839   4.821   2.139
 6778SOL    HW221234   5.997   4.864   2.142
 6779SOL     OW21235   6.697   5.155   6.253
 6779SOL    HW121236   6.715   5.057   6.264
 6779SOL    HW221237   6.729   5.204   6.334
 6780SOL     OW21238   1.415   2.579   1.908
 6780SOL    HW121239   1.508   2.551   1.885
 6780SOL    HW221240   1.407   2.679   1.898
 6781SOL     OW21241   6.557   0.370   4.848
 6781SOL    HW121242   6.577   0.442   4.915
 6781SOL    HW221243   6.462   0.377   4.819
 6782SOL     OW21244   0.027   0.177   3.513
 6782SOL    HW121245   6.984   0.149   3.443
 6782SOL    HW221246   7.021   0.265   3.551
 6783SOL     OW21247   6.259   1.180   5.761
 6783SOL    HW121248   6.159   1.175   5.755
 6783SOL    HW221249   6.288   1.276   5.753
 6784SOL     OW21250   2.278   4.007   0.760
 6784SOL    HW121251   2.371   4.035   0.734
 6784SOL    HW221252   2.250   3.929   0.704
 6785SOL     OW21253   5.162   5.191   3.583
 6785SOL    HW121254   5.232   5.187   3.655
 6785SOL    HW221255   5.197   5.245   3.506
 6786SOL     OW21256   1.343   2.042   0.354
 6786SOL    HW121257   1.416   2.020   0.419
 6786SOL    HW221258   1.290   1.960   0.333
 6787SOL     OW21259   1.613   2.515   1.304
 6787SOL    HW121260   1.648   2.577   1.375
 6787SOL    HW221261   1.618   2.561   1.215
 6788SOL     OW21262   2.246   3.362   1.209
 6788SOL    HW121263   2.286   3.386   1.121
 6788SOL    HW221264   2.217   3.444   1.257
 6789SOL     OW21265   6.565   6.125   2.983
 6789SOL    HW121266   6.478   6.078   2.997
 6789SOL    HW221267   6.637   6.077   3.034
 6790SOL     OW21268   1.010   3.947   1.060
 6790SOL    HW121269   0.929   3.957   1.117
 6790SOL    HW221270   0.998   3.868   0.999
 6791SOL     OW21271   4.151   2.658   1.672
 6791SOL    HW121272   4.125   2.581   1.614
 6791SOL    HW221273   4.217   2.627   1.741
 6792SOL     OW21274   6.400   6.023   5.276
 6792SOL    HW121275   6.368   5.931   5.300
 6792SOL    HW221276   6.357   6.090   5.336
 6793SOL     OW21277   0.859   1.489   0.521
 6793SOL    HW121278   0.868   1.564   0.587
 6793SOL    HW221279   0.780   1.506   0.462
 6794SOL     OW21280   5.266   1.447   6.498
 6794SOL    HW121281   5.300   1.518   6.560
 6794SOL    HW221282   5.200   1.390   6.545
 6795SOL     OW21283   2.564   6.363   1.200
 6795SOL    HW121284   2.596   6.442   1.147
 6795SOL    HW221285   2.641   6.301   1.216
 6796SOL     OW21286   6.530   0.810   1.930
 6796SOL    HW121287   6.523   0.884   1.998
 6796SOL    HW221288   6.522   0.849   1.838
 6797SOL     OW21289   5.439   3.104   1.886
 6797SOL    HW121290   5.351   3.056   1.895
 6797SOL    HW221291   5.471   3.099   1.791
 6798SOL     OW21292   5.095   6.761   2.689
 6798SOL    HW121293   5.004   6.802   2.687
 6798SOL    HW221294   5.089   6.665   2.661
 6799SOL     OW21295   6.418   6.392   1.180
 6799SOL    HW121296   6.499   6.342   1.149
 6799SOL    HW221297   6.433   6.423   1.274
 6800SOL     OW21298   2.551   3.866   1.038
 6800SOL    HW121299   2.472   3.821   0.997
 6800SOL    HW221300   2.531   3.888   1.133
 6801SOL     OW21301   0.812   0.465   2.912
 6801SOL    HW121302   0.845   0.542   2.967
 6801SOL    HW221303   0.866   0.460   2.828
 6802SOL     OW21304   3.400   6.071   0.670
 6802SOL    HW121305   3.490   6.057   0.627
 6802SOL    HW221306   3.328   6.055   0.603
 6803SOL     OW21307   4.909   2.468   6.186
 6803SOL    HW121308   5.000   2.431   6.171
 6803SOL    HW221309   4.890   2.539   6.118
 6804SOL     OW21310   3.318   5.342   3.786
 6804SOL    HW121311   3.335   5.440   3.777
 6804SOL    HW221312   3.400   5.291   3.760
 6805SOL     OW21313   6.052   4.987   6.220
 6805SOL    HW121314   6.050   5.085   6.200
 6805SOL    HW221315   6.060   4.935   6.134
 6806SOL     OW21316   5.884   0.503   3.529
 6806SOL    HW121317   5.861   0.429   3.467
 6806SOL    HW221318   5.965   0.550   3.496
 6807SOL     OW21319   3.398   2.652   0.417
 6807SOL    HW121320   3.461   2.670   0.341
 6807SOL    HW221321   3.375   2.738   0.463
 6808SOL     OW21322   0.400   1.806   5.014
 6808SOL    HW121323   0.457   1.738   4.969
 6808SOL    HW221324   0.355   1.862   4.945
 6809SOL     OW21325   1.063   3.006   1.479
 6809SOL    HW121326   1.028   2.940   1.412
 6809SOL    HW221327   1.163   3.013   1.470
 6810SOL     OW21328   2.159   0.021   1.765
 6810SOL    HW121329   2.107   0.029   1.680
 6810SOL    HW221330   2.241   6.988   1.748
 6811SOL     OW21331   4.882   4.098   0.622
 6811SOL    HW121332   4.891   4.062   0.529
 6811SOL    HW221333   4.844   4.027   0.681
 6812SOL     OW21334   3.076   3.085   3.155
 6812SOL    HW121335   3.040   3.124   3.239
 6812SOL    HW221336   3.124   3.000   3.176
 6813SOL     OW21337   4.992   1.959   2.582
 6813SOL    HW121338   4.941   1.874   2.593
 6813SOL    HW221339   4.943   2.019   2.519
 6814SOL     OW21340   3.241   1.848   6.683
 6814SOL    HW121341   3.205   1.906   6.756
 6814SOL    HW221342   3.265   1.904   6.604
 6815SOL     OW21343   2.845   6.864   1.675
 6815SOL    HW121344   2.905   6.821   1.743
 6815SOL    HW221345   2.872   6.959   1.662
 6816SOL     OW21346   0.552   6.799   6.638
 6816SOL    HW121347   0.553   6.899   6.640
 6816SOL    HW221348   0.500   6.764   6.715
 6817SOL     OW21349   1.423   2.292   4.056
 6817SOL    HW121350   1.516   2.281   4.021
 6817SOL    HW221351   1.371   2.208   4.040
 6818SOL     OW21352   3.024   4.876   1.692
 6818SOL    HW121353   3.065   4.937   1.760
 6818SOL    HW221354   3.069   4.787   1.697
 6819SOL     OW21355   5.446   0.869   4.482
 6819SOL    HW121356   5.391   0.952   4.485
 6819SOL    HW221357   5.386   0.789   4.476
 6820SOL     OW21358   1.609   5.617   3.395
 6820SOL    HW121359   1.658   5.533   3.419
 6820SOL    HW221360   1.527   5.625   3.452
 6821SOL     OW21361   3.142   0.945   4.721
 6821SOL    HW121362   3.225   0.897   4.748
 6821SOL    HW221363   3.128   0.934   4.622
 6822SOL     OW21364   5.402   2.379   6.828
 6822SOL    HW121365   5.488   2.354   6.871
 6822SOL    HW221366   5.327   2.361   6.892
 6823SOL     OW21367   3.328   3.210   4.177
 6823SOL    HW121368   3.411   3.171   4.139
 6823SOL    HW221369   3.352   3.279   4.245
 6824SOL     OW21370   1.191   2.635   6.474
 6824SOL    HW121371   1.258   2.659   6.544
 6824SOL    HW221372   1.142   2.552   6.503
 6825SOL     OW21373   4.805   6.765   2.653
 6825SOL    HW121374   4.759   6.759   2.742
 6825SOL    HW221375   4.839   6.858   2.640
 6826SOL     OW21376   2.046   4.093   2.101
 6826SOL    HW121377   2.081   4.002   2.124
 6826SOL    HW221378   1.965   4.113   2.157
 6827SOL     OW21379   4.629   5.388   6.522
 6827SOL    HW121380   4.535   5.377   6.553
 6827SOL    HW221381   4.630   5.441   6.437
 6828SOL     OW21382   2.332   2.093   1.632
 6828SOL    HW121383   2.298   2.186   1.618
 6828SOL    HW221384   2.404   2.093   1.701
 6829SOL     OW21385   4.396   6.562   4.230
 6829SOL    HW121386   4.331   6.619   4.179
 6829SOL    HW221387   4.400   6.594   4.325
 6830SOL     OW21388   5.221   1.551   4.287
 6830SOL    HW121389   5.185   1.642   4.263
 6830SOL    HW221390   5.145   1.491   4.313
 6831SOL     OW21391   1.159   0.343   6.804
 6831SOL    HW121392   1.242   0.361   6.751
 6831SOL    HW221393   1.097   0.421   6.794
 6832SOL     OW21394   2.179   3.835   1.057
 6832SOL    HW121395   2.206   3.847   0.962
 6832SOL    HW221396   2.099   3.775   1.062
 6833SOL     OW21397   4.066   3.901   5.887
 6833SOL    HW121398   4.067   4.001   5.888
 6833SOL    HW221399   4.161   3.867   5.891
 6834SOL     OW21400   5.517   6.669   0.982
 6834SOL    HW121401   5.589   6.682   0.914
 6834SOL    HW221402   5.545   6.708   1.069
 6835SOL     OW21403   3.763   0.465   4.477
 6835SOL    HW121404   3.710   0.510   4.405
 6835SOL    HW221405   3.781   0.370   4.450
 6836SOL     OW21406   2.969   5.525   0.372
 6836SOL    HW121407   2.995   5.601   0.432
 6836SOL    HW221408   2.886   5.548   0.322
 6837SOL     OW21409   1.920   1.727   2.416
 6837SOL    HW121410   1.824   1.703   2.398
 6837SOL    HW221411   1.944   1.808   2.362
 6838SOL     OW21412   2.912   6.519   0.522
 6838SOL    HW121413   2.814   6.509   0.505
 6838SOL    HW221414   2.946   6.439   0.572
 6839SOL     OW21415   5.374   0.239   6.677
 6839SOL    HW121416   5.276   0.252   6.660
 6839SOL    HW221417   5.398   0.274   6.767
 6840SOL     OW21418   2.738   0.884   5.066
 6840SOL    HW121419   2.740   0.915   4.971
 6840SOL    HW221420   2.830   0.860   5.096
 6841SOL     OW21421   4.684   4.059   6.373
 6841SOL    HW121422   4.590   4.046   6.405
 6841SOL    HW221423   4.705   4.157   6.371
 6842SOL     OW21424   3.166   4.341   1.471
 6842SOL    HW121425   3.074   4.323   1.436
 6842SOL    HW221426   3.204   4.420   1.422
 6843SOL     OW21427   5.813   6.463   0.812
 6843SOL    HW121428   5.868   6.475   0.730
 6843SOL    HW221429   5.716   6.464   0.787
 6844SOL     OW21430   6.089   1.155   4.463
 6844SOL    HW121431   6.133   1.228   4.412
 6844SOL    HW221432   5.992   1.151   4.437
 6845SOL     OW21433   6.126   4.019   3.483
 6845SOL    HW121434   6.058   3.958   3.522
 6845SOL    HW221435   6.116   4.111   3.522
 6846SOL     OW21436   3.804   3.601   0.393
 6846SOL    HW121437   3.870   3.676   0.400
 6846SOL    HW221438   3.726   3.621   0.452
 6847SOL     OW21439   6.940   3.690   5.353
 6847SOL    HW121440   6.979   3.603   5.320
 6847SOL    HW221441   7.004   3.732   5.417
 6848SOL     OW21442   5.133   4.610   3.470
 6848SOL    HW121443   5.115   4.513   3.456
 6848SOL    HW221444   5.046   4.659   3.479
 6849SOL     OW21445   4.425   3.921   5.674
 6849SOL    HW121446   4.335   3.930   5.632
 6849SOL    HW221447   4.486   3.870   5.613
 6850SOL     OW21448   5.360   2.971   2.862
 6850SOL    HW121449   5.446   3.015   2.835
 6850SOL    HW221450   5.310   2.944   2.780
 6851SOL     OW21451   0.389   2.017   2.696
 6851SOL    HW121452   0.401   1.942   2.630
 6851SOL    HW221453   0.449   2.001   2.775
 6852SOL     OW21454   2.503   4.649   1.173
 6852SOL    HW121455   2.522   4.586   1.249
 6852SOL    HW221456   2.466   4.598   1.096
 6853SOL     OW21457   5.334   4.238   6.439
 6853SOL    HW121458   5.386   4.196   6.513
 6853SOL    HW221459   5.236   4.233   6.460
 6854SOL     OW21460   5.320   0.291   5.823
 6854SOL    HW121461   5.300   0.382   5.788
 6854SOL    HW221462   5.310   0.224   5.749
 6855SOL     OW21463   4.353   5.650   3.557
 6855SOL    HW121464   4.283   5.703   3.604
 6855SOL    HW221465   4.385   5.700   3.477
 6856SOL     OW21466   0.556   2.556   4.679
 6856SOL    HW121467   0.532   2.522   4.588
 6856SOL    HW221468   0.473   2.581   4.729
 6857SOL     OW21469   1.224   2.881   6.313
 6857SOL    HW121470   1.218   2.962   6.371
 6857SOL    HW221471   1.220   2.799   6.370
 6858SOL     OW21472   3.776   3.992   1.956
 6858SOL    HW121473   3.838   4.064   1.926
 6858SOL    HW221474   3.688   4.032   1.983
 6859SOL     OW21475   0.649   1.088   1.018
 6859SOL    HW121476   0.628   1.037   1.102
 6859SOL    HW221477   0.710   1.033   0.961
 6860SOL     OW21478   0.036   4.967   1.330
 6860SOL    HW121479   0.098   5.016   1.391
 6860SOL    HW221480   0.042   4.869   1.350
 6861SOL     OW21481   5.126   3.911   6.573
 6861SOL    HW121482   5.091   3.960   6.653
 6861SOL    HW221483   5.095   3.957   6.490
 6862SOL     OW21484   0.065   5.916   5.850
 6862SOL    HW121485   7.002   5.872   5.820
 6862SOL    HW221486   0.143   5.862   5.821
 6863SOL     OW21487   6.440   6.484   5.826
 6863SOL    HW121488   6.533   6.459   5.797
 6863SOL    HW221489   6.389   6.520   5.748
 6864SOL     OW21490   2.026   4.747   5.110
 6864SOL    HW121491   2.120   4.716   5.124
 6864SOL    HW221492   1.970   4.719   5.188
 6865SOL     OW21493   0.520   0.063   5.089
 6865SOL    HW121494   0.489   0.025   5.003
 6865SOL    HW221495   0.558   7.012   5.147
 6866SOL     OW21496   5.378   4.683   2.982
 6866SOL    HW121497   5.290   4.729   2.990
 6866SOL    HW221498   5.446   4.731   3.037
 6867SOL     OW21499   2.194   3.381   1.690
 6867SOL    HW121500   2.265   3.444   1.721
 6867SOL    HW221501   2.136   3.354   1.767
 6868SOL     OW21502   2.202   6.713   5.137
 6868SOL    HW121503   2.273   6.774   5.174
 6868SOL    HW221504   2.241   6.654   5.067
 6869SOL     OW21505   5.119   0.717   6.043
 6869SOL    HW121506   5.071   0.793   5.998
 6869SOL    HW221507   5.060   0.636   6.044
 6870SOL     OW21508   0.575   4.236   1.129
 6870SOL    HW121509   0.566   4.297   1.050
 6870SOL    HW221510   0.609   4.147   1.100
 6871SOL     OW21511   6.129   4.220   2.943
 6871SOL    HW121512   6.173   4.193   3.028
 6871SOL    HW221513   6.188   4.283   2.893
 6872SOL     OW21514   0.099   3.022   1.589
 6872SOL    HW121515   0.096   2.971   1.504
 6872SOL    HW221516   0.194   3.030   1.620
 6873SOL     OW21517   1.263   3.847   3.950
 6873SOL    HW121518   1.223   3.758   3.928
 6873SOL    HW221519   1.258   3.906   3.869
 6874SOL     OW21520   6.575   5.127   3.662
 6874SOL    HW121521   6.558   5.061   3.736
 6874SOL    HW221522   6.619   5.080   3.586
 6875SOL     OW21523   2.231   1.805   2.176
 6875SOL    HW121524   2.201   1.873   2.110
 6875SOL    HW221525   2.315   1.762   2.143
 6876SOL     OW21526   3.738   6.716   3.960
 6876SOL    HW121527   3.643   6.688   3.971
 6876SOL    HW221528   3.758   6.791   4.023
 6877SOL     OW21529   3.288   4.068   1.846
 6877SOL    HW121530   3.322   4.099   1.935
 6877SOL    HW221531   3.210   4.124   1.819
 6878SOL     OW21532   2.825   1.870   3.685
 6878SOL    HW121533   2.829   1.950   3.626
 6878SOL    HW221534   2.916   1.831   3.696
 6879SOL     OW21535   2.189   2.370   7.003
 6879SOL    HW121536   2.122   2.343   6.933
 6879SOL    HW221537   2.273   2.317   6.991
 6880SOL     OW21538   0.929   6.153   5.884
 6880SOL    HW121539   0.930   6.253   5.879
 6880SOL    HW221540   1.007   6.116   5.835
 6881SOL     OW21541   1.664   2.975   1.080
 6881SOL    HW121542   1.576   3.016   1.103
 6881SOL    HW221543   1.701   2.929   1.161
 6882SOL     OW21544   3.080   0.586   0.620
 6882SOL    HW121545   3.094   0.683   0.600
 6882SOL    HW221546   3.029   0.576   0.706
 6883SOL     OW21547   5.422   1.284   0.107
 6883SOL    HW121548   5.382   1.311   0.019
 6883SOL    HW221549   5.521   1.284   0.099
 6884SOL     OW21550   0.857   4.479   3.106
 6884SOL    HW121551   0.943   4.527   3.089
 6884SOL    HW221552   0.838   4.417   3.030
 6885SOL     OW21553   4.383   5.070   3.193
 6885SOL    HW121554   4.465   5.063   3.249
 6885SOL    HW221555   4.365   5.166   3.172
 6886SOL     OW21556   0.067   1.471   4.765
 6886SOL    HW121557   0.137   1.411   4.802
 6886SOL    HW221558   0.087   1.492   4.670
 6887SOL     OW21559   4.881   5.677   6.742
 6887SOL    HW121560   4.928   5.759   6.776
 6887SOL    HW221561   4.938   5.597   6.758
 6888SOL     OW21562   5.381   4.904   6.402
 6888SOL    HW121563   5.346   4.811   6.416
 6888SOL    HW221564   5.305   4.965   6.381
 6889SOL     OW21565   1.856   2.711   5.881
 6889SOL    HW121566   1.818   2.753   5.798
 6889SOL    HW221567   1.808   2.624   5.898
 6890SOL     OW21568   3.991   5.874   2.136
 6890SOL    HW121569   3.995   5.914   2.044
 6890SOL    HW221570   3.910   5.816   2.143
 6891SOL     OW21571   2.114   3.262   1.457
 6891SOL    HW121572   2.177   3.275   1.380
 6891SOL    HW221573   2.150   3.308   1.538
 6892SOL     OW21574   3.782   1.285   4.556
 6892SOL    HW121575   3.732   1.338   4.625
 6892SOL    HW221576   3.766   1.324   4.466
 6893SOL     OW21577   4.905   3.934   0.095
 6893SOL    HW121578   4.827   3.908   0.038
 6893SOL    HW221579   4.951   4.013   0.054
 6894SOL     OW21580   6.387   5.257   1.069
 6894SOL    HW121581   6.486   5.244   1.070
 6894SOL    HW221582   6.353   5.245   0.976
 6895SOL     OW21583   1.838   5.064   1.233
 6895SOL    HW121584   1.901   4.990   1.207
 6895SOL    HW221585   1.745   5.040   1.205
 6896SOL     OW21586   2.940   2.237   3.880
 6896SOL    HW121587   2.969   2.261   3.788
 6896SOL    HW221588   2.860   2.176   3.875
 6897SOL     OW21589   4.792   3.306   5.219
 6897SOL    HW121590   4.775   3.402   5.198
 6897SOL    HW221591   4.888   3.293   5.241
 6898SOL     OW21592   3.554   1.360   1.748
 6898SOL    HW121593   3.624   1.336   1.680
 6898SOL    HW221594   3.465   1.370   1.702
 6899SOL     OW21595   4.729   6.049   2.357
 6899SOL    HW121596   4.761   6.109   2.430
 6899SOL    HW221597   4.636   6.020   2.376
 6900SOL     OW21598   0.135   4.250   5.110
 6900SOL    HW121599   0.109   4.154   5.106
 6900SOL    HW221600   0.150   4.278   5.205
 6901SOL     OW21601   5.608   5.844   6.415
 6901SOL    HW121602   5.667   5.886   6.346
 6901SOL    HW221603   5.659   5.775   6.466
 6902SOL     OW21604   6.960   5.476   5.954
 6902SOL    HW121605   6.946   5.476   5.855
 6902SOL    HW221606   6.931   5.564   5.991
 6903SOL     OW21607   3.113   5.063   4.968
 6903SOL    HW121608   3.194   5.023   4.925
 6903SOL    HW221609   3.076   4.999   5.035
 6904SOL     OW21610   6.394   0.416   6.111
 6904SOL    HW121611   6.300   0.404   6.141
 6904SOL    HW221612   6.455   0.367   6.174
 6905SOL     OW21613   5.418   5.511   6.520
 6905SOL    HW121614   5.501   5.545   6.566
 6905SOL    HW221615   5.338   5.558   6.557
 6906SOL     OW21616   3.769   1.023   4.031
 6906SOL    HW121617   3.799   1.075   4.111
 6906SOL    HW221618   3.789   1.076   3.948
 6907SOL     OW21619   5.938   2.378   1.622
 6907SOL    HW121620   5.867   2.308   1.617
 6907SOL    HW221621   5.960   2.410   1.530
 6908SOL     OW21622   2.272   4.982   6.478
 6908SOL    HW121623   2.212   4.902   6.486
 6908SOL    HW221624   2.237   5.043   6.407
 6909SOL     OW21625   4.794   3.951   0.840
 6909SOL    HW121626   4.874   3.986   0.887
 6909SOL    HW221627   4.794   3.851   0.843
 6910SOL     OW21628   1.194   2.891   3.053
 6910SOL    HW121629   1.101   2.912   3.024
 6910SOL    HW221630   1.241   2.839   2.981
 6911SOL     OW21631   4.325   0.045   4.281
 6911SOL    HW121632   4.258   0.090   4.222
 6911SOL    HW221633   4.386   7.009   4.226
 6912SOL     OW21634   2.777   3.216   6.585
 6912SOL    HW121635   2.786   3.302   6.535
 6912SOL    HW221636   2.782   3.139   6.521
 6913SOL     OW21637   5.133   6.250   5.043
 6913SOL    HW121638   5.118   6.325   4.979
 6913SOL    HW221639   5.045   6.217   5.077
 6914SOL     OW21640   5.534   4.706   4.033
 6914SOL    HW121641   5.634   4.696   4.025
 6914SOL    HW221642   5.508   4.695   4.129
 6915SOL     OW21643   6.972   2.389   1.805
 6915SOL    HW121644   6.926   2.305   1.835
 6915SOL    HW221645   6.991   2.446   1.885
 6916SOL     OW21646   5.469   0.358   6.896
 6916SOL    HW121647   5.513   0.343   6.984
 6916SOL    HW221648   5.537   0.385   6.829
 6917SOL     OW21649   4.315   6.286   1.888
 6917SOL    HW121650   4.362   6.341   1.819
 6917SOL    HW221651   4.329   6.189   1.869
 6918SOL     OW21652   0.135   2.857   3.973
 6918SOL    HW121653   0.066   2.917   4.014
 6918SOL    HW221654   0.094   2.803   3.900
 6919SOL     OW21655   6.824   5.753   3.608
 6919SOL    HW121656   6.909   5.802   3.593
 6919SOL    HW221657   6.765   5.763   3.528
 6920SOL     OW21658   4.512   6.941   5.257
 6920SOL    HW121659   4.462   0.004   5.240
 6920SOL    HW221660   4.587   6.959   5.321
 6921SOL     OW21661   4.195   6.577   3.439
 6921SOL    HW121662   4.179   6.501   3.376
 6921SOL    HW221663   4.154   6.660   3.402
 6922SOL     OW21664   1.787   6.115   5.467
 6922SOL    HW121665   1.844   6.039   5.498
 6922SOL    HW221666   1.716   6.081   5.405
 6923SOL     OW21667   5.377   5.991   2.736
 6923SOL    HW121668   5.302   5.939   2.776
 6923SOL    HW221669   5.444   5.928   2.698
 6924SOL     OW21670   3.082   4.171   0.298
 6924SOL    HW121671   3.069   4.084   0.249
 6924SOL    HW221672   3.172   4.208   0.276
 6925SOL     OW21673   4.825   5.564   4.988
 6925SOL    HW121674   4.783   5.599   4.904
 6925SOL    HW221675   4.915   5.525   4.967
 6926SOL     OW21676   2.341   1.683   0.392
 6926SOL    HW121677   2.264   1.652   0.447
 6926SOL    HW221678   2.356   1.780   0.408
 6927SOL     OW21679   3.650   1.772   6.397
 6927SOL    HW121680   3.568   1.811   6.355
 6927SOL    HW221681   3.696   1.712   6.332
 6928SOL     OW21682   5.936   6.164   0.662
 6928SOL    HW121683   5.978   6.253   0.643
 6928SOL    HW221684   5.893   6.166   0.752
 6929SOL     OW21685   5.181   6.120   2.460
 6929SOL    HW121686   5.106   6.185   2.463
 6929SOL    HW221687   5.160   6.042   2.518
 6930SOL     OW21688   1.208   0.996   1.015
 6930SOL    HW121689   1.177   1.040   1.099
 6930SOL    HW221690   1.179   0.900   1.014
 6931SOL     OW21691   1.570   1.941   2.320
 6931SOL    HW121692   1.481   1.977   2.293
 6931SOL    HW221693   1.635   2.017   2.333
 6932SOL     OW21694   4.783   6.309   1.030
 6932SOL    HW121695   4.849   6.326   1.103
 6932SOL    HW221696   4.776   6.390   0.971
 6933SOL     OW21697   3.374   6.822   5.729
 6933SOL    HW121698   3.410   6.736   5.764
 6933SOL    HW221699   3.291   6.805   5.677
 6934SOL     OW21700   4.472   3.542   6.380
 6934SOL    HW121701   4.374   3.520   6.376
 6934SOL    HW221702   4.505   3.528   6.474
 6935SOL     OW21703   4.051   5.834   2.767
 6935SOL    HW121704   4.048   5.930   2.739
 6935SOL    HW221705   3.983   5.782   2.714
 6936SOL     OW21706   6.419   2.855   4.612
 6936SOL    HW121707   6.519   2.864   4.611
 6936SOL    HW221708   6.378   2.943   4.590
 6937SOL     OW21709   6.279   6.221   0.789
 6937SOL    HW121710   6.251   6.265   0.703
 6937SOL    HW221711   6.209   6.239   0.859
 6938SOL     OW21712   0.232   2.499   4.506
 6938SOL    HW121713   0.249   2.474   4.601
 6938SOL    HW221714   0.166   2.436   4.466
 6939SOL     OW21715   6.948   5.210   2.629
 6939SOL    HW121716   7.009   5.264   2.570
 6939SOL    HW221717   7.002   5.142   2.679
 6940SOL     OW21718   4.475   6.716   7.017
 6940SOL    HW121719   4.458   6.730   6.919
 6940SOL    HW221720   4.454   6.621   0.020
 6941SOL     OW21721   2.957   3.755   2.099
 6941SOL    HW121722   2.920   3.771   2.007
 6941SOL    HW221723   2.987   3.660   2.107
 6942SOL     OW21724   5.529   6.576   2.695
 6942SOL    HW121725   5.514   6.549   2.790
 6942SOL    HW221726   5.621   6.550   2.667
 6943SOL     OW21727   3.659   5.363   0.772
 6943SOL    HW121728   3.722   5.440   0.777
 6943SOL    HW221729   3.656   5.328   0.678
 6944SOL     OW21730   1.404   4.964   6.117
 6944SOL    HW121731   1.349   4.888   6.152
 6944SOL    HW221732   1.450   5.009   6.194
 6945SOL     OW21733   6.744   1.927   1.601
 6945SOL    HW121734   6.653   1.893   1.576
 6945SOL    HW221735   6.802   1.927   1.521
 6946SOL     OW21736   4.257   6.478   1.628
 6946SOL    HW121737   4.354   6.482   1.604
 6946SOL    HW221738   4.235   6.552   1.692
 6947SOL     OW21739   4.356   5.242   6.256
 6947SOL    HW121740   4.369   5.291   6.169
 6947SOL    HW221741   4.261   5.213   6.263
 6948SOL     OW21742   0.898   5.962   1.189
 6948SOL    HW121743   0.800   5.976   1.207
 6948SOL    HW221744   0.917   5.986   1.093
 6949SOL     OW21745   2.376   1.449   3.409
 6949SOL    HW121746   2.438   1.444   3.331
 6949SOL    HW221747   2.286   1.482   3.379
 6950SOL     OW21748   1.516   0.714   4.870
 6950SOL    HW121749   1.417   0.707   4.859
 6950SOL    HW221750   1.539   0.710   4.967
 6951SOL     OW21751   0.191   6.007   6.574
 6951SOL    HW121752   0.243   6.000   6.659
 6951SOL    HW221753   0.245   5.967   6.500
 6952SOL     OW21754   1.497   5.230   3.374
 6952SOL    HW121755   1.444   5.283   3.307
 6952SOL    HW221756   1.496   5.134   3.349
 6953SOL     OW21757   5.149   6.995   0.413
 6953SOL    HW121758   5.239   7.016   0.451
 6953SOL    HW221759   5.145   0.004   0.318
 6954SOL     OW21760   0.775   4.265   1.397
 6954SOL    HW121761   0.762   4.332   1.470
 6954SOL    HW221762   0.742   4.303   1.311
 6955SOL     OW21763   4.724   0.981   2.831
 6955SOL    HW121764   4.801   0.948   2.777
 6955SOL    HW221765   4.757   1.035   2.908
 6956SOL     OW21766   5.021   5.912   3.288
 6956SOL    HW121767   4.959   5.836   3.269
 6956SOL    HW221768   5.012   5.939   3.384
 6957SOL     OW21769   5.942   5.496   7.013
 6957SOL    HW121770   5.938   5.532   6.920
 6957SOL    HW221771   6.021   5.535   0.039
 6958SOL     OW21772   4.161   3.526   4.999
 6958SOL    HW121773   4.084   3.590   4.996
 6958SOL    HW221774   4.201   3.518   4.908
 6959SOL     OW21775   1.861   3.958   3.329
 6959SOL    HW121776   1.824   4.050   3.318
 6959SOL    HW221777   1.901   3.927   3.242
 6960SOL     OW21778   1.724   4.241   0.950
 6960SOL    HW121779   1.744   4.298   0.871
 6960SOL    HW221780   1.799   4.175   0.964
 6961SOL     OW21781   5.889   1.311   4.688
 6961SOL    HW121782   5.984   1.327   4.661
 6961SOL    HW221783   5.850   1.394   4.728
 6962SOL     OW21784   4.379   5.887   1.037
 6962SOL    HW121785   4.318   5.809   1.046
 6962SOL    HW221786   4.444   5.888   1.113
 6963SOL     OW21787   5.611   5.124   0.871
 6963SOL    HW121788   5.709   5.102   0.880
 6963SOL    HW221789   5.578   5.163   0.957
 6964SOL     OW21790   3.251   0.592   6.240
 6964SOL    HW121791   3.175   0.607   6.176
 6964SOL    HW221792   3.325   0.544   6.192
 6965SOL     OW21793   1.879   1.723   6.848
 6965SOL    HW121794   1.881   1.629   6.813
 6965SOL    HW221795   1.798   1.735   6.906
 6966SOL     OW21796   0.216   0.734   2.444
 6966SOL    HW121797   0.129   0.776   2.419
 6966SOL    HW221798   0.203   0.635   2.455
 6967SOL     OW21799   3.284   1.274   5.381
 6967SOL    HW121800   3.260   1.328   5.462
 6967SOL    HW221801   3.285   1.333   5.300
 6968SOL     OW21802   2.680   1.352   3.808
 6968SOL    HW121803   2.653   1.405   3.728
 6968SOL    HW221804   2.675   1.254   3.787
 6969SOL     OW21805   2.868   1.924   1.463
 6969SOL    HW121806   2.780   1.954   1.500
 6969SOL    HW221807   2.901   1.990   1.396
 6970SOL     OW21808   4.240   3.401   5.220
 6970SOL    HW121809   4.217   3.448   5.135
 6970SOL    HW221810   4.250   3.468   5.294
 6971SOL     OW21811   5.865   4.858   1.301
 6971SOL    HW121812   5.962   4.879   1.290
 6971SOL    HW221813   5.838   4.790   1.232
 6972SOL     OW21814   5.290   3.969   2.391
 6972SOL    HW121815   5.272   3.882   2.437
 6972SOL    HW221816   5.321   4.037   2.458
 6973SOL     OW21817   0.271   2.466   3.702
 6973SOL    HW121818   0.352   2.428   3.658
 6973SOL    HW221819   0.285   2.468   3.801
 6974SOL     OW21820   2.983   3.901   2.969
 6974SOL    HW121821   2.983   3.886   2.870
 6974SOL    HW221822   3.037   3.830   3.013
 6975SOL     OW21823   1.622   6.746   4.551
 6975SOL    HW121824   1.692   6.816   4.538
 6975SOL    HW221825   1.589   6.715   4.462
 6976SOL     OW21826   6.068   4.243   6.068
 6976SOL    HW121827   6.139   4.277   6.007
 6976SOL    HW221828   6.109   4.189   6.141
 6977SOL     OW21829   3.261   3.203   1.083
 6977SOL    HW121830   3.342   3.254   1.114
 6977SOL    HW221831   3.287   3.141   1.010
 6978SOL     OW21832   5.545   2.470   1.734
 6978SOL    HW121833   5.577   2.440   1.644
 6978SOL    HW221834   5.616   2.453   1.802
 6979SOL     OW21835   0.885   3.364   1.190
 6979SOL    HW121836   0.903   3.440   1.253
 6979SOL    HW221837   0.853   3.400   1.103
 6980SOL     OW21838   1.815   1.410   3.349
 6980SOL    HW121839   1.788   1.469   3.425
 6980SOL    HW221840   1.914   1.398   3.350
 6981SOL     OW21841   3.896   2.955   6.266
 6981SOL    HW121842   3.850   3.013   6.199
 6981SOL    HW221843   3.970   3.006   6.309
 6982SOL     OW21844   0.691   1.082   4.142
 6982SOL    HW121845   0.597   1.055   4.125
 6982SOL    HW221846   0.746   1.064   4.060
 6983SOL     OW21847   5.192   1.599   5.123
 6983SOL    HW121848   5.183   1.585   5.025
 6983SOL    HW221849   5.101   1.615   5.162
 6984SOL     OW21850   1.908   1.733   2.707
 6984SOL    HW121851   1.810   1.727   2.727
 6984SOL    HW221852   1.920   1.766   2.613
 6985SOL     OW21853   6.642   5.529   0.717
 6985SOL    HW121854   6.650   5.626   0.694
 6985SOL    HW221855   6.711   5.477   0.667
 6986SOL     OW21856   3.601   6.649   6.854
 6986SOL    HW121857   3.657   6.706   6.913
 6986SOL    HW221858   3.539   6.594   6.910
 6987SOL     OW21859   6.524   1.474   6.376
 6987SOL    HW121860   6.537   1.551   6.438
 6987SOL    HW221861   6.435   1.433   6.392
 6988SOL     OW21862   1.710   6.658   5.845
 6988SOL    HW121863   1.661   6.715   5.912
 6988SOL    HW221864   1.734   6.571   5.887
 6989SOL     OW21865   0.126   4.707   2.913
 6989SOL    HW121866   0.204   4.757   2.875
 6989SOL    HW221867   0.132   4.611   2.886
 6990SOL     OW21868   3.853   2.659   1.397
 6990SOL    HW121869   3.886   2.714   1.320
 6990SOL    HW221870   3.882   2.702   1.483
 6991SOL     OW21871   5.304   4.412   3.208
 6991SOL    HW121872   5.251   4.482   3.160
 6991SOL    HW221873   5.377   4.456   3.260
 6992SOL     OW21874   6.582   6.505   6.529
 6992SOL    HW121875   6.486   6.531   6.516
 6992SOL    HW221876   6.639   6.554   6.462
 6993SOL     OW21877   6.174   0.631   1.528
 6993SOL    HW121878   6.187   0.670   1.619
 6993SOL    HW221879   6.136   0.702   1.467
 6994SOL     OW21880   1.178   1.328   4.380
 6994SOL    HW121881   1.095   1.361   4.425
 6994SOL    HW221882   1.155   1.248   4.324
 6995SOL     OW21883   6.884   3.874   6.795
 6995SOL    HW121884   6.878   3.973   6.802
 6995SOL    HW221885   6.977   3.844   6.815
 6996SOL     OW21886   1.527   0.521   0.217
 6996SOL    HW121887   1.460   0.485   0.152
 6996SOL    HW221888   1.570   0.446   0.266
 6997SOL     OW21889   0.454   4.856   5.113
 6997SOL    HW121890   0.468   4.935   5.172
 6997SOL    HW221891   0.507   4.778   5.149
 6998SOL     OW21892   1.427   1.604   1.156
 6998SOL    HW121893   1.453   1.668   1.229
 6998SOL    HW221894   1.405   1.515   1.196
 6999SOL     OW21895   1.885   2.076   6.174
 6999SOL    HW121896   1.978   2.072   6.136
 6999SOL    HW221897   1.887   2.124   6.261
 7000SOL     OW21898   5.903   0.425   2.424
 7000SOL    HW121899   5.957   0.365   2.365
 7000SOL    HW221900   5.836   0.370   2.476
 7001SOL     OW21901   1.134   2.340   4.944
 7001SOL    HW121902   1.157   2.416   4.884
 7001SOL    HW221903   1.054   2.292   4.908
 7002SOL     OW21904   2.102   4.906   3.921
 7002SOL    HW121905   2.200   4.885   3.924
 7002SOL    HW221906   2.090   5.005   3.913
 7003SOL     OW21907   4.660   5.673   1.551
 7003SOL    HW121908   4.626   5.756   1.507
 7003SOL    HW221909   4.631   5.671   1.647
 7004SOL     OW21910   0.550   6.379   0.439
 7004SOL    HW121911   0.558   6.345   0.346
 7004SOL    HW221912   0.534   6.303   0.502
 7005SOL     OW21913   1.006   0.718   0.431
 7005SOL    HW121914   1.073   0.643   0.434
 7005SOL    HW221915   0.929   0.690   0.374
 7006SOL     OW21916   5.529   5.877   3.485
 7006SOL    HW121917   5.588   5.872   3.566
 7006SOL    HW221918   5.514   5.973   3.461
 7007SOL     OW21919   3.824   0.661   4.722
 7007SOL    HW121920   3.885   0.740   4.722
 7007SOL    HW221921   3.847   0.601   4.799
 7008SOL     OW21922   0.554   4.394   4.405
 7008SOL    HW121923   0.614   4.471   4.383
 7008SOL    HW221924   0.578   4.315   4.349
 7009SOL     OW21925   3.840   6.864   1.956
 7009SOL    HW121926   3.881   6.872   2.047
 7009SOL    HW221927   3.844   6.769   1.926
 7010SOL     OW21928   5.690   4.452   3.713
 7010SOL    HW121929   5.728   4.395   3.786
 7010SOL    HW221930   5.741   4.538   3.709
 7011SOL     OW21931   4.124   6.723   0.630
 7011SOL    HW121932   4.137   6.821   0.645
 7011SOL    HW221933   4.028   6.706   0.607
 7012SOL     OW21934   0.649   1.832   1.348
 7012SOL    HW121935   0.624   1.736   1.361
 7012SOL    HW221936   0.566   1.888   1.346
 7013SOL     OW21937   1.806   7.016   6.703
 7013SOL    HW121938   1.791   0.091   6.685
 7013SOL    HW221939   1.718   6.972   6.721
 7014SOL     OW21940   5.648   3.441   0.529
 7014SOL    HW121941   5.571   3.447   0.466
 7014SOL    HW221942   5.613   3.433   0.623
 7015SOL     OW21943   5.520   4.996   1.741
 7015SOL    HW121944   5.443   5.012   1.803
 7015SOL    HW221945   5.504   5.046   1.656
 7016SOL     OW21946   4.015   5.153   1.396
 7016SOL    HW121947   3.992   5.077   1.456
 7016SOL    HW221948   3.999   5.127   1.301
 7017SOL     OW21949   2.925   5.120   3.102
 7017SOL    HW121950   2.851   5.095   3.040
 7017SOL    HW221951   2.987   5.184   3.055
 7018SOL     OW21952   5.393   4.046   4.481
 7018SOL    HW121953   5.319   4.070   4.418
 7018SOL    HW221954   5.354   4.003   4.563
 7019SOL     OW21955   4.016   4.950   1.577
 7019SOL    HW121956   4.000   4.973   1.673
 7019SOL    HW221957   3.979   4.858   1.559
 7020SOL     OW21958   0.201   3.885   5.919
 7020SOL    HW121959   0.261   3.913   5.993
 7020SOL    HW221960   0.106   3.905   5.943
 7021SOL     OW21961   1.564   3.009   4.154
 7021SOL    HW121962   1.589   3.104   4.133
 7021SOL    HW221963   1.646   2.955   4.167
 7022SOL     OW21964   4.982   6.749   0.040
 7022SOL    HW121965   4.967   6.840   0.078
 7022SOL    HW221966   5.049   6.700   0.096
 7023SOL     OW21967   0.275   2.776   1.117
 7023SOL    HW121968   0.180   2.775   1.085
 7023SOL    HW221969   0.304   2.683   1.139
 7024SOL     OW21970   3.524   3.463   4.523
 7024SOL    HW121971   3.428   3.460   4.495
 7024SOL    HW221972   3.530   3.452   4.622
 7025SOL     OW21973   3.596   0.943   0.918
 7025SOL    HW121974   3.512   0.958   0.970
 7025SOL    HW221975   3.587   0.982   0.827
 7026SOL     OW21976   3.750   1.995   2.109
 7026SOL    HW121977   3.706   2.045   2.035
 7026SOL    HW221978   3.708   2.019   2.196
 7027SOL     OW21979   2.243   6.053   3.819
 7027SOL    HW121980   2.171   6.109   3.860
 7027SOL    HW221981   2.203   5.993   3.749
 7028SOL     OW21982   3.739   0.370   3.811
 7028SOL    HW121983   3.703   0.295   3.867
 7028SOL    HW221984   3.663   0.426   3.778
 7029SOL     OW21985   4.533   3.385   5.638
 7029SOL    HW121986   4.543   3.397   5.540
 7029SOL    HW221987   4.611   3.427   5.685
 7030SOL     OW21988   0.555   0.865   4.457
 7030SOL    HW121989   0.639   0.862   4.403
 7030SOL    HW221990   0.502   0.782   4.440
 7031SOL     OW21991   4.161   6.003   0.207
 7031SOL    HW121992   4.201   6.079   0.258
 7031SOL    HW221993   4.085   6.037   0.151
 7032SOL     OW21994   4.087   0.967   3.370
 7032SOL    HW121995   4.163   0.903   3.367
 7032SOL    HW221996   4.118   1.055   3.406
 7033SOL     OW21997   1.390   3.354   3.336
 7033SOL    HW121998   1.300   3.389   3.364
 7033SOL    HW221999   1.378   3.284   3.266
 7034SOL     OW22000   6.842   2.283   3.133
 7034SOL    HW122001   6.825   2.185   3.131
 7034SOL    HW222002   6.800   2.326   3.054
 7035SOL     OW22003   1.937   0.316   0.959
 7035SOL    HW122004   1.889   0.369   0.890
 7035SOL    HW222005   1.870   0.273   1.020
 7036SOL     OW22006   6.614   2.098   2.137
 7036SOL    HW122007   6.616   1.999   2.128
 7036SOL    HW222008   6.687   2.127   2.199
 7037SOL     OW22009   0.617   1.468   6.289
 7037SOL    HW122010   0.561   1.390   6.317
 7037SOL    HW222011   0.662   1.507   6.369
 7038SOL     OW22012   2.539   4.669   4.977
 7038SOL    HW122013   2.558   4.612   5.057
 7038SOL    HW222014   2.539   4.613   4.894
 7039SOL     OW22015   0.160   6.345   3.765
 7039SOL    HW122016   0.104   6.388   3.836
 7039SOL    HW222017   0.121   6.366   3.676
 7040SOL     OW22018   4.914   2.484   5.715
 7040SOL    HW122019   4.959   2.552   5.657
 7040SOL    HW222020   4.818   2.476   5.688
 7041SOL     OW22021   0.498   2.026   3.261
 7041SOL    HW122022   0.447   1.940   3.259
 7041SOL    HW222023   0.435   2.103   3.255
 7042SOL     OW22024   4.577   6.107   4.204
 7042SOL    HW122025   4.517   6.183   4.179
 7042SOL    HW222026   4.638   6.087   4.127
 7043SOL     OW22027   3.138   4.974   3.620
 7043SOL    HW122028   3.175   4.951   3.530
 7043SOL    HW222029   3.051   5.023   3.609
 7044SOL     OW22030   4.664   6.403   5.139
 7044SOL    HW122031   4.704   6.495   5.136
 7044SOL    HW222032   4.735   6.335   5.121
 7045SOL     OW22033   5.293   5.814   2.379
 7045SOL    HW122034   5.367   5.758   2.417
 7045SOL    HW222035   5.228   5.755   2.330
 7046SOL     OW22036   3.301   1.632   4.056
 7046SOL    HW122037   3.231   1.659   4.121
 7046SOL    HW222038   3.342   1.713   4.014
 7047SOL     OW22039   0.062   1.015   1.483
 7047SOL    HW122040   0.055   0.945   1.412
 7047SOL    HW222041   0.091   1.101   1.441
 7048SOL     OW22042   5.722   6.315   4.927
 7048SOL    HW122043   5.665   6.286   4.850
 7048SOL    HW222044   5.663   6.344   5.003
 7049SOL     OW22045   3.104   1.585   2.260
 7049SOL    HW122046   3.064   1.586   2.352
 7049SOL    HW222047   3.113   1.679   2.227
 7050SOL     OW22048   3.893   4.198   1.340
 7050SOL    HW122049   3.870   4.139   1.263
 7050SOL    HW222050   3.859   4.158   1.425
 7051SOL     OW22051   6.709   6.261   1.141
 7051SOL    HW122052   6.772   6.336   1.119
 7051SOL    HW222053   6.717   6.190   1.071
 7052SOL     OW22054   5.635   0.603   3.451
 7052SOL    HW122055   5.735   0.594   3.446
 7052SOL    HW222056   5.596   0.516   3.481
 7053SOL     OW22057   1.846   4.159   4.276
 7053SOL    HW122058   1.811   4.234   4.219
 7053SOL    HW222059   1.864   4.079   4.220
 7054SOL     OW22060   0.045   6.792   1.551
 7054SOL    HW122061   0.095   6.758   1.630
 7054SOL    HW222062   6.980   6.741   1.542
 7055SOL     OW22063   3.204   6.823   0.317
 7055SOL    HW122064   3.135   6.848   0.249
 7055SOL    HW222065   3.160   6.771   0.391
 7056SOL     OW22066   6.994   5.838   1.317
 7056SOL    HW122067   6.975   5.934   1.295
 7056SOL    HW222068   0.068   5.828   1.344
 7057SOL     OW22069   3.041   5.939   4.152
 7057SOL    HW122070   3.058   5.859   4.095
 7057SOL    HW222071   3.105   5.941   4.228
 7058SOL     OW22072   5.330   1.725   6.539
 7058SOL    HW122073   5.326   1.810   6.591
 7058SOL    HW222074   5.242   1.708   6.495
 7059SOL     OW22075   1.416   0.887   4.051
 7059SOL    HW122076   1.444   0.972   4.095
 7059SOL    HW222077   1.396   0.904   3.955
 7060SOL     OW22078   3.744   6.640   1.284
 7060SOL    HW122079   3.721   6.598   1.372
 7060SOL    HW222080   3.832   6.686   1.291
 7061SOL     OW22081   0.436   2.763   3.145
 7061SOL    HW122082   0.375   2.826   3.193
 7061SOL    HW222083   0.505   2.816   3.095
 7062SOL     OW22084   3.981   2.145   5.135
 7062SOL    HW122085   3.940   2.056   5.119
 7062SOL    HW222086   3.909   2.214   5.146
 7063SOL     OW22087   1.075   0.307   1.790
 7063SOL    HW122088   0.978   0.320   1.771
 7063SOL    HW222089   1.128   0.328   1.708
 7064SOL     OW22090   4.466   1.548   6.535
 7064SOL    HW122091   4.425   1.457   6.532
 7064SOL    HW222092   4.406   1.610   6.587
 7065SOL     OW22093   3.834   4.303   5.185
 7065SOL    HW122094   3.824   4.281   5.088
 7065SOL    HW222095   3.745   4.332   5.222
 7066SOL     OW22096   4.497   0.269   5.987
 7066SOL    HW122097   4.491   0.238   5.892
 7066SOL    HW222098   4.558   0.348   5.992
 7067SOL     OW22099   1.272   3.116   6.439
 7067SOL    HW122100   1.235   3.194   6.388
 7067SOL    HW222101   1.361   3.140   6.477
 7068SOL     OW22102   5.647   4.309   4.255
 7068SOL    HW122103   5.735   4.342   4.222
 7068SOL    HW222104   5.660   4.224   4.307
 7069SOL     OW22105   5.844   1.702   5.380
 7069SOL    HW122106   5.859   1.608   5.412
 7069SOL    HW222107   5.828   1.762   5.459
 7070SOL     OW22108   1.209   6.507   4.024
 7070SOL    HW122109   1.141   6.551   4.083
 7070SOL    HW222110   1.273   6.576   3.989
 7071SOL     OW22111   4.690   5.922   6.569
 7071SOL    HW122112   4.725   5.833   6.539
 7071SOL    HW222113   4.766   5.987   6.576
 7072SOL     OW22114   2.289   4.878   0.029
 7072SOL    HW122115   2.305   4.795   0.083
 7072SOL    HW222116   2.273   4.955   0.091
 7073SOL     OW22117   3.514   0.166   3.206
 7073SOL    HW122118   3.527   0.254   3.161
 7073SOL    HW222119   3.575   0.160   3.286
 7074SOL     OW22120   6.386   3.445   3.351
 7074SOL    HW122121   6.416   3.458   3.257
 7074SOL    HW222122   6.287   3.427   3.353
 7075SOL     OW22123   2.913   5.118   4.557
 7075SOL    HW122124   2.862   5.200   4.530
 7075SOL    HW222125   3.007   5.144   4.580
 7076SOL     OW22126   5.900   2.839   0.963
 7076SOL    HW122127   5.960   2.903   1.010
 7076SOL    HW222128   5.807   2.845   1.001
 7077SOL     OW22129   2.236   4.324   2.705
 7077SOL    HW122130   2.198   4.272   2.628
 7077SOL    HW222131   2.292   4.399   2.670
 7078SOL     OW22132   6.136   6.277   1.021
 7078SOL    HW122133   6.193   6.310   1.096
 7078SOL    HW222134   6.040   6.287   1.046
 7079SOL     OW22135   1.157   6.997   4.142
 7079SOL    HW122136   1.198   6.940   4.070
 7079SOL    HW222137   1.108   0.052   4.100
 7080SOL     OW22138   3.960   1.888   3.966
 7080SOL    HW122139   3.945   1.836   4.049
 7080SOL    HW222140   3.905   1.972   3.969
 7081SOL     OW22141   1.167   6.139   0.404
 7081SOL    HW122142   1.098   6.100   0.466
 7081SOL    HW222143   1.256   6.100   0.424
 7082SOL     OW22144   6.913   3.906   1.212
 7082SOL    HW122145   6.924   3.909   1.311
 7082SOL    HW222146   6.904   4.000   1.176
 7083SOL     OW22147   0.077   1.925   2.913
 7083SOL    HW122148   0.105   2.000   2.852
 7083SOL    HW222149   0.035   1.963   2.995
 7084SOL     OW22150   0.587   5.624   5.555
 7084SOL    HW122151   0.583   5.545   5.494
 7084SOL    HW222152   0.621   5.703   5.506
 7085SOL     OW22153   6.407   2.431   2.789
 7085SOL    HW122154   6.487   2.413   2.732
 7085SOL    HW222155   6.330   2.457   2.731
 7086SOL     OW22156   5.664   0.432   6.722
 7086SOL    HW122157   5.674   0.521   6.676
 7086SOL    HW222158   5.635   0.363   6.656
 7087SOL     OW22159   5.303   3.447   2.397
 7087SOL    HW122160   5.338   3.377   2.458
 7087SOL    HW222161   5.237   3.406   2.333
 7088SOL     OW22162   5.167   2.329   5.825
 7088SOL    HW122163   5.071   2.345   5.807
 7088SOL    HW222164   5.177   2.249   5.885
 7089SOL     OW22165   2.513   4.989   2.661
 7089SOL    HW122166   2.574   5.063   2.633
 7089SOL    HW222167   2.452   5.022   2.733
 7090SOL     OW22168   2.418   1.851   0.786
 7090SOL    HW122169   2.345   1.895   0.734
 7090SOL    HW222170   2.507   1.889   0.759
 7091SOL     OW22171   0.792   0.881   1.551
 7091SOL    HW122172   0.886   0.847   1.556
 7091SOL    HW222173   0.732   0.820   1.604
 7092SOL     OW22174   3.993   2.717   6.190
 7092SOL    HW122175   3.963   2.804   6.231
 7092SOL    HW222176   3.950   2.706   6.100
 7093SOL     OW22177   3.479   3.432   1.795
 7093SOL    HW122178   3.523   3.496   1.857
 7093SOL    HW222179   3.540   3.354   1.779
 7094SOL     OW22180   1.563   6.892   5.332
 7094SOL    HW122181   1.536   6.804   5.370
 7094SOL    HW222182   1.656   6.914   5.361
 7095SOL     OW22183   3.436   4.965   5.735
 7095SOL    HW122184   3.415   4.942   5.830
 7095SOL    HW222185   3.435   5.064   5.723
 7096SOL     OW22186   6.823   0.383   2.062
 7096SOL    HW122187   6.899   0.424   2.013
 7096SOL    HW222188   6.851   0.294   2.098
 7097SOL     OW22189   4.792   0.845   2.106
 7097SOL    HW122190   4.737   0.768   2.072
 7097SOL    HW222191   4.737   0.901   2.167
 7098SOL     OW22192   1.602   6.342   5.799
 7098SOL    HW122193   1.662   6.342   5.719
 7098SOL    HW222194   1.657   6.349   5.882
 7099SOL     OW22195   3.674   1.765   4.100
 7099SOL    HW122196   3.630   1.676   4.093
 7099SOL    HW222197   3.765   1.754   4.141
 7100SOL     OW22198   6.725   3.202   0.773
 7100SOL    HW122199   6.641   3.242   0.737
 7100SOL    HW222200   6.772   3.268   0.831
 7101SOL     OW22201   2.599   0.513   5.345
 7101SOL    HW122202   2.542   0.440   5.309
 7101SOL    HW222203   2.694   0.481   5.351
 7102SOL     OW22204   5.543   0.283   1.444
 7102SOL    HW122205   5.643   0.293   1.452
 7102SOL    HW222206   5.522   0.239   1.357
 7103SOL     OW22207   4.895   5.323   1.985
 7103SOL    HW122208   4.930   5.291   1.897
 7103SOL    HW222209   4.970   5.328   2.051
 7104SOL     OW22210   5.224   3.723   2.459
 7104SOL    HW122211   5.276   3.638   2.454
 7104SOL    HW222212   5.183   3.732   2.550
 7105SOL     OW22213   3.863   4.065   4.414
 7105SOL    HW122214   3.844   4.119   4.496
 7105SOL    HW222215   3.840   3.969   4.431
 7106SOL     OW22216   2.942   2.815   0.891
 7106SOL    HW122217   2.969   2.719   0.892
 7106SOL    HW222218   2.904   2.840   0.980
 7107SOL     OW22219   3.665   0.165   0.304
 7107SOL    HW122220   3.618   0.121   0.380
 7107SOL    HW222221   3.661   0.106   0.223
 7108SOL     OW22222   2.775   6.320   2.233
 7108SOL    HW122223   2.723   6.246   2.192
 7108SOL    HW222224   2.721   6.404   2.232
 7109SOL     OW22225   1.623   0.657   6.641
 7109SOL    HW122226   1.718   0.653   6.671
 7109SOL    HW222227   1.590   0.751   6.645
 7110SOL     OW22228   3.455   6.306   4.053
 7110SOL    HW122229   3.477   6.380   4.116
 7110SOL    HW222230   3.468   6.336   3.959
 7111SOL     OW22231   1.183   1.678   4.072
 7111SOL    HW122232   1.213   1.761   4.119
 7111SOL    HW222233   1.152   1.701   3.979
 7112SOL     OW22234   2.252   4.301   4.903
 7112SOL    HW122235   2.295   4.234   4.963
 7112SOL    HW222236   2.284   4.288   4.809
 7113SOL     OW22237   3.250   4.788   5.257
 7113SOL    HW122238   3.161   4.801   5.213
 7113SOL    HW222239   3.316   4.852   5.218
 7114SOL     OW22240   4.226   5.578   1.444
 7114SOL    HW122241   4.314   5.582   1.396
 7114SOL    HW222242   4.156   5.543   1.383
 7115SOL     OW22243   5.497   3.800   6.913
 7115SOL    HW122244   5.511   3.749   6.828
 7115SOL    HW222245   5.399   3.816   6.927
 7116SOL     OW22246   5.728   4.016   3.475
 7116SOL    HW122247   5.641   3.993   3.431
 7116SOL    HW222248   5.798   3.951   3.446
 7117SOL     OW22249   6.751   6.887   3.939
 7117SOL    HW122250   6.722   6.795   3.912
 7117SOL    HW222251   6.814   6.923   3.871
 7118SOL     OW22252   4.074   4.341   5.305
 7118SOL    HW122253   4.141   4.387   5.247
 7118SOL    HW222254   3.982   4.354   5.266
 7119SOL     OW22255   5.170   0.869   5.066
 7119SOL    HW122256   5.126   0.876   5.156
 7119SOL    HW222257   5.152   0.779   5.027
 7120SOL     OW22258   5.017   1.525   1.291
 7120SOL    HW122259   5.100   1.541   1.344
 7120SOL    HW222260   4.948   1.593   1.315
 7121SOL     OW22261   0.570   6.139   2.872
 7121SOL    HW122262   0.524   6.152   2.784
 7121SOL    HW222263   0.564   6.224   2.925
 7122SOL     OW22264   1.829   0.048   5.968
 7122SOL    HW122265   1.921   0.045   5.927
 7122SOL    HW222266   1.761   0.034   5.897
 7123SOL     OW22267   6.741   4.969   4.227
 7123SOL    HW122268   6.794   4.973   4.143
 7123SOL    HW222269   6.758   5.051   4.282
 7124SOL     OW22270   0.426   2.208   1.539
 7124SOL    HW122271   0.345   2.258   1.572
 7124SOL    HW222272   0.499   2.217   1.607
 7125SOL     OW22273   1.166   1.124   1.252
 7125SOL    HW122274   1.083   1.129   1.308
 7125SOL    HW222275   1.234   1.188   1.286
 7126SOL     OW22276   4.395   5.957   0.679
 7126SOL    HW122277   4.457   5.993   0.748
 7126SOL    HW222278   4.317   6.018   0.669
 7127SOL     OW22279   2.760   6.426   5.822
 7127SOL    HW122280   2.668   6.392   5.809
 7127SOL    HW222281   2.815   6.358   5.870
 7128SOL     OW22282   3.834   3.918   6.940
 7128SOL    HW122283   3.875   3.998   6.984
 7128SOL    HW222284   3.836   3.930   6.840
 7129SOL     OW22285   0.891   1.101   1.352
 7129SOL    HW122286   0.838   1.047   1.287
 7129SOL    HW222287   0.914   1.044   1.431
 7130SOL     OW22288   3.799   0.211   4.338
 7130SOL    HW122289   3.843   0.187   4.251
 7130SOL    HW222290   3.832   0.150   4.410
 7131SOL     OW22291   3.235   1.380   2.128
 7131SOL    HW122292   3.247   1.421   2.037
 7131SOL    HW222293   3.198   1.448   2.191
 7132SOL     OW22294   5.253   4.412   0.183
 7132SOL    HW122295   5.319   4.337   0.176
 7132SOL    HW222296   5.276   4.469   0.262
 7133SOL     OW22297   4.406   5.107   4.130
 7133SOL    HW122298   4.317   5.087   4.171
 7133SOL    HW222299   4.405   5.084   4.033
 7134SOL     OW22300   5.408   6.288   1.817
 7134SOL    HW122301   5.443   6.321   1.730
 7134SOL    HW222302   5.456   6.332   1.892
 7135SOL     OW22303   2.149   2.924   2.393
 7135SOL    HW122304   2.148   2.977   2.478
 7135SOL    HW222305   2.104   2.976   2.321
 7136SOL     OW22306   2.153   1.710   1.148
 7136SOL    HW122307   2.208   1.746   1.072
 7136SOL    HW222308   2.183   1.617   1.169
 7137SOL     OW22309   2.987   1.408   0.571
 7137SOL    HW122310   2.930   1.462   0.632
 7137SOL    HW222311   3.014   1.323   0.617
 7138SOL     OW22312   2.112   0.952   1.615
 7138SOL    HW122313   2.052   1.026   1.646
 7138SOL    HW222314   2.156   0.979   1.529
 7139SOL     OW22315   5.015   5.008   1.950
 7139SOL    HW122316   5.111   5.007   1.978
 7139SOL    HW222317   5.006   5.057   1.864
 7140SOL     OW22318   6.039   4.853   1.029
 7140SOL    HW122319   6.076   4.875   1.119
 7140SOL    HW222320   5.979   4.773   1.037
 7141SOL     OW22321   4.400   6.875   1.364
 7141SOL    HW122322   4.375   6.789   1.322
 7141SOL    HW222323   4.434   6.859   1.457
 7142SOL     OW22324   3.487   0.376   4.064
 7142SOL    HW122325   3.548   0.453   4.085
 7142SOL    HW222326   3.420   0.405   3.996
 7143SOL     OW22327   1.385   4.058   6.922
 7143SOL    HW122328   1.355   3.980   6.977
 7143SOL    HW222329   1.374   4.036   6.825
 7144SOL     OW22330   0.282   1.093   4.240
 7144SOL    HW122331   0.294   1.155   4.318
 7144SOL    HW222332   0.234   1.141   4.167
 7145SOL     OW22333   4.517   0.982   6.718
 7145SOL    HW122334   4.494   0.930   6.801
 7145SOL    HW222335   4.547   1.074   6.744
 7146SOL     OW22336   2.020   1.691   5.943
 7146SOL    HW122337   1.984   1.649   5.860
 7146SOL    HW222338   1.954   1.679   6.018
 7147SOL     OW22339   5.989   5.631   3.504
 7147SOL    HW122340   5.916   5.692   3.474
 7147SOL    HW222341   5.965   5.592   3.593
 7148SOL     OW22342   6.315   5.479   1.226
 7148SOL    HW122343   6.333   5.389   1.185
 7148SOL    HW222344   6.262   5.534   1.162
 7149SOL     OW22345   6.784   4.955   3.840
 7149SOL    HW122346   6.770   4.907   3.753
 7149SOL    HW222347   6.789   5.054   3.822
 7150SOL     OW22348   4.408   3.240   0.126
 7150SOL    HW122349   4.437   3.173   0.195
 7150SOL    HW222350   4.371   3.321   0.172
 7151SOL     OW22351   3.421   6.596   0.932
 7151SOL    HW122352   3.362   6.677   0.933
 7151SOL    HW222353   3.384   6.529   0.868
 7152SOL     OW22354   6.248   0.666   6.387
 7152SOL    HW122355   6.175   0.733   6.372
 7152SOL    HW222356   6.317   0.675   6.316
 7153SOL     OW22357   3.466   5.119   2.246
 7153SOL    HW122358   3.565   5.110   2.229
 7153SOL    HW222359   3.417   5.115   2.160
 7154SOL     OW22360   4.119   0.827   2.971
 7154SOL    HW122361   4.213   0.793   2.976
 7154SOL    HW222362   4.119   0.927   2.975
 7155SOL     OW22363   2.600   2.347   1.062
 7155SOL    HW122364   2.548   2.289   1.125
 7155SOL    HW222365   2.586   2.314   0.968
 7156SOL     OW22366   4.866   3.624   2.590
 7156SOL    HW122367   4.874   3.686   2.512
 7156SOL    HW222368   4.942   3.641   2.654
 7157SOL     OW22369   6.225   4.652   1.107
 7157SOL    HW122370   6.156   4.648   1.179
 7157SOL    HW222371   6.180   4.643   1.018
 7158SOL     OW22372   6.385   0.539   3.764
 7158SOL    HW122373   6.454   0.584   3.707
 7158SOL    HW222374   6.368   0.447   3.728
 7159SOL     OW22375   0.706   4.893   4.336
 7159SOL    HW122376   0.636   4.957   4.307
 7159SOL    HW222377   0.768   4.874   4.260
 7160SOL     OW22378   5.789   6.535   2.626
 7160SOL    HW122379   5.852   6.465   2.591
 7160SOL    HW222380   5.841   6.611   2.664
 7161SOL     OW22381   3.690   3.763   2.987
 7161SOL    HW122382   3.659   3.675   2.950
 7161SOL    HW222383   3.773   3.791   2.940
 7162SOL     OW22384   6.966   4.526   0.712
 7162SOL    HW122385   6.868   4.528   0.691
 7162SOL    HW222386   7.016   4.485   0.636
 7163SOL     OW22387   1.908   1.042   2.853
 7163SOL    HW122388   1.924   0.968   2.918
 7163SOL    HW222389   1.961   1.024   2.769
 7164SOL     OW22390   1.927   1.313   5.131
 7164SOL    HW122391   2.016   1.359   5.135
 7164SOL    HW222392   1.910   1.284   5.037
 7165SOL     OW22393   6.129   6.073   1.582
 7165SOL    HW122394   6.138   6.097   1.485
 7165SOL    HW222395   6.038   6.099   1.614
 7166SOL     OW22396   5.535   0.441   6.371
 7166SOL    HW122397   5.608   0.483   6.316
 7166SOL    HW222398   5.448   0.485   6.351
 7167SOL     OW22399   5.411   2.048   5.767
 7167SOL    HW122400   5.467   2.043   5.684
 7167SOL    HW222401   5.338   1.980   5.761
 7168SOL     OW22402   3.153   1.398   2.645
 7168SOL    HW122403   3.086   1.344   2.595
 7168SOL    HW222404   3.127   1.403   2.741
 7169SOL     OW22405   1.279   4.308   5.325
 7169SOL    HW122406   1.187   4.269   5.333
 7169SOL    HW222407   1.347   4.239   5.349
 7170SOL     OW22408   4.409   0.074   2.414
 7170SOL    HW122409   4.415   0.161   2.366
 7170SOL    HW222410   4.427   0.089   2.512
 7171SOL     OW22411   5.860   4.633   1.067
 7171SOL    HW122412   5.894   4.542   1.094
 7171SOL    HW222413   5.780   4.622   1.007
 7172SOL     OW22414   1.868   1.779   5.155
 7172SOL    HW122415   1.894   1.872   5.182
 7172SOL    HW222416   1.780   1.781   5.108
 7173SOL     OW22417   6.273   5.260   6.371
 7173SOL    HW122418   6.320   5.175   6.395
 7173SOL    HW222419   6.340   5.333   6.360
 7174SOL     OW22420   6.771   4.671   1.314
 7174SOL    HW122421   6.710   4.636   1.243
 7174SOL    HW222422   6.725   4.744   1.364
 7175SOL     OW22423   6.507   3.973   5.316
 7175SOL    HW122424   6.416   3.980   5.277
 7175SOL    HW222425   6.532   3.877   5.328
 7176SOL     OW22426   0.778   1.352   4.180
 7176SOL    HW122427   0.754   1.256   4.168
 7176SOL    HW222428   0.828   1.384   4.099
 7177SOL     OW22429   2.156   5.771   5.537
 7177SOL    HW122430   2.178   5.764   5.634
 7177SOL    HW222431   2.111   5.686   5.506
 7178SOL     OW22432   0.567   0.668   5.708
 7178SOL    HW122433   0.619   0.742   5.751
 7178SOL    HW222434   0.481   0.704   5.672
 7179SOL     OW22435   2.467   4.500   5.206
 7179SOL    HW122436   2.441   4.404   5.201
 7179SOL    HW222437   2.549   4.509   5.264
 7180SOL     OW22438   2.613   4.267   0.875
 7180SOL    HW122439   2.604   4.174   0.838
 7180SOL    HW222440   2.522   4.310   0.880
 7181SOL     OW22441   2.063   1.121   6.137
 7181SOL    HW122442   2.081   1.156   6.045
 7181SOL    HW222443   2.055   1.198   6.200
 7182SOL     OW22444   1.235   4.024   3.750
 7182SOL    HW122445   1.241   4.022   3.651
 7182SOL    HW222446   1.139   4.031   3.778
 7183SOL     OW22447   1.861   5.880   2.002
 7183SOL    HW122448   1.881   5.978   2.004
 7183SOL    HW222449   1.922   5.835   1.936
 7184SOL     OW22450   5.806   1.237   3.450
 7184SOL    HW122451   5.769   1.289   3.374
 7184SOL    HW222452   5.761   1.264   3.535
 7185SOL     OW22453   5.315   1.076   5.412
 7185SOL    HW122454   5.349   0.983   5.425
 7185SOL    HW222455   5.277   1.110   5.498
 7186SOL     OW22456   0.304   0.926   0.947
 7186SOL    HW122457   0.244   0.847   0.961
 7186SOL    HW222458   0.400   0.897   0.952
 7187SOL     OW22459   3.119   3.656   5.176
 7187SOL    HW122460   3.024   3.674   5.149
 7187SOL    HW222461   3.148   3.723   5.243
 7188SOL     OW22462   4.822   3.950   0.360
 7188SOL    HW122463   4.873   3.958   0.274
 7188SOL    HW222464   4.742   3.891   0.346
 7189SOL     OW22465   6.114   3.688   5.591
 7189SOL    HW122466   6.159   3.611   5.635
 7189SOL    HW222467   6.041   3.723   5.651
 7190SOL     OW22468   6.045   5.880   0.956
 7190SOL    HW122469   6.020   5.891   1.052
 7190SOL    HW222470   5.966   5.846   0.905
 7191SOL     OW22471   0.251   4.169   3.387
 7191SOL    HW122472   0.343   4.208   3.383
 7191SOL    HW222473   0.233   4.137   3.480
 7192SOL     OW22474   1.906   4.357   6.011
 7192SOL    HW122475   1.899   4.280   5.947
 7192SOL    HW222476   1.987   4.346   6.067
 7193SOL     OW22477   2.866   1.410   2.903
 7193SOL    HW122478   2.797   1.379   2.968
 7193SOL    HW222479   2.894   1.504   2.926
 7194SOL     OW22480   1.855   2.187   7.012
 7194SOL    HW122481   1.929   2.131   0.028
 7194SOL    HW222482   1.771   2.169   0.042
 7195SOL     OW22483   6.290   4.249   6.664
 7195SOL    HW122484   6.374   4.301   6.645
 7195SOL    HW222485   6.232   4.301   6.726
 7196SOL     OW22486   3.261   3.860   2.299
 7196SOL    HW122487   3.207   3.776   2.306
 7196SOL    HW222488   3.307   3.862   2.210
 7197SOL     OW22489   1.046   4.050   5.580
 7197SOL    HW122490   1.060   3.954   5.558
 7197SOL    HW222491   1.006   4.058   5.672
 7198SOL     OW22492   0.376   0.633   0.203
 7198SOL    HW122493   0.457   0.598   0.155
 7198SOL    HW222494   0.329   0.699   0.145
 7199SOL     OW22495   1.194   7.012   2.403
 7199SOL    HW122496   1.136   0.070   2.420
 7199SOL    HW222497   1.207   7.000   2.305
 7200SOL     OW22498   1.945   3.436   1.053
 7200SOL    HW122499   1.876   3.364   1.054
 7200SOL    HW222500   2.028   3.403   1.008
 7201SOL     OW22501   0.029   5.688   4.432
 7201SOL    HW122502   0.004   5.691   4.336
 7201SOL    HW222503   7.006   5.764   4.481
 7202SOL     OW22504   5.178   0.499   5.721
 7202SOL    HW122505   5.263   0.535   5.683
 7202SOL    HW222506   5.104   0.564   5.704
 7203SOL     OW22507   1.052   0.784   1.549
 7203SOL    HW122508   1.119   0.807   1.620
 7203SOL    HW222509   1.063   0.689   1.522
 7204SOL     OW22510   5.831   1.396   0.256
 7204SOL    HW122511   5.843   1.468   0.325
 7204SOL    HW222512   5.883   1.315   0.284
 7205SOL     OW22513   1.292   3.309   4.598
 7205SOL    HW122514   1.194   3.325   4.607
 7205SOL    HW222515   1.328   3.272   4.684
 7206SOL     OW22516   0.991   1.483   1.154
 7206SOL    HW122517   0.963   1.413   1.088
 7206SOL    HW222518   1.050   1.550   1.109
 7207SOL     OW22519   3.024   1.647   3.758
 7207SOL    HW122520   2.994   1.607   3.844
 7207SOL    HW222521   3.104   1.704   3.774
 7208SOL     OW22522   4.886   0.031   3.843
 7208SOL    HW122523   4.963   0.039   3.780
 7208SOL    HW222524   4.918   0.041   3.937
 7209SOL     OW22525   2.139   2.489   2.302
 7209SOL    HW122526   2.050   2.531   2.288
 7209SOL    HW222527   2.209   2.560   2.311
 7210SOL     OW22528   3.831   1.951   3.382
 7210SOL    HW122529   3.887   1.878   3.344
 7210SOL    HW222530   3.781   1.997   3.309
 7211SOL     OW22531   3.154   6.132   5.311
 7211SOL    HW122532   3.122   6.193   5.384
 7211SOL    HW222533   3.075   6.103   5.256
 7212SOL     OW22534   0.021   6.576   6.355
 7212SOL    HW122535   6.993   6.593   6.440
 7212SOL    HW222536   0.082   6.653   6.336
 7213SOL     OW22537   3.767   6.499   6.585
 7213SOL    HW122538   3.736   6.564   6.516
 7213SOL    HW222539   3.749   6.406   6.554
 7214SOL     OW22540   0.142   0.936   5.691
 7214SOL    HW122541   0.050   0.899   5.702
 7214SOL    HW222542   0.146   0.992   5.608
 7215SOL     OW22543   6.360   2.808   4.259
 7215SOL    HW122544   6.269   2.768   4.264
 7215SOL    HW222545   6.363   2.893   4.311
 7216SOL     OW22546   3.066   6.090   1.968
 7216SOL    HW122547   3.064   6.149   2.049
 7216SOL    HW222548   3.017   6.135   1.893
 7217SOL     OW22549   1.632   4.136   3.330
 7217SOL    HW122550   1.591   4.188   3.405
 7217SOL    HW222551   1.720   4.177   3.305
 7218SOL     OW22552   0.389   3.482   3.795
 7218SOL    HW122553   0.305   3.457   3.748
 7218SOL    HW222554   0.391   3.439   3.885
 7219SOL     OW22555   3.376   0.083   1.468
 7219SOL    HW122556   3.354   0.034   1.552
 7219SOL    HW222557   3.473   0.071   1.447
 7220SOL     OW22558   6.661   4.636   4.063
 7220SOL    HW122559   6.581   4.678   4.019
 7220SOL    HW222560   6.634   4.550   4.107
 7221SOL     OW22561   3.221   6.039   4.768
 7221SOL    HW122562   3.260   5.981   4.840
 7221SOL    HW222563   3.296   6.079   4.715
 7222SOL     OW22564   5.220   0.278   3.050
 7222SOL    HW122565   5.122   0.295   3.067
 7222SOL    HW222566   5.254   0.345   2.985
 7223SOL     OW22567   2.772   0.882   0.708
 7223SOL    HW122568   2.794   0.962   0.651
 7223SOL    HW222569   2.761   0.912   0.803
 7224SOL     OW22570   4.587   2.183   4.366
 7224SOL    HW122571   4.531   2.264   4.353
 7224SOL    HW222572   4.533   2.101   4.346
 7225SOL     OW22573   1.852   6.561   1.127
 7225SOL    HW122574   1.821   6.480   1.077
 7225SOL    HW222575   1.831   6.643   1.073
 7226SOL     OW22576   6.012   0.551   1.238
 7226SOL    HW122577   6.036   0.621   1.171
 7226SOL    HW222578   6.095   0.503   1.266
 7227SOL     OW22579   2.734   1.359   1.694
 7227SOL    HW122580   2.827   1.367   1.729
 7227SOL    HW222581   2.690   1.448   1.696
 7228SOL     OW22582   0.800   1.431   3.489
 7228SOL    HW122583   0.826   1.346   3.535
 7228SOL    HW222584   0.872   1.499   3.503
 7229SOL     OW22585   7.017   6.664   4.767
 7229SOL    HW122586   0.011   6.762   4.760
 7229SOL    HW222587   0.042   6.617   4.692
 7230SOL     OW22588   2.848   5.484   3.463
 7230SOL    HW122589   2.940   5.468   3.499
 7230SOL    HW222590   2.836   5.434   3.377
 7231SOL     OW22591   3.938   0.684   0.671
 7231SOL    HW122592   3.864   0.680   0.738
 7231SOL    HW222593   3.905   0.649   0.583
 7232SOL     OW22594   4.569   6.277   2.560
 7232SOL    HW122595   4.553   6.188   2.602
 7232SOL    HW222596   4.634   6.329   2.615
 7233SOL     OW22597   1.262   1.013   5.204
 7233SOL    HW122598   1.328   0.990   5.275
 7233SOL    HW222599   1.257   0.939   5.137
 7234SOL     OW22600   5.587   3.133   2.790
 7234SOL    HW122601   5.649   3.208   2.814
 7234SOL    HW222602   5.627   3.078   2.717
 7235SOL     OW22603   6.577   5.082   1.578
 7235SOL    HW122604   6.535   5.063   1.668
 7235SOL    HW222605   6.556   5.175   1.551
 7236SOL     OW22606   2.235   2.488   2.752
 7236SOL    HW122607   2.272   2.458   2.664
 7236SOL    HW222608   2.136   2.472   2.754
 7237SOL     OW22609   4.123   6.850   6.449
 7237SOL    HW122610   4.128   6.770   6.390
 7237SOL    HW222611   4.043   6.905   6.423
 7238SOL     OW22612   4.690   2.259   6.539
 7238SOL    HW122613   4.760   2.290   6.603
 7238SOL    HW222614   4.717   2.284   6.446
 7239SOL     OW22615   1.102   2.853   2.060
 7239SOL    HW122616   1.065   2.799   2.136
 7239SOL    HW222617   1.189   2.814   2.031
 7240SOL     OW22618   6.736   1.272   6.891
 7240SOL    HW122619   6.691   1.215   6.823
 7240SOL    HW222620   6.742   1.222   6.978
 7241SOL     OW22621   2.695   6.802   0.436
 7241SOL    HW122622   2.608   6.848   0.453
 7241SOL    HW222623   2.770   6.868   0.449
 7242SOL     OW22624   7.008   5.374   5.299
 7242SOL    HW122625   6.925   5.429   5.305
 7242SOL    HW222626   6.995   5.287   5.346
 7243SOL     OW22627   0.140   4.440   6.256
 7243SOL    HW122628   0.047   4.445   6.291
 7243SOL    HW222629   0.152   4.355   6.205
 7244SOL     OW22630   0.122   0.716   0.959
 7244SOL    HW122631   0.036   0.741   1.004
 7244SOL    HW222632   0.107   0.707   0.860
 7245SOL     OW22633   1.288   2.347   5.155
 7245SOL    HW122634   1.319   2.264   5.202
 7245SOL    HW222635   1.241   2.321   5.070
 7246SOL     OW22636   1.808   0.636   3.782
 7246SOL    HW122637   1.717   0.621   3.822
 7246SOL    HW222638   1.872   0.567   3.818
 7247SOL     OW22639   2.846   2.075   5.367
 7247SOL    HW122640   2.836   1.978   5.345
 7247SOL    HW222641   2.758   2.111   5.398
 7248SOL     OW22642   3.027   0.802   3.265
 7248SOL    HW122643   2.987   0.893   3.247
 7248SOL    HW222644   3.054   0.760   3.178
 7249SOL     OW22645   4.561   5.118   1.916
 7249SOL    HW122646   4.619   5.077   1.846
 7249SOL    HW222647   4.473   5.142   1.877
 7250SOL     OW22648   4.997   5.043   5.710
 7250SOL    HW122649   5.059   5.056   5.788
 7250SOL    HW222650   5.012   5.116   5.643
 7251SOL     OW22651   1.170   0.343   5.129
 7251SOL    HW122652   1.252   0.370   5.079
 7251SOL    HW222653   1.182   0.361   5.226
 7252SOL     OW22654   2.982   3.633   1.833
 7252SOL    HW122655   3.081   3.631   1.836
 7252SOL    HW222656   2.947   3.551   1.788
 7253SOL     OW22657   2.014   5.906   6.790
 7253SOL    HW122658   2.067   5.908   6.705
 7253SOL    HW222659   1.918   5.924   6.770
 7254SOL     OW22660   5.337   5.541   4.502
 7254SOL    HW122661   5.362   5.449   4.530
 7254SOL    HW222662   5.330   5.600   4.583
 7255SOL     OW22663   4.533   3.677   6.959
 7255SOL    HW122664   4.504   3.691   6.864
 7255SOL    HW222665   4.546   3.579   6.975
 7256SOL     OW22666   3.674   6.364   5.590
 7256SOL    HW122667   3.576   6.384   5.587
 7256SOL    HW222668   3.688   6.265   5.585
 7257SOL     OW22669   0.740   2.087   3.880
 7257SOL    HW122670   0.670   2.033   3.832
 7257SOL    HW222671   0.830   2.050   3.859
 7258SOL     OW22672   5.594   2.108   2.855
 7258SOL    HW122673   5.502   2.106   2.818
 7258SOL    HW222674   5.659   2.073   2.787
 7259SOL     OW22675   1.450   3.129   2.301
 7259SOL    HW122676   1.427   3.120   2.399
 7259SOL    HW222677   1.418   3.217   2.267
 7260SOL     OW22678   5.433   1.713   1.888
 7260SOL    HW122679   5.394   1.804   1.896
 7260SOL    HW222680   5.507   1.702   1.955
 7261SOL     OW22681   0.746   4.471   1.184
 7261SOL    HW122682   0.649   4.485   1.164
 7261SOL    HW222683   0.801   4.530   1.125
 7262SOL     OW22684   5.274   1.890   6.784
 7262SOL    HW122685   5.343   1.926   6.846
 7262SOL    HW222686   5.242   1.801   6.816
 7263SOL     OW22687   0.553   6.299   0.183
 7263SOL    HW122688   0.474   6.347   0.143
 7263SOL    HW222689   0.526   6.206   0.209
 7264SOL     OW22690   5.322   0.805   0.669
 7264SOL    HW122691   5.298   0.839   0.760
 7264SOL    HW222692   5.241   0.767   0.626
 7265SOL     OW22693   5.546   4.545   5.339
 7265SOL    HW122694   5.488   4.465   5.322
 7265SOL    HW222695   5.639   4.526   5.307
 7266SOL     OW22696   6.350   1.421   3.077
 7266SOL    HW122697   6.273   1.400   3.017
 7266SOL    HW222698   6.335   1.378   3.166
 7267SOL     OW22699   6.503   6.932   4.672
 7267SOL    HW122700   6.560   6.969   4.745
 7267SOL    HW222701   6.498   6.998   4.597
 7268SOL     OW22702   6.866   6.381   4.449
 7268SOL    HW122703   6.899   6.332   4.530
 7268SOL    HW222704   6.936   6.378   4.378
 7269SOL     OW22705   2.087   6.189   6.219
 7269SOL    HW122706   2.017   6.225   6.158
 7269SOL    HW222707   2.044   6.150   6.300
 7270SOL     OW22708   0.212   2.890   4.973
 7270SOL    HW122709   0.254   2.955   5.037
 7270SOL    HW222710   0.142   2.937   4.919
 7271SOL     OW22711   1.635   4.810   4.468
 7271SOL    HW122712   1.636   4.866   4.550
 7271SOL    HW222713   1.686   4.726   4.484
 7272SOL     OW22714   6.074   5.967   2.411
 7272SOL    HW122715   6.120   5.878   2.407
 7272SOL    HW222716   6.074   5.999   2.506
 7273SOL     OW22717   6.067   4.112   0.794
 7273SOL    HW122718   6.037   4.085   0.702
 7273SOL    HW222719   5.999   4.084   0.861
 7274SOL     OW22720   0.251   4.763   6.743
 7274SOL    HW122721   0.164   4.714   6.736
 7274SOL    HW222722   0.281   4.792   6.652
 7275SOL     OW22723   0.296   5.976   2.759
 7275SOL    HW122724   0.218   5.929   2.719
 7275SOL    HW222725   0.265   6.056   2.811
 7276SOL     OW22726   5.286   0.808   3.606
 7276SOL    HW122727   5.207   0.869   3.617
 7276SOL    HW222728   5.261   0.732   3.546
 7277SOL     OW22729   5.447   0.406   4.482
 7277SOL    HW122730   5.495   0.387   4.568
 7277SOL    HW222731   5.500   0.370   4.405
 7278SOL     OW22732   3.440   3.012   1.622
 7278SOL    HW122733   3.503   2.951   1.669
 7278SOL    HW222734   3.487   3.057   1.547
 7279SOL     OW22735   4.395   4.768   6.176
 7279SOL    HW122736   4.462   4.710   6.131
 7279SOL    HW222737   4.343   4.713   6.242
 7280SOL     OW22738   0.200   1.229   3.627
 7280SOL    HW122739   0.204   1.325   3.598
 7280SOL    HW222740   0.104   1.200   3.633
 7281SOL     OW22741   3.048   1.687   6.865
 7281SOL    HW122742   3.025   1.767   6.810
 7281SOL    HW222743   3.124   1.709   6.926
 7282SOL     OW22744   5.738   4.787   2.783
 7282SOL    HW122745   5.809   4.827   2.725
 7282SOL    HW222746   5.712   4.697   2.746
 7283SOL     OW22747   3.846   1.579   3.115
 7283SOL    HW122748   3.866   1.516   3.190
 7283SOL    HW222749   3.896   1.664   3.128
 7284SOL     OW22750   0.868   3.232   6.363
 7284SOL    HW122751   0.941   3.292   6.329
 7284SOL    HW222752   0.817   3.279   6.434
 7285SOL     OW22753   5.176   3.367   2.665
 7285SOL    HW122754   5.267   3.353   2.627
 7285SOL    HW222755   5.115   3.403   2.594
 7286SOL     OW22756   3.033   0.824   0.325
 7286SOL    HW122757   2.942   0.783   0.328
 7286SOL    HW222758   3.031   0.914   0.368
 7287SOL     OW22759   0.268   2.426   5.983
 7287SOL    HW122760   0.270   2.377   6.070
 7287SOL    HW222761   0.265   2.361   5.907
 7288SOL     OW22762   3.040   0.427   0.417
 7288SOL    HW122763   3.053   0.491   0.493
 7288SOL    HW222764   3.001   0.342   0.452
 7289SOL     OW22765   5.269   2.227   4.295
 7289SOL    HW122766   5.182   2.248   4.340
 7289SOL    HW222767   5.329   2.180   4.361
 7290SOL     OW22768   3.620   0.709   5.653
 7290SOL    HW122769   3.631   0.805   5.626
 7290SOL    HW222770   3.645   0.650   5.577
 7291SOL     OW22771   1.773   6.621   0.741
 7291SOL    HW122772   1.856   6.582   0.779
 7291SOL    HW222773   1.720   6.549   0.696
 7292SOL     OW22774   3.100   1.367   3.378
 7292SOL    HW122775   3.047   1.452   3.368
 7292SOL    HW222776   3.059   1.295   3.324
 7293SOL     OW22777   1.414   2.147   5.277
 7293SOL    HW122778   1.505   2.141   5.317
 7293SOL    HW222779   1.391   2.061   5.232
 7294SOL     OW22780   2.473   4.815   6.856
 7294SOL    HW122781   2.418   4.846   6.934
 7294SOL    HW222782   2.534   4.742   6.887
 7295SOL     OW22783   0.573   2.186   0.700
 7295SOL    HW122784   0.671   2.203   0.699
 7295SOL    HW222785   0.525   2.268   0.733
 7296SOL     OW22786   2.742   5.233   1.410
 7296SOL    HW122787   2.666   5.184   1.369
 7296SOL    HW222788   2.780   5.179   1.485
 7297SOL     OW22789   3.616   6.237   1.189
 7297SOL    HW122790   3.545   6.262   1.124
 7297SOL    HW222791   3.581   6.242   1.282
 7298SOL     OW22792   4.816   4.248   5.174
 7298SOL    HW122793   4.759   4.226   5.095
 7298SOL    HW222794   4.863   4.335   5.157
 7299SOL     OW22795   0.127   1.497   0.185
 7299SOL    HW122796   0.101   1.560   0.258
 7299SOL    HW222797   0.226   1.482   0.187
 7300SOL     OW22798   6.370   5.821   2.845
 7300SOL    HW122799   6.422   5.745   2.883
 7300SOL    HW222800   6.351   5.888   2.917
 7301SOL     OW22801   5.815   1.573   4.749
 7301SOL    HW122802   5.753   1.651   4.759
 7301SOL    HW222803   5.897   1.588   4.803
 7302SOL     OW22804   0.578   1.996   5.575
 7302SOL    HW122805   0.592   1.933   5.651
 7302SOL    HW222806   0.604   1.950   5.489
 7303SOL     OW22807   4.497   0.107   0.100
 7303SOL    HW122808   4.445   0.160   0.167
 7303SOL    HW222809   4.434   0.068   0.032
 7304SOL     OW22810   3.920   4.894   0.743
 7304SOL    HW122811   3.908   4.825   0.815
 7304SOL    HW222812   3.830   4.924   0.712
 7305SOL     OW22813   4.936   0.581   0.100
 7305SOL    HW122814   4.872   0.637   0.152
 7305SOL    HW222815   5.011   0.552   0.159
 7306SOL     OW22816   5.052   2.343   1.822
 7306SOL    HW122817   5.134   2.398   1.810
 7306SOL    HW222818   4.978   2.379   1.765
 7307SOL     OW22819   2.209   6.890   2.421
 7307SOL    HW122820   2.115   6.924   2.413
 7307SOL    HW222821   2.259   6.945   2.488
 7308SOL     OW22822   6.959   3.593   5.898
 7308SOL    HW122823   6.952   3.517   5.833
 7308SOL    HW222824   6.954   3.558   5.991
 7309SOL     OW22825   4.808   5.750   1.300
 7309SOL    HW122826   4.865   5.698   1.363
 7309SOL    HW222827   4.837   5.845   1.299
 7310SOL     OW22828   2.326   3.630   1.469
 7310SOL    HW122829   2.319   3.684   1.552
 7310SOL    HW222830   2.261   3.664   1.401
 7311SOL     OW22831   3.582   1.982   1.842
 7311SOL    HW122832   3.657   1.997   1.777
 7311SOL    HW222833   3.541   2.070   1.866
 7312SOL     OW22834   0.187   3.643   5.448
 7312SOL    HW122835   0.141   3.555   5.434
 7312SOL    HW222836   0.158   3.682   5.536
 7313SOL     OW22837   3.014   1.402   6.321
 7313SOL    HW122838   3.104   1.433   6.351
 7313SOL    HW222839   2.946   1.422   6.391
 7314SOL     OW22840   6.977   5.436   5.665
 7314SOL    HW122841   6.948   5.351   5.622
 7314SOL    HW222842   6.996   5.505   5.595
 7315SOL     OW22843   6.719   0.456   2.303
 7315SOL    HW122844   6.636   0.507   2.278
 7315SOL    HW222845   6.769   0.432   2.220
 7316SOL     OW22846   3.197   4.542   6.789
 7316SOL    HW122847   3.203   4.506   6.882
 7316SOL    HW222848   3.220   4.470   6.723
 7317SOL     OW22849   5.200   0.901   2.895
 7317SOL    HW122850   5.179   0.918   2.991
 7317SOL    HW222851   5.169   0.978   2.840
 7318SOL     OW22852   1.535   0.923   0.685
 7318SOL    HW122853   1.479   0.840   0.681
 7318SOL    HW222854   1.476   1.001   0.705
 7319SOL     OW22855   6.665   4.332   6.320
 7319SOL    HW122856   6.601   4.258   6.298
 7319SOL    HW222857   6.706   4.366   6.236
 7320SOL     OW22858   6.271   3.726   2.022
 7320SOL    HW122859   6.297   3.709   2.117
 7320SOL    HW222860   6.326   3.668   1.961
 7321SOL     OW22861   2.379   0.128   5.460
 7321SOL    HW122862   2.467   0.080   5.462
 7321SOL    HW222863   2.333   0.110   5.373
 7322SOL     OW22864   6.439   2.580   3.788
 7322SOL    HW122865   6.344   2.549   3.792
 7322SOL    HW222866   6.487   2.551   3.870
 7323SOL     OW22867   2.219   2.014   1.969
 7323SOL    HW122868   2.281   1.968   1.905
 7323SOL    HW222869   2.266   2.091   2.012
 7324SOL     OW22870   4.926   6.276   2.486
 7324SOL    HW122871   4.860   6.318   2.548
 7324SOL    HW222872   4.917   6.317   2.395
 7325SOL     OW22873   3.549   6.516   0.505
 7325SOL    HW122874   3.460   6.502   0.548
 7325SOL    HW222875   3.622   6.495   0.571
 7326SOL     OW22876   3.144   5.995   5.619
 7326SOL    HW122877   3.229   5.944   5.618
 7326SOL    HW222878   3.068   5.934   5.643
 7327SOL     OW22879   6.069   2.128   6.139
 7327SOL    HW122880   5.976   2.102   6.167
 7327SOL    HW222881   6.113   2.049   6.096
 7328SOL     OW22882   3.403   0.243   6.277
 7328SOL    HW122883   3.406   0.328   6.224
 7328SOL    HW222884   3.312   0.234   6.318
 7329SOL     OW22885   5.877   4.420   1.239
 7329SOL    HW122886   5.797   4.370   1.271
 7329SOL    HW222887   5.941   4.357   1.195
 7330SOL     OW22888   2.461   2.234   6.991
 7330SOL    HW122889   2.552   2.273   6.996
 7330SOL    HW222890   2.447   2.171   0.046
 7331SOL     OW22891   5.696   6.932   2.308
 7331SOL    HW122892   5.686   6.896   2.400
 7331SOL    HW222893   5.772   6.997   2.305
 7332SOL     OW22894   2.177   6.071   0.746
 7332SOL    HW122895   2.113   6.135   0.788
 7332SOL    HW222896   2.146   5.977   0.763
 7333SOL     OW22897   0.483   2.383   2.488
 7333SOL    HW122898   0.522   2.398   2.579
 7333SOL    HW222899   0.491   2.466   2.434
 7334SOL     OW22900   3.275   5.553   6.572
 7334SOL    HW122901   3.204   5.554   6.642
 7334SOL    HW222902   3.234   5.574   6.483
 7335SOL     OW22903   1.591   2.816   2.989
 7335SOL    HW122904   1.619   2.880   2.917
 7335SOL    HW222905   1.549   2.867   3.064
 7336SOL     OW22906   1.311   6.852   3.189
 7336SOL    HW122907   1.336   6.767   3.142
 7336SOL    HW222908   1.362   6.857   3.275
 7337SOL     OW22909   0.132   3.505   1.389
 7337SOL    HW122910   0.197   3.430   1.376
 7337SOL    HW222911   0.166   3.587   1.344
 7338SOL     OW22912   6.198   2.548   1.416
 7338SOL    HW122913   6.100   2.537   1.404
 7338SOL    HW222914   6.246   2.474   1.369
 7339SOL     OW22915   5.816   6.710   3.509
 7339SOL    HW122916   5.763   6.682   3.590
 7339SOL    HW222917   5.757   6.764   3.449
 7340SOL     OW22918   2.361   0.777   1.112
 7340SOL    HW122919   2.279   0.835   1.113
 7340SOL    HW222920   2.333   0.681   1.120
 7341SOL     OW22921   6.714   2.990   6.736
 7341SOL    HW122922   6.626   2.944   6.733
 7341SOL    HW222923   6.713   3.063   6.804
 7342SOL     OW22924   6.805   1.582   1.581
 7342SOL    HW122925   6.811   1.657   1.646
 7342SOL    HW222926   6.711   1.548   1.578
 7343SOL     OW22927   5.436   3.451   0.353
 7343SOL    HW122928   5.389   3.526   0.399
 7343SOL    HW222929   5.414   3.451   0.256
 7344SOL     OW22930   0.264   0.963   6.768
 7344SOL    HW122931   0.263   0.924   6.676
 7344SOL    HW222932   0.210   1.047   6.770
 7345SOL     OW22933   4.444   3.719   5.395
 7345SOL    HW122934   4.502   3.746   5.472
 7345SOL    HW222935   4.447   3.619   5.385
 7346SOL     OW22936   4.215   5.782   2.408
 7346SOL    HW122937   4.292   5.777   2.344
 7346SOL    HW222938   4.209   5.875   2.445
 7347SOL     OW22939   1.044   1.641   0.802
 7347SOL    HW122940   0.945   1.630   0.810
 7347SOL    HW222941   1.084   1.655   0.892
 7348SOL     OW22942   1.479   4.408   3.640
 7348SOL    HW122943   1.575   4.437   3.646
 7348SOL    HW222944   1.459   4.382   3.545
 7349SOL     OW22945   4.288   0.236   2.081
 7349SOL    HW122946   4.260   0.305   2.014
 7349SOL    HW222947   4.220   0.232   2.154
 7350SOL     OW22948   2.687   2.328   5.637
 7350SOL    HW122949   2.654   2.422   5.642
 7350SOL    HW222950   2.633   2.278   5.569
 7351SOL     OW22951   5.915   5.444   3.816
 7351SOL    HW122952   5.970   5.526   3.798
 7351SOL    HW222953   5.821   5.471   3.839
 7352SOL     OW22954   1.495   1.860   2.553
 7352SOL    HW122955   1.466   1.769   2.524
 7352SOL    HW222956   1.532   1.909   2.474
 7353SOL     OW22957   0.122   0.162   6.782
 7353SOL    HW122958   0.184   0.101   6.732
 7353SOL    HW222959   0.115   0.132   6.877
 7354SOL     OW22960   0.927   1.742   5.223
 7354SOL    HW122961   0.878   1.779   5.145
 7354SOL    HW222962   0.988   1.668   5.193
 7355SOL     OW22963   1.397   0.965   0.416
 7355SOL    HW122964   1.428   0.915   0.335
 7355SOL    HW222965   1.396   0.904   0.495
 7356SOL     OW22966   4.031   3.334   6.478
 7356SOL    HW122967   3.989   3.367   6.393
 7356SOL    HW222968   3.964   3.337   6.551
 7357SOL     OW22969   3.402   5.836   2.111
 7357SOL    HW122970   3.384   5.822   2.014
 7357SOL    HW222971   3.383   5.931   2.135
 7358SOL     OW22972   6.390   3.462   2.521
 7358SOL    HW122973   6.423   3.379   2.567
 7358SOL    HW222974   6.299   3.485   2.555
 7359SOL     OW22975   4.596   2.437   5.344
 7359SOL    HW122976   4.510   2.386   5.353
 7359SOL    HW222977   4.652   2.423   5.426
 7360SOL     OW22978   2.783   3.384   5.623
 7360SOL    HW122979   2.776   3.294   5.666
 7360SOL    HW222980   2.742   3.381   5.532
 7361SOL     OW22981   5.363   0.759   2.320
 7361SOL    HW122982   5.367   0.812   2.235
 7361SOL    HW222983   5.348   0.821   2.397
 7362SOL     OW22984   1.582   5.864   6.293
 7362SOL    HW122985   1.600   5.954   6.253
 7362SOL    HW222986   1.668   5.824   6.324
 7363SOL     OW22987   4.719   1.580   1.168
 7363SOL    HW122988   4.763   1.647   1.228
 7363SOL    HW222989   4.770   1.575   1.082
 7364SOL     OW22990   4.297   0.856   2.264
 7364SOL    HW122991   4.276   0.782   2.200
 7364SOL    HW222992   4.355   0.924   2.220
 7365SOL     OW22993   0.669   6.217   2.006
 7365SOL    HW122994   0.623   6.168   1.932
 7365SOL    HW222995   0.765   6.189   2.009
 7366SOL     OW22996   2.114   6.933   5.503
 7366SOL    HW122997   2.185   6.984   5.454
 7366SOL    HW222998   2.132   6.835   5.496
 7367SOL     OW22999   4.601   2.469   0.690
 7367SOL    HW123000   4.605   2.401   0.763
 7367SOL    HW223001   4.667   2.542   0.708
 7368SOL     OW23002   3.745   2.882   2.443
 7368SOL    HW123003   3.797   2.797   2.446
 7368SOL    HW223004   3.800   2.954   2.401
 7369SOL     OW23005   2.873   2.413   1.075
 7369SOL    HW123006   2.895   2.316   1.065
 7369SOL    HW223007   2.774   2.424   1.084
 7370SOL     OW23008   2.542   1.366   6.560
 7370SOL    HW123009   2.518   1.457   6.594
 7370SOL    HW223010   2.571   1.373   6.465
 7371SOL     OW23011   2.639   6.706   3.145
 7371SOL    HW123012   2.691   6.783   3.183
 7371SOL    HW223013   2.558   6.690   3.201
 7372SOL     OW23014   4.722   6.742   4.863
 7372SOL    HW123015   4.687   6.835   4.870
 7372SOL    HW223016   4.652   6.682   4.824
 7373SOL     OW23017   6.189   1.792   4.827
 7373SOL    HW123018   6.124   1.826   4.759
 7373SOL    HW223019   6.184   1.849   4.909
 7374SOL     OW23020   2.600   2.402   4.652
 7374SOL    HW123021   2.650   2.330   4.700
 7374SOL    HW223022   2.576   2.475   4.716
 7375SOL     OW23023   2.498   2.487   2.133
 7375SOL    HW123024   2.535   2.405   2.090
 7375SOL    HW223025   2.432   2.460   2.204
 7376SOL     OW23026   1.429   1.770   1.711
 7376SOL    HW123027   1.418   1.859   1.755
 7376SOL    HW223028   1.518   1.732   1.735
 7377SOL     OW23029   5.398   5.133   0.359
 7377SOL    HW123030   5.340   5.127   0.278
 7377SOL    HW223031   5.379   5.055   0.419
 7378SOL     OW23032   1.440   0.789   4.537
 7378SOL    HW123033   1.378   0.858   4.499
 7378SOL    HW223034   1.473   0.820   4.626
 7379SOL     OW23035   3.460   1.242   2.109
 7379SOL    HW123036   3.441   1.186   2.029
 7379SOL    HW223037   3.386   1.309   2.121
 7380SOL     OW23038   0.416   4.659   4.236
 7380SOL    HW123039   0.509   4.624   4.220
 7380SOL    HW223040   0.361   4.588   4.280
 7381SOL     OW23041   3.908   3.415   0.559
 7381SOL    HW123042   3.861   3.464   0.484
 7381SOL    HW223043   3.909   3.317   0.539
 7382SOL     OW23044   6.717   1.389   5.105
 7382SOL    HW123045   6.732   1.300   5.063
 7382SOL    HW223046   6.804   1.438   5.111
 7383SOL     OW23047   2.838   6.123   1.065
 7383SOL    HW123048   2.765   6.119   1.134
 7383SOL    HW223049   2.812   6.186   0.992
 7384SOL     OW23050   6.450   6.782   2.563
 7384SOL    HW123051   6.433   6.860   2.503
 7384SOL    HW223052   6.547   6.779   2.588
 7385SOL     OW23053   3.030   5.350   2.568
 7385SOL    HW123054   3.064   5.437   2.531
 7385SOL    HW223055   3.094   5.277   2.545
 7386SOL     OW23056   6.896   3.254   6.705
 7386SOL    HW123057   6.936   3.189   6.769
 7386SOL    HW223058   6.937   3.344   6.720
 7387SOL     OW23059   6.760   5.167   5.184
 7387SOL    HW123060   6.810   5.081   5.184
 7387SOL    HW223061   6.663   5.149   5.200
 7388SOL     OW23062   1.307   4.771   2.375
 7388SOL    HW123063   1.286   4.793   2.279
 7388SOL    HW223064   1.242   4.704   2.408
 7389SOL     OW23065   6.724   3.796   6.456
 7389SOL    HW123066   6.772   3.832   6.536
 7389SOL    HW223067   6.754   3.845   6.374
 7390SOL     OW23068   2.683   1.637   2.468
 7390SOL    HW123069   2.778   1.604   2.465
 7390SOL    HW223070   2.625   1.576   2.415
 7391SOL     OW23071   3.950   3.014   3.066
 7391SOL    HW123072   3.993   3.074   2.999
 7391SOL    HW223073   4.021   2.960   3.112
 7392SOL     OW23074   3.902   6.078   6.649
 7392SOL    HW123075   3.939   6.050   6.738
 7392SOL    HW223076   3.899   5.999   6.588
 7393SOL     OW23077   6.403   4.710   2.887
 7393SOL    HW123078   6.360   4.776   2.825
 7393SOL    HW223079   6.491   4.682   2.849
 7394SOL     OW23080   1.473   2.757   5.988
 7394SOL    HW123081   1.435   2.761   6.081
 7394SOL    HW223082   1.496   2.663   5.965
 7395SOL     OW23083   2.083   3.562   1.306
 7395SOL    HW123084   2.045   3.478   1.343
 7395SOL    HW223085   2.013   3.610   1.253
 7396SOL     OW23086   1.952   6.685   1.387
 7396SOL    HW123087   1.961   6.644   1.296
 7396SOL    HW223088   1.954   6.613   1.456
 7397SOL     OW23089   5.249   5.041   4.546
 7397SOL    HW123090   5.292   5.113   4.491
 7397SOL    HW223091   5.150   5.049   4.539
 7398SOL     OW23092   1.015   5.489   3.045
 7398SOL    HW123093   0.998   5.523   2.952
 7398SOL    HW223094   0.985   5.394   3.051
 7399SOL     OW23095   0.104   3.096   4.377
 7399SOL    HW123096   0.169   3.075   4.303
 7399SOL    HW223097   0.106   3.194   4.396
 7400SOL     OW23098   4.250   2.799   6.241
 7400SOL    HW123099   4.261   2.791   6.340
 7400SOL    HW223100   4.167   2.752   6.212
 7401SOL     OW23101   1.262   3.214   2.842
 7401SOL    HW123102   1.296   3.306   2.862
 7401SOL    HW223103   1.243   3.166   2.928
 7402SOL     OW23104   3.234   4.178   5.910
 7402SOL    HW123105   3.197   4.085   5.906
 7402SOL    HW223106   3.159   4.243   5.924
 7403SOL     OW23107   1.457   3.523   2.564
 7403SOL    HW123108   1.419   3.489   2.650
 7403SOL    HW223109   1.514   3.603   2.582
 7404SOL     OW23110   2.782   4.764   1.756
 7404SOL    HW123111   2.861   4.821   1.732
 7404SOL    HW223112   2.807   4.702   1.831
 7405SOL     OW23113   3.463   5.106   4.127
 7405SOL    HW123114   3.415   5.023   4.098
 7405SOL    HW223115   3.404   5.186   4.113
 7406SOL     OW23116   0.826   1.531   4.602
 7406SOL    HW123117   0.918   1.543   4.641
 7406SOL    HW223118   0.759   1.577   4.660
 7407SOL     OW23119   1.570   6.651   5.534
 7407SOL    HW123120   1.654   6.674   5.582
 7407SOL    HW223121   1.554   6.553   5.539
 7408SOL     OW23122   3.806   4.151   5.835
 7408SOL    HW123123   3.774   4.085   5.768
 7408SOL    HW223124   3.757   4.237   5.823
 7409SOL     OW23125   5.465   4.155   0.542
 7409SOL    HW123126   5.537   4.224   0.531
 7409SOL    HW223127   5.423   4.165   0.633
 7410SOL     OW23128   0.239   1.027   0.481
 7410SOL    HW123129   0.290   1.087   0.419
 7410SOL    HW223130   0.145   1.060   0.489
 7411SOL     OW23131   1.899   0.702   6.727
 7411SOL    HW123132   1.939   0.635   6.664
 7411SOL    HW223133   1.914   0.672   6.821
 7412SOL     OW23134   4.219   6.612   0.896
 7412SOL    HW123135   4.249   6.692   0.949
 7412SOL    HW223136   4.176   6.642   0.811
 7413SOL     OW23137   4.366   5.007   3.678
 7413SOL    HW123138   4.425   5.064   3.621
 7413SOL    HW223139   4.337   4.926   3.627
 7414SOL     OW23140   2.204   1.013   3.164
 7414SOL    HW123141   2.266   1.082   3.127
 7414SOL    HW223142   2.139   1.056   3.226
 7415SOL     OW23143   2.067   4.714   4.834
 7415SOL    HW123144   2.158   4.734   4.796
 7415SOL    HW223145   2.063   4.745   4.929
 7416SOL     OW23146   2.197   0.703   2.454
 7416SOL    HW123147   2.266   0.661   2.395
 7416SOL    HW223148   2.225   0.694   2.550
 7417SOL     OW23149   1.949   2.191   1.795
 7417SOL    HW123150   2.027   2.238   1.754
 7417SOL    HW223151   1.930   2.231   1.885
 7418SOL     OW23152   1.610   4.782   6.581
 7418SOL    HW123153   1.516   4.813   6.590
 7418SOL    HW223154   1.670   4.838   6.638
 7419SOL     OW23155   6.804   4.080   3.946
 7419SOL    HW123156   6.879   4.145   3.933
 7419SOL    HW223157   6.725   4.127   3.987
 7420SOL     OW23158   0.075   6.421   0.999
 7420SOL    HW123159   0.129   6.485   1.053
 7420SOL    HW223160   0.050   6.463   0.912
 7421SOL     OW23161   4.193   3.454   1.267
 7421SOL    HW123162   4.194   3.544   1.310
 7421SOL    HW223163   4.270   3.447   1.203
 7422SOL     OW23164   6.694   4.202   2.120
 7422SOL    HW123165   6.606   4.175   2.080
 7422SOL    HW223166   6.703   4.161   2.211
 7423SOL     OW23167   6.366   2.774   5.733
 7423SOL    HW123168   6.369   2.819   5.822
 7423SOL    HW223169   6.358   2.675   5.747
 7424SOL     OW23170   0.007   1.888   5.732
 7424SOL    HW123171   6.951   1.951   5.740
 7424SOL    HW223172   6.997   1.795   5.750
 7425SOL     OW23173   5.104   6.877   0.694
 7425SOL    HW123174   5.094   6.929   0.609
 7425SOL    HW223175   5.084   6.936   0.772
 7426SOL     OW23176   3.405   1.805   5.380
 7426SOL    HW123177   3.504   1.811   5.375
 7426SOL    HW223178   3.379   1.737   5.449
 7427SOL     OW23179   5.041   0.926   4.309
 7427SOL    HW123180   5.131   0.946   4.269
 7427SOL    HW223181   4.974   0.992   4.276
 7428SOL     OW23182   4.134   0.194   5.559
 7428SOL    HW123183   4.167   0.288   5.551
 7428SOL    HW223184   4.072   0.174   5.483
 7429SOL     OW23185   0.995   6.321   3.524
 7429SOL    HW123186   0.907   6.283   3.551
 7429SOL    HW223187   1.068   6.257   3.549
 7430SOL     OW23188   6.908   3.434   0.886
 7430SOL    HW123189   6.923   3.500   0.960
 7430SOL    HW223190   6.934   3.474   0.799
 7431SOL     OW23191   0.648   2.385   3.024
 7431SOL    HW123192   0.574   2.452   3.013
 7431SOL    HW223193   0.736   2.433   3.024
 7432SOL     OW23194   1.983   0.798   3.512
 7432SOL    HW123195   1.890   0.764   3.495
 7432SOL    HW223196   2.035   0.729   3.561
 7433SOL     OW23197   4.373   6.393   6.443
 7433SOL    HW123198   4.285   6.418   6.483
 7433SOL    HW223199   4.436   6.364   6.516
 7434SOL     OW23200   5.640   5.292   5.350
 7434SOL    HW123201   5.737   5.266   5.349
 7434SOL    HW223202   5.599   5.271   5.261
 7435SOL     OW23203   4.512   6.501   1.547
 7435SOL    HW123204   4.531   6.469   1.454
 7435SOL    HW223205   4.564   6.446   1.612
 7436SOL     OW23206   4.413   4.262   6.152
 7436SOL    HW123207   4.472   4.219   6.084
 7436SOL    HW223208   4.339   4.199   6.176
 7437SOL     OW23209   3.381   5.106   0.461
 7437SOL    HW123210   3.365   5.203   0.476
 7437SOL    HW223211   3.434   5.094   0.377
 7438SOL     OW23212   1.423   6.988   6.996
 7438SOL    HW123213   1.394   0.011   6.911
 7438SOL    HW223214   1.480   0.030   0.027
 7439SOL     OW23215   1.767   6.377   5.587
 7439SOL    HW123216   1.857   6.413   5.565
 7439SOL    HW223217   1.753   6.290   5.539
 7440SOL     OW23218   6.703   3.032   4.119
 7440SOL    HW123219   6.658   2.942   4.126
 7440SOL    HW223220   6.640   3.096   4.075
 7441SOL     OW23221   5.718   0.112   4.124
 7441SOL    HW123222   5.818   0.115   4.125
 7441SOL    HW223223   5.684   0.083   4.213
 7442SOL     OW23224   5.566   1.416   0.473
 7442SOL    HW123225   5.593   1.509   0.447
 7442SOL    HW223226   5.647   1.359   0.481
 7443SOL     OW23227   6.514   5.637   2.200
 7443SOL    HW123228   6.552   5.556   2.245
 7443SOL    HW223229   6.446   5.609   2.133
 7444SOL     OW23230   5.775   0.993   6.160
 7444SOL    HW123231   5.722   0.955   6.236
 7444SOL    HW223232   5.787   1.092   6.175
 7445SOL     OW23233   3.204   0.541   1.767
 7445SOL    HW123234   3.215   0.451   1.726
 7445SOL    HW223235   3.258   0.546   1.852
 7446SOL     OW23236   5.007   2.146   0.513
 7446SOL    HW123237   5.084   2.184   0.564
 7446SOL    HW223238   5.040   2.073   0.452
 7447SOL     OW23239   6.419   4.684   6.061
 7447SOL    HW123240   6.423   4.771   6.013
 7447SOL    HW223241   6.325   4.667   6.091
 7448SOL     OW23242   5.627   6.624   4.481
 7448SOL    HW123243   5.571   6.676   4.417
 7448SOL    HW223244   5.586   6.627   4.572
 7449SOL     OW23245   0.900   5.794   0.763
 7449SOL    HW123246   0.859   5.719   0.711
 7449SOL    HW223247   0.938   5.758   0.849
 7450SOL     OW23248   5.253   2.508   5.253
 7450SOL    HW123249   5.227   2.604   5.247
 7450SOL    HW223250   5.175   2.454   5.284
 7451SOL     OW23251   6.047   5.543   2.435
 7451SOL    HW123252   5.968   5.602   2.419
 7451SOL    HW223253   6.096   5.529   2.349
 7452SOL     OW23254   5.968   5.702   4.439
 7452SOL    HW123255   5.919   5.788   4.422
 7452SOL    HW223256   5.990   5.658   4.352
 7453SOL     OW23257   4.105   5.066   5.051
 7453SOL    HW123258   4.115   5.004   4.973
 7453SOL    HW223259   4.108   5.161   5.019
 7454SOL     OW23260   2.630   1.483   0.906
 7454SOL    HW123261   2.654   1.396   0.861
 7454SOL    HW223262   2.627   1.469   1.005
 7455SOL     OW23263   6.493   3.342   2.053
 7455SOL    HW123264   6.538   3.298   1.974
 7455SOL    HW223265   6.562   3.385   2.110
 7456SOL     OW23266   2.312   1.256   4.907
 7456SOL    HW123267   2.377   1.277   4.980
 7456SOL    HW223268   2.219   1.261   4.943
 7457SOL     OW23269   3.159   0.392   4.327
 7457SOL    HW123270   3.131   0.458   4.398
 7457SOL    HW223271   3.151   0.435   4.237
 7458SOL     OW23272   1.500   0.016   6.034
 7458SOL    HW123273   1.514   7.018   5.938
 7458SOL    HW223274   1.564   0.087   6.064
 7459SOL     OW23275   6.127   1.324   2.523
 7459SOL    HW123276   6.137   1.413   2.566
 7459SOL    HW223277   6.030   1.297   2.525
 7460SOL     OW23278   1.375   5.899   0.182
 7460SOL    HW123279   1.439   5.936   0.116
 7460SOL    HW223280   1.282   5.928   0.159
 7461SOL     OW23281   5.794   6.092   5.765
 7461SOL    HW123282   5.697   6.078   5.785
 7461SOL    HW223283   5.804   6.164   5.696
 7462SOL     OW23284   2.114   4.510   1.786
 7462SOL    HW123285   2.122   4.599   1.830
 7462SOL    HW223286   2.152   4.439   1.845
 7463SOL     OW23287   3.319   3.906   0.308
 7463SOL    HW123288   3.400   3.928   0.254
 7463SOL    HW223289   3.247   3.869   0.249
 7464SOL     OW23290   5.857   6.973   5.336
 7464SOL    HW123291   5.952   7.001   5.328
 7464SOL    HW223292   5.852   6.880   5.374
 7465SOL     OW23293   2.730   4.980   6.888
 7465SOL    HW123294   2.637   4.948   6.906
 7465SOL    HW223295   2.792   4.902   6.883
 7466SOL     OW23296   0.151   0.598   5.980
 7466SOL    HW123297   0.185   0.524   6.038
 7466SOL    HW223298   0.222   0.667   5.968
 7467SOL     OW23299   0.620   2.218   5.743
 7467SOL    HW123300   0.618   2.142   5.679
 7467SOL    HW223301   0.537   2.273   5.732
 7468SOL     OW23302   4.956   3.021   4.238
 7468SOL    HW123303   4.959   3.118   4.213
 7468SOL    HW223304   5.019   3.003   4.313
 7469SOL     OW23305   6.057   1.220   0.315
 7469SOL    HW123306   6.069   1.197   0.411
 7469SOL    HW223307   6.048   1.136   0.261
 7470SOL     OW23308   5.144   4.316   3.413
 7470SOL    HW123309   5.137   4.216   3.418
 7470SOL    HW223310   5.211   4.341   3.344
 7471SOL     OW23311   5.128   5.900   6.289
 7471SOL    HW123312   5.126   5.958   6.370
 7471SOL    HW223313   5.219   5.904   6.247
 7472SOL     OW23314   6.676   1.253   5.514
 7472SOL    HW123315   6.727   1.188   5.570
 7472SOL    HW223316   6.580   1.224   5.509
 7473SOL     OW23317   5.371   6.027   4.145
 7473SOL    HW123318   5.453   6.078   4.118
 7473SOL    HW223319   5.396   5.933   4.166
 7474SOL     OW23320   6.820   1.866   6.571
 7474SOL    HW123321   6.799   1.964   6.569
 7474SOL    HW223322   6.888   1.845   6.501
 7475SOL     OW23323   4.740   2.578   1.973
 7475SOL    HW123324   4.683   2.578   1.891
 7475SOL    HW223325   4.694   2.529   2.047
 7476SOL     OW23326   2.355   1.692   3.195
 7476SOL    HW123327   2.353   1.730   3.287
 7476SOL    HW223328   2.397   1.758   3.133
 7477SOL     OW23329   0.039   3.012   5.308
 7477SOL    HW123330   7.017   2.981   5.223
 7477SOL    HW223331   0.036   2.939   5.376
 7478SOL     OW23332   5.874   3.596   5.373
 7478SOL    HW123333   5.843   3.537   5.299
 7478SOL    HW223334   5.971   3.580   5.391
 7479SOL     OW23335   5.264   2.525   1.733
 7479SOL    HW123336   5.359   2.495   1.737
 7479SOL    HW223337   5.237   2.539   1.637
 7480SOL     OW23338   1.762   4.353   2.298
 7480SOL    HW123339   1.814   4.308   2.371
 7480SOL    HW223340   1.665   4.335   2.311
 7481SOL     OW23341   6.485   4.898   0.124
 7481SOL    HW123342   6.406   4.924   0.068
 7481SOL    HW223343   6.454   4.865   0.213
 7482SOL     OW23344   4.572   2.511   2.223
 7482SOL    HW123345   4.591   2.571   2.301
 7482SOL    HW223346   4.488   2.459   2.240
 7483SOL     OW23347   4.765   3.001   4.619
 7483SOL    HW123348   4.729   2.946   4.694
 7483SOL    HW223349   4.776   2.943   4.538
 7484SOL     OW23350   1.961   5.363   4.616
 7484SOL    HW123351   1.945   5.268   4.640
 7484SOL    HW223352   2.057   5.374   4.588
 7485SOL     OW23353   2.513   0.516   4.501
 7485SOL    HW123354   2.548   0.583   4.434
 7485SOL    HW223355   2.497   0.562   4.588
 7486SOL     OW23356   0.803   6.247   0.496
 7486SOL    HW123357   0.840   6.261   0.588
 7486SOL    HW223358   0.725   6.308   0.482
 7487SOL     OW23359   3.421   0.472   3.335
 7487SOL    HW123360   3.504   0.459   3.280
 7487SOL    HW223361   3.355   0.526   3.283
 7488SOL     OW23362   2.155   6.243   4.498
 7488SOL    HW123363   2.180   6.166   4.439
 7488SOL    HW223364   2.090   6.302   4.450
 7489SOL     OW23365   5.858   3.227   6.938
 7489SOL    HW123366   5.940   3.183   6.903
 7489SOL    HW223367   5.877   3.324   6.957
 7490SOL     OW23368   1.815   0.677   2.916
 7490SOL    HW123369   1.892   0.724   2.960
 7490SOL    HW223370   1.733   0.687   2.973
 7491SOL     OW23371   4.929   3.005   6.856
 7491SOL    HW123372   4.978   3.085   6.823
 7491SOL    HW223373   4.872   2.968   6.783
 7492SOL     OW23374   1.967   1.072   4.232
 7492SOL    HW123375   1.935   1.089   4.325
 7492SOL    HW223376   1.894   1.091   4.167
 7493SOL     OW23377   6.502   3.056   5.902
 7493SOL    HW123378   6.493   3.059   5.803
 7493SOL    HW223379   6.483   3.147   5.940
 7494SOL     OW23380   5.971   1.371   3.798
 7494SOL    HW123381   5.886   1.328   3.770
 7494SOL    HW223382   5.990   1.450   3.739
 7495SOL     OW23383   1.065   2.959   5.440
 7495SOL    HW123384   1.066   3.036   5.376
 7495SOL    HW223385   1.088   2.875   5.391
 7496SOL     OW23386   5.365   3.522   4.282
 7496SOL    HW123387   5.417   3.590   4.230
 7496SOL    HW223388   5.428   3.469   4.339
 7497SOL     OW23389   1.818   5.366   1.216
 7497SOL    HW123390   1.847   5.270   1.218
 7497SOL    HW223391   1.845   5.411   1.301
 7498SOL     OW23392   3.349   1.110   3.979
 7498SOL    HW123393   3.326   1.199   4.018
 7498SOL    HW223394   3.266   1.068   3.943
 7499SOL     OW23395   4.564   2.101   3.444
 7499SOL    HW123396   4.649   2.081   3.395
 7499SOL    HW223397   4.487   2.080   3.385
 7500SOL     OW23398   3.450   5.811   2.591
 7500SOL    HW123399   3.404   5.832   2.505
 7500SOL    HW223400   3.449   5.712   2.606
 7501SOL     OW23401   5.428   4.494   3.771
 7501SOL    HW123402   5.412   4.593   3.769
 7501SOL    HW223403   5.525   4.475   3.753
 7502SOL     OW23404   3.082   6.596   4.005
 7502SOL    HW123405   3.082   6.502   4.040
 7502SOL    HW223406   3.071   6.660   4.082
 7503SOL     OW23407   2.359   6.075   1.108
 7503SOL    HW123408   2.272   6.054   1.154
 7503SOL    HW223409   2.363   6.173   1.089
 7504SOL     OW23410   0.239   6.352   2.806
 7504SOL    HW123411   0.329   6.389   2.782
 7504SOL    HW223412   0.194   6.316   2.724
 7505SOL     OW23413   1.720   1.998   6.529
 7505SOL    HW123414   1.709   1.923   6.463
 7505SOL    HW223415   1.815   2.001   6.560
 7506SOL     OW23416   4.255   2.324   3.404
 7506SOL    HW123417   4.264   2.235   3.449
 7506SOL    HW223418   4.245   2.311   3.306
 7507SOL     OW23419   6.138   2.718   3.507
 7507SOL    HW123420   6.137   2.798   3.447
 7507SOL    HW223421   6.159   2.746   3.601
 7508SOL     OW23422   2.533   5.192   0.228
 7508SOL    HW123423   2.633   5.197   0.227
 7508SOL    HW223424   2.504   5.118   0.289
 7509SOL     OW23425   6.217   3.071   0.670
 7509SOL    HW123426   6.290   3.139   0.661
 7509SOL    HW223427   6.173   3.059   0.581
 7510SOL     OW23428   3.887   3.796   4.406
 7510SOL    HW123429   3.832   3.766   4.328
 7510SOL    HW223430   3.964   3.734   4.418
 7511SOL     OW23431   2.835   6.307   3.345
 7511SOL    HW123432   2.847   6.242   3.420
 7511SOL    HW223433   2.738   6.316   3.323
 7512SOL     OW23434   2.401   0.939   6.900
 7512SOL    HW123435   2.445   0.907   6.984
 7512SOL    HW223436   2.436   0.887   6.822
 7513SOL     OW23437   1.881   2.149   2.624
 7513SOL    HW123438   1.965   2.096   2.611
 7513SOL    HW223439   1.903   2.237   2.666
 7514SOL     OW23440   2.245   5.350   3.081
 7514SOL    HW123441   2.251   5.267   3.024
 7514SOL    HW223442   2.153   5.388   3.075
 7515SOL     OW23443   0.171   4.583   4.828
 7515SOL    HW123444   0.115   4.552   4.751
 7515SOL    HW223445   0.249   4.520   4.840
 7516SOL     OW23446   0.591   5.392   6.395
 7516SOL    HW123447   0.501   5.357   6.367
 7516SOL    HW223448   0.658   5.371   6.323
 7517SOL     OW23449   0.882   1.805   6.941
 7517SOL    HW123450   0.979   1.788   6.927
 7517SOL    HW223451   0.857   1.781   0.013
 7518SOL     OW23452   5.135   3.540   3.360
 7518SOL    HW123453   5.186   3.504   3.438
 7518SOL    HW223454   5.137   3.474   3.285
 7519SOL     OW23455   6.266   6.815   4.551
 7519SOL    HW123456   6.186   6.824   4.610
 7519SOL    HW223457   6.348   6.845   4.600
 7520SOL     OW23458   1.556   0.730   2.610
 7520SOL    HW123459   1.518   0.801   2.551
 7520SOL    HW223460   1.652   0.715   2.587
 7521SOL     OW23461   5.468   2.350   4.862
 7521SOL    HW123462   5.370   2.369   4.859
 7521SOL    HW223463   5.501   2.331   4.769
 7522SOL     OW23464   1.532   0.271   5.257
 7522SOL    HW123465   1.624   0.232   5.265
 7522SOL    HW223466   1.478   0.245   5.336
 7523SOL     OW23467   5.300   0.568   6.228
 7523SOL    HW123468   5.223   0.600   6.173
 7523SOL    HW223469   5.341   0.488   6.185
 7524SOL     OW23470   6.908   2.941   4.893
 7524SOL    HW123471   6.873   2.877   4.824
 7524SOL    HW223472   6.970   3.006   4.850
 7525SOL     OW23473   4.558   6.364   6.641
 7525SOL    HW123474   4.630   6.383   6.574
 7525SOL    HW223475   4.591   6.389   6.732
 7526SOL     OW23476   2.592   3.083   1.137
 7526SOL    HW123477   2.648   3.006   1.105
 7526SOL    HW223478   2.495   3.057   1.132
 7527SOL     OW23479   3.591   5.714   3.546
 7527SOL    HW123480   3.672   5.661   3.570
 7527SOL    HW223481   3.600   5.807   3.582
 7528SOL     OW23482   6.098   2.349   0.131
 7528SOL    HW123483   6.136   2.396   0.051
 7528SOL    HW223484   6.004   2.320   0.110
 7529SOL     OW23485   5.240   1.823   4.470
 7529SOL    HW123486   5.201   1.813   4.379
 7529SOL    HW223487   5.179   1.877   4.527
 7530SOL     OW23488   5.781   2.027   1.986
 7530SOL    HW123489   5.770   2.027   2.085
 7530SOL    HW223490   5.869   2.069   1.962
 7531SOL     OW23491   4.940   3.133   3.194
 7531SOL    HW123492   4.900   3.206   3.139
 7531SOL    HW223493   4.979   3.171   3.278
 7532SOL     OW23494   4.954   6.293   6.795
 7532SOL    HW123495   4.919   6.287   6.888
 7532SOL    HW223496   4.916   6.373   6.749
 7533SOL     OW23497   3.776   2.120   1.730
 7533SOL    HW123498   3.787   2.208   1.775
 7533SOL    HW223499   3.858   2.065   1.745
 7534SOL     OW23500   4.808   5.822   4.250
 7534SOL    HW123501   4.800   5.735   4.200
 7534SOL    HW223502   4.719   5.867   4.253
 7535SOL     OW23503   1.724   6.686   4.791
 7535SOL    HW123504   1.715   6.737   4.705
 7535SOL    HW223505   1.678   6.736   4.864
 7536SOL     OW23506   4.977   6.018   4.184
 7536SOL    HW123507   4.972   6.024   4.084
 7536SOL    HW223508   4.919   5.943   4.216
 7537SOL     OW23509   1.763   4.607   1.896
 7537SOL    HW123510   1.759   4.583   1.799
 7537SOL    HW223511   1.771   4.523   1.951
 7538SOL     OW23512   1.936   2.558   1.417
 7538SOL    HW123513   1.848   2.578   1.462
 7538SOL    HW223514   1.996   2.638   1.425
 7539SOL     OW23515   0.903   4.718   3.570
 7539SOL    HW123516   0.817   4.691   3.526
 7539SOL    HW223517   0.921   4.815   3.551
 7540SOL     OW23518   4.239   6.289   4.795
 7540SOL    HW123519   4.192   6.202   4.776
 7540SOL    HW223520   4.253   6.339   4.710
 7541SOL     OW23521   1.280   4.346   5.887
 7541SOL    HW123522   1.373   4.313   5.869
 7541SOL    HW223523   1.219   4.267   5.900
 7542SOL     OW23524   6.787   5.487   6.359
 7542SOL    HW123525   6.734   5.454   6.281
 7542SOL    HW223526   6.755   5.442   6.443
 7543SOL     OW23527   2.709   0.637   4.928
 7543SOL    HW123528   2.746   0.569   4.991
 7543SOL    HW223529   2.703   0.726   4.973
 7544SOL     OW23530   6.985   2.938   4.531
 7544SOL    HW123531   7.007   3.003   4.459
 7544SOL    HW223532   0.013   2.852   4.514
 7545SOL     OW23533   0.425   6.875   5.916
 7545SOL    HW123534   0.343   6.878   5.858
 7545SOL    HW223535   0.478   6.793   5.895
 7546SOL     OW23536   4.839   2.214   1.493
 7546SOL    HW123537   4.836   2.195   1.592
 7546SOL    HW223538   4.790   2.299   1.474
 7547SOL     OW23539   4.566   0.842   0.944
 7547SOL    HW123540   4.566   0.742   0.951
 7547SOL    HW223541   4.590   0.869   0.850
 7548SOL     OW23542   4.461   2.368   6.941
 7548SOL    HW123543   4.556   2.386   6.915
 7548SOL    HW223544   4.401   2.400   6.868
 7549SOL     OW23545   3.946   2.773   6.827
 7549SOL    HW123546   3.849   2.751   6.827
 7549SOL    HW223547   3.961   2.858   6.778
 7550SOL     OW23548   1.878   4.867   3.061
 7550SOL    HW123549   1.926   4.780   3.055
 7550SOL    HW223550   1.938   4.935   3.103
 7551SOL     OW23551   5.372   3.265   5.408
 7551SOL    HW123552   5.470   3.273   5.390
 7551SOL    HW223553   5.355   3.266   5.506
 7552SOL     OW23554   1.323   5.805   4.249
 7552SOL    HW123555   1.414   5.766   4.257
 7552SOL    HW223556   1.325   5.883   4.186
 7553SOL     OW23557   5.342   6.654   5.777
 7553SOL    HW123558   5.261   6.645   5.718
 7553SOL    HW223559   5.318   6.627   5.870
 7554SOL     OW23560   4.521   0.759   0.367
 7554SOL    HW123561   4.429   0.723   0.383
 7554SOL    HW223562   4.515   0.855   0.338
 7555SOL     OW23563   3.218   5.627   6.319
 7555SOL    HW123564   3.135   5.584   6.283
 7555SOL    HW223565   3.232   5.715   6.273
 7556SOL     OW23566   2.398   1.542   0.084
 7556SOL    HW123567   2.365   1.611   0.019
 7556SOL    HW223568   2.369   1.567   0.176
 7557SOL     OW23569   4.969   0.026   6.817
 7557SOL    HW123570   5.023   0.039   6.900
 7557SOL    HW223571   4.914   6.964   6.826
 7558SOL     OW23572   2.164   3.128   3.412
 7558SOL    HW123573   2.178   3.108   3.315
 7558SOL    HW223574   2.069   3.110   3.437
 7559SOL     OW23575   4.087   2.239   5.574
 7559SOL    HW123576   4.121   2.333   5.565
 7559SOL    HW223577   4.056   2.224   5.668
 7560SOL     OW23578   6.526   0.052   6.981
 7560SOL    HW123579   6.516   0.128   0.024
 7560SOL    HW223580   6.578   0.083   6.901
 7561SOL     OW23581   5.954   3.394   5.728
 7561SOL    HW123582   6.020   3.373   5.656
 7561SOL    HW223583   5.968   3.488   5.760
 7562SOL     OW23584   0.809   4.942   5.243
 7562SOL    HW123585   0.740   4.881   5.204
 7562SOL    HW223586   0.763   5.021   5.284
 7563SOL     OW23587   2.639   6.121   2.071
 7563SOL    HW123588   2.706   6.084   2.007
 7563SOL    HW223589   2.576   6.048   2.099
 7564SOL     OW23590   3.814   0.270   4.801
 7564SOL    HW123591   3.880   0.289   4.729
 7564SOL    HW223592   3.847   0.307   4.887
 7565SOL     OW23593   5.222   4.016   5.719
 7565SOL    HW123594   5.279   4.002   5.800
 7565SOL    HW223595   5.168   3.934   5.701
 7566SOL     OW23596   5.373   5.433   2.374
 7566SOL    HW123597   5.371   5.333   2.382
 7566SOL    HW223598   5.293   5.464   2.323
 7567SOL     OW23599   0.568   0.997   5.763
 7567SOL    HW123600   0.657   0.980   5.805
 7567SOL    HW223601   0.537   1.090   5.785
 7568SOL     OW23602   5.431   5.291   1.856
 7568SOL    HW123603   5.509   5.262   1.800
 7568SOL    HW223604   5.459   5.366   1.916
 7569SOL     OW23605   3.897   4.232   6.423
 7569SOL    HW123606   3.799   4.248   6.424
 7569SOL    HW223607   3.918   4.150   6.477
 7570SOL     OW23608   6.605   3.993   3.779
 7570SOL    HW123609   6.521   4.047   3.791
 7570SOL    HW223610   6.661   3.999   3.861
 7571SOL     OW23611   5.539   3.841   3.194
 7571SOL    HW123612   5.596   3.888   3.127
 7571SOL    HW223613   5.547   3.742   3.180
 7572SOL     OW23614   5.038   0.567   3.130
 7572SOL    HW123615   5.127   0.588   3.170
 7572SOL    HW223616   4.971   0.634   3.161
 7573SOL     OW23617   6.602   0.717   5.372
 7573SOL    HW123618   6.564   0.809   5.385
 7573SOL    HW223619   6.657   0.715   5.288
 7574SOL     OW23620   5.944   1.420   4.423
 7574SOL    HW123621   5.907   1.423   4.330
 7574SOL    HW223622   5.870   1.433   4.489
 7575SOL     OW23623   6.444   6.389   0.911
 7575SOL    HW123624   6.390   6.317   0.868
 7575SOL    HW223625   6.418   6.398   1.007
 7576SOL     OW23626   5.091   1.946   0.354
 7576SOL    HW123627   5.157   1.871   0.357
 7576SOL    HW223628   5.012   1.919   0.300
 7577SOL     OW23629   0.154   6.264   0.714
 7577SOL    HW123630   0.136   6.361   0.700
 7577SOL    HW223631   0.131   6.213   0.631
 7578SOL     OW23632   1.633   5.406   2.285
 7578SOL    HW123633   1.555   5.450   2.240
 7578SOL    HW223634   1.716   5.423   2.232
 7579SOL     OW23635   6.576   1.434   1.439
 7579SOL    HW123636   6.596   1.361   1.504
 7579SOL    HW223637   6.478   1.455   1.442
 7580SOL     OW23638   1.278   4.460   3.234
 7580SOL    HW123639   1.318   4.523   3.167
 7580SOL    HW223640   1.180   4.477   3.240
 7581SOL     OW23641   0.318   1.395   1.634
 7581SOL    HW123642   0.288   1.488   1.657
 7581SOL    HW223643   0.296   1.333   1.709
 7582SOL     OW23644   3.974   1.708   3.740
 7582SOL    HW123645   3.973   1.767   3.821
 7582SOL    HW223646   4.068   1.679   3.721
 7583SOL     OW23647   5.621   3.542   3.029
 7583SOL    HW123648   5.542   3.510   3.082
 7583SOL    HW223649   5.640   3.477   2.956
 7584SOL     OW23650   1.301   0.003   2.665
 7584SOL    HW123651   1.277   7.001   2.571
 7584SOL    HW223652   1.342   0.094   2.667
 7585SOL     OW23653   1.375   1.811   6.012
 7585SOL    HW123654   1.414   1.742   5.951
 7585SOL    HW223655   1.424   1.897   6.000
 7586SOL     OW23656   1.936   6.494   3.512
 7586SOL    HW123657   1.837   6.491   3.495
 7586SOL    HW223658   1.983   6.515   3.427
 7587SOL     OW23659   2.489   1.425   6.871
 7587SOL    HW123660   2.479   1.438   6.970
 7587SOL    HW223661   2.449   1.337   6.844
 7588SOL     OW23662   1.334   2.893   4.290
 7588SOL    HW123663   1.361   2.802   4.322
 7588SOL    HW223664   1.404   2.929   4.228
 7589SOL     OW23665   6.971   0.862   2.888
 7589SOL    HW123666   0.020   0.826   2.826
 7589SOL    HW223667   6.898   0.794   2.897
 7590SOL     OW23668   6.136   0.662   7.016
 7590SOL    HW123669   6.067   0.593   6.997
 7590SOL    HW223670   6.225   0.618   0.008
 7591SOL     OW23671   5.261   3.484   6.636
 7591SOL    HW123672   5.305   3.559   6.587
 7591SOL    HW223673   5.164   3.480   6.609
 7592SOL     OW23674   6.288   5.054   4.617
 7592SOL    HW123675   6.288   5.065   4.517
 7592SOL    HW223676   6.214   5.107   4.656
 7593SOL     OW23677   0.169   2.682   6.745
 7593SOL    HW123678   0.090   2.721   6.793
 7593SOL    HW223679   0.225   2.631   6.809
 7594SOL     OW23680   0.937   4.882   1.069
 7594SOL    HW123681   0.979   4.856   1.156
 7594SOL    HW223682   0.903   4.801   1.023
 7595SOL     OW23683   6.448   3.102   6.672
 7595SOL    HW123684   6.465   3.045   6.592
 7595SOL    HW223685   6.506   3.183   6.667
 7596SOL     OW23686   2.789   6.815   4.698
 7596SOL    HW123687   2.708   6.756   4.693
 7596SOL    HW223688   2.820   6.822   4.793
 7597SOL     OW23689   1.798   6.911   3.074
 7597SOL    HW123690   1.779   6.977   3.001
 7597SOL    HW223691   1.751   6.825   3.053
 7598SOL     OW23692   6.147   0.500   3.031
 7598SOL    HW123693   6.149   0.598   3.011
 7598SOL    HW223694   6.240   0.464   3.032
 7599SOL     OW23695   5.388   3.327   1.220
 7599SOL    HW123696   5.418   3.238   1.183
 7599SOL    HW223697   5.452   3.357   1.290
 7600SOL     OW23698   1.335   0.837   3.171
 7600SOL    HW123699   1.377   0.821   3.261
 7600SOL    HW223700   1.273   0.762   3.149
 7601SOL     OW23701   2.749   5.429   2.122
 7601SOL    HW123702   2.666   5.374   2.114
 7601SOL    HW223703   2.826   5.368   2.144
 7602SOL     OW23704   0.927   3.271   6.941
 7602SOL    HW123705   0.926   3.207   7.018
 7602SOL    HW223706   1.006   3.252   6.882
 7603SOL     OW23707   1.746   6.437   6.032
 7603SOL    HW123708   1.838   6.406   6.006
 7603SOL    HW223709   1.724   6.402   6.123
 7604SOL     OW23710   1.339   1.922   5.147
 7604SOL    HW123711   1.294   1.933   5.058
 7604SOL    HW223712   1.394   1.838   5.146
 7605SOL     OW23713   0.923   0.548   0.781
 7605SOL    HW123714   0.878   0.621   0.730
 7605SOL    HW223715   0.888   0.460   0.751
 7606SOL     OW23716   5.447   2.912   5.129
 7606SOL    HW123717   5.384   2.966   5.072
 7606SOL    HW223718   5.448   2.817   5.096
 7607SOL     OW23719   3.784   5.337   0.116
 7607SOL    HW123720   3.833   5.425   0.114
 7607SOL    HW223721   3.691   5.350   0.082
 7608SOL     OW23722   5.058   2.567   0.061
 7608SOL    HW123723   5.008   2.653   0.059
 7608SOL    HW223724   5.144   2.580   0.109
 7609SOL     OW23725   0.992   4.424   3.890
 7609SOL    HW123726   0.910   4.403   3.943
 7609SOL    HW223727   1.005   4.523   3.887
 7610SOL     OW23728   3.826   5.042   5.493
 7610SOL    HW123729   3.921   5.075   5.494
 7610SOL    HW223730   3.788   5.050   5.585
 7611SOL     OW23731   5.461   3.810   1.226
 7611SOL    HW123732   5.406   3.804   1.310
 7611SOL    HW223733   5.526   3.734   1.222
 7612SOL     OW23734   4.766   2.426   2.703
 7612SOL    HW123735   4.816   2.487   2.765
 7612SOL    HW223736   4.824   2.402   2.626
 7613SOL     OW23737   1.120   1.842   2.062
 7613SOL    HW123738   1.156   1.801   1.979
 7613SOL    HW223739   1.074   1.772   2.116
 7614SOL     OW23740   5.293   3.794   1.446
 7614SOL    HW123741   5.284   3.706   1.492
 7614SOL    HW223742   5.204   3.824   1.413
 7615SOL     OW23743   4.442   4.081   5.943
 7615SOL    HW123744   4.434   4.066   5.845
 7615SOL    HW223745   4.489   4.004   5.986
 7616SOL     OW23746   6.672   0.148   3.555
 7616SOL    HW123747   6.617   0.111   3.480
 7616SOL    HW223748   6.722   0.229   3.522
 7617SOL     OW23749   5.432   5.686   3.328
 7617SOL    HW123750   5.452   5.766   3.384
 7617SOL    HW223751   5.439   5.603   3.384
 7618SOL     OW23752   0.914   2.807   6.883
 7618SOL    HW123753   0.918   2.905   6.901
 7618SOL    HW223754   0.823   2.782   6.850
 7619SOL     OW23755   6.753   2.508   4.832
 7619SOL    HW123756   6.790   2.570   4.901
 7619SOL    HW223757   6.796   2.418   4.841
 7620SOL     OW23758   4.067   5.140   0.992
 7620SOL    HW123759   3.977   5.176   0.966
 7620SOL    HW223760   4.105   5.087   0.916
 7621SOL     OW23761   0.671   0.330   1.038
 7621SOL    HW123762   0.582   0.286   1.028
 7621SOL    HW223763   0.743   0.260   1.033
 7622SOL     OW23764   4.039   4.648   6.509
 7622SOL    HW123765   4.027   4.571   6.448
 7622SOL    HW223766   4.008   4.623   6.601
 7623SOL     OW23767   4.077   4.322   1.087
 7623SOL    HW123768   4.126   4.406   1.111
 7623SOL    HW223769   4.110   4.246   1.143
 7624SOL     OW23770   6.507   3.393   3.589
 7624SOL    HW123771   6.457   3.433   3.666
 7624SOL    HW223772   6.460   3.415   3.503
 7625SOL     OW23773   6.740   1.808   0.042
 7625SOL    HW123774   6.768   1.859   0.124
 7625SOL    HW223775   6.656   1.848   0.005
 7626SOL     OW23776   6.667   1.235   5.900
 7626SOL    HW123777   6.628   1.253   5.809
 7626SOL    HW223778   6.743   1.297   5.917
 7627SOL     OW23779   2.789   1.842   0.450
 7627SOL    HW123780   2.818   1.816   0.542
 7627SOL    HW223781   2.731   1.770   0.412
 7628SOL     OW23782   3.766   3.034   1.628
 7628SOL    HW123783   3.818   2.949   1.632
 7628SOL    HW223784   3.727   3.045   1.537
 7629SOL     OW23785   0.002   4.397   3.581
 7629SOL    HW123786   0.013   4.310   3.629
 7629SOL    HW223787   0.012   4.382   3.483
 7630SOL     OW23788   0.977   0.820   6.439
 7630SOL    HW123789   0.991   0.916   6.416
 7630SOL    HW223790   0.969   0.766   6.355
 7631SOL     OW23791   1.419   1.167   5.635
 7631SOL    HW123792   1.463   1.092   5.685
 7631SOL    HW223793   1.428   1.152   5.537
 7632SOL     OW23794   4.278   5.094   1.175
 7632SOL    HW123795   4.224   5.115   1.093
 7632SOL    HW223796   4.231   5.025   1.229
 7633SOL     OW23797   5.220   0.754   2.074
 7633SOL    HW123798   5.186   0.665   2.102
 7633SOL    HW223799   5.297   0.743   2.011
 7634SOL     OW23800   1.449   1.407   1.764
 7634SOL    HW123801   1.437   1.331   1.700
 7634SOL    HW223802   1.442   1.374   1.858
 7635SOL     OW23803   3.032   5.271   4.172
 7635SOL    HW123804   2.961   5.342   4.174
 7635SOL    HW223805   3.097   5.286   4.247
 7636SOL     OW23806   1.365   4.208   4.402
 7636SOL    HW123807   1.457   4.170   4.398
 7636SOL    HW223808   1.321   4.200   4.312
 7637SOL     OW23809   1.476   6.295   2.764
 7637SOL    HW123810   1.492   6.307   2.666
 7637SOL    HW223811   1.427   6.374   2.800
 7638SOL     OW23812   1.287   5.345   2.067
 7638SOL    HW123813   1.233   5.292   2.002
 7638SOL    HW223814   1.226   5.406   2.118
 7639SOL     OW23815   0.437   1.317   0.391
 7639SOL    HW123816   0.440   1.387   0.320
 7639SOL    HW223817   0.515   1.255   0.379
 7640SOL     OW23818   3.109   2.639   7.007
 7640SOL    HW123819   3.160   2.620   0.070
 7640SOL    HW223820   3.061   2.557   6.978
 7641SOL     OW23821   6.984   4.070   2.736
 7641SOL    HW123822   6.930   3.986   2.726
 7641SOL    HW223823   6.965   4.112   2.825
 7642SOL     OW23824   6.205   0.860   2.546
 7642SOL    HW123825   6.262   0.941   2.535
 7642SOL    HW223826   6.130   0.862   2.480
 7643SOL     OW23827   5.124   1.354   2.439
 7643SOL    HW123828   5.148   1.279   2.377
 7643SOL    HW223829   5.208   1.394   2.477
 7644SOL     OW23830   4.834   3.094   2.261
 7644SOL    HW123831   4.773   3.134   2.330
 7644SOL    HW223832   4.783   3.079   2.176
 7645SOL     OW23833   4.375   3.162   5.749
 7645SOL    HW123834   4.455   3.208   5.710
 7645SOL    HW223835   4.293   3.214   5.728
 7646SOL     OW23836   0.850   2.837   4.065
 7646SOL    HW123837   0.768   2.877   4.025
 7646SOL    HW223838   0.870   2.749   4.021
 7647SOL     OW23839   0.547   3.072   4.320
 7647SOL    HW123840   0.577   3.164   4.345
 7647SOL    HW223841   0.534   3.018   4.403
 7648SOL     OW23842   2.545   1.459   2.307
 7648SOL    HW123843   2.493   1.533   2.264
 7648SOL    HW223844   2.519   1.372   2.267
 7649SOL     OW23845   1.432   1.419   4.320
 7649SOL    HW123846   1.336   1.391   4.321
 7649SOL    HW223847   1.465   1.425   4.226
 7650SOL     OW23848   5.805   0.339   1.222
 7650SOL    HW123849   5.824   0.293   1.309
 7650SOL    HW223850   5.886   0.391   1.194
 7651SOL     OW23851   2.569   6.017   4.349
 7651SOL    HW123852   2.645   6.065   4.392
 7651SOL    HW223853   2.542   5.939   4.406
 7652SOL     OW23854   5.570   2.830   5.497
 7652SOL    HW123855   5.486   2.870   5.534
 7652SOL    HW223856   5.547   2.760   5.430
 7653SOL     OW23857   1.578   1.346   0.112
 7653SOL    HW123858   1.642   1.354   0.188
 7653SOL    HW223859   1.532   1.258   0.116
 7654SOL     OW23860   5.611   3.627   4.949
 7654SOL    HW123861   5.615   3.726   4.957
 7654SOL    HW223862   5.521   3.594   4.979
 7655SOL     OW23863   3.963   0.427   3.655
 7655SOL    HW123864   3.884   0.419   3.716
 7655SOL    HW223865   4.010   0.339   3.649
 7656SOL     OW23866   5.230   2.686   6.517
 7656SOL    HW123867   5.278   2.675   6.604
 7656SOL    HW223868   5.278   2.634   6.446
 7657SOL     OW23869   1.998   2.520   3.837
 7657SOL    HW123870   2.007   2.612   3.800
 7657SOL    HW223871   2.017   2.452   3.766
 7658SOL     OW23872   3.317   0.364   0.721
 7658SOL    HW123873   3.412   0.371   0.693
 7658SOL    HW223874   3.260   0.423   0.663
 7659SOL     OW23875   4.861   4.218   6.973
 7659SOL    HW123876   4.903   4.177   6.892
 7659SOL    HW223877   4.924   4.285   7.012
 7660SOL     OW23878   6.118   5.433   4.448
 7660SOL    HW123879   6.079   5.525   4.455
 7660SOL    HW223880   6.055   5.367   4.489
 7661SOL     OW23881   4.980   1.987   5.585
 7661SOL    HW123882   5.064   2.001   5.532
 7661SOL    HW223883   4.995   2.019   5.679
 7662SOL     OW23884   0.992   2.538   3.432
 7662SOL    HW123885   1.041   2.556   3.346
 7662SOL    HW223886   0.958   2.624   3.469
 7663SOL     OW23887   5.202   5.541   6.708
 7663SOL    HW123888   5.175   5.518   6.615
 7663SOL    HW223889   5.134   5.507   6.772
 7664SOL     OW23890   3.591   1.581   3.009
 7664SOL    HW123891   3.578   1.680   3.009
 7664SOL    HW223892   3.680   1.558   3.047
 7665SOL     OW23893   5.711   1.704   4.326
 7665SOL    HW123894   5.705   1.642   4.404
 7665SOL    HW223895   5.630   1.762   4.322
 7666SOL     OW23896   0.008   4.879   4.394
 7666SOL    HW123897   6.943   4.914   4.357
 7666SOL    HW223898   0.076   4.953   4.394
 7667SOL     OW23899   4.309   0.386   2.806
 7667SOL    HW123900   4.383   0.447   2.780
 7667SOL    HW223901   4.223   0.438   2.812
 7668SOL     OW23902   2.688   4.648   0.328
 7668SOL    HW123903   2.755   4.670   0.400
 7668SOL    HW223904   2.736   4.629   0.242
 7669SOL     OW23905   4.218   0.804   5.339
 7669SOL    HW123906   4.279   0.729   5.364
 7669SOL    HW223907   4.204   0.863   5.418
 7670SOL     OW23908   0.896   6.039   0.919
 7670SOL    HW123909   0.840   6.116   0.889
 7670SOL    HW223910   0.899   5.970   0.846
 7671SOL     OW23911   4.417   0.089   2.680
 7671SOL    HW123912   4.328   0.077   2.722
 7671SOL    HW223913   4.487   0.047   2.738
 7672SOL     OW23914   6.665   4.619   3.340
 7672SOL    HW123915   6.633   4.585   3.429
 7672SOL    HW223916   6.586   4.641   3.282
 7673SOL     OW23917   1.555   5.694   2.478
 7673SOL    HW123918   1.576   5.731   2.569
 7673SOL    HW223919   1.640   5.674   2.430
 7674SOL     OW23920   4.597   0.206   4.180
 7674SOL    HW123921   4.499   0.205   4.199
 7674SOL    HW223922   4.648   0.184   4.263
 7675SOL     OW23923   4.498   6.383   3.291
 7675SOL    HW123924   4.542   6.297   3.317
 7675SOL    HW223925   4.399   6.371   3.291
 7676SOL     OW23926   2.993   2.006   5.951
 7676SOL    HW123927   3.090   1.983   5.948
 7676SOL    HW223928   2.951   1.983   5.863
 7677SOL     OW23929   0.353   4.539   0.477
 7677SOL    HW123930   0.280   4.556   0.411
 7677SOL    HW223931   0.400   4.454   0.454
 7678SOL     OW23932   1.471   2.750   5.182
 7678SOL    HW123933   1.493   2.653   5.181
 7678SOL    HW223934   1.550   2.802   5.216
 7679SOL     OW23935   2.072   5.554   5.409
 7679SOL    HW123936   2.020   5.470   5.424
 7679SOL    HW223937   2.060   5.584   5.315
 7680SOL     OW23938   1.240   0.447   6.360
 7680SOL    HW123939   1.222   0.464   6.263
 7680SOL    HW223940   1.209   0.355   6.384
 7681SOL     OW23941   2.909   1.167   0.196
 7681SOL    HW123942   2.914   1.266   0.213
 7681SOL    HW223943   2.938   1.118   0.278
 7682SOL     OW23944   4.385   1.457   2.208
 7682SOL    HW123945   4.474   1.480   2.168
 7682SOL    HW223946   4.389   1.365   2.246
 7683SOL     OW23947   0.741   1.210   4.659
 7683SOL    HW123948   0.752   1.260   4.745
 7683SOL    HW223949   0.808   1.244   4.592
 7684SOL     OW23950   3.944   2.417   1.431
 7684SOL    HW123951   3.911   2.505   1.397
 7684SOL    HW223952   3.939   2.416   1.531
 7685SOL     OW23953   3.275   1.384   6.794
 7685SOL    HW123954   3.193   1.375   6.850
 7685SOL    HW223955   3.310   1.478   6.800
 7686SOL     OW23956   5.399   6.673   4.044
 7686SOL    HW123957   5.360   6.740   3.981
 7686SOL    HW223958   5.417   6.718   4.132
 7687SOL     OW23959   4.990   4.657   4.881
 7687SOL    HW123960   5.042   4.713   4.946
 7687SOL    HW223961   4.896   4.692   4.874
 7688SOL     OW23962   6.734   6.272   5.899
 7688SOL    HW123963   6.811   6.230   5.852
 7688SOL    HW223964   6.705   6.355   5.850
 7689SOL     OW23965   5.035   0.273   2.524
 7689SOL    HW123966   5.110   0.211   2.504
 7689SOL    HW223967   5.055   0.325   2.607
 7690SOL     OW23968   5.514   5.252   0.589
 7690SOL    HW123969   5.532   5.178   0.654
 7690SOL    HW223970   5.484   5.212   0.502
 7691SOL     OW23971   4.579   4.710   1.881
 7691SOL    HW123972   4.483   4.697   1.855
 7691SOL    HW223973   4.622   4.621   1.897
 7692SOL     OW23974   0.743   6.176   1.644
 7692SOL    HW123975   0.680   6.125   1.703
 7692SOL    HW223976   0.744   6.272   1.673
 7693SOL     OW23977   3.215   0.272   1.692
 7693SOL    HW123978   3.137   0.210   1.691
 7693SOL    HW223979   3.262   0.268   1.604
 7694SOL     OW23980   5.614   2.840   4.607
 7694SOL    HW123981   5.664   2.803   4.528
 7694SOL    HW223982   5.521   2.803   4.608
 7695SOL     OW23983   5.699   0.639   1.634
 7695SOL    HW123984   5.736   0.686   1.714
 7695SOL    HW223985   5.757   0.659   1.555
 7696SOL     OW23986   0.116   1.287   6.118
 7696SOL    HW123987   0.209   1.261   6.094
 7696SOL    HW223988   0.056   1.207   6.106
 7697SOL     OW23989   2.763   0.823   2.546
 7697SOL    HW123990   2.793   0.917   2.530
 7697SOL    HW223991   2.791   0.765   2.469
 7698SOL     OW23992   6.810   1.692   5.247
 7698SOL    HW123993   6.888   1.672   5.187
 7698SOL    HW223994   6.725   1.681   5.195
 7699SOL     OW23995   2.695   5.171   6.672
 7699SOL    HW123996   2.719   5.124   6.757
 7699SOL    HW223997   2.607   5.137   6.639
 7700SOL     OW23998   4.260   6.047   3.378
 7700SOL    HW123999   4.284   6.027   3.473
 7700SOL    HW224000   4.178   5.996   3.352
 7701SOL     OW24001   0.296   2.139   6.441
 7701SOL    HW124002   0.396   2.134   6.428
 7701SOL    HW224003   0.275   2.139   6.539
 7702SOL     OW24004   4.128   6.157   5.199
 7702SOL    HW124005   4.118   6.218   5.120
 7702SOL    HW224006   4.122   6.210   5.283
 7703SOL     OW24007   6.494   6.865   5.269
 7703SOL    HW124008   6.497   6.826   5.177
 7703SOL    HW224009   6.415   6.827   5.318
 7704SOL     OW24010   6.557   2.100   4.226
 7704SOL    HW124011   6.496   2.028   4.257
 7704SOL    HW224012   6.535   2.186   4.272
 7705SOL     OW24013   2.662   4.866   0.808
 7705SOL    HW124014   2.636   4.960   0.831
 7705SOL    HW224015   2.753   4.866   0.767
 7706SOL     OW24016   3.536   2.885   3.317
 7706SOL    HW124017   3.605   2.885   3.245
 7706SOL    HW224018   3.568   2.830   3.394
 7707SOL     OW24019   0.275   4.838   6.491
 7707SOL    HW124020   0.247   4.934   6.495
 7707SOL    HW224021   0.233   4.794   6.412
 7708SOL     OW24022   1.593   6.753   4.279
 7708SOL    HW124023   1.628   6.821   4.215
 7708SOL    HW224024   1.636   6.664   4.261
 7709SOL     OW24025   6.613   5.385   1.583
 7709SOL    HW124026   6.565   5.441   1.516
 7709SOL    HW224027   6.600   5.424   1.675
 7710SOL     OW24028   2.062   2.457   0.672
 7710SOL    HW124029   2.070   2.518   0.593
 7710SOL    HW224030   1.967   2.427   0.681
 7711SOL     OW24031   6.107   5.522   5.761
 7711SOL    HW124032   6.154   5.554   5.843
 7711SOL    HW224033   6.027   5.579   5.744
 7712SOL     OW24034   5.886   4.529   6.976
 7712SOL    HW124035   5.948   4.607   6.987
 7712SOL    HW224036   5.805   4.558   6.926
 7713SOL     OW24037   1.887   4.044   1.055
 7713SOL    HW124038   1.812   3.979   1.063
 7713SOL    HW224039   1.974   3.995   1.053
 7714SOL     OW24040   0.376   6.551   5.505
 7714SOL    HW124041   0.341   6.464   5.471
 7714SOL    HW224042   0.301   6.606   5.541
 7715SOL     OW24043   2.626   2.188   6.540
 7715SOL    HW124044   2.613   2.143   6.452
 7715SOL    HW224045   2.584   2.279   6.539
 7716SOL     OW24046   6.905   5.264   0.335
 7716SOL    HW124047   6.859   5.179   0.308
 7716SOL    HW224048   7.004   5.249   0.336
 7717SOL     OW24049   1.584   1.792   5.066
 7717SOL    HW124050   1.622   1.876   5.027
 7717SOL    HW224051   1.567   1.725   4.994
 7718SOL     OW24052   6.667   4.658   2.835
 7718SOL    HW124053   6.674   4.615   2.924
 7718SOL    HW224054   6.745   4.719   2.821
 7719SOL     OW24055   0.918   4.306   4.950
 7719SOL    HW124056   0.918   4.226   4.892
 7719SOL    HW224057   0.831   4.312   4.999
 7720SOL     OW24058   6.313   1.888   5.776
 7720SOL    HW124059   6.244   1.850   5.714
 7720SOL    HW224060   6.293   1.859   5.870
 7721SOL     OW24061   0.517   0.348   2.329
 7721SOL    HW124062   0.593   0.363   2.393
 7721SOL    HW224063   0.460   0.273   2.362
 7722SOL     OW24064   1.994   5.242   4.192
 7722SOL    HW124065   1.900   5.260   4.163
 7722SOL    HW224066   2.050   5.218   4.113
 7723SOL     OW24067   4.710   3.598   6.716
 7723SOL    HW124068   4.636   3.534   6.693
 7723SOL    HW224069   4.684   3.690   6.687
 7724SOL     OW24070   3.411   4.485   0.609
 7724SOL    HW124071   3.454   4.420   0.673
 7724SOL    HW224072   3.418   4.577   0.647
 7725SOL     OW24073   5.913   2.609   2.657
 7725SOL    HW124074   5.842   2.572   2.718
 7725SOL    HW224075   6.002   2.597   2.699
 7726SOL     OW24076   0.984   3.055   5.950
 7726SOL    HW124077   1.060   3.103   5.992
 7726SOL    HW224078   1.016   2.968   5.913
 7727SOL     OW24079   5.895   2.849   1.514
 7727SOL    HW124080   5.876   2.947   1.510
 7727SOL    HW224081   5.834   2.800   1.452
 7728SOL     OW24082   2.260   2.746   5.162
 7728SOL    HW124083   2.292   2.678   5.095
 7728SOL    HW224084   2.288   2.837   5.133
 7729SOL     OW24085   5.509   1.450   1.748
 7729SOL    HW124086   5.422   1.498   1.752
 7729SOL    HW224087   5.526   1.417   1.655
 7730SOL     OW24088   6.330   4.580   5.238
 7730SOL    HW124089   6.406   4.524   5.271
 7730SOL    HW224090   6.364   4.646   5.172
 7731SOL     OW24091   6.568   6.816   0.554
 7731SOL    HW124092   6.473   6.789   0.574
 7731SOL    HW224093   6.614   6.740   0.508
 7732SOL     OW24094   4.332   0.216   0.266
 7732SOL    HW124095   4.247   0.177   0.299
 7732SOL    HW224096   4.338   0.312   0.294
 7733SOL     OW24097   6.118   5.287   2.835
 7733SOL    HW124098   6.035   5.242   2.801
 7733SOL    HW224099   6.114   5.384   2.810
 7734SOL     OW24100   2.509   5.050   4.355
 7734SOL    HW124101   2.569   5.000   4.292
 7734SOL    HW224102   2.462   4.985   4.414
 7735SOL     OW24103   6.155   5.539   0.181
 7735SOL    HW124104   6.191   5.549   0.274
 7735SOL    HW224105   6.192   5.455   0.140
 7736SOL     OW24106   2.261   3.041   0.546
 7736SOL    HW124107   2.192   3.028   0.616
 7736SOL    HW224108   2.326   3.112   0.575
 7737SOL     OW24109   3.043   5.763   2.014
 7737SOL    HW124110   2.992   5.718   1.941
 7737SOL    HW224111   3.057   5.859   1.991
 7738SOL     OW24112   2.484   5.915   6.707
 7738SOL    HW124113   2.556   5.914   6.638
 7738SOL    HW224114   2.429   5.997   6.697
 7739SOL     OW24115   1.161   1.744   1.492
 7739SOL    HW124116   1.232   1.765   1.559
 7739SOL    HW224117   1.138   1.647   1.498
 7740SOL     OW24118   1.813   1.047   2.524
 7740SOL    HW124119   1.867   1.008   2.599
 7740SOL    HW224120   1.872   1.061   2.444
 7741SOL     OW24121   1.125   4.024   5.104
 7741SOL    HW124122   1.044   4.008   5.046
 7741SOL    HW224123   1.112   4.108   5.157
 7742SOL     OW24124   3.908   1.473   4.055
 7742SOL    HW124125   3.839   1.464   3.983
 7742SOL    HW224126   3.993   1.431   4.024
 7743SOL     OW24127   4.958   0.861   6.915
 7743SOL    HW124128   4.873   0.894   6.956
 7743SOL    HW224129   4.937   0.795   6.843
 7744SOL     OW24130   0.602   6.012   3.568
 7744SOL    HW124131   0.648   5.965   3.492
 7744SOL    HW224132   0.508   6.033   3.542
 7745SOL     OW24133   2.845   6.699   7.021
 7745SOL    HW124134   2.824   6.692   6.923
 7745SOL    HW224135   2.775   6.651   0.052
 7746SOL     OW24136   1.505   6.978   0.866
 7746SOL    HW124137   1.518   6.880   0.850
 7746SOL    HW224138   1.479   6.993   0.961
 7747SOL     OW24139   0.627   6.102   1.142
 7747SOL    HW124140   0.663   6.163   1.072
 7747SOL    HW224141   0.559   6.040   1.100
 7748SOL     OW24142   3.234   3.674   4.868
 7748SOL    HW124143   3.171   3.694   4.944
 7748SOL    HW224144   3.213   3.734   4.791
 7749SOL     OW24145   3.234   3.528   3.678
 7749SOL    HW124146   3.231   3.574   3.590
 7749SOL    HW224147   3.295   3.579   3.740
 7750SOL     OW24148   5.840   5.734   5.950
 7750SOL    HW124149   5.847   5.683   6.035
 7750SOL    HW224150   5.877   5.826   5.963
 7751SOL     OW24151   0.880   2.210   3.204
 7751SOL    HW124152   0.865   2.214   3.105
 7751SOL    HW224153   0.796   2.236   3.252
 7752SOL     OW24154   5.867   5.706   5.678
 7752SOL    HW124155   5.848   5.719   5.775
 7752SOL    HW224156   5.831   5.617   5.649
 7753SOL     OW24157   2.635   1.102   4.155
 7753SOL    HW124158   2.573   1.085   4.232
 7753SOL    HW224159   2.704   1.029   4.151
 7754SOL     OW24160   5.278   0.284   1.883
 7754SOL    HW124161   5.336   0.293   1.964
 7754SOL    HW224162   5.334   0.297   1.801
 7755SOL     OW24163   1.156   0.495   5.715
 7755SOL    HW124164   1.251   0.463   5.713
 7755SOL    HW224165   1.153   0.590   5.747
 7756SOL     OW24166   2.808   5.847   2.378
 7756SOL    HW124167   2.899   5.888   2.370
 7756SOL    HW224168   2.740   5.920   2.383
 7757SOL     OW24169   5.012   6.511   4.322
 7757SOL    HW124170   4.917   6.541   4.308
 7757SOL    HW224171   5.060   6.512   4.235
 7758SOL     OW24172   1.432   2.273   6.810
 7758SOL    HW124173   1.489   2.204   6.765
 7758SOL    HW224174   1.489   2.327   6.873
 7759SOL     OW24175   1.684   1.325   5.254
 7759SOL    HW124176   1.771   1.327   5.205
 7759SOL    HW224177   1.611   1.295   5.192
 7760SOL     OW24178   5.686   3.494   2.463
 7760SOL    HW124179   5.636   3.467   2.381
 7760SOL    HW224180   5.780   3.461   2.457
 7761SOL     OW24181   2.395   0.114   6.321
 7761SOL    HW124182   2.368   0.209   6.331
 7761SOL    HW224183   2.313   0.057   6.310
 7762SOL     OW24184   4.118   0.628   5.160
 7762SOL    HW124185   4.115   0.669   5.069
 7762SOL    HW224186   4.163   0.691   5.223
 7763SOL     OW24187   1.362   1.347   1.206
 7763SOL    HW124188   1.444   1.309   1.249
 7763SOL    HW224189   1.327   1.284   1.137
 7764SOL     OW24190   3.803   3.002   2.733
 7764SOL    HW124191   3.898   3.010   2.765
 7764SOL    HW224192   3.800   2.938   2.656
 7765SOL     OW24193   6.121   3.191   3.649
 7765SOL    HW124194   6.053   3.158   3.715
 7765SOL    HW224195   6.210   3.197   3.693
 7766SOL     OW24196   5.138   1.331   6.997
 7766SOL    HW124197   5.127   1.232   6.993
 7766SOL    HW224198   5.074   1.369   0.042
 7767SOL     OW24199   3.921   6.469   4.033
 7767SOL    HW124200   4.018   6.464   4.057
 7767SOL    HW224201   3.903   6.552   3.981
 7768SOL     OW24202   4.246   5.204   2.765
 7768SOL    HW124203   4.149   5.195   2.786
 7768SOL    HW224204   4.284   5.114   2.743
 7769SOL     OW24205   5.274   1.561   1.370
 7769SOL    HW124206   5.284   1.652   1.410
 7769SOL    HW224207   5.340   1.549   1.296
 7770SOL     OW24208   1.657   4.038   1.922
 7770SOL    HW124209   1.681   3.957   1.869
 7770SOL    HW224210   1.632   4.010   2.015
 7771SOL     OW24211   2.553   2.614   5.216
 7771SOL    HW124212   2.644   2.604   5.257
 7771SOL    HW224213   2.494   2.667   5.277
 7772SOL     OW24214   5.136   1.111   3.838
 7772SOL    HW124215   5.233   1.087   3.845
 7772SOL    HW224216   5.120   1.201   3.878
 7773SOL     OW24217   2.885   4.942   5.371
 7773SOL    HW124218   2.799   4.938   5.321
 7773SOL    HW224219   2.912   4.849   5.397
 7774SOL     OW24220   5.973   2.207   6.550
 7774SOL    HW124221   5.939   2.244   6.463
 7774SOL    HW224222   5.896   2.168   6.601
 7775SOL     OW24223   3.448   6.682   2.910
 7775SOL    HW124224   3.428   6.770   2.952
 7775SOL    HW224225   3.517   6.694   2.838
 7776SOL     OW24226   2.988   3.353   6.721
 7776SOL    HW124227   2.932   3.287   6.671
 7776SOL    HW224228   2.991   3.439   6.671
 7777SOL     OW24229   2.528   1.521   5.363
 7777SOL    HW124230   2.618   1.563   5.351
 7777SOL    HW224231   2.467   1.553   5.291
 7778SOL     OW24232   5.104   6.445   0.158
 7778SOL    HW124233   5.181   6.383   0.175
 7778SOL    HW224234   5.111   6.523   0.219
 7779SOL     OW24235   3.692   3.048   0.376
 7779SOL    HW124236   3.620   3.021   0.440
 7779SOL    HW224237   3.723   3.140   0.398
 7780SOL     OW24238   1.762   5.313   4.897
 7780SOL    HW124239   1.801   5.405   4.884
 7780SOL    HW224240   1.777   5.259   4.815
 7781SOL     OW24241   1.768   4.447   6.596
 7781SOL    HW124242   1.835   4.453   6.669
 7781SOL    HW224243   1.683   4.490   6.625
 7782SOL     OW24244   1.693   3.501   5.566
 7782SOL    HW124245   1.633   3.421   5.569
 7782SOL    HW224246   1.769   3.484   5.504
 7783SOL     OW24247   3.167   6.604   6.066
 7783SOL    HW124248   3.264   6.622   6.077
 7783SOL    HW224249   3.116   6.648   6.140
 7784SOL     OW24250   2.081   2.245   0.270
 7784SOL    HW124251   2.104   2.187   0.192
 7784SOL    HW224252   2.158   2.307   0.289
 7785SOL     OW24253   1.591   6.927   3.777
 7785SOL    HW124254   1.674   6.937   3.723
 7785SOL    HW224255   1.549   7.016   3.792
 7786SOL     OW24256   3.367   5.587   6.080
 7786SOL    HW124257   3.304   5.574   6.156
 7786SOL    HW224258   3.460   5.596   6.115
 7787SOL     OW24259   1.835   3.421   5.354
 7787SOL    HW124260   1.899   3.347   5.374
 7787SOL    HW224261   1.856   3.461   5.265
 7788SOL     OW24262   1.665   0.436   1.733
 7788SOL    HW124263   1.593   0.478   1.677
 7788SOL    HW224264   1.744   0.416   1.676
 7789SOL     OW24265   3.782   6.703   0.348
 7789SOL    HW124266   3.683   6.690   0.339
 7789SOL    HW224267   3.815   6.652   0.427
 7790SOL     OW24268   5.923   5.080   2.350
 7790SOL    HW124269   5.934   5.015   2.426
 7790SOL    HW224270   5.912   5.029   2.265
 7791SOL     OW24271   2.953   6.735   3.794
 7791SOL    HW124272   2.996   6.676   3.862
 7791SOL    HW224273   2.903   6.679   3.728
 7792SOL     OW24274   0.865   5.560   6.018
 7792SOL    HW124275   0.962   5.577   6.036
 7792SOL    HW224276   0.843   5.591   5.926
 7793SOL     OW24277   1.574   0.525   5.901
 7793SOL    HW124278   1.505   0.481   5.843
 7793SOL    HW224279   1.665   0.498   5.870
 7794SOL     OW24280   4.910   5.307   3.298
 7794SOL    HW124281   4.889   5.399   3.331
 7794SOL    HW224282   4.852   5.241   3.347
 7795SOL     OW24283   2.004   3.815   4.743
 7795SOL    HW124284   2.075   3.880   4.769
 7795SOL    HW224285   1.935   3.862   4.688
 7796SOL     OW24286   3.021   3.888   4.219
 7796SOL    HW124287   3.100   3.945   4.245
 7796SOL    HW224288   3.035   3.853   4.126
 7797SOL     OW24289   0.843   5.827   2.881
 7797SOL    HW124290   0.831   5.912   2.830
 7797SOL    HW224291   0.903   5.766   2.831
 7798SOL     OW24292   1.232   5.201   6.355
 7798SOL    HW124293   1.235   5.295   6.390
 7798SOL    HW224294   1.150   5.188   6.300
 7799SOL     OW24295   6.831   6.389   1.891
 7799SOL    HW124296   6.834   6.452   1.969
 7799SOL    HW224297   6.894   6.421   1.820
 7800SOL     OW24298   1.289   5.196   0.711
 7800SOL    HW124299   1.388   5.204   0.726
 7800SOL    HW224300   1.240   5.228   0.792
 7801SOL     OW24301   2.509   1.724   1.559
 7801SOL    HW124302   2.519   1.705   1.462
 7801SOL    HW224303   2.414   1.747   1.579
 7802SOL     OW24304   5.245   2.480   1.419
 7802SOL    HW124305   5.165   2.436   1.378
 7802SOL    HW224306   5.323   2.418   1.413
 7803SOL     OW24307   4.483   2.930   5.870
 7803SOL    HW124308   4.569   2.947   5.823
 7803SOL    HW224309   4.420   3.006   5.852
 7804SOL     OW24310   6.504   1.305   3.599
 7804SOL    HW124311   6.559   1.388   3.598
 7804SOL    HW224312   6.415   1.324   3.642
 7805SOL     OW24313   5.488   1.124   1.399
 7805SOL    HW124314   5.520   1.212   1.434
 7805SOL    HW224315   5.521   1.110   1.305
 7806SOL     OW24316   5.880   2.492   6.060
 7806SOL    HW124317   5.800   2.541   6.093
 7806SOL    HW224318   5.855   2.432   5.984
 7807SOL     OW24319   0.539   5.192   6.108
 7807SOL    HW124320   0.579   5.130   6.175
 7807SOL    HW224321   0.544   5.150   6.017
 7808SOL     OW24322   0.303   3.041   4.192
 7808SOL    HW124323   0.382   3.067   4.247
 7808SOL    HW224324   0.333   2.990   4.112
 7809SOL     OW24325   2.643   6.221   4.685
 7809SOL    HW124326   2.550   6.229   4.649
 7809SOL    HW224327   2.663   6.124   4.700
 7810SOL     OW24328   3.471   6.893   5.291
 7810SOL    HW124329   3.522   6.930   5.368
 7810SOL    HW224330   3.499   6.939   5.207
 7811SOL     OW24331   0.013   4.622   4.277
 7811SOL    HW124332   0.090   4.624   4.213
 7811SOL    HW224333   0.009   4.708   4.328
 7812SOL     OW24334   1.256   2.077   4.040
 7812SOL    HW124335   1.259   2.007   4.111
 7812SOL    HW224336   1.177   2.060   3.981
 7813SOL     OW24337   4.256   2.205   6.197
 7813SOL    HW124338   4.255   2.305   6.197
 7813SOL    HW224339   4.296   2.172   6.282
 7814SOL     OW24340   6.758   3.522   3.565
 7814SOL    HW124341   6.724   3.602   3.614
 7814SOL    HW224342   6.681   3.461   3.544
 7815SOL     OW24343   5.195   0.763   0.019
 7815SOL    HW124344   5.221   0.668   0.003
 7815SOL    HW224345   5.097   0.774   0.005
 7816SOL     OW24346   1.459   2.170   6.481
 7816SOL    HW124347   1.464   2.264   6.449
 7816SOL    HW224348   1.541   2.120   6.454
 7817SOL     OW24349   6.261   3.835   3.928
 7817SOL    HW124350   6.355   3.801   3.940
 7817SOL    HW224351   6.219   3.848   4.018
 7818SOL     OW24352   4.406   0.703   2.986
 7818SOL    HW124353   4.454   0.714   2.899
 7818SOL    HW224354   4.440   0.771   3.052
 7819SOL     OW24355   6.630   3.268   1.814
 7819SOL    HW124356   6.635   3.354   1.762
 7819SOL    HW224357   6.618   3.191   1.751
 7820SOL     OW24358   1.747   2.410   4.405
 7820SOL    HW124359   1.734   2.472   4.328
 7820SOL    HW224360   1.705   2.321   4.383
 7821SOL     OW24361   4.888   6.004   1.273
 7821SOL    HW124362   4.978   6.030   1.307
 7821SOL    HW224363   4.870   6.051   1.187
 7822SOL     OW24364   0.326   0.440   5.406
 7822SOL    HW124365   0.337   0.376   5.330
 7822SOL    HW224366   0.360   0.530   5.379
 7823SOL     OW24367   2.239   3.836   5.293
 7823SOL    HW124368   2.189   3.921   5.277
 7823SOL    HW224369   2.334   3.848   5.265
 7824SOL     OW24370   6.149   1.900   5.054
 7824SOL    HW124371   6.189   1.967   5.117
 7824SOL    HW224372   6.110   1.824   5.106
 7825SOL     OW24373   1.533   3.171   0.424
 7825SOL    HW124374   1.545   3.082   0.380
 7825SOL    HW224375   1.521   3.157   0.523
 7826SOL     OW24376   5.802   1.268   1.121
 7826SOL    HW124377   5.821   1.264   1.219
 7826SOL    HW224378   5.851   1.345   1.081
 7827SOL     OW24379   1.972   5.992   1.057
 7827SOL    HW124380   2.011   5.923   0.996
 7827SOL    HW224381   2.027   5.999   1.140
 7828SOL     OW24382   6.434   4.703   0.348
 7828SOL    HW124383   6.497   4.667   0.280
 7828SOL    HW224384   6.474   4.784   0.392
 7829SOL     OW24385   2.610   3.350   1.033
 7829SOL    HW124386   2.611   3.260   1.076
 7829SOL    HW224387   2.516   3.385   1.029
 7830SOL     OW24388   3.109   5.044   5.596
 7830SOL    HW124389   3.168   5.085   5.525
 7830SOL    HW224390   3.044   4.981   5.553
 7831SOL     OW24391   1.972   0.240   1.857
 7831SOL    HW124392   2.048   0.177   1.844
 7831SOL    HW224393   1.964   0.300   1.777
 7832SOL     OW24394   6.441   0.719   4.800
 7832SOL    HW124395   6.442   0.809   4.758
 7832SOL    HW224396   6.347   0.686   4.808
 7833SOL     OW24397   1.146   0.976   4.795
 7833SOL    HW124398   1.094   0.965   4.880
 7833SOL    HW224399   1.085   0.962   4.717
 7834SOL     OW24400   6.943   1.695   3.587
 7834SOL    HW124401   7.010   1.707   3.514
 7834SOL    HW224402   6.855   1.667   3.548
 7835SOL     OW24403   4.230   1.924   5.087
 7835SOL    HW124404   4.193   1.869   5.162
 7835SOL    HW224405   4.235   2.020   5.116
 7836SOL     OW24406   3.342   4.260   5.234
 7836SOL    HW124407   3.269   4.325   5.255
 7836SOL    HW224408   3.330   4.177   5.290
 7837SOL     OW24409   5.012   5.796   6.949
 7837SOL    HW124410   5.040   5.735   0.003
 7837SOL    HW224411   4.944   5.860   6.982
 7838SOL     OW24412   4.137   6.590   1.390
 7838SOL    HW124413   4.178   6.574   1.480
 7838SOL    HW224414   4.079   6.512   1.366
 7839SOL     OW24415   6.335   4.201   5.046
 7839SOL    HW124416   6.321   4.110   5.084
 7839SOL    HW224417   6.420   4.240   5.081
 7840SOL     OW24418   0.211   3.392   4.449
 7840SOL    HW124419   0.118   3.397   4.412
 7840SOL    HW224420   0.207   3.393   4.549
 7841SOL     OW24421   4.284   1.690   6.702
 7841SOL    HW124422   4.232   1.605   6.712
 7841SOL    HW224423   4.334   1.709   6.786
 7842SOL     OW24424   2.058   1.129   2.332
 7842SOL    HW124425   1.991   1.097   2.265
 7842SOL    HW224426   2.100   1.214   2.299
 7843SOL     OW24427   0.339   6.647   3.562
 7843SOL    HW124428   0.371   6.593   3.484
 7843SOL    HW224429   0.384   6.736   3.562
 7844SOL     OW24430   3.457   0.936   2.752
 7844SOL    HW124431   3.398   0.936   2.671
 7844SOL    HW224432   3.469   1.030   2.785
 7845SOL     OW24433   5.092   1.687   2.282
 7845SOL    HW124434   5.014   1.628   2.261
 7845SOL    HW224435   5.060   1.781   2.295
 7846SOL     OW24436   0.943   2.424   1.594
 7846SOL    HW124437   0.920   2.509   1.641
 7846SOL    HW224438   1.034   2.394   1.623
 7847SOL     OW24439   6.530   1.258   3.325
 7847SOL    HW124440   6.438   1.222   3.309
 7847SOL    HW224441   6.550   1.256   3.423
 7848SOL     OW24442   2.909   4.524   1.133
 7848SOL    HW124443   2.859   4.532   1.219
 7848SOL    HW224444   2.846   4.504   1.058
 7849SOL     OW24445   6.207   4.126   4.821
 7849SOL    HW124446   6.256   4.177   4.892
 7849SOL    HW224447   6.261   4.126   4.737
 7850SOL     OW24448   0.658   1.825   3.800
 7850SOL    HW124449   0.579   1.804   3.858
 7850SOL    HW224450   0.741   1.788   3.843
 7851SOL     OW24451   0.385   2.528   1.609
 7851SOL    HW124452   0.308   2.591   1.602
 7851SOL    HW224453   0.470   2.579   1.611
 7852SOL     OW24454   3.034   0.859   0.637
 7852SOL    HW124455   3.053   0.946   0.591
 7852SOL    HW224456   2.945   0.864   0.683
 7853SOL     OW24457   4.822   2.830   1.227
 7853SOL    HW124458   4.886   2.819   1.152
 7853SOL    HW224459   4.850   2.774   1.304
 7854SOL     OW24460   3.258   2.502   5.872
 7854SOL    HW124461   3.226   2.514   5.778
 7854SOL    HW224462   3.283   2.591   5.910
 7855SOL     OW24463   4.307   5.903   4.809
 7855SOL    HW124464   4.223   5.949   4.780
 7855SOL    HW224465   4.352   5.862   4.729
 7856SOL     OW24466   0.392   5.229   5.131
 7856SOL    HW124467   0.457   5.203   5.060
 7856SOL    HW224468   0.324   5.156   5.142
 7857SOL     OW24469   4.830   3.205   0.694
 7857SOL    HW124470   4.817   3.136   0.765
 7857SOL    HW224471   4.927   3.231   0.690
 7858SOL     OW24472   6.643   6.974   4.895
 7858SOL    HW124473   6.605   6.891   4.936
 7858SOL    HW224474   6.743   6.968   4.895
 7859SOL     OW24475   4.601   3.742   0.346
 7859SOL    HW124476   4.675   3.747   0.413
 7859SOL    HW224477   4.536   3.671   0.373
 7860SOL     OW24478   4.415   1.079   4.710
 7860SOL    HW124479   4.431   0.981   4.697
 7860SOL    HW224480   4.480   1.115   4.777
 7861SOL     OW24481   2.644   5.059   1.678
 7861SOL    HW124482   2.642   5.136   1.742
 7861SOL    HW224483   2.735   5.016   1.681
 7862SOL     OW24484   1.638   5.792   2.745
 7862SOL    HW124485   1.614   5.737   2.825
 7862SOL    HW224486   1.735   5.817   2.749
 7863SOL     OW24487   0.803   4.624   3.829
 7863SOL    HW124488   0.831   4.670   3.745
 7863SOL    HW224489   0.763   4.690   3.892
 7864SOL     OW24490   1.477   5.561   5.979
 7864SOL    HW124491   1.457   5.515   5.892
 7864SOL    HW224492   1.455   5.500   6.055
 7865SOL     OW24493   6.396   5.595   4.416
 7865SOL    HW124494   6.309   5.551   4.435
 7865SOL    HW224495   6.385   5.694   4.416
 7866SOL     OW24496   0.993   0.688   5.263
 7866SOL    HW124497   1.025   0.625   5.332
 7866SOL    HW224498   0.950   0.637   5.188
 7867SOL     OW24499   5.725   0.052   3.416
 7867SOL    HW124500   5.704   7.013   3.339
 7867SOL    HW224501   5.642   0.066   3.470
 7868SOL     OW24502   4.488   6.137   0.866
 7868SOL    HW124503   4.494   6.232   0.895
 7868SOL    HW224504   4.426   6.087   0.926
 7869SOL     OW24505   5.245   4.519   5.760
 7869SOL    HW124506   5.232   4.557   5.669
 7869SOL    HW224507   5.203   4.429   5.766
 7870SOL     OW24508   4.932   6.540   4.658
 7870SOL    HW124509   4.870   6.470   4.624
 7870SOL    HW224510   4.920   6.550   4.757
 7871SOL     OW24511   4.975   2.435   2.068
 7871SOL    HW124512   4.902   2.496   2.036
 7871SOL    HW224513   5.018   2.391   1.988
 7872SOL     OW24514   1.812   4.015   2.269
 7872SOL    HW124515   1.720   4.011   2.231
 7872SOL    HW224516   1.857   3.926   2.257
 7873SOL     OW24517   6.174   0.076   0.593
 7873SOL    HW124518   6.253   0.134   0.569
 7873SOL    HW224519   6.207   7.010   0.628
 7874SOL     OW24520   4.295   2.252   1.123
 7874SOL    HW124521   4.380   2.244   1.175
 7874SOL    HW224522   4.242   2.329   1.158
 7875SOL     OW24523   3.731   2.912   0.146
 7875SOL    HW124524   3.696   2.969   0.220
 7875SOL    HW224525   3.709   2.956   0.058
 7876SOL     OW24526   1.073   6.492   3.333
 7876SOL    HW124527   1.042   6.423   3.397
 7876SOL    HW224528   1.123   6.564   3.383
 7877SOL     OW24529   6.934   1.523   2.887
 7877SOL    HW124530   0.003   1.486   2.868
 7877SOL    HW224531   6.866   1.472   2.834
 7878SOL     OW24532   4.736   4.205   3.687
 7878SOL    HW124533   4.750   4.303   3.673
 7878SOL    HW224534   4.786   4.154   3.617
 7879SOL     OW24535   3.726   5.346   2.447
 7879SOL    HW124536   3.704   5.248   2.444
 7879SOL    HW224537   3.657   5.396   2.395
 7880SOL     OW24538   2.299   3.627   0.794
 7880SOL    HW124539   2.325   3.715   0.753
 7880SOL    HW224540   2.281   3.561   0.721
 7881SOL     OW24541   4.894   4.061   4.351
 7881SOL    HW124542   4.890   3.981   4.410
 7881SOL    HW224543   4.899   4.144   4.407
 7882SOL     OW24544   2.046   3.615   1.662
 7882SOL    HW124545   2.109   3.538   1.649
 7882SOL    HW224546   2.057   3.651   1.755
 7883SOL     OW24547   0.864   0.497   5.872
 7883SOL    HW124548   0.962   0.489   5.854
 7883SOL    HW224549   0.820   0.409   5.853
 7884SOL     OW24550   0.960   3.790   4.410
 7884SOL    HW124551   0.997   3.758   4.498
 7884SOL    HW224552   0.919   3.712   4.361
 7885SOL     OW24553   0.021   5.972   0.780
 7885SOL    HW124554   0.087   5.896   0.783
 7885SOL    HW224555   6.950   5.935   0.786
 7886SOL     OW24556   4.363   5.886   0.030
 7886SOL    HW124557   4.280   5.941   0.030
 7886SOL    HW224558   4.378   5.848   0.121
 7887SOL     OW24559   3.627   2.002   6.894
 7887SOL    HW124560   3.672   2.085   6.863
 7887SOL    HW224561   3.643   1.989   6.991
 7888SOL     OW24562   5.989   0.605   4.280
 7888SOL    HW124563   5.990   0.653   4.368
 7888SOL    HW224564   5.898   0.612   4.239
 7889SOL     OW24565   1.579   4.892   1.370
 7889SOL    HW124566   1.663   4.867   1.418
 7889SOL    HW224567   1.523   4.810   1.357
 7890SOL     OW24568   1.697   3.941   2.755
 7890SOL    HW124569   1.758   3.973   2.682
 7890SOL    HW224570   1.673   4.017   2.815
 7891SOL     OW24571   1.787   4.161   2.968
 7891SOL    HW124572   1.819   4.234   3.028
 7891SOL    HW224573   1.747   4.088   3.022
 7892SOL     OW24574   2.064   2.597   4.135
 7892SOL    HW124575   2.048   2.543   4.052
 7892SOL    HW224576   2.073   2.693   4.110
 7893SOL     OW24577   6.309   6.559   2.510
 7893SOL    HW124578   6.347   6.645   2.544
 7893SOL    HW224579   6.270   6.574   2.419
 7894SOL     OW24580   2.793   6.277   1.569
 7894SOL    HW124581   2.728   6.205   1.591
 7894SOL    HW224582   2.747   6.348   1.515
 7895SOL     OW24583   6.271   1.467   5.936
 7895SOL    HW124584   6.325   1.523   5.998
 7895SOL    HW224585   6.174   1.471   5.963
 7896SOL     OW24586   4.876   4.340   6.582
 7896SOL    HW124587   4.964   4.306   6.616
 7896SOL    HW224588   4.875   4.337   6.482
 7897SOL     OW24589   2.879   3.886   6.055
 7897SOL    HW124590   2.838   3.822   6.120
 7897SOL    HW224591   2.815   3.905   5.981
 7898SOL     OW24592   5.387   2.286   3.638
 7898SOL    HW124593   5.463   2.276   3.574
 7898SOL    HW224594   5.390   2.212   3.705
 7899SOL     OW24595   6.423   1.477   1.877
 7899SOL    HW124596   6.420   1.380   1.902
 7899SOL    HW224597   6.512   1.515   1.904
 7900SOL     OW24598   1.086   5.052   0.828
 7900SOL    HW124599   1.024   5.080   0.902
 7900SOL    HW224600   1.163   5.001   0.867
 7901SOL     OW24601   4.730   0.456   6.423
 7901SOL    HW124602   4.635   0.431   6.443
 7901SOL    HW224603   4.732   0.524   6.350
 7902SOL     OW24604   5.030   5.018   1.526
 7902SOL    HW124605   5.019   5.092   1.593
 7902SOL    HW224606   4.969   5.035   1.448
 7903SOL     OW24607   6.159   2.222   0.750
 7903SOL    HW124608   6.117   2.305   0.713
 7903SOL    HW224609   6.231   2.248   0.815
 7904SOL     OW24610   6.071   0.419   2.685
 7904SOL    HW124611   6.021   0.382   2.763
 7904SOL    HW224612   6.008   0.470   2.626
 7905SOL     OW24613   4.627   1.580   0.093
 7905SOL    HW124614   4.567   1.514   0.138
 7905SOL    HW224615   4.658   1.649   0.159
 7906SOL     OW24616   0.639   5.613   0.065
 7906SOL    HW124617   0.541   5.629   0.049
 7906SOL    HW224618   0.681   5.699   0.093
 7907SOL     OW24619   5.916   2.222   4.682
 7907SOL    HW124620   6.003   2.222   4.632
 7907SOL    HW224621   5.893   2.128   4.708
 7908SOL     OW24622   1.405   1.690   4.387
 7908SOL    HW124623   1.325   1.710   4.443
 7908SOL    HW224624   1.406   1.594   4.363
 7909SOL     OW24625   5.174   3.726   4.690
 7909SOL    HW124626   5.097   3.751   4.749
 7909SOL    HW224627   5.206   3.635   4.715
 7910SOL     OW24628   3.280   3.096   5.932
 7910SOL    HW124629   3.226   3.097   6.016
 7910SOL    HW224630   3.236   3.154   5.864
 7911SOL     OW24631   0.262   4.113   6.388
 7911SOL    HW124632   0.350   4.158   6.376
 7911SOL    HW224633   0.207   4.124   6.306
 7912SOL     OW24634   0.418   5.052   0.234
 7912SOL    HW124635   0.422   4.983   0.306
 7912SOL    HW224636   0.483   5.126   0.255
 7913SOL     OW24637   0.650   5.202   0.293
 7913SOL    HW124638   0.717   5.133   0.322
 7913SOL    HW224639   0.688   5.254   0.216
 7914SOL     OW24640   0.271   5.396   6.367
 7914SOL    HW124641   0.275   5.423   6.271
 7914SOL    HW224642   0.178   5.366   6.389
 7915SOL     OW24643   4.924   2.432   2.482
 7915SOL    HW124644   4.976   2.513   2.510
 7915SOL    HW224645   4.895   2.441   2.387
 7916SOL     OW24646   5.871   3.954   5.107
 7916SOL    HW124647   5.944   3.937   5.041
 7916SOL    HW224648   5.911   3.973   5.197
 7917SOL     OW24649   3.842   2.977   3.977
 7917SOL    HW124650   3.806   3.018   4.060
 7917SOL    HW224651   3.905   2.903   4.000
 7918SOL     OW24652   6.956   1.416   0.876
 7918SOL    HW124653   6.862   1.407   0.911
 7918SOL    HW224654   6.964   1.501   0.824
 7919SOL     OW24655   0.231   4.543   3.501
 7919SOL    HW124656   0.143   4.501   3.521
 7919SOL    HW224657   0.266   4.509   3.414
 7920SOL     OW24658   0.231   5.048   1.502
 7920SOL    HW124659   0.215   5.027   1.598
 7920SOL    HW224660   0.327   5.071   1.488
 7921SOL     OW24661   3.694   5.850   0.255
 7921SOL    HW124662   3.705   5.825   0.158
 7921SOL    HW224663   3.693   5.949   0.264
 7922SOL     OW24664   6.758   5.858   0.235
 7922SOL    HW124665   6.743   5.872   0.137
 7922SOL    HW224666   6.747   5.945   0.283
 7923SOL     OW24667   2.258   0.537   2.668
 7923SOL    HW124668   2.250   0.453   2.722
 7923SOL    HW224669   2.350   0.541   2.628
 7924SOL     OW24670   3.811   6.543   3.133
 7924SOL    HW124671   3.737   6.565   3.197
 7924SOL    HW224672   3.777   6.480   3.063
 7925SOL     OW24673   0.239   2.117   6.706
 7925SOL    HW124674   0.243   2.019   6.729
 7925SOL    HW224675   0.302   2.167   6.764
 7926SOL     OW24676   4.704   1.224   4.318
 7926SOL    HW124677   4.628   1.245   4.380
 7926SOL    HW224678   4.720   1.125   4.318
 7927SOL     OW24679   3.867   5.785   5.129
 7927SOL    HW124680   3.960   5.782   5.166
 7927SOL    HW224681   3.836   5.881   5.126
 7928SOL     OW24682   0.924   4.259   3.672
 7928SOL    HW124683   0.838   4.308   3.666
 7928SOL    HW224684   0.974   4.287   3.754
 7929SOL     OW24685   4.055   3.861   4.698
 7929SOL    HW124686   3.969   3.911   4.686
 7929SOL    HW224687   4.128   3.906   4.647
 7930SOL     OW24688   4.703   5.814   3.696
 7930SOL    HW124689   4.666   5.724   3.676
 7930SOL    HW224690   4.632   5.883   3.681
 7931SOL     OW24691   2.218   2.220   6.643
 7931SOL    HW124692   2.297   2.190   6.695
 7931SOL    HW224693   2.144   2.245   6.705
 7932SOL     OW24694   2.418   6.765   0.047
 7932SOL    HW124695   2.495   6.720   0.093
 7932SOL    HW224696   2.433   6.864   0.047
 7933SOL     OW24697   6.922   6.885   0.384
 7933SOL    HW124698   6.868   6.900   0.467
 7933SOL    HW224699   6.871   6.921   0.305
 7934SOL     OW24700   2.546   3.851   6.941
 7934SOL    HW124701   2.574   3.925   6.880
 7934SOL    HW224702   2.528   3.888   0.011
 7935SOL     OW24703   5.534   5.316   0.122
 7935SOL    HW124704   5.583   5.253   0.182
 7935SOL    HW224705   5.438   5.290   0.118
 7936SOL     OW24706   3.324   5.525   2.167
 7936SOL    HW124707   3.358   5.618   2.152
 7936SOL    HW224708   3.244   5.508   2.110
 7937SOL     OW24709   5.225   6.863   3.843
 7937SOL    HW124710   5.228   6.782   3.785
 7937SOL    HW224711   5.155   6.852   3.913
 7938SOL     OW24712   5.803   4.758   4.921
 7938SOL    HW124713   5.766   4.771   4.829
 7938SOL    HW224714   5.816   4.660   4.938
 7939SOL     OW24715   0.927   1.740   6.168
 7939SOL    HW124716   0.997   1.690   6.220
 7939SOL    HW224717   0.970   1.815   6.117
 7940SOL     OW24718   2.273   5.064   2.136
 7940SOL    HW124719   2.222   4.984   2.169
 7940SOL    HW224720   2.332   5.098   2.208
 7941SOL     OW24721   6.407   6.972   1.362
 7941SOL    HW124722   6.310   6.976   1.387
 7941SOL    HW224723   6.417   6.919   1.277
 7942SOL     OW24724   6.715   6.337   2.867
 7942SOL    HW124725   6.656   6.261   2.895
 7942SOL    HW224726   6.715   6.407   2.939
 7943SOL     OW24727   5.539   1.973   0.736
 7943SOL    HW124728   5.495   1.916   0.666
 7943SOL    HW224729   5.534   2.069   0.709
 7944SOL     OW24730   0.190   2.780   0.453
 7944SOL    HW124731   0.106   2.808   0.406
 7944SOL    HW224732   0.257   2.854   0.448
 7945SOL     OW24733   5.608   0.026   2.756
 7945SOL    HW124734   5.514   0.049   2.731
 7945SOL    HW224735   5.635   0.079   2.836
 7946SOL     OW24736   1.778   2.835   5.646
 7946SOL    HW124737   1.692   2.784   5.645
 7946SOL    HW224738   1.850   2.778   5.606
 7947SOL     OW24739   4.268   2.853   0.027
 7947SOL    HW124740   4.170   2.855   0.046
 7947SOL    HW224741   4.284   2.808   6.960
 7948SOL     OW24742   6.706   6.509   1.588
 7948SOL    HW124743   6.770   6.548   1.654
 7948SOL    HW224744   6.701   6.410   1.601
 7949SOL     OW24745   4.713   4.696   3.866
 7949SOL    HW124746   4.638   4.758   3.890
 7949SOL    HW224747   4.677   4.618   3.816
 7950SOL     OW24748   4.907   5.547   3.476
 7950SOL    HW124749   4.952   5.473   3.527
 7950SOL    HW224750   4.943   5.635   3.507
 7951SOL     OW24751   2.928   3.639   0.769
 7951SOL    HW124752   2.873   3.718   0.740
 7951SOL    HW224753   2.877   3.555   0.751
 7952SOL     OW24754   0.267   2.964   6.683
 7952SOL    HW124755   0.335   2.974   6.611
 7952SOL    HW224756   0.255   2.867   6.705
 7953SOL     OW24757   1.875   2.897   3.105
 7953SOL    HW124758   1.811   2.906   3.029
 7953SOL    HW224759   1.879   2.984   3.155
 7954SOL     OW24760   4.828   5.229   5.002
 7954SOL    HW124761   4.816   5.305   4.938
 7954SOL    HW224762   4.764   5.239   5.078
 7955SOL     OW24763   0.485   6.724   6.201
 7955SOL    HW124764   0.387   6.718   6.222
 7955SOL    HW224765   0.537   6.700   6.283
 7956SOL     OW24766   0.790   5.453   3.281
 7956SOL    HW124767   0.821   5.478   3.373
 7956SOL    HW224768   0.853   5.386   3.241
 7957SOL     OW24769   2.050   1.683   0.825
 7957SOL    HW124770   2.080   1.653   0.734
 7957SOL    HW224771   1.986   1.760   0.815
 7958SOL     OW24772   3.560   5.637   4.092
 7958SOL    HW124773   3.468   5.608   4.116
 7958SOL    HW224774   3.556   5.720   4.037
 7959SOL     OW24775   4.204   5.647   0.624
 7959SOL    HW124776   4.266   5.718   0.658
 7959SOL    HW224777   4.201   5.572   0.690
 7960SOL     OW24778   3.618   1.762   1.025
 7960SOL    HW124779   3.680   1.773   1.103
 7960SOL    HW224780   3.640   1.829   0.954
 7961SOL     OW24781   1.979   5.575   6.521
 7961SOL    HW124782   2.062   5.531   6.486
 7961SOL    HW224783   1.971   5.557   6.619
 7962SOL     OW24784   2.071   0.650   6.944
 7962SOL    HW124785   2.156   0.694   6.974
 7962SOL    HW224786   2.022   0.615   0.002
 7963SOL     OW24787   6.542   1.362   4.368
 7963SOL    HW124788   6.475   1.335   4.299
 7963SOL    HW224789   6.511   1.331   4.458
 7964SOL     OW24790   6.168   4.690   3.488
 7964SOL    HW124791   6.216   4.768   3.528
 7964SOL    HW224792   6.217   4.606   3.511
 7965SOL     OW24793   4.013   2.922   0.033
 7965SOL    HW124794   3.980   2.864   6.980
 7965SOL    HW224795   3.945   2.925   0.106
 7966SOL     OW24796   0.917   3.577   5.188
 7966SOL    HW124797   0.921   3.523   5.272
 7966SOL    HW224798   0.995   3.639   5.185
 7967SOL     OW24799   3.080   6.358   4.126
 7967SOL    HW124800   3.108   6.284   4.065
 7967SOL    HW224801   3.005   6.327   4.184
 7968SOL     OW24802   2.028   3.158   2.927
 7968SOL    HW124803   2.057   3.168   2.832
 7968SOL    HW224804   1.930   3.176   2.935
 7969SOL     OW24805   4.536   0.367   2.012
 7969SOL    HW124806   4.459   0.307   2.029
 7969SOL    HW224807   4.550   0.377   1.914
 7970SOL     OW24808   0.225   3.799   2.679
 7970SOL    HW124809   0.211   3.815   2.776
 7970SOL    HW224810   0.141   3.820   2.629
 7971SOL     OW24811   3.072   1.795   1.551
 7971SOL    HW124812   3.132   1.874   1.553
 7971SOL    HW224813   2.982   1.822   1.517
 7972SOL     OW24814   6.923   4.197   1.153
 7972SOL    HW124815   6.928   4.239   1.243
 7972SOL    HW224816   7.010   4.210   1.106
 7973SOL     OW24817   5.230   3.255   2.937
 7973SOL    HW124818   5.324   3.226   2.917
 7973SOL    HW224819   5.179   3.263   2.851
 7974SOL     OW24820   6.134   0.493   5.003
 7974SOL    HW124821   6.176   0.459   4.919
 7974SOL    HW224822   6.166   0.440   5.081
 7975SOL     OW24823   5.391   0.391   3.874
 7975SOL    HW124824   5.368   0.442   3.956
 7975SOL    HW224825   5.485   0.355   3.882
 7976SOL     OW24826   0.874   0.083   5.971
 7976SOL    HW124827   0.813   0.082   5.892
 7976SOL    HW224828   0.827   0.047   6.051
 7977SOL     OW24829   4.479   5.951   2.397
 7977SOL    HW124830   4.417   6.017   2.440
 7977SOL    HW224831   4.496   5.875   2.460
 7978SOL     OW24832   5.777   4.123   6.064
 7978SOL    HW124833   5.861   4.129   6.118
 7978SOL    HW224834   5.800   4.107   5.968
 7979SOL     OW24835   2.553   0.303   5.130
 7979SOL    HW124836   2.481   0.347   5.076
 7979SOL    HW224837   2.631   0.365   5.139
 7980SOL     OW24838   3.814   5.727   0.019
 7980SOL    HW124839   3.879   5.673   0.073
 7980SOL    HW224840   3.864   5.782   6.974
 7981SOL     OW24841   0.934   5.876   1.785
 7981SOL    HW124842   1.005   5.818   1.822
 7981SOL    HW224843   0.844   5.836   1.804
 7982SOL     OW24844   6.918   1.895   0.652
 7982SOL    HW124845   6.963   1.980   0.625
 7982SOL    HW224846   6.861   1.862   0.576
 7983SOL     OW24847   5.296   1.939   3.113
 7983SOL    HW124848   5.389   1.902   3.111
 7983SOL    HW224849   5.288   2.012   3.045
 7984SOL     OW24850   1.164   1.498   1.408
 7984SOL    HW124851   1.115   1.536   1.330
 7984SOL    HW224852   1.250   1.458   1.378
 7985SOL     OW24853   2.050   6.613   3.285
 7985SOL    HW124854   2.132   6.629   3.340
 7985SOL    HW224855   2.072   6.624   3.188
 7986SOL     OW24856   3.372   1.081   6.990
 7986SOL    HW124857   3.306   1.143   0.011
 7986SOL    HW224858   3.443   1.135   6.945
 7987SOL     OW24859   0.255   3.744   6.464
 7987SOL    HW124860   0.326   3.814   6.471
 7987SOL    HW224861   0.203   3.758   6.380
 7988SOL     OW24862   2.360   2.413   4.256
 7988SOL    HW124863   2.373   2.439   4.160
 7988SOL    HW224864   2.374   2.494   4.314
 7989SOL     OW24865   3.262   2.573   5.591
 7989SOL    HW124866   3.357   2.573   5.624
 7989SOL    HW224867   3.254   2.511   5.512
 7990SOL     OW24868   0.346   3.652   3.361
 7990SOL    HW124869   0.265   3.678   3.414
 7990SOL    HW224870   0.399   3.734   3.340
 7991SOL     OW24871   6.433   1.903   5.264
 7991SOL    HW124872   6.376   1.974   5.222
 7991SOL    HW224873   6.503   1.945   5.321
 7992SOL     OW24874   1.544   6.708   0.836
 7992SOL    HW124875   1.527   6.676   0.929
 7992SOL    HW224876   1.631   6.672   0.803
 7993SOL     OW24877   1.850   5.791   6.419
 7993SOL    HW124878   1.878   5.819   6.327
 7993SOL    HW224879   1.906   5.713   6.448
 7994SOL     OW24880   4.604   0.528   3.760
 7994SOL    HW124881   4.559   0.499   3.675
 7994SOL    HW224882   4.638   0.448   3.809
 7995SOL     OW24883   4.198   5.411   3.250
 7995SOL    HW124884   4.143   5.378   3.327
 7995SOL    HW224885   4.166   5.368   3.166
 7996SOL     OW24886   3.102   6.315   4.525
 7996SOL    HW124887   3.087   6.218   4.503
 7996SOL    HW224888   3.026   6.348   4.582
 7997SOL     OW24889   6.926   1.567   1.220
 7997SOL    HW124890   6.862   1.553   1.144
 7997SOL    HW224891   6.911   1.658   1.259
 7998SOL     OW24892   4.413   5.706   0.850
 7998SOL    HW124893   4.409   5.648   0.932
 7998SOL    HW224894   4.412   5.802   0.878
 7999SOL     OW24895   1.082   0.239   6.048
 7999SOL    HW124896   0.989   0.208   6.027
 7999SOL    HW224897   1.131   0.167   6.097
 8000SOL     OW24898   5.611   0.233   6.531
 8000SOL    HW124899   5.593   0.297   6.456
 8000SOL    HW224900   5.525   0.207   6.575
 8001SOL     OW24901   3.370   5.787   1.822
 8001SOL    HW124902   3.363   5.863   1.757
 8001SOL    HW224903   3.370   5.700   1.772
 8002SOL     OW24904   0.626   3.420   6.217
 8002SOL    HW124905   0.634   3.401   6.315
 8002SOL    HW224906   0.710   3.465   6.185
 8003SOL     OW24907   2.343   4.520   2.505
 8003SOL    HW124908   2.406   4.581   2.553
 8003SOL    HW224909   2.301   4.568   2.429
 8004SOL     OW24910   1.706   4.588   2.869
 8004SOL    HW124911   1.647   4.539   2.934
 8004SOL    HW224912   1.801   4.564   2.887
 8005SOL     OW24913   3.082   1.850   2.562
 8005SOL    HW124914   3.176   1.818   2.570
 8005SOL    HW224915   3.055   1.895   2.647
 8006SOL     OW24916   2.433   6.016   0.842
 8006SOL    HW124917   2.351   6.042   0.792
 8006SOL    HW224918   2.419   6.031   0.940
 8007SOL     OW24919   0.766   0.334   3.821
 8007SOL    HW124920   0.685   0.389   3.800
 8007SOL    HW224921   0.752   0.240   3.789
 8008SOL     OW24922   4.737   6.607   6.078
 8008SOL    HW124923   4.725   6.578   6.173
 8008SOL    HW224924   4.814   6.558   6.037
 8009SOL     OW24925   6.399   0.435   3.019
 8009SOL    HW124926   6.429   0.518   3.067
 8009SOL    HW224927   6.438   0.434   2.927
 8010SOL     OW24928   2.008   1.392   6.888
 8010SOL    HW124929   2.034   1.328   6.816
 8010SOL    HW224930   1.913   1.377   6.913
 8011SOL     OW24931   2.122   2.821   1.523
 8011SOL    HW124932   2.220   2.840   1.515
 8011SOL    HW224933   2.107   2.756   1.598
 8012SOL     OW24934   1.744   5.954   1.270
 8012SOL    HW124935   1.744   5.943   1.171
 8012SOL    HW224936   1.688   5.883   1.312
 8013SOL     OW24937   0.698   5.082   4.634
 8013SOL    HW124938   0.731   5.005   4.579
 8013SOL    HW224939   0.602   5.100   4.613
 8014SOL     OW24940   1.195   6.344   5.450
 8014SOL    HW124941   1.103   6.308   5.466
 8014SOL    HW224942   1.248   6.339   5.534
 8015SOL     OW24943   2.899   1.439   0.304
 8015SOL    HW124944   2.931   1.507   0.238
 8015SOL    HW224945   2.957   1.441   0.385
 8016SOL     OW24946   4.224   7.006   6.699
 8016SOL    HW124947   4.174   6.997   6.613
 8016SOL    HW224948   4.320   6.981   6.684
 8017SOL     OW24949   6.694   4.830   5.947
 8017SOL    HW124950   6.709   4.733   5.927
 8017SOL    HW224951   6.595   4.846   5.957
 8018SOL     OW24952   4.638   2.363   6.240
 8018SOL    HW124953   4.730   2.404   6.240
 8018SOL    HW224954   4.591   2.387   6.155
 8019SOL     OW24955   1.714   3.589   0.041
 8019SOL    HW124956   1.782   3.645   0.089
 8019SOL    HW224957   1.751   3.562   6.973
 8020SOL     OW24958   6.222   6.342   0.512
 8020SOL    HW124959   6.302   6.362   0.455
 8020SOL    HW224960   6.157   6.287   0.459
 8021SOL     OW24961   1.391   1.579   2.298
 8021SOL    HW124962   1.304   1.628   2.307
 8021SOL    HW224963   1.377   1.483   2.322
 8022SOL     OW24964   4.275   0.500   3.072
 8022SOL    HW124965   4.302   0.592   3.043
 8022SOL    HW224966   4.251   0.446   2.991
 8023SOL     OW24967   5.909   6.061   3.492
 8023SOL    HW124968   5.866   6.144   3.457
 8023SOL    HW224969   5.927   5.998   3.417
 8024SOL     OW24970   3.134   4.832   0.001
 8024SOL    HW124971   3.217   4.820   6.968
 8024SOL    HW224972   3.121   4.929   0.022
 8025SOL     OW24973   3.625   6.160   6.029
 8025SOL    HW124974   3.722   6.148   6.050
 8025SOL    HW224975   3.581   6.212   6.102
 8026SOL     OW24976   0.533   3.934   6.617
 8026SOL    HW124977   0.632   3.922   6.619
 8026SOL    HW224978   0.509   4.004   6.550
 8027SOL     OW24979   4.470   1.982   5.679
 8027SOL    HW124980   4.507   2.047   5.746
 8027SOL    HW224981   4.542   1.920   5.650
 8028SOL     OW24982   4.012   4.818   6.161
 8028SOL    HW124983   4.110   4.818   6.138
 8028SOL    HW224984   3.966   4.745   6.111
 8029SOL     OW24985   5.633   3.312   6.764
 8029SOL    HW124986   5.701   3.268   6.822
 8029SOL    HW224987   5.567   3.244   6.731
 8030SOL     OW24988   5.344   3.982   5.980
 8030SOL    HW124989   5.356   4.012   6.075
 8030SOL    HW224990   5.398   3.899   5.964
 8031SOL     OW24991   4.972   6.051   2.803
 8031SOL    HW124992   4.980   6.001   2.716
 8031SOL    HW224993   5.063   6.063   2.843
 8032SOL     OW24994   6.104   4.388   5.261
 8032SOL    HW124995   6.116   4.449   5.339
 8032SOL    HW224996   6.138   4.433   5.178
 8033SOL     OW24997   4.970   3.051   0.260
 8033SOL    HW124998   5.029   3.120   0.218
 8033SOL    HW224999   4.919   3.092   0.336
 8034SOL     OW25000   5.962   1.202   5.370
 8034SOL    HW125001   6.051   1.217   5.326
 8034SOL    HW225002   5.933   1.108   5.355
 8035SOL     OW25003   4.919   6.961   5.471
 8035SOL    HW125004   4.885   6.867   5.470
 8035SOL    HW225005   4.848   0.000   5.434
 8036SOL     OW25006   1.234   3.709   1.986
 8036SOL    HW125007   1.330   3.681   1.990
 8036SOL    HW225008   1.181   3.640   1.935
 8037SOL     OW25009   1.422   3.417   1.514
 8037SOL    HW125010   1.371   3.380   1.437
 8037SOL    HW225011   1.466   3.343   1.564
 8038SOL     OW25012   4.828   1.600   2.239
 8038SOL    HW125013   4.784   1.641   2.319
 8038SOL    HW225014   4.758   1.579   2.171
 8039SOL     OW25015   1.383   0.193   3.457
 8039SOL    HW125016   1.367   0.267   3.391
 8039SOL    HW225017   1.474   0.156   3.444
 8040SOL     OW25018   0.973   5.593   0.966
 8040SOL    HW125019   1.053   5.605   0.907
 8040SOL    HW225020   1.003   5.582   1.061
 8041SOL     OW25021   3.162   2.084   2.142
 8041SOL    HW125022   3.258   2.077   2.168
 8041SOL    HW225023   3.119   2.159   2.192
 8042SOL     OW25024   3.331   2.875   2.421
 8042SOL    HW125025   3.402   2.805   2.431
 8042SOL    HW225026   3.282   2.885   2.507
 8043SOL     OW25027   3.770   6.407   0.657
 8043SOL    HW125028   3.861   6.366   0.666
 8043SOL    HW225029   3.721   6.400   0.743
 8044SOL     OW25030   3.133   3.449   1.122
 8044SOL    HW125031   3.193   3.373   1.097
 8044SOL    HW225032   3.039   3.429   1.096
 8045SOL     OW25033   5.675   1.569   2.424
 8045SOL    HW125034   5.669   1.541   2.520
 8045SOL    HW225035   5.669   1.488   2.365
 8046SOL     OW25036   5.919   4.503   6.463
 8046SOL    HW125037   5.848   4.572   6.447
 8046SOL    HW225038   5.939   4.455   6.377
 8047SOL     OW25039   3.373   4.941   5.067
 8047SOL    HW125040   3.441   5.015   5.068
 8047SOL    HW225041   3.350   4.918   4.972
 8048SOL     OW25042   5.446   1.521   5.569
 8048SOL    HW125043   5.522   1.475   5.523
 8048SOL    HW225044   5.456   1.510   5.668
 8049SOL     OW25045   1.047   7.014   1.857
 8049SOL    HW125046   1.051   6.968   1.946
 8049SOL    HW225047   1.026   0.089   1.871
 8050SOL     OW25048   0.791   3.967   1.270
 8050SOL    HW125049   0.724   3.966   1.197
 8050SOL    HW225050   0.788   4.055   1.317
 8051SOL     OW25051   4.811   0.084   3.233
 8051SOL    HW125052   4.834   0.082   3.330
 8051SOL    HW225053   4.885   0.044   3.180
 8052SOL     OW25054   3.187   1.799   2.089
 8052SOL    HW125055   3.287   1.802   2.083
 8052SOL    HW225056   3.153   1.887   2.122
 8053SOL     OW25057   3.634   3.471   2.977
 8053SOL    HW125058   3.609   3.447   3.071
 8053SOL    HW225059   3.588   3.407   2.915
 8054SOL     OW25060   4.994   6.581   3.905
 8054SOL    HW125061   4.926   6.651   3.929
 8054SOL    HW225062   5.062   6.574   3.979
 8055SOL     OW25063   0.810   0.553   6.247
 8055SOL    HW125064   0.838   0.490   6.319
 8055SOL    HW225065   0.732   0.514   6.197
 8056SOL     OW25066   4.638   1.208   3.636
 8056SOL    HW125067   4.588   1.252   3.561
 8056SOL    HW225068   4.653   1.112   3.615
 8057SOL     OW25069   2.422   1.242   2.167
 8057SOL    HW125070   2.464   1.174   2.227
 8057SOL    HW225071   2.423   1.209   2.073
 8058SOL     OW25072   3.404   6.980   3.061
 8058SOL    HW125073   3.449   0.026   3.120
 8058SOL    HW225074   3.325   6.942   3.109
 8059SOL     OW25075   4.251   2.205   5.001
 8059SOL    HW125076   4.164   2.175   5.040
 8059SOL    HW225077   4.261   2.303   5.014
 8060SOL     OW25078   0.500   1.406   4.249
 8060SOL    HW125079   0.513   1.337   4.320
 8060SOL    HW225080   0.587   1.423   4.203
 8061SOL     OW25081   6.448   6.267   2.051
 8061SOL    HW125082   6.455   6.314   1.963
 8061SOL    HW225083   6.534   6.219   2.070
 8062SOL     OW25084   2.363   4.245   3.614
 8062SOL    HW125085   2.403   4.330   3.649
 8062SOL    HW225086   2.320   4.195   3.689
 8063SOL     OW25087   1.847   3.907   0.675
 8063SOL    HW125088   1.946   3.903   0.687
 8063SOL    HW225089   1.823   3.985   0.617
 8064SOL     OW25090   0.137   4.720   0.799
 8064SOL    HW125091   0.084   4.650   0.751
 8064SOL    HW225092   0.081   4.761   0.870
 8065SOL     OW25093   4.317   6.383   3.599
 8065SOL    HW125094   4.236   6.343   3.642
 8065SOL    HW225095   4.290   6.461   3.543
 8066SOL     OW25096   1.073   1.540   6.321
 8066SOL    HW125097   1.065   1.461   6.260
 8066SOL    HW225098   1.118   1.511   6.406
 8067SOL     OW25099   4.493   3.281   1.464
 8067SOL    HW125100   4.576   3.227   1.448
 8067SOL    HW225101   4.427   3.262   1.391
 8068SOL     OW25102   6.634   5.540   5.890
 8068SOL    HW125103   6.616   5.623   5.942
 8068SOL    HW225104   6.703   5.485   5.938
 8069SOL     OW25105   2.207   5.951   1.684
 8069SOL    HW125106   2.169   5.878   1.741
 8069SOL    HW225107   2.209   6.037   1.736
 8070SOL     OW25108   3.009   4.288   0.672
 8070SOL    HW125109   2.964   4.258   0.587
 8070SOL    HW225110   2.952   4.358   0.716
 8071SOL     OW25111   3.659   6.540   5.153
 8071SOL    HW125112   3.604   6.462   5.123
 8071SOL    HW225113   3.657   6.611   5.083
 8072SOL     OW25114   3.333   1.166   0.350
 8072SOL    HW125115   3.277   1.183   0.269
 8072SOL    HW225116   3.376   1.075   0.342
 8073SOL     OW25117   5.137   6.702   6.817
 8073SOL    HW125118   5.187   6.786   6.796
 8073SOL    HW225119   5.083   6.715   6.901
 8074SOL     OW25120   3.397   2.596   6.945
 8074SOL    HW125121   3.304   2.586   6.982
 8074SOL    HW225122   3.395   2.656   6.866
 8075SOL     OW25123   6.619   1.236   1.623
 8075SOL    HW125124   6.592   1.192   1.709
 8075SOL    HW225125   6.680   1.176   1.572
 8076SOL     OW25126   4.743   2.842   5.749
 8076SOL    HW125127   4.708   2.776   5.683
 8076SOL    HW225128   4.842   2.836   5.754
 8077SOL     OW25129   0.858   6.745   1.750
 8077SOL    HW125130   0.940   6.801   1.742
 8077SOL    HW225131   0.883   6.655   1.784
 8078SOL     OW25132   5.775   1.617   0.708
 8078SOL    HW125133   5.715   1.578   0.778
 8078SOL    HW225134   5.720   1.665   0.640
 8079SOL     OW25135   5.574   2.042   3.408
 8079SOL    HW125136   5.568   1.943   3.423
 8079SOL    HW225137   5.593   2.059   3.311
 8080SOL     OW25138   1.572   3.906   0.728
 8080SOL    HW125139   1.667   3.932   0.711
 8080SOL    HW225140   1.528   3.882   0.641
 8081SOL     OW25141   5.991   0.644   5.360
 8081SOL    HW125142   6.051   0.723   5.349
 8081SOL    HW225143   5.945   0.625   5.274
 8082SOL     OW25144   6.021   1.665   2.235
 8082SOL    HW125145   5.955   1.677   2.161
 8082SOL    HW225146   5.995   1.721   2.314
 8083SOL     OW25147   5.240   3.103   2.124
 8083SOL    HW125148   5.167   3.061   2.068
 8083SOL    HW225149   5.225   3.201   2.129
 8084SOL     OW25150   5.912   6.708   1.511
 8084SOL    HW125151   5.825   6.714   1.560
 8084SOL    HW225152   5.937   6.611   1.502
 8085SOL     OW25153   5.746   0.659   2.378
 8085SOL    HW125154   5.775   0.564   2.392
 8085SOL    HW225155   5.683   0.663   2.300
 8086SOL     OW25156   4.113   0.328   4.358
 8086SOL    HW125157   4.060   0.338   4.274
 8086SOL    HW225158   4.075   0.253   4.412
 8087SOL     OW25159   2.184   1.396   1.227
 8087SOL    HW125160   2.105   1.342   1.197
 8087SOL    HW225161   2.258   1.387   1.161
 8088SOL     OW25162   6.135   1.544   1.868
 8088SOL    HW125163   6.231   1.524   1.883
 8088SOL    HW225164   6.118   1.642   1.883
 8089SOL     OW25165   5.409   1.938   0.108
 8089SOL    HW125166   5.344   1.862   0.100
 8089SOL    HW225167   5.481   1.913   0.173
 8090SOL     OW25168   4.683   2.109   6.175
 8090SOL    HW125169   4.671   2.207   6.193
 8090SOL    HW225170   4.686   2.060   6.262
 8091SOL     OW25171   3.115   3.797   6.704
 8091SOL    HW125172   3.065   3.841   6.630
 8091SOL    HW225173   3.069   3.815   6.791
 8092SOL     OW25174   1.070   1.646   4.958
 8092SOL    HW125175   1.106   1.632   4.866
 8092SOL    HW225176   1.081   1.742   4.984
 8093SOL     OW25177   6.187   5.831   1.393
 8093SOL    HW125178   6.264   5.838   1.329
 8093SOL    HW225179   6.221   5.828   1.487
 8094SOL     OW25180   2.114   4.395   5.235
 8094SOL    HW125181   2.104   4.311   5.181
 8094SOL    HW225182   2.206   4.432   5.222
 8095SOL     OW25183   6.372   3.435   3.815
 8095SOL    HW125184   6.283   3.481   3.826
 8095SOL    HW225185   6.357   3.339   3.792
 8096SOL     OW25186   2.827   5.761   3.524
 8096SOL    HW125187   2.846   5.663   3.518
 8096SOL    HW225188   2.899   5.805   3.579
 8097SOL     OW25189   5.288   1.019   4.174
 8097SOL    HW125190   5.308   1.076   4.094
 8097SOL    HW225191   5.296   1.074   4.257
 8098SOL     OW25192   2.349   6.904   4.548
 8098SOL    HW125193   2.258   6.878   4.514
 8098SOL    HW225194   2.419   6.875   4.483
 8099SOL     OW25195   6.260   0.787   4.214
 8099SOL    HW125196   6.268   0.852   4.139
 8099SOL    HW225197   6.170   0.742   4.210
 8100SOL     OW25198   0.482   0.115   0.496
 8100SOL    HW125199   0.517   0.023   0.480
 8100SOL    HW225200   0.384   0.118   0.474
 8101SOL     OW25201   2.124   0.584   4.350
 8101SOL    HW125202   2.203   0.524   4.337
 8101SOL    HW225203   2.153   0.679   4.344
 8102SOL     OW25204   1.523   5.342   6.409
 8102SOL    HW125205   1.600   5.368   6.467
 8102SOL    HW225206   1.437   5.356   6.459
 8103SOL     OW25207   3.886   1.603   1.230
 8103SOL    HW125208   3.822   1.671   1.267
 8103SOL    HW225209   3.835   1.523   1.199
 8104SOL     OW25210   3.180   6.816   6.298
 8104SOL    HW125211   3.267   6.864   6.302
 8104SOL    HW225212   3.180   6.739   6.362
 8105SOL     OW25213   2.209   2.517   3.117
 8105SOL    HW125214   2.194   2.431   3.069
 8105SOL    HW225215   2.307   2.529   3.135
 8106SOL     OW25216   1.772   5.626   3.135
 8106SOL    HW125217   1.727   5.643   3.223
 8106SOL    HW225218   1.791   5.714   3.090
 8107SOL     OW25219   2.030   6.117   5.873
 8107SOL    HW125220   1.952   6.074   5.827
 8107SOL    HW225221   2.073   6.051   5.935
 8108SOL     OW25222   6.359   3.034   4.986
 8108SOL    HW125223   6.347   3.078   5.075
 8108SOL    HW225224   6.451   3.054   4.952
 8109SOL     OW25225   1.895   3.931   4.498
 8109SOL    HW125226   1.894   4.026   4.527
 8109SOL    HW225227   1.801   3.896   4.493
 8110SOL     OW25228   3.987   6.343   0.220
 8110SOL    HW125229   3.994   6.433   0.263
 8110SOL    HW225230   4.052   6.280   0.262
 8111SOL     OW25231   3.217   0.359   5.876
 8111SOL    HW125232   3.168   0.272   5.874
 8111SOL    HW225233   3.157   0.429   5.915
 8112SOL     OW25234   2.526   1.198   5.758
 8112SOL    HW125235   2.460   1.183   5.685
 8112SOL    HW225236   2.505   1.137   5.835
 8113SOL     OW25237   2.768   2.811   0.293
 8113SOL    HW125238   2.809   2.732   0.248
 8113SOL    HW225239   2.747   2.881   0.225
 8114SOL     OW25240   2.326   2.739   2.341
 8114SOL    HW125241   2.249   2.793   2.373
 8114SOL    HW225242   2.378   2.791   2.273
 8115SOL     OW25243   3.363   1.329   1.364
 8115SOL    HW125244   3.285   1.289   1.413
 8115SOL    HW225245   3.376   1.282   1.277
 8116SOL     OW25246   5.023   0.146   5.112
 8116SOL    HW125247   5.104   0.164   5.168
 8116SOL    HW225248   5.030   0.055   5.071
 8117SOL     OW25249   1.718   1.824   3.773
 8117SOL    HW125250   1.660   1.905   3.763
 8117SOL    HW225251   1.725   1.777   3.685
 8118SOL     OW25252   0.409   3.836   5.739
 8118SOL    HW125253   0.462   3.893   5.676
 8118SOL    HW225254   0.334   3.889   5.778
 8119SOL     OW25255   6.934   5.886   4.904
 8119SOL    HW125256   6.955   5.955   4.835
 8119SOL    HW225257   6.998   5.896   4.981
 8120SOL     OW25258   3.755   3.661   6.929
 8120SOL    HW125259   3.669   3.660   6.980
 8120SOL    HW225260   3.798   3.751   6.938
 8121SOL     OW25261   0.204   6.141   2.985
 8121SOL    HW125262   0.287   6.130   3.039
 8121SOL    HW225263   0.214   6.219   2.923
 8122SOL     OW25264   0.140   5.015   2.591
 8122SOL    HW125265   0.234   5.017   2.626
 8122SOL    HW225266   0.142   5.004   2.491
 8123SOL     OW25267   0.805   0.255   6.865
 8123SOL    HW125268   0.839   0.262   6.959
 8123SOL    HW225269   0.845   0.175   6.821
 8124SOL     OW25270   0.988   6.961   1.533
 8124SOL    HW125271   1.035   6.879   1.499
 8124SOL    HW225272   1.037   6.996   1.613
 8125SOL     OW25273   6.138   4.991   3.086
 8125SOL    HW125274   6.107   4.963   2.996
 8125SOL    HW225275   6.147   5.091   3.088
 8126SOL     OW25276   6.198   4.574   1.951
 8126SOL    HW125277   6.271   4.506   1.956
 8126SOL    HW225278   6.119   4.536   1.904
 8127SOL     OW25279   2.442   5.782   0.507
 8127SOL    HW125280   2.390   5.750   0.428
 8127SOL    HW225281   2.498   5.707   0.543
 8128SOL     OW25282   3.459   2.351   6.917
 8128SOL    HW125283   3.457   2.450   6.921
 8128SOL    HW225284   3.486   2.315   7.007
 8129SOL     OW25285   4.673   0.904   6.258
 8129SOL    HW125286   4.759   0.932   6.217
 8129SOL    HW225287   4.669   0.934   6.354
 8130SOL     OW25288   0.950   5.455   5.659
 8130SOL    HW125289   1.050   5.455   5.652
 8130SOL    HW225290   0.915   5.544   5.631
 8131SOL     OW25291   3.008   1.076   0.449
 8131SOL    HW125292   3.086   1.133   0.473
 8131SOL    HW225293   2.929   1.103   0.504
 8132SOL     OW25294   5.429   6.217   5.915
 8132SOL    HW125295   5.451   6.291   5.851
 8132SOL    HW225296   5.447   6.129   5.871
 8133SOL     OW25297   3.275   4.907   2.684
 8133SOL    HW125298   3.355   4.933   2.630
 8133SOL    HW225299   3.192   4.927   2.632
 8134SOL     OW25300   2.111   1.421   4.442
 8134SOL    HW125301   2.083   1.327   4.457
 8134SOL    HW225302   2.056   1.462   4.369
 8135SOL     OW25303   2.600   4.780   2.286
 8135SOL    HW125304   2.695   4.769   2.256
 8135SOL    HW225305   2.545   4.815   2.210
 8136SOL     OW25306   4.613   5.096   2.738
 8136SOL    HW125307   4.554   5.139   2.806
 8136SOL    HW225308   4.579   5.004   2.717
 8137SOL     OW25309   2.281   2.965   3.850
 8137SOL    HW125310   2.360   2.910   3.880
 8137SOL    HW225311   2.276   2.964   3.751
 8138SOL     OW25312   5.862   1.724   2.012
 8138SOL    HW125313   5.856   1.740   1.913
 8138SOL    HW225314   5.811   1.796   2.060
 8139SOL     OW25315   1.101   2.816   3.675
 8139SOL    HW125316   1.108   2.719   3.651
 8139SOL    HW225317   1.121   2.829   3.772
 8140SOL     OW25318   3.821   0.287   0.518
 8140SOL    HW125319   3.742   0.230   0.498
 8140SOL    HW225320   3.832   0.355   0.445
 8141SOL     OW25321   5.020   0.474   5.228
 8141SOL    HW125322   5.110   0.432   5.214
 8141SOL    HW225323   4.969   0.422   5.297
 8142SOL     OW25324   2.049   5.393   0.688
 8142SOL    HW125325   2.069   5.482   0.648
 8142SOL    HW225326   1.991   5.405   0.769
 8143SOL     OW25327   5.486   5.183   1.548
 8143SOL    HW125328   5.399   5.135   1.555
 8143SOL    HW225329   5.534   5.153   1.466
 8144SOL     OW25330   0.576   6.028   5.512
 8144SOL    HW125331   0.652   5.966   5.492
 8144SOL    HW225332   0.490   5.982   5.492
 8145SOL     OW25333   4.496   4.903   0.511
 8145SOL    HW125334   4.405   4.882   0.545
 8145SOL    HW225335   4.549   4.819   0.503
 8146SOL     OW25336   6.425   0.470   5.360
 8146SOL    HW125337   6.427   0.567   5.334
 8146SOL    HW225338   6.355   0.457   5.431
 8147SOL     OW25339   0.329   0.445   0.423
 8147SOL    HW125340   0.421   0.423   0.389
 8147SOL    HW225341   0.270   0.471   0.346
 8148SOL     OW25342   4.067   4.042   6.560
 8148SOL    HW125343   4.118   4.123   6.589
 8148SOL    HW225344   4.098   4.013   6.470
 8149SOL     OW25345   1.940   6.521   4.638
 8149SOL    HW125346   1.849   6.488   4.613
 8149SOL    HW225347   1.957   6.501   4.735
 8150SOL     OW25348   0.147   3.620   0.867
 8150SOL    HW125349   0.055   3.635   0.904
 8150SOL    HW225350   0.155   3.526   0.835
 8151SOL     OW25351   6.376   5.404   3.463
 8151SOL    HW125352   6.362   5.422   3.561
 8151SOL    HW225353   6.434   5.476   3.424
 8152SOL     OW25354   4.742   2.148   2.742
 8152SOL    HW125355   4.769   2.144   2.646
 8152SOL    HW225356   4.755   2.241   2.776
 8153SOL     OW25357   0.627   1.028   3.547
 8153SOL    HW125358   0.623   1.107   3.485
 8153SOL    HW225359   0.535   0.997   3.568
 8154SOL     OW25360   3.367   1.646   3.349
 8154SOL    HW125361   3.374   1.548   3.365
 8154SOL    HW225362   3.442   1.693   3.396
 8155SOL     OW25363   1.029   4.294   2.558
 8155SOL    HW125364   1.087   4.355   2.612
 8155SOL    HW225365   1.032   4.322   2.462
 8156SOL     OW25366   5.481   5.995   1.730
 8156SOL    HW125367   5.425   6.078   1.720
 8156SOL    HW225368   5.576   6.021   1.748
 8157SOL     OW25369   5.769   3.577   6.044
 8157SOL    HW125370   5.718   3.620   6.119
 8157SOL    HW225371   5.708   3.565   5.965
 8158SOL     OW25372   5.781   5.155   6.486
 8158SOL    HW125373   5.834   5.071   6.472
 8158SOL    HW225374   5.748   5.158   6.580
 8159SOL     OW25375   3.854   6.472   5.809
 8159SOL    HW125376   3.813   6.387   5.777
 8159SOL    HW225377   3.887   6.460   5.903
 8160SOL     OW25378   4.771   0.905   3.728
 8160SOL    HW125379   4.672   0.916   3.735
 8160SOL    HW225380   4.794   0.810   3.710
 8161SOL     OW25381   5.743   3.589   6.768
 8161SOL    HW125382   5.660   3.631   6.731
 8161SOL    HW225383   5.731   3.490   6.772
 8162SOL     OW25384   0.380   5.572   6.951
 8162SOL    HW125385   0.353   5.478   6.933
 8162SOL    HW225386   0.299   5.630   6.958
 8163SOL     OW25387   3.733   5.239   5.317
 8163SOL    HW125388   3.742   5.163   5.380
 8163SOL    HW225389   3.820   5.288   5.309
 8164SOL     OW25390   4.612   0.595   0.056
 8164SOL    HW125391   4.627   0.580   0.154
 8164SOL    HW225392   4.690   0.559   0.004
 8165SOL     OW25393   6.566   4.080   6.576
 8165SOL    HW125394   6.523   4.014   6.639
 8165SOL    HW225395   6.562   4.171   6.616
 8166SOL     OW25396   2.305   1.906   3.851
 8166SOL    HW125397   2.344   1.853   3.927
 8166SOL    HW225398   2.356   1.887   3.767
 8167SOL     OW25399   6.673   0.856   3.601
 8167SOL    HW125400   6.655   0.948   3.635
 8167SOL    HW225401   6.762   0.854   3.556
 8168SOL     OW25402   2.573   0.463   1.480
 8168SOL    HW125403   2.503   0.473   1.551
 8168SOL    HW225404   2.625   0.379   1.496
 8169SOL     OW25405   3.874   1.893   0.624
 8169SOL    HW125406   3.971   1.913   0.607
 8169SOL    HW225407   3.867   1.806   0.671
 8170SOL     OW25408   6.590   4.850   1.424
 8170SOL    HW125409   6.569   4.939   1.465
 8170SOL    HW225410   6.530   4.781   1.464
 8171SOL     OW25411   1.759   1.130   6.601
 8171SOL    HW125412   1.681   1.172   6.554
 8171SOL    HW225413   1.783   1.045   6.555
 8172SOL     OW25414   0.488   2.440   1.899
 8172SOL    HW125415   0.415   2.415   1.962
 8172SOL    HW225416   0.450   2.447   1.806
 8173SOL     OW25417   5.775   2.297   2.935
 8173SOL    HW125418   5.749   2.387   2.900
 8173SOL    HW225419   5.700   2.233   2.923
 8174SOL     OW25420   1.085   6.083   2.721
 8174SOL    HW125421   1.095   6.106   2.818
 8174SOL    HW225422   0.996   6.039   2.707
 8175SOL     OW25423   0.991   2.776   4.278
 8175SOL    HW125424   0.981   2.857   4.337
 8175SOL    HW225425   0.940   2.791   4.193
 8176SOL     OW25426   1.831   4.518   1.340
 8176SOL    HW125427   1.883   4.456   1.398
 8176SOL    HW225428   1.794   4.467   1.262
 8177SOL     OW25429   3.555   0.693   2.376
 8177SOL    HW125430   3.630   0.720   2.436
 8177SOL    HW225431   3.586   0.696   2.281
 8178SOL     OW25432   3.140   6.464   1.064
 8178SOL    HW125433   3.079   6.540   1.087
 8178SOL    HW225434   3.177   6.477   0.972
 8179SOL     OW25435   5.574   1.238   4.284
 8179SOL    HW125436   5.661   1.229   4.234
 8179SOL    HW225437   5.507   1.283   4.225
 8180SOL     OW25438   6.498   0.375   6.808
 8180SOL    HW125439   6.490   0.474   6.819
 8180SOL    HW225440   6.417   0.331   6.846
 8181SOL     OW25441   0.759   0.603   1.084
 8181SOL    HW125442   0.771   0.654   0.999
 8181SOL    HW225443   0.713   0.516   1.065
 8182SOL     OW25444   3.676   3.467   4.786
 8182SOL    HW125445   3.759   3.416   4.767
 8182SOL    HW225446   3.698   3.547   4.842
 8183SOL     OW25447   6.773   1.674   4.698
 8183SOL    HW125448   6.828   1.591   4.698
 8183SOL    HW225449   6.713   1.674   4.618
 8184SOL     OW25450   1.019   0.017   0.108
 8184SOL    HW125451   1.061   6.952   0.136
 8184SOL    HW225452   0.941   7.020   0.048
 8185SOL     OW25453   2.242   0.398   0.591
 8185SOL    HW125454   2.200   0.356   0.511
 8185SOL    HW225455   2.264   0.494   0.571
 8186SOL     OW25456   2.386   4.249   5.228
 8186SOL    HW125457   2.344   4.229   5.316
 8186SOL    HW225458   2.387   4.167   5.171
 8187SOL     OW25459   2.498   1.906   5.032
 8187SOL    HW125460   2.589   1.919   4.992
 8187SOL    HW225461   2.456   1.825   4.992
 8188SOL     OW25462   4.162   1.420   3.861
 8188SOL    HW125463   4.175   1.512   3.822
 8188SOL    HW225464   4.243   1.395   3.913
 8189SOL     OW25465   5.454   5.480   2.628
 8189SOL    HW125466   5.411   5.468   2.539
 8189SOL    HW225467   5.533   5.420   2.636
 8190SOL     OW25468   5.116   4.135   3.722
 8190SOL    HW125469   5.062   4.135   3.807
 8190SOL    HW225470   5.120   4.042   3.685
 8191SOL     OW25471   4.713   5.332   2.636
 8191SOL    HW125472   4.697   5.244   2.681
 8191SOL    HW225473   4.632   5.358   2.584
 8192SOL     OW25474   1.266   5.086   2.195
 8192SOL    HW125475   1.299   5.014   2.134
 8192SOL    HW225476   1.298   5.175   2.162
 8193SOL     OW25477   6.532   5.460   4.618
 8193SOL    HW125478   6.467   5.517   4.568
 8193SOL    HW225479   6.497   5.442   4.710
 8194SOL     OW25480   4.169   0.716   0.983
 8194SOL    HW125481   4.101   0.643   0.979
 8194SOL    HW225482   4.213   0.716   1.073
 8195SOL     OW25483   5.994   0.136   4.081
 8195SOL    HW125484   6.009   0.206   4.151
 8195SOL    HW225485   6.073   0.075   4.077
 8196SOL     OW25486   5.322   0.017   6.964
 8196SOL    HW125487   5.295   7.020   6.870
 8196SOL    HW225488   5.411   6.997   6.982
 8197SOL     OW25489   4.114   1.690   1.366
 8197SOL    HW125490   4.031   1.660   1.319
 8197SOL    HW225491   4.113   1.656   1.460
 8198SOL     OW25492   2.815   6.948   2.467
 8198SOL    HW125493   2.857   0.015   2.447
 8198SOL    HW225494   2.883   6.876   2.459
 8199SOL     OW25495   4.839   3.383   6.142
 8199SOL    HW125496   4.888   3.417   6.062
 8199SOL    HW225497   4.766   3.320   6.113
 8200SOL     OW25498   5.856   4.456   2.139
 8200SOL    HW125499   5.880   4.383   2.075
 8200SOL    HW225500   5.861   4.421   2.232
 8201SOL     OW25501   6.927   0.910   4.918
 8201SOL    HW125502   6.881   0.908   4.830
 8201SOL    HW225503   0.003   0.890   4.906
 8202SOL     OW25504   6.751   5.939   3.075
 8202SOL    HW125505   6.749   5.845   3.043
 8202SOL    HW225506   6.822   5.990   3.027
 8203SOL     OW25507   1.595   2.413   7.013
 8203SOL    HW125508   1.542   2.383   0.071
 8203SOL    HW225509   1.693   2.403   0.010
 8204SOL     OW25510   3.764   3.942   0.544
 8204SOL    HW125511   3.735   3.917   0.452
 8204SOL    HW225512   3.864   3.942   0.549
 8205SOL     OW25513   6.612   3.506   0.413
 8205SOL    HW125514   6.674   3.561   0.357
 8205SOL    HW225515   6.522   3.503   0.369
 8206SOL     OW25516   4.938   1.478   0.163
 8206SOL    HW125517   4.971   1.528   0.243
 8206SOL    HW225518   4.915   1.384   0.190
 8207SOL     OW25519   3.441   3.781   4.269
 8207SOL    HW125520   3.365   3.720   4.251
 8207SOL    HW225521   3.420   3.872   4.233
 8208SOL     OW25522   1.820   0.631   0.852
 8208SOL    HW125523   1.911   0.606   0.818
 8208SOL    HW225524   1.753   0.563   0.822
 8209SOL     OW25525   0.144   0.411   4.768
 8209SOL    HW125526   0.068   0.371   4.718
 8209SOL    HW225527   0.175   0.347   4.838
 8210SOL     OW25528   1.816   2.375   0.202
 8210SOL    HW125529   1.764   2.293   0.226
 8210SOL    HW225530   1.913   2.351   0.192
 8211SOL     OW25531   3.637   3.832   1.433
 8211SOL    HW125532   3.736   3.824   1.422
 8211SOL    HW225533   3.611   3.800   1.525
 8212SOL     OW25534   1.246   2.540   3.120
 8212SOL    HW125535   1.251   2.445   3.089
 8212SOL    HW225536   1.270   2.601   3.045
 8213SOL     OW25537   6.836   5.330   1.411
 8213SOL    HW125538   6.759   5.363   1.466
 8213SOL    HW225539   6.802   5.270   1.339
 8214SOL     OW25540   5.997   4.398   3.759
 8214SOL    HW125541   5.968   4.355   3.674
 8214SOL    HW225542   5.940   4.365   3.835
 8215SOL     OW25543   3.293   5.898   5.265
 8215SOL    HW125544   3.258   5.829   5.329
 8215SOL    HW225545   3.253   5.987   5.287
 8216SOL     OW25546   5.536   5.947   4.387
 8216SOL    HW125547   5.457   5.948   4.448
 8216SOL    HW225548   5.569   5.853   4.378
 8217SOL     OW25549   2.313   4.610   0.097
 8217SOL    HW125550   2.361   4.651   0.175
 8217SOL    HW225551   2.262   4.530   0.128
 8218SOL     OW25552   6.954   1.012   6.926
 8218SOL    HW125553   0.003   1.073   6.962
 8218SOL    HW225554   6.952   1.017   6.826
 8219SOL     OW25555   4.854   1.875   0.247
 8219SOL    HW125556   4.851   1.894   0.148
 8219SOL    HW225557   4.766   1.837   0.276
 8220SOL     OW25558   3.646   3.150   3.372
 8220SOL    HW125559   3.618   3.055   3.360
 8220SOL    HW225560   3.742   3.154   3.399
 8221SOL     OW25561   4.794   5.908   4.730
 8221SOL    HW125562   4.803   5.904   4.630
 8221SOL    HW225563   4.883   5.932   4.770
 8222SOL     OW25564   5.182   1.652   1.931
 8222SOL    HW125565   5.270   1.654   1.884
 8222SOL    HW225566   5.191   1.697   2.021
 8223SOL     OW25567   1.966   3.824   5.948
 8223SOL    HW125568   1.945   3.742   6.002
 8223SOL    HW225569   1.993   3.898   6.010
 8224SOL     OW25570   0.203   2.497   2.817
 8224SOL    HW125571   0.122   2.507   2.875
 8224SOL    HW225572   0.230   2.401   2.812
 8225SOL     OW25573   3.421   0.722   6.826
 8225SOL    HW125574   3.325   0.693   6.834
 8225SOL    HW225575   3.443   0.785   6.901
 8226SOL     OW25576   4.025   6.870   2.162
 8226SOL    HW125577   4.103   6.817   2.131
 8226SOL    HW225578   4.057   6.943   2.224
 8227SOL     OW25579   0.121   2.783   3.378
 8227SOL    HW125580   0.181   2.856   3.347
 8227SOL    HW225581   0.139   2.763   3.474
 8228SOL     OW25582   0.299   2.772   5.555
 8228SOL    HW125583   0.284   2.704   5.483
 8228SOL    HW225584   0.222   2.770   5.619
 8229SOL     OW25585   3.741   4.579   0.564
 8229SOL    HW125586   3.826   4.626   0.544
 8229SOL    HW225587   3.669   4.611   0.503
 8230SOL     OW25588   4.182   6.677   5.296
 8230SOL    HW125589   4.257   6.677   5.230
 8230SOL    HW225590   4.098   6.708   5.251
 8231SOL     OW25591   4.426   5.322   0.644
 8231SOL    HW125592   4.449   5.412   0.607
 8231SOL    HW225593   4.454   5.318   0.740
 8232SOL     OW25594   5.246   1.570   0.895
 8232SOL    HW125595   5.231   1.610   0.985
 8232SOL    HW225596   5.270   1.473   0.906
 8233SOL     OW25597   0.868   6.079   6.390
 8233SOL    HW125598   0.883   6.150   6.321
 8233SOL    HW225599   0.816   6.004   6.349
 8234SOL     OW25600   2.985   3.846   6.943
 8234SOL    HW125601   3.039   3.817   0.000
 8234SOL    HW225602   2.903   3.788   6.936
 8235SOL     OW25603   1.660   3.559   0.363
 8235SOL    HW125604   1.563   3.575   0.346
 8235SOL    HW225605   1.709   3.647   0.362
 8236SOL     OW25606   6.880   4.224   6.531
 8236SOL    HW125607   6.952   4.161   6.502
 8236SOL    HW225608   6.812   4.232   6.459
 8237SOL     OW25609   4.644   6.099   4.476
 8237SOL    HW125610   4.742   6.090   4.457
 8237SOL    HW225611   4.593   6.095   4.390
 8238SOL     OW25612   1.023   4.743   0.149
 8238SOL    HW125613   1.006   4.838   0.123
 8238SOL    HW225614   1.118   4.733   0.178
 8239SOL     OW25615   6.479   1.650   5.154
 8239SOL    HW125616   6.473   1.743   5.190
 8239SOL    HW225617   6.484   1.586   5.231
 8240SOL     OW25618   3.513   3.951   2.893
 8240SOL    HW125619   3.448   4.011   2.939
 8240SOL    HW225620   3.557   3.891   2.960
 8241SOL     OW25621   4.069   6.591   0.288
 8241SOL    HW125622   4.028   6.681   0.304
 8241SOL    HW225623   4.145   6.578   0.351
 8242SOL     OW25624   1.209   4.576   5.744
 8242SOL    HW125625   1.226   4.488   5.788
 8242SOL    HW225626   1.202   4.564   5.645
 8243SOL     OW25627   1.028   2.623   0.308
 8243SOL    HW125628   1.100   2.570   0.353
 8243SOL    HW225629   1.055   2.720   0.306
 8244SOL     OW25630   1.265   0.095   3.762
 8244SOL    HW125631   1.236   0.140   3.677
 8244SOL    HW225632   1.353   0.132   3.791
 8245SOL     OW25633   3.956   1.584   2.849
 8245SOL    HW125634   3.921   1.606   2.941
 8245SOL    HW225635   4.049   1.617   2.840
 8246SOL     OW25636   6.983   3.136   5.752
 8246SOL    HW125637   7.017   3.047   5.783
 8246SOL    HW225638   7.021   3.157   5.662
 8247SOL     OW25639   0.679   0.017   2.314
 8247SOL    HW125640   0.640   6.949   2.338
 8247SOL    HW225641   0.657   0.083   2.386
 8248SOL     OW25642   5.992   4.977   3.891
 8248SOL    HW125643   5.979   4.951   3.795
 8248SOL    HW225644   6.023   5.072   3.896
 8249SOL     OW25645   2.138   2.929   5.336
 8249SOL    HW125646   2.183   2.967   5.417
 8249SOL    HW225647   2.205   2.878   5.282
 8250SOL     OW25648   3.294   4.116   2.386
 8250SOL    HW125649   3.275   4.025   2.348
 8250SOL    HW225650   3.392   4.135   2.379
 8251SOL     OW25651   6.096   3.106   4.100
 8251SOL    HW125652   6.071   3.200   4.122
 8251SOL    HW225653   6.078   3.047   4.179
 8252SOL     OW25654   3.344   2.710   6.041
 8252SOL    HW125655   3.277   2.733   6.112
 8252SOL    HW225656   3.330   2.770   5.962
 8253SOL     OW25657   4.275   4.145   5.334
 8253SOL    HW125658   4.194   4.198   5.307
 8253SOL    HW225659   4.252   4.047   5.334
 8254SOL     OW25660   4.318   4.849   4.771
 8254SOL    HW125661   4.294   4.935   4.727
 8254SOL    HW225662   4.265   4.774   4.729
 8255SOL     OW25663   3.234   6.446   4.748
 8255SOL    HW125664   3.177   6.421   4.826
 8255SOL    HW225665   3.211   6.388   4.669
 8256SOL     OW25666   6.161   0.722   2.168
 8256SOL    HW125667   6.153   0.635   2.118
 8256SOL    HW225668   6.105   0.719   2.250
 8257SOL     OW25669   6.871   3.840   3.615
 8257SOL    HW125670   6.796   3.822   3.678
 8257SOL    HW225671   6.947   3.778   3.634
 8258SOL     OW25672   5.111   1.216   0.630
 8258SOL    HW125673   5.211   1.222   0.631
 8258SOL    HW225674   5.084   1.120   0.630
 8259SOL     OW25675   4.446   1.963   3.129
 8259SOL    HW125676   4.543   1.950   3.147
 8259SOL    HW225677   4.434   1.996   3.035
 8260SOL     OW25678   2.858   6.747   2.115
 8260SOL    HW125679   2.858   6.726   2.213
 8260SOL    HW225680   2.764   6.760   2.084
 8261SOL     OW25681   6.370   1.381   2.336
 8261SOL    HW125682   6.289   1.364   2.392
 8261SOL    HW225683   6.346   1.376   2.239
 8262SOL     OW25684   0.519   2.866   0.481
 8262SOL    HW125685   0.482   2.914   0.402
 8262SOL    HW225686   0.593   2.806   0.451
 8263SOL     OW25687   1.056   1.921   0.535
 8263SOL    HW125688   1.106   1.836   0.513
 8263SOL    HW225689   1.022   1.917   0.628
 8264SOL     OW25690   2.457   5.946   2.648
 8264SOL    HW125691   2.436   5.855   2.684
 8264SOL    HW225692   2.536   5.983   2.697
 8265SOL     OW25693   0.646   6.828   1.061
 8265SOL    HW125694   0.642   6.894   1.136
 8265SOL    HW225695   0.674   6.873   0.977
 8266SOL     OW25696   2.383   1.513   3.834
 8266SOL    HW125697   2.385   1.450   3.757
 8266SOL    HW225698   2.377   1.462   3.920
 8267SOL     OW25699   1.506   2.711   0.732
 8267SOL    HW125700   1.540   2.623   0.697
 8267SOL    HW225701   1.423   2.736   0.683
 8268SOL     OW25702   2.259   6.502   5.691
 8268SOL    HW125703   2.247   6.424   5.630
 8268SOL    HW225704   2.342   6.552   5.667
 8269SOL     OW25705   5.028   1.593   1.725
 8269SOL    HW125706   5.057   1.515   1.669
 8269SOL    HW225707   5.082   1.596   1.809
 8270SOL     OW25708   2.845   6.946   5.116
 8270SOL    HW125709   2.897   7.016   5.067
 8270SOL    HW225710   2.855   6.859   5.069
 8271SOL     OW25711   6.946   0.720   2.644
 8271SOL    HW125712   6.949   0.688   2.549
 8271SOL    HW225713   6.927   0.818   2.645
 8272SOL     OW25714   4.528   1.956   1.393
 8272SOL    HW125715   4.455   1.907   1.345
 8272SOL    HW225716   4.576   1.893   1.453
 8273SOL     OW25717   2.524   6.565   0.752
 8273SOL    HW125718   2.604   6.546   0.696
 8273SOL    HW225719   2.495   6.660   0.737
 8274SOL     OW25720   5.363   5.134   3.044
 8274SOL    HW125721   5.435   5.115   2.977
 8274SOL    HW225722   5.275   5.101   3.010
 8275SOL     OW25723   4.953   1.415   5.761
 8275SOL    HW125724   4.908   1.502   5.778
 8275SOL    HW225725   5.016   1.424   5.684
 8276SOL     OW25726   1.289   2.388   3.474
 8276SOL    HW125727   1.223   2.357   3.405
 8276SOL    HW225728   1.377   2.406   3.430
 8277SOL     OW25729   6.550   0.282   0.778
 8277SOL    HW125730   6.621   0.343   0.743
 8277SOL    HW225731   6.531   0.211   0.711
 8278SOL     OW25732   2.724   1.832   5.249
 8278SOL    HW125733   2.668   1.819   5.168
 8278SOL    HW225734   2.793   1.761   5.254
 8279SOL     OW25735   1.571   0.600   3.885
 8279SOL    HW125736   1.496   0.662   3.863
 8279SOL    HW225737   1.580   0.593   3.984
 8280SOL     OW25738   2.380   2.807   0.533
 8280SOL    HW125739   2.455   2.809   0.600
 8280SOL    HW225740   2.337   2.897   0.528
 8281SOL     OW25741   2.437   4.939   1.532
 8281SOL    HW125742   2.496   5.004   1.579
 8281SOL    HW225743   2.454   4.847   1.567
 8282SOL     OW25744   5.139   3.563   0.069
 8282SOL    HW125745   5.054   3.521   0.038
 8282SOL    HW225746   5.215   3.499   0.058
 8283SOL     OW25747   2.145   5.217   6.902
 8283SOL    HW125748   2.233   5.250   6.937
 8283SOL    HW225749   2.147   5.214   6.803
 8284SOL     OW25750   0.841   3.271   0.777
 8284SOL    HW125751   0.804   3.318   0.696
 8284SOL    HW225752   0.894   3.192   0.748
 8285SOL     OW25753   3.104   3.021   4.937
 8285SOL    HW125754   3.070   2.957   4.869
 8285SOL    HW225755   3.163   3.089   4.893
 8286SOL     OW25756   5.491   3.095   6.666
 8286SOL    HW125757   5.479   3.037   6.586
 8286SOL    HW225758   5.409   3.093   6.722
 8287SOL     OW25759   2.072   5.511   4.213
 8287SOL    HW125760   1.975   5.522   4.233
 8287SOL    HW225761   2.093   5.414   4.202
 8288SOL     OW25762   2.941   1.438   1.430
 8288SOL    HW125763   3.019   1.497   1.409
 8288SOL    HW225764   2.857   1.484   1.404
 8289SOL     OW25765   0.725   5.489   1.332
 8289SOL    HW125766   0.777   5.572   1.351
 8289SOL    HW225767   0.699   5.488   1.236
 8290SOL     OW25768   5.597   1.097   1.136
 8290SOL    HW125769   5.525   1.103   1.068
 8290SOL    HW225770   5.674   1.155   1.108
 8291SOL     OW25771   5.513   6.397   5.692
 8291SOL    HW125772   5.579   6.341   5.642
 8291SOL    HW225773   5.421   6.377   5.660
 8292SOL     OW25774   2.496   6.307   6.913
 8292SOL    HW125775   2.500   6.245   6.992
 8292SOL    HW225776   2.463   6.396   6.944
 8293SOL     OW25777   3.904   6.456   6.999
 8293SOL    HW125778   3.827   6.409   6.955
 8293SOL    HW225779   3.906   6.433   0.074
 8294SOL     OW25780   5.828   4.438   4.957
 8294SOL    HW125781   5.922   4.408   4.945
 8294SOL    HW225782   5.766   4.366   4.925
 8295SOL     OW25783   5.145   5.793   1.383
 8295SOL    HW125784   5.066   5.744   1.422
 8295SOL    HW225785   5.214   5.727   1.354
 8296SOL     OW25786   2.326   6.023   6.192
 8296SOL    HW125787   2.249   6.085   6.202
 8296SOL    HW225788   2.387   6.058   6.121
 8297SOL     OW25789   6.294   2.798   2.350
 8297SOL    HW125790   6.389   2.775   2.370
 8297SOL    HW225791   6.288   2.833   2.256
 8298SOL     OW25792   5.739   2.253   1.068
 8298SOL    HW125793   5.761   2.166   1.024
 8298SOL    HW225794   5.820   2.313   1.066
 8299SOL     OW25795   6.491   2.697   1.973
 8299SOL    HW125796   6.561   2.707   2.043
 8299SOL    HW225797   6.533   2.706   1.883
 8300SOL     OW25798   0.511   6.082   5.047
 8300SOL    HW125799   0.568   6.164   5.054
 8300SOL    HW225800   0.433   6.100   4.987
 8301SOL     OW25801   4.112   1.890   2.049
 8301SOL    HW125802   4.044   1.829   2.089
 8301SOL    HW225803   4.075   1.983   2.041
 8302SOL     OW25804   6.120   5.951   6.591
 8302SOL    HW125805   6.060   5.990   6.661
 8302SOL    HW225806   6.160   6.024   6.536
 8303SOL     OW25807   6.448   0.647   4.012
 8303SOL    HW125808   6.410   0.621   3.923
 8303SOL    HW225809   6.374   0.650   4.080
 8304SOL     OW25810   0.395   3.602   0.992
 8304SOL    HW125811   0.298   3.602   0.967
 8304SOL    HW225812   0.451   3.605   0.909
 8305SOL     OW25813   4.137   5.038   4.125
 8305SOL    HW125814   4.082   4.962   4.091
 8305SOL    HW225815   4.097   5.124   4.094
 8306SOL     OW25816   7.018   2.759   5.439
 8306SOL    HW125817   0.005   2.663   5.415
 8306SOL    HW225818   6.955   2.768   5.516
 8307SOL     OW25819   3.965   5.440   1.426
 8307SOL    HW125820   4.000   5.350   1.400
 8307SOL    HW225821   3.870   5.430   1.457
 8308SOL     OW25822   4.136   5.464   0.803
 8308SOL    HW125823   4.113   5.371   0.775
 8308SOL    HW225824   4.208   5.461   0.874
 8309SOL     OW25825   6.019   5.698   3.827
 8309SOL    HW125826   6.106   5.696   3.877
 8309SOL    HW225827   6.014   5.783   3.774
 8310SOL     OW25828   0.774   4.348   0.788
 8310SOL    HW125829   0.785   4.259   0.744
 8310SOL    HW225830   0.845   4.410   0.755
 8311SOL     OW25831   0.603   0.982   4.691
 8311SOL    HW125832   0.666   1.057   4.676
 8311SOL    HW225833   0.575   0.944   4.603
 8312SOL     OW25834   4.453   6.831   0.708
 8312SOL    HW125835   4.455   6.867   0.615
 8312SOL    HW225836   4.368   6.858   0.753
 8313SOL     OW25837   5.149   1.075   2.331
 8313SOL    HW125838   5.201   1.117   2.257
 8313SOL    HW225839   5.135   0.978   2.311
 8314SOL     OW25840   4.553   0.087   1.058
 8314SOL    HW125841   4.612   0.019   1.102
 8314SOL    HW225842   4.535   0.162   1.122
 8315SOL     OW25843   3.759   3.407   0.997
 8315SOL    HW125844   3.834   3.352   1.035
 8315SOL    HW225845   3.734   3.478   1.062
 8316SOL     OW25846   0.529   2.161   1.818
 8316SOL    HW125847   0.491   2.251   1.844
 8316SOL    HW225848   0.628   2.163   1.826
 8317SOL     OW25849   2.273   2.282   2.945
 8317SOL    HW125850   2.283   2.362   2.887
 8317SOL    HW225851   2.289   2.199   2.890
 8318SOL     OW25852   4.408   1.337   4.981
 8318SOL    HW125853   4.438   1.262   4.922
 8318SOL    HW225854   4.478   1.354   5.051
 8319SOL     OW25855   2.661   1.130   6.605
 8319SOL    HW125856   2.628   1.224   6.607
 8319SOL    HW225857   2.690   1.106   6.513
 8320SOL     OW25858   3.250   3.556   1.871
 8320SOL    HW125859   3.325   3.499   1.839
 8320SOL    HW225860   3.287   3.639   1.913
 8321SOL     OW25861   6.944   0.789   0.322
 8321SOL    HW125862   0.022   0.786   0.320
 8321SOL    HW225863   6.913   0.884   0.322
 8322SOL     OW25864   0.018   0.489   0.350
 8322SOL    HW125865   0.014   0.585   0.378
 8322SOL    HW225866   0.054   0.434   0.425
 8323SOL     OW25867   5.490   5.763   2.619
 8323SOL    HW125868   5.573   5.712   2.642
 8323SOL    HW225869   5.410   5.710   2.647
 8324SOL     OW25870   5.452   0.806   1.671
 8324SOL    HW125871   5.402   0.834   1.589
 8324SOL    HW225872   5.536   0.758   1.644
 8325SOL     OW25873   3.024   3.388   5.252
 8325SOL    HW125874   3.102   3.429   5.203
 8325SOL    HW225875   2.950   3.455   5.257
 8326SOL     OW25876   4.827   3.319   5.519
 8326SOL    HW125877   4.809   3.222   5.537
 8326SOL    HW225878   4.773   3.349   5.440
 8327SOL     OW25879   6.179   2.358   6.033
 8327SOL    HW125880   6.127   2.277   6.060
 8327SOL    HW225881   6.211   2.406   6.115
 8328SOL     OW25882   2.625   4.398   5.579
 8328SOL    HW125883   2.663   4.446   5.500
 8328SOL    HW225884   2.635   4.299   5.566
 8329SOL     OW25885   0.021   3.507   6.169
 8329SOL    HW125886   0.085   3.583   6.175
 8329SOL    HW225887   7.021   3.474   6.261
 8330SOL     OW25888   3.276   6.503   0.537
 8330SOL    HW125889   3.199   6.566   0.546
 8330SOL    HW225890   3.260   6.442   0.460
 8331SOL     OW25891   2.520   1.638   1.290
 8331SOL    HW125892   2.620   1.646   1.280
 8331SOL    HW225893   2.476   1.653   1.202
 8332SOL     OW25894   5.402   4.893   2.767
 8332SOL    HW125895   5.386   4.842   2.682
 8332SOL    HW225896   5.402   4.829   2.844
 8333SOL     OW25897   0.453   6.313   6.601
 8333SOL    HW125898   0.435   6.312   6.503
 8333SOL    HW225899   0.385   6.257   6.648
 8334SOL     OW25900   4.205   1.167   3.518
 8334SOL    HW125901   4.182   1.264   3.505
 8334SOL    HW225902   4.179   1.138   3.610
 8335SOL     OW25903   6.502   5.420   6.259
 8335SOL    HW125904   6.529   5.404   6.354
 8335SOL    HW225905   6.454   5.508   6.252
 8336SOL     OW25906   6.324   0.086   2.896
 8336SOL    HW125907   6.320   0.001   2.842
 8336SOL    HW225908   6.249   0.087   2.961
 8337SOL     OW25909   0.750   5.867   3.378
 8337SOL    HW125910   0.763   5.957   3.337
 8337SOL    HW225911   0.689   5.813   3.321
 8338SOL     OW25912   1.972   5.080   1.467
 8338SOL    HW125913   2.069   5.059   1.459
 8338SOL    HW225914   1.935   5.099   1.376
 8339SOL     OW25915   5.615   0.599   2.126
 8339SOL    HW125916   5.667   0.516   2.145
 8339SOL    HW225917   5.518   0.578   2.123
 8340SOL     OW25918   5.222   3.584   1.579
 8340SOL    HW125919   5.125   3.607   1.578
 8340SOL    HW225920   5.235   3.494   1.619
 8341SOL     OW25921   2.279   6.380   6.253
 8341SOL    HW125922   2.245   6.461   6.205
 8341SOL    HW225923   2.209   6.309   6.251
 8342SOL     OW25924   3.899   0.273   1.780
 8342SOL    HW125925   3.800   0.287   1.774
 8342SOL    HW225926   3.932   0.229   1.696
 8343SOL     OW25927   0.997   4.997   5.938
 8343SOL    HW125928   1.058   4.973   5.861
 8343SOL    HW225929   0.935   5.070   5.909
 8344SOL     OW25930   4.212   0.370   5.149
 8344SOL    HW125931   4.189   0.467   5.149
 8344SOL    HW225932   4.138   0.318   5.193
 8345SOL     OW25933   5.195   1.623   3.954
 8345SOL    HW125934   5.165   1.690   3.886
 8345SOL    HW225935   5.278   1.655   3.999
 8346SOL     OW25936   2.139   4.513   0.718
 8346SOL    HW125937   2.224   4.471   0.751
 8346SOL    HW225938   2.101   4.456   0.644
 8347SOL     OW25939   3.981   5.420   4.707
 8347SOL    HW125940   3.898   5.383   4.749
 8347SOL    HW225941   3.958   5.469   4.623
 8348SOL     OW25942   1.397   6.843   2.180
 8348SOL    HW125943   1.313   6.860   2.129
 8348SOL    HW225944   1.420   6.746   2.176
 8349SOL     OW25945   6.256   6.294   1.672
 8349SOL    HW125946   6.201   6.374   1.651
 8349SOL    HW225947   6.197   6.216   1.690
 8350SOL     OW25948   4.754   0.917   4.911
 8350SOL    HW125949   4.661   0.889   4.888
 8350SOL    HW225950   4.788   0.980   4.841
 8351SOL     OW25951   4.784   5.095   4.064
 8351SOL    HW125952   4.846   5.110   4.141
 8351SOL    HW225953   4.803   5.005   4.023
 8352SOL     OW25954   6.974   6.054   2.931
 8352SOL    HW125955   6.935   6.134   2.885
 8352SOL    HW225956   0.042   6.077   2.969
 8353SOL     OW25957   6.718   3.825   1.527
 8353SOL    HW125958   6.689   3.867   1.613
 8353SOL    HW225959   6.803   3.774   1.541
 8354SOL     OW25960   3.879   0.131   6.829
 8354SOL    HW125961   3.881   0.071   6.749
 8354SOL    HW225962   3.810   0.098   6.893
 8355SOL     OW25963   2.942   0.145   0.180
 8355SOL    HW125964   3.003   0.172   0.254
 8355SOL    HW225965   2.971   0.057   0.142
 8356SOL     OW25966   2.057   6.242   0.939
 8356SOL    HW125967   2.012   6.166   0.985
 8356SOL    HW225968   2.129   6.279   0.997
 8357SOL     OW25969   3.863   0.445   5.827
 8357SOL    HW125970   3.935   0.432   5.894
 8357SOL    HW225971   3.840   0.358   5.784
 8358SOL     OW25972   1.150   3.400   5.741
 8358SOL    HW125973   1.210   3.329   5.779
 8358SOL    HW225974   1.190   3.436   5.656
 8359SOL     OW25975   2.847   6.470   4.617
 8359SOL    HW125976   2.759   6.474   4.569
 8359SOL    HW225977   2.832   6.442   4.712
 8360SOL     OW25978   3.599   5.768   0.935
 8360SOL    HW125979   3.660   5.748   1.012
 8360SOL    HW225980   3.628   5.852   0.889
 8361SOL     OW25981   2.162   0.100   2.713
 8361SOL    HW125982   2.244   0.058   2.674
 8361SOL    HW225983   2.187   0.180   2.767
 8362SOL     OW25984   2.903   1.578   0.772
 8362SOL    HW125985   2.852   1.663   0.758
 8362SOL    HW225986   2.863   1.527   0.848
 8363SOL     OW25987   0.765   2.344   0.028
 8363SOL    HW125988   0.839   2.405   0.000
 8363SOL    HW225989   0.803   2.255   0.054
 8364SOL     OW25990   6.321   2.793   2.637
 8364SOL    HW125991   6.293   2.880   2.596
 8364SOL    HW225992   6.295   2.718   2.576
 8365SOL     OW25993   1.802   4.471   1.673
 8365SOL    HW125994   1.887   4.488   1.722
 8365SOL    HW225995   1.787   4.372   1.666
 8366SOL     OW25996   2.542   5.851   2.140
 8366SOL    HW125997   2.612   5.793   2.100
 8366SOL    HW225998   2.471   5.794   2.181
 8367SOL     OW25999   4.279   6.028   3.894
 8367SOL    HW126000   4.209   5.999   3.959
 8367SOL    HW226001   4.296   6.126   3.905
 8368SOL     OW26002   2.113   6.626   5.892
 8368SOL    HW126003   2.173   6.598   5.817
 8368SOL    HW226004   2.069   6.713   5.868
 8369SOL     OW26005   1.982   6.691   6.873
 8369SOL    HW126006   1.994   6.790   6.879
 8369SOL    HW226007   2.003   6.661   6.780
 8370SOL     OW26008   2.393   2.127   5.677
 8370SOL    HW126009   2.445   2.155   5.596
 8370SOL    HW226010   2.455   2.080   5.741
 8371SOL     OW26011   2.031   4.307   1.404
 8371SOL    HW126012   2.101   4.251   1.450
 8371SOL    HW226013   1.950   4.251   1.387
 8372SOL     OW26014   7.006   5.859   2.110
 8372SOL    HW126015   0.025   5.943   2.148
 8372SOL    HW226016   6.941   5.882   2.039
 8373SOL     OW26017   1.290   0.453   3.937
 8373SOL    HW126018   1.320   0.518   3.867
 8373SOL    HW226019   1.206   0.408   3.908
 8374SOL     OW26020   6.423   0.751   6.179
 8374SOL    HW126021   6.398   0.846   6.159
 8374SOL    HW226022   6.521   0.745   6.196
 8375SOL     OW26023   3.658   0.196   6.417
 8375SOL    HW126024   3.614   0.227   6.332
 8375SOL    HW226025   3.590   0.151   6.475
 8376SOL     OW26026   1.848   0.661   4.370
 8376SOL    HW126027   1.837   0.739   4.431
 8376SOL    HW226028   1.945   0.647   4.350
 8377SOL     OW26029   5.802   5.709   1.265
 8377SOL    HW126030   5.834   5.795   1.225
 8377SOL    HW226031   5.837   5.700   1.358
 8378SOL     OW26032   4.521   4.894   2.995
 8378SOL    HW126033   4.614   4.861   3.010
 8378SOL    HW226034   4.483   4.928   3.081
 8379SOL     OW26035   6.195   2.201   1.135
 8379SOL    HW126036   6.254   2.232   1.061
 8379SOL    HW226037   6.225   2.243   1.221
 8380SOL     OW26038   6.605   1.793   2.625
 8380SOL    HW126039   6.510   1.767   2.606
 8380SOL    HW226040   6.623   1.883   2.585
 8381SOL     OW26041   0.373   4.028   5.318
 8381SOL    HW126042   0.368   3.929   5.303
 8381SOL    HW226043   0.306   4.054   5.387
 8382SOL     OW26044   1.751   0.618   1.928
 8382SOL    HW126045   1.734   0.539   1.869
 8382SOL    HW226046   1.849   0.632   1.938
 8383SOL     OW26047   2.781   0.428   6.076
 8383SOL    HW126048   2.761   0.400   5.982
 8383SOL    HW226049   2.717   0.384   6.138
 8384SOL     OW26050   0.176   0.150   0.383
 8384SOL    HW126051   0.171   0.068   0.326
 8384SOL    HW226052   0.164   0.231   0.327
 8385SOL     OW26053   5.937   2.478   1.346
 8385SOL    HW126054   5.876   2.526   1.283
 8385SOL    HW226055   5.927   2.379   1.333
 8386SOL     OW26056   0.649   4.233   2.139
 8386SOL    HW126057   0.683   4.293   2.067
 8386SOL    HW226058   0.720   4.168   2.166
 8387SOL     OW26059   0.956   1.268   2.049
 8387SOL    HW126060   0.950   1.189   1.989
 8387SOL    HW226061   0.939   1.352   1.997
 8388SOL     OW26062   1.738   6.218   0.129
 8388SOL    HW126063   1.820   6.171   0.096
 8388SOL    HW226064   1.745   6.233   0.228
 8389SOL     OW26065   6.350   3.776   3.194
 8389SOL    HW126066   6.252   3.772   3.212
 8389SOL    HW226067   6.382   3.871   3.202
 8390SOL     OW26068   4.016   1.145   6.177
 8390SOL    HW126069   4.079   1.069   6.193
 8390SOL    HW226070   4.024   1.175   6.082
 8391SOL     OW26071   6.234   5.315   0.068
 8391SOL    HW126072   6.176   5.250   0.116
 8391SOL    HW226073   6.246   5.286   6.994
 8392SOL     OW26074   0.080   4.026   3.882
 8392SOL    HW126075   0.075   4.067   3.972
 8392SOL    HW226076   0.074   4.098   3.812
 8393SOL     OW26077   6.354   0.856   2.276
 8393SOL    HW126078   6.293   0.794   2.226
 8393SOL    HW226079   6.299   0.927   2.321
 8394SOL     OW26080   6.104   3.073   1.576
 8394SOL    HW126081   6.160   3.104   1.652
 8394SOL    HW226082   6.010   3.061   1.606
 8395SOL     OW26083   2.870   6.973   5.692
 8395SOL    HW126084   2.902   6.886   5.730
 8395SOL    HW226085   2.945   0.017   5.689
 8396SOL     OW26086   4.866   4.708   3.526
 8396SOL    HW126087   4.773   4.723   3.492
 8396SOL    HW226088   4.896   4.788   3.577
 8397SOL     OW26089   1.360   1.236   3.200
 8397SOL    HW126090   1.452   1.268   3.178
 8397SOL    HW226091   1.334   1.163   3.136
 8398SOL     OW26092   4.450   2.709   6.008
 8398SOL    HW126093   4.442   2.700   6.107
 8398SOL    HW226094   4.453   2.806   5.983
 8399SOL     OW26095   6.214   6.515   6.595
 8399SOL    HW126096   6.299   6.549   6.636
 8399SOL    HW226097   6.140   6.524   6.660
 8400SOL     OW26098   2.311   2.217   3.928
 8400SOL    HW126099   2.403   2.253   3.943
 8400SOL    HW226100   2.317   2.124   3.890
 8401SOL     OW26101   1.774   1.651   5.393
 8401SOL    HW126102   1.796   1.639   5.297
 8401SOL    HW226103   1.810   1.574   5.446
 8402SOL     OW26104   5.573   1.615   6.205
 8402SOL    HW126105   5.565   1.534   6.263
 8402SOL    HW226106   5.504   1.682   6.232
 8403SOL     OW26107   0.601   3.018   4.034
 8403SOL    HW126108   0.593   3.029   4.133
 8403SOL    HW226109   0.546   2.939   4.006
 8404SOL     OW26110   3.632   0.072   5.824
 8404SOL    HW126111   3.585   0.101   5.907
 8404SOL    HW226112   3.716   0.023   5.848
 8405SOL     OW26113   2.881   1.431   5.490
 8405SOL    HW126114   2.936   1.349   5.508
 8405SOL    HW226115   2.791   1.421   5.531
 8406SOL     OW26116   4.211   0.352   0.494
 8406SOL    HW126117   4.172   0.280   0.551
 8406SOL    HW226118   4.311   0.347   0.497
 8407SOL     OW26119   4.056   6.268   3.701
 8407SOL    HW126120   3.992   6.344   3.689
 8407SOL    HW226121   4.008   6.182   3.687
 8408SOL     OW26122   5.261   4.604   1.017
 8408SOL    HW126123   5.271   4.621   0.919
 8408SOL    HW226124   5.349   4.579   1.056
 8409SOL     OW26125   4.804   2.133   2.476
 8409SOL    HW126126   4.837   2.196   2.406
 8409SOL    HW226127   4.706   2.121   2.467
 8410SOL     OW26128   5.892   1.396   1.834
 8410SOL    HW126129   5.862   1.481   1.792
 8410SOL    HW226130   5.972   1.413   1.892
 8411SOL     OW26131   0.507   5.903   0.956
 8411SOL    HW126132   0.552   5.828   0.908
 8411SOL    HW226133   0.432   5.938   0.901
 8412SOL     OW26134   3.334   2.468   1.016
 8412SOL    HW126135   3.422   2.483   1.061
 8412SOL    HW226136   3.292   2.384   1.051
 8413SOL     OW26137   4.695   5.507   6.285
 8413SOL    HW126138   4.792   5.499   6.259
 8413SOL    HW226139   4.638   5.499   6.203
 8414SOL     OW26140   2.462   0.721   3.420
 8414SOL    HW126141   2.442   0.792   3.353
 8414SOL    HW226142   2.528   0.756   3.487
 8415SOL     OW26143   1.340   6.350   4.256
 8415SOL    HW126144   1.302   6.397   4.177
 8415SOL    HW226145   1.335   6.409   4.337
 8416SOL     OW26146   6.348   1.649   4.509
 8416SOL    HW126147   6.444   1.622   4.497
 8416SOL    HW226148   6.318   1.625   4.601
 8417SOL     OW26149   0.844   3.040   5.590
 8417SOL    HW126150   0.910   3.011   5.520
 8417SOL    HW226151   0.848   2.978   5.668
 8418SOL     OW26152   0.183   5.755   1.854
 8418SOL    HW126153   0.114   5.714   1.915
 8418SOL    HW226154   0.265   5.698   1.854
 8419SOL     OW26155   5.520   0.685   2.575
 8419SOL    HW126156   5.592   0.682   2.505
 8419SOL    HW226157   5.441   0.735   2.539
 8420SOL     OW26158   3.482   6.673   1.661
 8420SOL    HW126159   3.465   6.691   1.564
 8420SOL    HW226160   3.536   6.747   1.700
 8421SOL     OW26161   3.797   4.495   0.124
 8421SOL    HW126162   3.862   4.463   0.193
 8421SOL    HW226163   3.742   4.418   0.092
 8422SOL     OW26164   4.408   1.202   2.398
 8422SOL    HW126165   4.313   1.179   2.375
 8422SOL    HW226166   4.448   1.125   2.448
 8423SOL     OW26167   4.200   4.210   5.880
 8423SOL    HW126168   4.236   4.163   5.961
 8423SOL    HW226169   4.234   4.304   5.880
 8424SOL     OW26170   1.934   2.434   2.755
 8424SOL    HW126171   1.928   2.532   2.738
 8424SOL    HW226172   1.904   2.414   2.848
 8425SOL     OW26173   4.034   3.770   4.986
 8425SOL    HW126174   4.053   3.785   4.889
 8425SOL    HW226175   4.104   3.816   5.041
 8426SOL     OW26176   3.509   3.293   2.821
 8426SOL    HW126177   3.515   3.221   2.891
 8426SOL    HW226178   3.526   3.253   2.731
 8427SOL     OW26179   2.950   3.747   3.613
 8427SOL    HW126180   2.999   3.719   3.530
 8427SOL    HW226181   2.900   3.668   3.650
 8428SOL     OW26182   0.373   6.288   1.845
 8428SOL    HW126183   0.393   6.384   1.825
 8428SOL    HW226184   0.348   6.241   1.761
 8429SOL     OW26185   1.692   5.299   5.525
 8429SOL    HW126186   1.646   5.291   5.437
 8429SOL    HW226187   1.790   5.312   5.511
 8430SOL     OW26188   3.828   4.911   3.808
 8430SOL    HW126189   3.928   4.912   3.802
 8430SOL    HW226190   3.800   4.925   3.903
 8431SOL     OW26191   4.010   3.709   0.174
 8431SOL    HW126192   4.076   3.701   0.100
 8431SOL    HW226193   3.982   3.618   0.204
 8432SOL     OW26194   6.320   5.072   5.516
 8432SOL    HW126195   6.341   5.060   5.613
 8432SOL    HW226196   6.238   5.129   5.506
 8433SOL     OW26197   4.228   2.831   0.956
 8433SOL    HW126198   4.302   2.898   0.963
 8433SOL    HW226199   4.142   2.878   0.936
 8434SOL     OW26200   2.427   6.924   4.268
 8434SOL    HW126201   2.450   6.925   4.171
 8434SOL    HW226202   2.379   7.008   4.291
 8435SOL     OW26203   5.691   6.818   2.559
 8435SOL    HW126204   5.637   6.845   2.639
 8435SOL    HW226205   5.699   6.719   2.557
 8436SOL     OW26206   3.448   6.503   3.790
 8436SOL    HW126207   3.437   6.602   3.775
 8436SOL    HW226208   3.371   6.455   3.749
 8437SOL     OW26209   2.472   2.592   2.531
 8437SOL    HW126210   2.533   2.663   2.567
 8437SOL    HW226211   2.408   2.633   2.466
 8438SOL     OW26212   2.605   4.786   3.016
 8438SOL    HW126213   2.624   4.727   3.094
 8438SOL    HW226214   2.603   4.881   3.045
 8439SOL     OW26215   6.077   4.764   2.422
 8439SOL    HW126216   6.117   4.756   2.330
 8439SOL    HW226217   6.078   4.674   2.466
 8440SOL     OW26218   2.894   2.286   3.334
 8440SOL    HW126219   2.869   2.222   3.261
 8440SOL    HW226220   2.994   2.296   3.336
 8441SOL     OW26221   5.467   6.167   6.198
 8441SOL    HW126222   5.561   6.193   6.217
 8441SOL    HW226223   5.452   6.164   6.099
 8442SOL     OW26224   3.606   1.720   5.012
 8442SOL    HW126225   3.664   1.639   5.012
 8442SOL    HW226226   3.510   1.693   5.013
 8443SOL     OW26227   2.310   5.069   3.667
 8443SOL    HW126228   2.356   5.109   3.746
 8443SOL    HW226229   2.212   5.065   3.684
 8444SOL     OW26230   3.359   6.778   3.716
 8444SOL    HW126231   3.263   6.807   3.710
 8444SOL    HW226232   3.410   6.817   3.640
 8445SOL     OW26233   3.002   0.037   0.986
 8445SOL    HW126234   3.037   6.995   0.917
 8445SOL    HW226235   3.052   0.123   0.980
 8446SOL     OW26236   6.406   4.754   5.036
 8446SOL    HW126237   6.419   4.778   4.940
 8446SOL    HW226238   6.488   4.777   5.088
 8447SOL     OW26239   3.880   1.188   1.310
 8447SOL    HW126240   3.856   1.092   1.326
 8447SOL    HW226241   3.978   1.195   1.292
 8448SOL     OW26242   4.755   6.503   3.486
 8448SOL    HW126243   4.735   6.492   3.389
 8448SOL    HW226244   4.694   6.445   3.540
 8449SOL     OW26245   0.016   3.169   3.324
 8449SOL    HW126246   0.078   3.155   3.400
 8449SOL    HW226247   6.947   3.195   3.359
 8450SOL     OW26248   1.141   0.766   1.287
 8450SOL    HW126249   1.082   0.792   1.364
 8450SOL    HW226250   1.107   0.680   1.248
 8451SOL     OW26251   3.087   0.969   6.892
 8451SOL    HW126252   3.001   0.945   6.938
 8451SOL    HW226253   3.150   1.009   6.958
 8452SOL     OW26254   5.769   3.087   4.450
 8452SOL    HW126255   5.671   3.093   4.437
 8452SOL    HW226256   5.790   3.080   4.548
 8453SOL     OW26257   0.114   5.687   0.560
 8453SOL    HW126258   0.077   5.714   0.471
 8453SOL    HW226259   0.048   5.631   0.609
 8454SOL     OW26260   0.187   4.872   0.560
 8454SOL    HW126261   0.186   4.825   0.649
 8454SOL    HW226262   0.108   4.933   0.554
 8455SOL     OW26263   7.015   1.951   3.173
 8455SOL    HW126264   0.031   1.989   3.258
 8455SOL    HW226265   6.915   1.945   3.180
 8456SOL     OW26266   4.257   6.985   3.372
 8456SOL    HW126267   4.355   6.971   3.358
 8456SOL    HW226268   4.239   0.059   3.393
 8457SOL     OW26269   6.291   5.903   4.925
 8457SOL    HW126270   6.263   5.927   5.018
 8457SOL    HW226271   6.220   5.849   4.882
 8458SOL     OW26272   2.117   0.255   0.017
 8458SOL    HW126273   2.161   0.176   0.059
 8458SOL    HW226274   2.171   0.287   6.961
 8459SOL     OW26275   2.229   5.698   3.080
 8459SOL    HW126276   2.150   5.637   3.070
 8459SOL    HW226277   2.313   5.648   3.061
 8460SOL     OW26278   4.622   3.954   5.279
 8460SOL    HW126279   4.534   3.920   5.245
 8460SOL    HW226280   4.690   3.949   5.206
 8461SOL     OW26281   0.786   2.979   4.653
 8461SOL    HW126282   0.745   2.893   4.626
 8461SOL    HW226283   0.867   2.961   4.710
 8462SOL     OW26284   3.105   1.603   6.538
 8462SOL    HW126285   3.193   1.627   6.578
 8462SOL    HW226286   3.041   1.577   6.610
 8463SOL     OW26287   6.599   0.065   1.539
 8463SOL    HW126288   6.690   0.027   1.524
 8463SOL    HW226289   6.535   0.026   1.472
 8464SOL     OW26290   5.254   4.750   4.250
 8464SOL    HW126291   5.177   4.743   4.314
 8464SOL    HW226292   5.338   4.765   4.301
 8465SOL     OW26293   1.216   2.456   0.674
 8465SOL    HW126294   1.189   2.414   0.760
 8465SOL    HW226295   1.180   2.402   0.598
 8466SOL     OW26296   0.932   6.695   3.828
 8466SOL    HW126297   0.898   6.654   3.743
 8466SOL    HW226298   0.960   6.789   3.811
 8467SOL     OW26299   2.822   6.043   0.579
 8467SOL    HW126300   2.853   5.968   0.638
 8467SOL    HW226301   2.850   6.025   0.485
 8468SOL     OW26302   3.320   1.248   0.631
 8468SOL    HW126303   3.333   1.209   0.540
 8468SOL    HW226304   3.374   1.332   0.639
 8469SOL     OW26305   3.047   2.697   6.736
 8469SOL    HW126306   3.114   2.674   6.807
 8469SOL    HW226307   2.961   2.723   6.779
 8470SOL     OW26308   2.819   3.566   1.228
 8470SOL    HW126309   2.769   3.479   1.222
 8470SOL    HW226310   2.810   3.603   1.321
 8471SOL     OW26311   3.023   1.195   3.173
 8471SOL    HW126312   2.943   1.151   3.214
 8471SOL    HW226313   3.037   1.159   3.080
 8472SOL     OW26314   6.972   0.232   4.018
 8472SOL    HW126315   6.874   0.218   4.033
 8472SOL    HW226316   7.005   0.168   3.949
 8473SOL     OW26317   0.098   5.655   6.601
 8473SOL    HW126318   0.190   5.661   6.638
 8473SOL    HW226319   0.034   5.632   6.674
 8474SOL     OW26320   2.769   3.164   1.768
 8474SOL    HW126321   2.757   3.262   1.756
 8474SOL    HW226322   2.813   3.147   1.857
 8475SOL     OW26323   6.978   1.376   3.362
 8475SOL    HW126324   6.986   1.473   3.339
 8475SOL    HW226325   6.903   1.336   3.310
 8476SOL     OW26326   6.174   1.029   1.962
 8476SOL    HW126327   6.266   1.065   1.947
 8476SOL    HW226328   6.181   0.939   2.005
 8477SOL     OW26329   3.384   6.504   1.193
 8477SOL    HW126330   3.451   6.522   1.122
 8477SOL    HW226331   3.293   6.493   1.152
 8478SOL     OW26332   1.175   0.509   6.063
 8478SOL    HW126333   1.136   0.418   6.080
 8478SOL    HW226334   1.271   0.510   6.093
 8479SOL     OW26335   6.245   1.459   0.583
 8479SOL    HW126336   6.175   1.511   0.633
 8479SOL    HW226337   6.205   1.373   0.550
 8480SOL     OW26338   2.918   0.833   1.388
 8480SOL    HW126339   2.927   0.875   1.478
 8480SOL    HW226340   2.981   0.876   1.324
 8481SOL     OW26341   4.438   1.434   3.964
 8481SOL    HW126342   4.434   1.417   4.062
 8481SOL    HW226343   4.533   1.442   3.935
 8482SOL     OW26344   2.494   0.263   2.472
 8482SOL    HW126345   2.533   0.271   2.380
 8482SOL    HW226346   2.561   0.291   2.540
 8483SOL     OW26347   3.826   6.262   1.792
 8483SOL    HW126348   3.845   6.178   1.845
 8483SOL    HW226349   3.901   6.278   1.729
 8484SOL     OW26350   6.754   4.864   3.228
 8484SOL    HW126351   6.757   4.768   3.257
 8484SOL    HW226352   6.695   4.872   3.148
 8485SOL     OW26353   2.076   3.418   6.459
 8485SOL    HW126354   1.988   3.436   6.414
 8485SOL    HW226355   2.130   3.356   6.403
 8486SOL     OW26356   4.742   1.124   3.090
 8486SOL    HW126357   4.716   1.164   3.178
 8486SOL    HW226358   4.802   1.188   3.041
 8487SOL     OW26359   5.652   0.038   0.542
 8487SOL    HW126360   5.714   6.993   0.502
 8487SOL    HW226361   5.560   0.025   0.504
 8488SOL     OW26362   5.736   4.985   5.058
 8488SOL    HW126363   5.753   4.894   5.021
 8488SOL    HW226364   5.749   4.985   5.157
 8489SOL     OW26365   6.139   7.005   1.495
 8489SOL    HW126366   6.052   6.983   1.451
 8489SOL    HW226367   6.124   0.006   1.591
 8490SOL     OW26368   4.587   6.247   3.542
 8490SOL    HW126369   4.568   6.180   3.471
 8490SOL    HW226370   4.505   6.301   3.560
 8491SOL     OW26371   2.123   0.504   1.656
 8491SOL    HW126372   2.196   0.458   1.706
 8491SOL    HW226373   2.037   0.456   1.670
 8492SOL     OW26374   4.663   3.979   6.113
 8492SOL    HW126375   4.712   4.040   6.051
 8492SOL    HW226376   4.675   4.010   6.207
 8493SOL     OW26377   3.403   1.640   6.856
 8493SOL    HW126378   3.382   1.703   6.782
 8493SOL    HW226379   3.373   1.679   6.943
 8494SOL     OW26380   1.808   4.651   6.435
 8494SOL    HW126381   1.802   4.563   6.481
 8494SOL    HW226382   1.733   4.709   6.464
 8495SOL     OW26383   0.124   3.350   0.522
 8495SOL    HW126384   0.030   3.348   0.487
 8495SOL    HW226385   0.186   3.369   0.446
 8496SOL     OW26386   0.473   1.860   2.400
 8496SOL    HW126387   0.472   1.960   2.407
 8496SOL    HW226388   0.488   1.820   2.490
 8497SOL     OW26389   5.600   6.847   4.151
 8497SOL    HW126390   5.549   6.913   4.096
 8497SOL    HW226391   5.694   6.843   4.119
 8498SOL     OW26392   0.399   6.357   2.432
 8498SOL    HW126393   0.376   6.455   2.437
 8498SOL    HW226394   0.451   6.340   2.348
 8499SOL     OW26395   2.543   5.396   6.643
 8499SOL    HW126396   2.565   5.485   6.685
 8499SOL    HW226397   2.620   5.334   6.655
 8500SOL     OW26398   1.827   0.567   5.749
 8500SOL    HW126399   1.795   0.536   5.660
 8500SOL    HW226400   1.858   0.662   5.742
 8501SOL     OW26401   1.597   2.747   0.140
 8501SOL    HW126402   1.594   2.806   0.220
 8501SOL    HW226403   1.514   2.692   0.136
 8502SOL     OW26404   1.686   4.937   0.935
 8502SOL    HW126405   1.777   4.934   0.976
 8502SOL    HW226406   1.619   4.966   1.003
 8503SOL     OW26407   1.302   5.399   2.949
 8503SOL    HW126408   1.219   5.345   2.958
 8503SOL    HW226409   1.291   5.466   2.876
 8504SOL     OW26410   1.571   6.390   3.744
 8504SOL    HW126411   1.472   6.401   3.748
 8504SOL    HW226412   1.615   6.466   3.791
 8505SOL     OW26413   5.128   4.042   3.368
 8505SOL    HW126414   5.157   3.947   3.371
 8505SOL    HW226415   5.029   4.048   3.376
 8506SOL     OW26416   0.686   6.938   0.772
 8506SOL    HW126417   0.603   6.991   0.788
 8506SOL    HW226418   0.717   6.953   0.678
 8507SOL     OW26419   2.504   0.758   5.476
 8507SOL    HW126420   2.585   0.801   5.516
 8507SOL    HW226421   2.518   0.660   5.468
 8508SOL     OW26422   0.099   3.070   4.773
 8508SOL    HW126423   0.132   3.165   4.765
 8508SOL    HW226424   0.082   3.033   4.682
 8509SOL     OW26425   5.686   1.525   4.064
 8509SOL    HW126426   5.664   1.596   4.131
 8509SOL    HW226427   5.615   1.521   3.995
 8510SOL     OW26428   5.991   4.644   2.958
 8510SOL    HW126429   6.001   4.548   2.931
 8510SOL    HW226430   5.897   4.660   2.989
 8511SOL     OW26431   5.555   4.269   1.666
 8511SOL    HW126432   5.609   4.187   1.684
 8511SOL    HW226433   5.460   4.251   1.692
 8512SOL     OW26434   3.633   2.257   0.104
 8512SOL    HW126435   3.619   2.286   0.199
 8512SOL    HW226436   3.699   2.182   0.101
 8513SOL     OW26437   4.615   3.860   1.452
 8513SOL    HW126438   4.564   3.891   1.533
 8513SOL    HW226439   4.696   3.916   1.440
 8514SOL     OW26440   2.371   2.833   3.331
 8514SOL    HW126441   2.318   2.763   3.285
 8514SOL    HW226442   2.372   2.917   3.276
 8515SOL     OW26443   0.131   1.189   6.760
 8515SOL    HW126444   0.139   1.270   6.818
 8515SOL    HW226445   0.069   1.210   6.684
 8516SOL     OW26446   6.459   2.777   1.676
 8516SOL    HW126447   6.373   2.804   1.632
 8516SOL    HW226448   6.534   2.834   1.641
 8517SOL     OW26449   2.084   2.347   5.969
 8517SOL    HW126450   2.118   2.344   5.875
 8517SOL    HW226451   2.155   2.312   6.030
 8518SOL     OW26452   5.012   3.948   6.128
 8518SOL    HW126453   4.955   3.951   6.046
 8518SOL    HW226454   5.079   3.874   6.119
 8519SOL     OW26455   0.794   5.335   0.805
 8519SOL    HW126456   0.730   5.270   0.845
 8519SOL    HW226457   0.880   5.334   0.857
 8520SOL     OW26458   2.870   2.717   6.423
 8520SOL    HW126459   2.875   2.647   6.351
 8520SOL    HW226460   2.793   2.697   6.483
 8521SOL     OW26461   2.428   5.388   5.585
 8521SOL    HW126462   2.514   5.439   5.600
 8521SOL    HW226463   2.366   5.443   5.529
 8522SOL     OW26464   0.697   6.795   1.529
 8522SOL    HW126465   0.662   6.718   1.474
 8522SOL    HW226466   0.749   6.759   1.607
 8523SOL     OW26467   2.305   6.153   6.708
 8523SOL    HW126468   2.215   6.196   6.702
 8523SOL    HW226469   2.372   6.221   6.738
 8524SOL     OW26470   0.802   3.453   4.680
 8524SOL    HW126471   0.740   3.529   4.667
 8524SOL    HW226472   0.752   3.367   4.668
 8525SOL     OW26473   5.817   5.077   1.789
 8525SOL    HW126474   5.724   5.039   1.795
 8525SOL    HW226475   5.812   5.177   1.787
 8526SOL     OW26476   3.632   6.240   0.849
 8526SOL    HW126477   3.668   6.148   0.864
 8526SOL    HW226478   3.547   6.252   0.899
 8527SOL     OW26479   3.237   0.274   0.019
 8527SOL    HW126480   3.319   0.311   6.997
 8527SOL    HW226481   3.206   0.336   0.091
 8528SOL     OW26482   3.724   1.306   0.501
 8528SOL    HW126483   3.696   1.402   0.504
 8528SOL    HW226484   3.723   1.274   0.406
 8529SOL     OW26485   1.616   0.133   0.679
 8529SOL    HW126486   1.589   0.073   0.755
 8529SOL    HW226487   1.541   0.140   0.613
 8530SOL     OW26488   3.763   3.487   5.296
 8530SOL    HW126489   3.706   3.406   5.282
 8530SOL    HW226490   3.797   3.487   5.390
 8531SOL     OW26491   6.907   5.419   2.826
 8531SOL    HW126492   6.947   5.425   2.918
 8531SOL    HW226493   6.923   5.328   2.788
 8532SOL     OW26494   3.909   5.789   4.830
 8532SOL    HW126495   3.916   5.759   4.925
 8532SOL    HW226496   3.840   5.861   4.822
 8533SOL     OW26497   1.911   6.011   0.152
 8533SOL    HW126498   1.854   5.931   0.132
 8533SOL    HW226499   1.925   6.017   0.251
 8534SOL     OW26500   4.886   2.536   3.957
 8534SOL    HW126501   4.812   2.505   3.898
 8534SOL    HW226502   4.882   2.489   4.045
 8535SOL     OW26503   6.121   1.493   3.572
 8535SOL    HW126504   6.186   1.492   3.648
 8535SOL    HW226505   6.040   1.546   3.597
 8536SOL     OW26506   0.472   1.442   4.670
 8536SOL    HW126507   0.431   1.382   4.601
 8536SOL    HW226508   0.431   1.422   4.759
 8537SOL     OW26509   5.540   1.778   3.335
 8537SOL    HW126510   5.577   1.775   3.242
 8537SOL    HW226511   5.475   1.703   3.348
 8538SOL     OW26512   1.757   1.284   6.916
 8538SOL    HW126513   1.699   1.283   6.998
 8538SOL    HW226514   1.702   1.307   6.836
 8539SOL     OW26515   6.394   1.828   2.272
 8539SOL    HW126516   6.406   1.773   2.355
 8539SOL    HW226517   6.310   1.800   2.226
 8540SOL     OW26518   5.880   0.130   6.562
 8540SOL    HW126519   5.851   0.077   6.643
 8540SOL    HW226520   5.802   0.183   6.528
 8541SOL     OW26521   3.796   2.158   3.704
 8541SOL    HW126522   3.822   2.244   3.661
 8541SOL    HW226523   3.874   2.095   3.702
 8542SOL     OW26524   3.703   4.538   6.612
 8542SOL    HW126525   3.688   4.616   6.673
 8542SOL    HW226526   3.685   4.566   6.517
 8543SOL     OW26527   1.946   1.834   1.511
 8543SOL    HW126528   1.984   1.871   1.596
 8543SOL    HW226529   2.002   1.865   1.434
 8544SOL     OW26530   5.508   3.741   4.155
 8544SOL    HW126531   5.561   3.785   4.227
 8544SOL    HW226532   5.433   3.801   4.128
 8545SOL     OW26533   4.195   0.348   5.904
 8545SOL    HW126534   4.120   0.348   5.970
 8545SOL    HW226535   4.255   0.269   5.921
 8546SOL     OW26536   5.971   1.811   4.342
 8546SOL    HW126537   6.042   1.742   4.356
 8546SOL    HW226538   5.881   1.768   4.351
 8547SOL     OW26539   0.670   6.670   5.892
 8547SOL    HW126540   0.696   6.746   5.832
 8547SOL    HW226541   0.658   6.587   5.837
 8548SOL     OW26542   5.929   2.731   5.320
 8548SOL    HW126543   6.006   2.742   5.383
 8548SOL    HW226544   5.845   2.717   5.373
 8549SOL     OW26545   0.427   3.747   3.869
 8549SOL    HW126546   0.413   3.664   3.815
 8549SOL    HW226547   0.421   3.725   3.966
 8550SOL     OW26548   2.051   4.429   6.427
 8550SOL    HW126549   2.057   4.425   6.526
 8550SOL    HW226550   2.054   4.525   6.397
 8551SOL     OW26551   3.886   3.363   5.942
 8551SOL    HW126552   3.788   3.365   5.964
 8551SOL    HW226553   3.916   3.455   5.914
 8552SOL     OW26554   2.353   6.605   4.239
 8552SOL    HW126555   2.326   6.625   4.333
 8552SOL    HW226556   2.304   6.665   4.176
 8553SOL     OW26557   5.245   5.119   6.208
 8553SOL    HW126558   5.207   5.197   6.258
 8553SOL    HW226559   5.345   5.125   6.209
 8554SOL     OW26560   0.445   4.823   0.389
 8554SOL    HW126561   0.412   4.744   0.440
 8554SOL    HW226562   0.545   4.820   0.384
 8555SOL     OW26563   0.729   0.231   3.034
 8555SOL    HW126564   0.745   0.323   2.999
 8555SOL    HW226565   0.778   0.164   2.978
 8556SOL     OW26566   0.970   6.982   3.779
 8556SOL    HW126567   0.918   0.020   3.841
 8556SOL    HW226568   1.068   7.000   3.790
 8557SOL     OW26569   6.500   1.252   2.003
 8557SOL    HW126570   6.593   1.283   1.982
 8557SOL    HW226571   6.504   1.156   2.033
 8558SOL     OW26572   2.697   5.850   3.064
 8558SOL    HW126573   2.654   5.939   3.050
 8558SOL    HW226574   2.659   5.808   3.146
 8559SOL     OW26575   5.777   0.808   1.877
 8559SOL    HW126576   5.762   0.864   1.958
 8559SOL    HW226577   5.813   0.865   1.803
 8560SOL     OW26578   6.577   0.060   0.959
 8560SOL    HW126579   6.479   0.071   0.974
 8560SOL    HW226580   6.614   0.142   0.915
 8561SOL     OW26581   3.348   6.123   1.887
 8561SOL    HW126582   3.263   6.072   1.878
 8561SOL    HW226583   3.413   6.091   1.818
 8562SOL     OW26584   4.942   6.527   5.042
 8562SOL    HW126585   4.983   6.519   5.132
 8562SOL    HW226586   4.878   6.604   5.041
 8563SOL     OW26587   2.440   3.537   0.124
 8563SOL    HW126588   2.438   3.513   0.027
 8563SOL    HW226589   2.391   3.623   0.138
 8564SOL     OW26590   2.391   1.296   3.653
 8564SOL    HW126591   2.370   1.342   3.567
 8564SOL    HW226592   2.390   1.197   3.639
 8565SOL     OW26593   4.726   6.754   1.495
 8565SOL    HW126594   4.754   6.658   1.503
 8565SOL    HW226595   4.641   6.769   1.545
 8566SOL     OW26596   1.197   0.916   2.222
 8566SOL    HW126597   1.108   0.917   2.268
 8566SOL    HW226598   1.183   0.929   2.124
 8567SOL     OW26599   0.091   2.059   1.786
 8567SOL    HW126600   0.133   2.005   1.859
 8567SOL    HW226601   7.013   2.056   1.795
 8568SOL     OW26602   4.471   0.169   6.269
 8568SOL    HW126603   4.535   0.208   6.334
 8568SOL    HW226604   4.489   0.206   6.177
 8569SOL     OW26605   5.108   1.484   6.077
 8569SOL    HW126606   5.057   1.465   6.162
 8569SOL    HW226607   5.048   1.470   5.999
 8570SOL     OW26608   1.037   2.312   5.960
 8570SOL    HW126609   0.989   2.258   5.891
 8570SOL    HW226610   0.982   2.392   5.984
 8571SOL     OW26611   0.225   5.689   5.901
 8571SOL    HW126612   0.130   5.660   5.899
 8571SOL    HW226613   0.277   5.637   5.833
 8572SOL     OW26614   3.121   5.112   6.371
 8572SOL    HW126615   3.048   5.173   6.339
 8572SOL    HW226616   3.087   5.018   6.375
 8573SOL     OW26617   3.442   6.218   6.687
 8573SOL    HW126618   3.505   6.158   6.638
 8573SOL    HW226619   3.348   6.194   6.662
 8574SOL     OW26620   6.821   5.221   5.593
 8574SOL    HW126621   6.859   5.192   5.505
 8574SOL    HW226622   6.810   5.142   5.653
 8575SOL     OW26623   3.578   2.267   6.689
 8575SOL    HW126624   3.497   2.276   6.632
 8575SOL    HW226625   3.555   2.291   6.784
 8576SOL     OW26626   1.183   6.438   1.157
 8576SOL    HW126627   1.181   6.354   1.210
 8576SOL    HW226628   1.096   6.487   1.169
 8577SOL     OW26629   6.385   5.178   4.355
 8577SOL    HW126630   6.415   5.114   4.285
 8577SOL    HW226631   6.403   5.272   4.325
 8578SOL     OW26632   5.203   0.716   4.660
 8578SOL    HW126633   5.141   0.692   4.585
 8578SOL    HW226634   5.165   0.794   4.711
 8579SOL     OW26635   1.459   6.171   3.613
 8579SOL    HW126636   1.469   6.186   3.515
 8579SOL    HW226637   1.517   6.236   3.663
 8580SOL     OW26638   2.307   6.780   2.180
 8580SOL    HW126639   2.306   6.817   2.273
 8580SOL    HW226640   2.318   6.855   2.115
 8581SOL     OW26641   3.482   2.844   1.849
 8581SOL    HW126642   3.581   2.853   1.863
 8581SOL    HW226643   3.433   2.890   1.923
 8582SOL     OW26644   4.286   4.678   1.907
 8582SOL    HW126645   4.246   4.768   1.925
 8582SOL    HW226646   4.237   4.635   1.831
 8583SOL     OW26647   5.853   0.733   6.065
 8583SOL    HW126648   5.829   0.825   6.094
 8583SOL    HW226649   5.946   0.711   6.095
 8584SOL     OW26650   0.372   3.934   6.134
 8584SOL    HW126651   0.361   4.030   6.110
 8584SOL    HW226652   0.469   3.913   6.147
 8585SOL     OW26653   6.833   6.489   6.980
 8585SOL    HW126654   6.836   6.420   6.908
 8585SOL    HW226655   6.914   6.481   0.016
 8586SOL     OW26656   2.661   6.390   3.580
 8586SOL    HW126657   2.563   6.393   3.561
 8586SOL    HW226658   2.706   6.468   3.536
 8587SOL     OW26659   1.291   0.132   3.056
 8587SOL    HW126660   1.281   0.231   3.050
 8587SOL    HW226661   1.379   0.105   3.017
 8588SOL     OW26662   2.869   0.504   6.997
 8588SOL    HW126663   2.876   0.425   6.937
 8588SOL    HW226664   2.837   0.583   6.944
 8589SOL     OW26665   4.372   2.389   4.343
 8589SOL    HW126666   4.283   2.342   4.348
 8589SOL    HW226667   4.399   2.418   4.434
 8590SOL     OW26668   6.566   5.927   4.275
 8590SOL    HW126669   6.561   6.017   4.231
 8590SOL    HW226670   6.478   5.907   4.318
 8591SOL     OW26671   0.965   5.129   6.186
 8591SOL    HW126672   1.001   5.108   6.096
 8591SOL    HW226673   0.880   5.181   6.177
 8592SOL     OW26674   6.568   4.295   0.394
 8592SOL    HW126675   6.661   4.308   0.359
 8592SOL    HW226676   6.533   4.381   0.430
 8593SOL     OW26677   1.281   6.729   2.620
 8593SOL    HW126678   1.343   6.757   2.547
 8593SOL    HW226679   1.211   6.800   2.633
 8594SOL     OW26680   3.524   3.451   5.038
 8594SOL    HW126681   3.554   3.378   5.099
 8594SOL    HW226682   3.604   3.504   5.007
 8595SOL     OW26683   2.520   1.424   2.810
 8595SOL    HW126684   2.493   1.516   2.837
 8595SOL    HW226685   2.560   1.377   2.889
 8596SOL     OW26686   5.872   5.322   2.203
 8596SOL    HW126687   5.900   5.280   2.289
 8596SOL    HW226688   5.946   5.379   2.167
 8597SOL     OW26689   4.061   2.406   1.171
 8597SOL    HW126690   4.023   2.403   1.264
 8597SOL    HW226691   3.993   2.372   1.106
 8598SOL     OW26692   0.526   5.345   1.456
 8598SOL    HW126693   0.446   5.397   1.487
 8598SOL    HW226694   0.584   5.405   1.401
 8599SOL     OW26695   1.069   3.075   3.978
 8599SOL    HW126696   1.053   2.977   3.965
 8599SOL    HW226697   1.043   3.102   4.070
 8600SOL     OW26698   5.691   4.604   6.807
 8600SOL    HW126699   5.750   4.654   6.745
 8600SOL    HW226700   5.603   4.586   6.763
 8601SOL     OW26701   0.819   0.606   4.679
 8601SOL    HW126702   0.786   0.570   4.592
 8601SOL    HW226703   0.790   0.702   4.688
 8602SOL     OW26704   2.334   6.453   2.873
 8602SOL    HW126705   2.257   6.515   2.858
 8602SOL    HW226706   2.377   6.431   2.785
 8603SOL     OW26707   3.758   4.163   0.120
 8603SOL    HW126708   3.745   4.173   0.021
 8603SOL    HW226709   3.856   4.152   0.139
 8604SOL     OW26710   6.275   2.786   2.986
 8604SOL    HW126711   6.294   2.870   2.936
 8604SOL    HW226712   6.233   2.719   2.925
 8605SOL     OW26713   3.403   5.057   4.406
 8605SOL    HW126714   3.307   5.034   4.417
 8605SOL    HW226715   3.423   5.072   4.309
 8606SOL     OW26716   2.185   4.570   5.612
 8606SOL    HW126717   2.104   4.577   5.554
 8606SOL    HW226718   2.162   4.594   5.706
 8607SOL     OW26719   2.919   4.845   0.731
 8607SOL    HW126720   2.953   4.933   0.697
 8607SOL    HW226721   2.966   4.821   0.815
 8608SOL     OW26722   4.807   5.218   3.063
 8608SOL    HW126723   4.715   5.204   3.099
 8608SOL    HW226724   4.858   5.277   3.125
 8609SOL     OW26725   4.686   0.611   4.126
 8609SOL    HW126726   4.594   0.616   4.088
 8609SOL    HW226727   4.746   0.673   4.075
 8610SOL     OW26728   1.085   0.667   2.732
 8610SOL    HW126729   1.046   0.752   2.768
 8610SOL    HW226730   1.063   0.659   2.635
 8611SOL     OW26731   1.543   3.005   3.683
 8611SOL    HW126732   1.562   2.946   3.605
 8611SOL    HW226733   1.527   3.099   3.651
 8612SOL     OW26734   2.910   3.216   0.208
 8612SOL    HW126735   2.942   3.135   0.258
 8612SOL    HW226736   2.839   3.262   0.262
 8613SOL     OW26737   2.224   1.705   1.537
 8613SOL    HW126738   2.178   1.778   1.587
 8613SOL    HW226739   2.190   1.703   1.443
 8614SOL     OW26740   0.900   3.380   2.811
 8614SOL    HW126741   0.908   3.327   2.895
 8614SOL    HW226742   0.905   3.319   2.732
 8615SOL     OW26743   5.209   2.129   4.695
 8615SOL    HW126744   5.127   2.078   4.669
 8615SOL    HW226745   5.220   2.126   4.794
 8616SOL     OW26746   1.485   5.586   1.169
 8616SOL    HW126747   1.412   5.640   1.213
 8616SOL    HW226748   1.466   5.489   1.181
 8617SOL     OW26749   5.813   1.265   0.535
 8617SOL    HW126750   5.811   1.167   0.518
 8617SOL    HW226751   5.900   1.290   0.577
 8618SOL     OW26752   5.141   6.907   1.121
 8618SOL    HW126753   5.216   6.916   1.186
 8618SOL    HW226754   5.175   6.918   1.028
 8619SOL     OW26755   3.433   5.103   1.348
 8619SOL    HW126756   3.528   5.073   1.348
 8619SOL    HW226757   3.384   5.058   1.423
 8620SOL     OW26758   6.143   0.112   3.320
 8620SOL    HW126759   6.217   0.136   3.257
 8620SOL    HW226760   6.151   0.165   3.404
 8621SOL     OW26761   5.906   1.933   3.559
 8621SOL    HW126762   5.891   2.014   3.502
 8621SOL    HW226763   5.861   1.854   3.516
 8622SOL     OW26764   4.657   4.671   0.453
 8622SOL    HW126765   4.756   4.683   0.462
 8622SOL    HW226766   4.635   4.648   0.359
 8623SOL     OW26767   0.212   4.173   2.731
 8623SOL    HW126768   0.283   4.111   2.765
 8623SOL    HW226769   0.123   4.126   2.732
 8624SOL     OW26770   1.101   4.653   3.828
 8624SOL    HW126771   1.036   4.691   3.762
 8624SOL    HW226772   1.160   4.587   3.783
 8625SOL     OW26773   4.667   0.603   4.580
 8625SOL    HW126774   4.592   0.668   4.593
 8625SOL    HW226775   4.682   0.553   4.666
 8626SOL     OW26776   3.683   2.889   4.827
 8626SOL    HW126777   3.742   2.849   4.897
 8626SOL    HW226778   3.600   2.925   4.870
 8627SOL     OW26779   1.066   0.394   2.737
 8627SOL    HW126780   1.141   0.352   2.686
 8627SOL    HW226781   1.082   0.492   2.747
 8628SOL     OW26782   6.274   6.782   1.716
 8628SOL    HW126783   6.317   6.872   1.723
 8628SOL    HW226784   6.298   6.740   1.628
 8629SOL     OW26785   1.728   5.428   4.481
 8629SOL    HW126786   1.819   5.412   4.519
 8629SOL    HW226787   1.736   5.464   4.388
 8630SOL     OW26788   6.183   3.994   4.435
 8630SOL    HW126789   6.085   4.017   4.436
 8630SOL    HW226790   6.229   4.039   4.511
 8631SOL     OW26791   3.646   5.795   6.329
 8631SOL    HW126792   3.615   5.706   6.363
 8631SOL    HW226793   3.625   5.803   6.232
 8632SOL     OW26794   3.943   6.522   3.596
 8632SOL    HW126795   4.020   6.522   3.532
 8632SOL    HW226796   3.857   6.523   3.544
 8633SOL     OW26797   5.541   1.072   4.766
 8633SOL    HW126798   5.611   1.081   4.695
 8633SOL    HW226799   5.554   1.143   4.835
 8634SOL     OW26800   6.226   2.970   0.977
 8634SOL    HW126801   6.197   2.957   1.071
 8634SOL    HW226802   6.249   3.066   0.962
 8635SOL     OW26803   5.710   3.797   6.233
 8635SOL    HW126804   5.727   3.739   6.313
 8635SOL    HW226805   5.698   3.892   6.263
 8636SOL     OW26806   5.587   4.937   6.918
 8636SOL    HW126807   5.559   4.913   6.825
 8636SOL    HW226808   5.519   4.903   6.983
 8637SOL     OW26809   1.989   0.567   0.340
 8637SOL    HW126810   1.997   0.643   0.405
 8637SOL    HW226811   1.961   0.603   0.251
 8638SOL     OW26812   1.829   3.285   0.067
 8638SOL    HW126813   1.758   3.292   0.137
 8638SOL    HW226814   1.806   3.346   7.012
 8639SOL     OW26815   6.104   2.704   1.808
 8639SOL    HW126816   6.153   2.734   1.726
 8639SOL    HW226817   6.005   2.711   1.792
 8640SOL     OW26818   4.595   3.916   0.628
 8640SOL    HW126819   4.620   3.951   0.718
 8640SOL    HW226820   4.670   3.858   0.593
 8641SOL     OW26821   6.854   4.320   4.788
 8641SOL    HW126822   6.766   4.288   4.823
 8641SOL    HW226823   6.891   4.254   4.723
 8642SOL     OW26824   4.596   0.560   2.656
 8642SOL    HW126825   4.590   0.530   2.561
 8642SOL    HW226826   4.678   0.521   2.698
 8643SOL     OW26827   4.654   6.921   0.098
 8643SOL    HW126828   4.576   6.861   0.112
 8643SOL    HW226829   4.629   7.015   0.118
 8644SOL     OW26830   4.500   2.342   5.646
 8644SOL    HW126831   4.412   2.367   5.606
 8644SOL    HW226832   4.484   2.282   5.725
 8645SOL     OW26833   5.300   4.958   1.525
 8645SOL    HW126834   5.325   4.927   1.617
 8645SOL    HW226835   5.204   4.984   1.524
 8646SOL     OW26836   6.058   1.443   1.228
 8646SOL    HW126837   6.034   1.459   1.324
 8646SOL    HW226838   6.005   1.505   1.170
 8647SOL     OW26839   3.406   4.774   6.405
 8647SOL    HW126840   3.489   4.720   6.389
 8647SOL    HW226841   3.418   4.866   6.369
 8648SOL     OW26842   5.702   1.503   4.518
 8648SOL    HW126843   5.605   1.479   4.508
 8648SOL    HW226844   5.723   1.519   4.614
 8649SOL     OW26845   5.588   4.952   5.817
 8649SOL    HW126846   5.569   4.994   5.906
 8649SOL    HW226847   5.510   4.896   5.789
 8650SOL     OW26848   1.775   4.556   4.369
 8650SOL    HW126849   1.844   4.487   4.346
 8650SOL    HW226850   1.736   4.535   4.458
 8651SOL     OW26851   3.766   0.413   0.232
 8651SOL    HW126852   3.750   0.315   0.228
 8651SOL    HW226853   3.680   0.462   0.217
 8652SOL     OW26854   1.352   4.026   2.989
 8652SOL    HW126855   1.417   3.969   3.040
 8652SOL    HW226856   1.269   3.973   2.970
 8653SOL     OW26857   5.773   1.836   5.979
 8653SOL    HW126858   5.714   1.917   5.978
 8653SOL    HW226859   5.717   1.754   5.983
 8654SOL     OW26860   1.232   6.418   2.158
 8654SOL    HW126861   1.300   6.345   2.152
 8654SOL    HW226862   1.232   6.455   2.251
 8655SOL     OW26863   6.028   0.948   3.892
 8655SOL    HW126864   5.935   0.926   3.863
 8655SOL    HW226865   6.093   0.889   3.844
 8656SOL     OW26866   6.611   1.183   0.714
 8656SOL    HW126867   6.553   1.264   0.707
 8656SOL    HW226868   6.614   1.152   0.809
 8657SOL     OW26869   4.441   4.529   0.265
 8657SOL    HW126870   4.382   4.458   0.226
 8657SOL    HW226871   4.531   4.526   0.220
 8658SOL     OW26872   5.218   5.800   0.377
 8658SOL    HW126873   5.135   5.821   0.326
 8658SOL    HW226874   5.296   5.800   0.314
 8659SOL     OW26875   4.430   1.161   3.380
 8659SOL    HW126876   4.347   1.196   3.424
 8659SOL    HW226877   4.443   1.065   3.405
 8660SOL     OW26878   5.064   3.594   0.842
 8660SOL    HW126879   5.119   3.602   0.759
 8660SOL    HW226880   5.024   3.502   0.847
 8661SOL     OW26881   5.295   4.012   1.138
 8661SOL    HW126882   5.353   3.943   1.182
 8661SOL    HW226883   5.291   4.094   1.195
 8662SOL     OW26884   5.013   6.069   1.686
 8662SOL    HW126885   4.954   5.990   1.696
 8662SOL    HW226886   4.974   6.133   1.620
 8663SOL     OW26887   2.456   5.626   1.116
 8663SOL    HW126888   2.466   5.674   1.029
 8663SOL    HW226889   2.455   5.693   1.191
 8664SOL     OW26890   3.817   5.581   0.825
 8664SOL    HW126891   3.825   5.666   0.772
 8664SOL    HW226892   3.799   5.604   0.921
 8665SOL     OW26893   5.473   5.676   5.390
 8665SOL    HW126894   5.466   5.659   5.488
 8665SOL    HW226895   5.568   5.667   5.361
 8666SOL     OW26896   5.776   2.401   5.208
 8666SOL    HW126897   5.778   2.452   5.294
 8666SOL    HW226898   5.688   2.414   5.163
 8667SOL     OW26899   4.404   2.439   2.624
 8667SOL    HW126900   4.450   2.510   2.571
 8667SOL    HW226901   4.434   2.443   2.719
 8668SOL     OW26902   5.143   3.362   3.144
 8668SOL    HW126903   5.169   3.325   3.055
 8668SOL    HW226904   5.158   3.293   3.215
 8669SOL     OW26905   2.762   6.631   6.784
 8669SOL    HW126906   2.715   6.678   6.710
 8669SOL    HW226907   2.735   6.535   6.785
 8670SOL     OW26908   3.631   4.392   5.792
 8670SOL    HW126909   3.567   4.390   5.868
 8670SOL    HW226910   3.589   4.351   5.711
 8671SOL     OW26911   5.809   1.563   3.676
 8671SOL    HW126912   5.788   1.595   3.583
 8671SOL    HW226913   5.755   1.616   3.742
 8672SOL     OW26914   2.294   5.480   3.719
 8672SOL    HW126915   2.338   5.518   3.638
 8672SOL    HW226916   2.341   5.513   3.801
 8673SOL     OW26917   0.030   1.684   6.611
 8673SOL    HW126918   6.963   1.718   6.643
 8673SOL    HW226919   0.022   1.588   6.585
 8674SOL     OW26920   6.645   5.708   1.605
 8674SOL    HW126921   6.586   5.661   1.540
 8674SOL    HW226922   6.737   5.669   1.602
 8675SOL     OW26923   3.711   1.847   4.561
 8675SOL    HW126924   3.632   1.908   4.552
 8675SOL    HW226925   3.794   1.902   4.574
 8676SOL     OW26926   4.080   6.660   3.045
 8676SOL    HW126927   4.006   6.611   3.091
 8676SOL    HW226928   4.084   6.632   2.949
 8677SOL     OW26929   2.624   6.118   5.178
 8677SOL    HW126930   2.635   6.217   5.179
 8677SOL    HW226931   2.632   6.083   5.271
 8678SOL     OW26932   7.011   0.332   0.772
 8678SOL    HW126933   6.992   0.297   0.681
 8678SOL    HW226934   0.087   0.354   0.779
 8679SOL     OW26935   6.525   3.409   4.766
 8679SOL    HW126936   6.439   3.453   4.788
 8679SOL    HW226937   6.578   3.395   4.850
 8680SOL     OW26938   0.577   3.774   1.363
 8680SOL    HW126939   0.521   3.705   1.316
 8680SOL    HW226940   0.612   3.840   1.296
 8681SOL     OW26941   4.711   4.973   0.338
 8681SOL    HW126942   4.685   5.068   0.352
 8681SOL    HW226943   4.671   4.916   0.410
 8682SOL     OW26944   4.174   6.634   2.031
 8682SOL    HW126945   4.160   6.632   1.932
 8682SOL    HW226946   4.092   6.601   2.077
 8683SOL     OW26947   1.403   2.848   1.957
 8683SOL    HW126948   1.404   2.842   2.057
 8683SOL    HW226949   1.385   2.943   1.930
 8684SOL     OW26950   0.635   2.889   5.008
 8684SOL    HW126951   0.664   2.984   5.018
 8684SOL    HW226952   0.635   2.864   4.911
 8685SOL     OW26953   1.408   2.410   5.812
 8685SOL    HW126954   1.371   2.317   5.811
 8685SOL    HW226955   1.468   2.423   5.733
 8686SOL     OW26956   6.644   1.344   1.192
 8686SOL    HW126957   6.627   1.262   1.246
 8686SOL    HW226958   6.688   1.413   1.249
 8687SOL     OW26959   3.678   5.792   2.412
 8687SOL    HW126960   3.633   5.859   2.472
 8687SOL    HW226961   3.659   5.700   2.446
 8688SOL     OW26962   3.151   6.268   0.331
 8688SOL    HW126963   3.222   6.243   0.264
 8688SOL    HW226964   3.063   6.276   0.284
 8689SOL     OW26965   3.846   4.875   0.283
 8689SOL    HW126966   3.802   4.947   0.336
 8689SOL    HW226967   3.914   4.916   0.221
 8690SOL     OW26968   1.621   2.832   3.474
 8690SOL    HW126969   1.713   2.804   3.500
 8690SOL    HW226970   1.623   2.874   3.383
 8691SOL     OW26971   4.455   2.542   6.390
 8691SOL    HW126972   4.526   2.498   6.335
 8691SOL    HW226973   4.381   2.477   6.408
 8692SOL     OW26974   3.763   2.112   2.565
 8692SOL    HW126975   3.768   2.013   2.563
 8692SOL    HW226976   3.831   2.152   2.504
 8693SOL     OW26977   5.638   1.660   1.295
 8693SOL    HW126978   5.707   1.599   1.335
 8693SOL    HW226979   5.569   1.605   1.248
 8694SOL     OW26980   4.381   1.413   5.356
 8694SOL    HW126981   4.284   1.403   5.334
 8694SOL    HW226982   4.396   1.388   5.452
 8695SOL     OW26983   4.739   3.072   5.891
 8695SOL    HW126984   4.786   3.151   5.853
 8695SOL    HW226985   4.751   2.993   5.831
 8696SOL     OW26986   2.923   5.948   0.850
 8696SOL    HW126987   2.916   6.007   0.930
 8696SOL    HW226988   2.894   5.856   0.874
 8697SOL     OW26989   6.337   3.537   0.585
 8697SOL    HW126990   6.266   3.492   0.532
 8697SOL    HW226991   6.298   3.616   0.634
 8698SOL     OW26992   6.163   5.497   4.186
 8698SOL    HW126993   6.151   5.480   4.283
 8698SOL    HW226994   6.221   5.427   4.146
 8699SOL     OW26995   1.446   2.699   5.684
 8699SOL    HW126996   1.444   2.787   5.636
 8699SOL    HW226997   1.409   2.710   5.776
 8700SOL     OW26998   1.629   1.349   4.862
 8700SOL    HW126999   1.681   1.420   4.910
 8700SOL    HW227000   1.562   1.391   4.801
 8701SOL     OW27001   1.476   0.461   6.759
 8701SOL    HW127002   1.513   0.530   6.697
 8701SOL    HW227003   1.513   0.371   6.735
 8702SOL     OW27004   5.557   4.894   0.243
 8702SOL    HW127005   5.478   4.903   0.183
 8702SOL    HW227006   5.587   4.985   0.273
 8703SOL     OW27007   2.525   5.352   1.155
 8703SOL    HW127008   2.500   5.448   1.142
 8703SOL    HW227009   2.610   5.333   1.106
 8704SOL     OW27010   6.077   3.684   2.844
 8704SOL    HW127011   6.176   3.701   2.849
 8704SOL    HW227012   6.031   3.767   2.814
 8705SOL     OW27013   4.996   0.974   0.675
 8705SOL    HW127014   4.972   0.889   0.627
 8705SOL    HW227015   4.962   0.970   0.769
 8706SOL     OW27016   4.601   1.780   6.322
 8706SOL    HW127017   4.566   1.825   6.405
 8706SOL    HW227018   4.524   1.757   6.262
 8707SOL     OW27019   5.555   2.065   6.930
 8707SOL    HW127020   5.523   2.054   6.836
 8707SOL    HW227021   5.536   1.982   6.982
 8708SOL     OW27022   4.011   2.149   2.124
 8708SOL    HW127023   4.002   2.179   2.219
 8708SOL    HW227024   3.926   2.105   2.094
 8709SOL     OW27025   6.867   6.026   6.174
 8709SOL    HW127026   6.945   6.075   6.137
 8709SOL    HW227027   6.875   6.020   6.274
 8710SOL     OW27028   2.144   3.719   3.275
 8710SOL    HW127029   2.096   3.700   3.190
 8710SOL    HW227030   2.189   3.635   3.307
 8711SOL     OW27031   0.116   5.551   2.698
 8711SOL    HW127032   0.077   5.599   2.619
 8711SOL    HW227033   0.046   5.493   2.740
 8712SOL     OW27034   4.080   2.249   3.952
 8712SOL    HW127035   4.178   2.252   3.972
 8712SOL    HW227036   4.066   2.248   3.853
 8713SOL     OW27037   0.682   4.401   3.738
 8713SOL    HW127038   0.710   4.491   3.770
 8713SOL    HW227039   0.600   4.409   3.682
 8714SOL     OW27040   0.631   1.218   6.108
 8714SOL    HW127041   0.619   1.282   6.032
 8714SOL    HW227042   0.728   1.210   6.130
 8715SOL     OW27043   4.974   0.177   0.717
 8715SOL    HW127044   5.028   0.259   0.733
 8715SOL    HW227045   4.953   0.133   0.805
 8716SOL     OW27046   0.877   0.339   1.537
 8716SOL    HW127047   0.846   0.256   1.582
 8716SOL    HW227048   0.814   0.361   1.462
 8717SOL     OW27049   3.830   3.288   3.143
 8717SOL    HW127050   3.735   3.312   3.162
 8717SOL    HW227051   3.838   3.188   3.134
 8718SOL     OW27052   0.660   3.570   5.588
 8718SOL    HW127053   0.576   3.539   5.544
 8718SOL    HW227054   0.686   3.504   5.659
 8719SOL     OW27055   1.967   6.684   6.299
 8719SOL    HW127056   1.939   6.758   6.237
 8719SOL    HW227057   1.909   6.604   6.284
 8720SOL     OW27058   6.795   5.034   5.769
 8720SOL    HW127059   6.729   5.093   5.817
 8720SOL    HW227060   6.771   4.938   5.783
 8721SOL     OW27061   5.909   2.242   3.911
 8721SOL    HW127062   5.860   2.165   3.953
 8721SOL    HW227063   5.995   2.210   3.873
 8722SOL     OW27064   3.887   0.581   0.431
 8722SOL    HW127065   3.958   0.639   0.390
 8722SOL    HW227066   3.828   0.545   0.360
 8723SOL     OW27067   5.376   5.810   1.158
 8723SOL    HW127068   5.347   5.901   1.190
 8723SOL    HW227069   5.419   5.761   1.234
 8724SOL     OW27070   6.077   0.130   5.331
 8724SOL    HW127071   6.020   0.208   5.307
 8724SOL    HW227072   6.167   0.141   5.290
 8725SOL     OW27073   2.577   6.955   6.396
 8725SOL    HW127074   2.550   6.867   6.357
 8725SOL    HW227075   2.511   0.004   6.367
 8726SOL     OW27076   6.810   0.907   1.782
 8726SOL    HW127077   6.836   0.995   1.742
 8726SOL    HW227078   6.782   0.844   1.710
 8727SOL     OW27079   0.201   6.437   2.039
 8727SOL    HW127080   0.237   6.368   1.976
 8727SOL    HW227081   0.247   6.524   2.021
 8728SOL     OW27082   3.863   0.015   4.551
 8728SOL    HW127083   3.925   6.961   4.575
 8728SOL    HW227084   3.769   7.009   4.571
 8729SOL     OW27085   4.527   6.123   3.308
 8729SOL    HW127086   4.430   6.097   3.314
 8729SOL    HW227087   4.568   6.081   3.227
 8730SOL     OW27088   6.541   4.392   2.369
 8730SOL    HW127089   6.461   4.380   2.427
 8730SOL    HW227090   6.604   4.457   2.412
 8731SOL     OW27091   2.158   1.673   2.747
 8731SOL    HW127092   2.070   1.714   2.768
 8731SOL    HW227093   2.149   1.611   2.669
 8732SOL     OW27094   4.962   4.198   1.485
 8732SOL    HW127095   5.012   4.284   1.479
 8732SOL    HW227096   4.976   4.157   1.575
 8733SOL     OW27097   1.326   5.684   3.262
 8733SOL    HW127098   1.357   5.764   3.313
 8733SOL    HW227099   1.226   5.682   3.261
 8734SOL     OW27100   0.988   4.817   1.627
 8734SOL    HW127101   0.964   4.722   1.648
 8734SOL    HW227102   0.919   4.857   1.568
 8735SOL     OW27103   0.639   1.806   6.798
 8735SOL    HW127104   0.653   1.808   6.699
 8735SOL    HW227105   0.727   1.798   6.845
 8736SOL     OW27106   0.469   6.503   6.831
 8736SOL    HW127107   0.456   6.435   6.759
 8736SOL    HW227108   0.565   6.530   6.835
 8737SOL     OW27109   2.738   0.032   5.947
 8737SOL    HW127110   2.794   0.023   5.864
 8737SOL    HW227111   2.775   6.994   6.019
 8738SOL     OW27112   2.094   4.535   3.622
 8738SOL    HW127113   2.066   4.459   3.680
 8738SOL    HW227114   2.064   4.622   3.662
 8739SOL     OW27115   6.567   5.180   5.871
 8739SOL    HW127116   6.496   5.242   5.839
 8739SOL    HW227117   6.633   5.231   5.927
 8740SOL     OW27118   4.989   0.919   5.297
 8740SOL    HW127119   4.946   0.881   5.379
 8740SOL    HW227120   4.973   1.018   5.294
 8741SOL     OW27121   2.586   0.918   2.105
 8741SOL    HW127122   2.593   0.974   2.187
 8741SOL    HW227123   2.566   0.977   2.026
 8742SOL     OW27124   5.717   6.228   1.558
 8742SOL    HW127125   5.766   6.217   1.472
 8742SOL    HW227126   5.761   6.300   1.612
 8743SOL     OW27127   2.136   6.627   2.738
 8743SOL    HW127128   2.191   6.627   2.654
 8743SOL    HW227129   2.044   6.594   2.717
 8744SOL     OW27130   3.882   2.716   5.936
 8744SOL    HW127131   3.881   2.633   5.880
 8744SOL    HW227132   3.937   2.786   5.890
 8745SOL     OW27133   6.126   2.551   5.849
 8745SOL    HW127134   6.199   2.553   5.780
 8745SOL    HW227135   6.149   2.484   5.919
 8746SOL     OW27136   4.517   4.226   5.293
 8746SOL    HW127137   4.590   4.159   5.288
 8746SOL    HW227138   4.434   4.183   5.329
 8747SOL     OW27139   0.215   3.201   2.895
 8747SOL    HW127140   0.169   3.133   2.952
 8747SOL    HW227141   0.259   3.154   2.818
 8748SOL     OW27142   0.147   1.592   5.644
 8748SOL    HW127143   0.167   1.495   5.660
 8748SOL    HW227144   0.048   1.604   5.630
 8749SOL     OW27145   2.993   0.257   5.657
 8749SOL    HW127146   3.084   0.260   5.615
 8749SOL    HW227147   3.002   0.241   5.755
 8750SOL     OW27148   2.938   3.171   5.103
 8750SOL    HW127149   2.996   3.109   5.050
 8750SOL    HW227150   2.995   3.228   5.162
 8751SOL     OW27151   6.319   0.231   2.436
 8751SOL    HW127152   6.344   0.262   2.527
 8751SOL    HW227153   6.351   0.297   2.368
 8752SOL     OW27154   2.983   4.257   6.896
 8752SOL    HW127155   3.052   4.252   6.824
 8752SOL    HW227156   3.009   4.326   6.963
 8753SOL     OW27157   4.731   1.829   4.920
 8753SOL    HW127158   4.786   1.894   4.972
 8753SOL    HW227159   4.658   1.793   4.979
 8754SOL     OW27160   1.553   1.948   5.649
 8754SOL    HW127161   1.526   1.878   5.582
 8754SOL    HW227162   1.606   1.905   5.722
 8755SOL     OW27163   2.193   0.986   6.501
 8755SOL    HW127164   2.167   0.949   6.412
 8755SOL    HW227165   2.229   1.078   6.489
 8756SOL     OW27166   2.101   3.867   2.809
 8756SOL    HW127167   2.129   3.963   2.817
 8756SOL    HW227168   2.117   3.836   2.716
 8757SOL     OW27169   5.498   6.773   5.564
 8757SOL    HW127170   5.437   6.753   5.487
 8757SOL    HW227171   5.461   6.733   5.647
 8758SOL     OW27172   4.706   6.200   1.885
 8758SOL    HW127173   4.731   6.103   1.881
 8758SOL    HW227174   4.649   6.216   1.965
 8759SOL     OW27175   4.195   2.352   6.530
 8759SOL    HW127176   4.133   2.431   6.532
 8759SOL    HW227177   4.141   2.268   6.526
 8760SOL     OW27178   2.129   1.717   5.156
 8760SOL    HW127179   2.030   1.723   5.158
 8760SOL    HW227180   2.166   1.732   5.247
 8761SOL     OW27181   3.834   0.816   1.628
 8761SOL    HW127182   3.827   0.717   1.635
 8761SOL    HW227183   3.911   0.849   1.682
 8762SOL     OW27184   0.618   3.929   3.100
 8762SOL    HW127185   0.703   3.980   3.092
 8762SOL    HW227186   0.619   3.852   3.037
 8763SOL     OW27187   6.048   5.673   5.143
 8763SOL    HW127188   5.980   5.692   5.072
 8763SOL    HW227189   6.096   5.758   5.166
 8764SOL     OW27190   5.055   0.679   4.439
 8764SOL    HW127191   4.977   0.626   4.407
 8764SOL    HW227192   5.030   0.775   4.446
 8765SOL     OW27193   6.343   0.142   4.934
 8765SOL    HW127194   6.414   0.206   4.907
 8765SOL    HW227195   6.385   0.063   4.978
 8766SOL     OW27196   3.958   5.149   2.801
 8766SOL    HW127197   3.895   5.078   2.771
 8766SOL    HW227198   3.907   5.232   2.823
 8767SOL     OW27199   4.120   0.185   3.085
 8767SOL    HW127200   4.102   0.086   3.086
 8767SOL    HW227201   4.218   0.201   3.088
 8768SOL     OW27202   1.122   2.915   0.353
 8768SOL    HW127203   1.204   2.935   0.408
 8768SOL    HW227204   1.136   2.949   0.260
 8769SOL     OW27205   1.198   0.131   4.437
 8769SOL    HW127206   1.271   0.114   4.371
 8769SOL    HW227207   1.157   0.221   4.419
 8770SOL     OW27208   4.904   4.415   2.000
 8770SOL    HW127209   4.998   4.384   1.987
 8770SOL    HW227210   4.898   4.513   1.981
 8771SOL     OW27211   1.163   0.239   5.473
 8771SOL    HW127212   1.208   0.241   5.562
 8771SOL    HW227213   1.091   0.170   5.474
 8772SOL     OW27214   6.065   6.705   0.210
 8772SOL    HW127215   6.066   6.606   0.227
 8772SOL    HW227216   6.152   6.733   0.170
 8773SOL     OW27217   4.815   1.794   3.414
 8773SOL    HW127218   4.853   1.784   3.506
 8773SOL    HW227219   4.817   1.706   3.368
 8774SOL     OW27220   2.611   1.644   0.378
 8774SOL    HW127221   2.512   1.648   0.368
 8774SOL    HW227222   2.642   1.550   0.363
 8775SOL     OW27223   6.268   0.408   4.770
 8775SOL    HW127224   6.220   0.323   4.748
 8775SOL    HW227225   6.248   0.477   4.699
 8776SOL     OW27226   2.958   3.401   4.730
 8776SOL    HW127227   2.932   3.405   4.827
 8776SOL    HW227228   2.961   3.494   4.693
 8777SOL     OW27229   0.268   4.267   1.047
 8777SOL    HW127230   0.340   4.330   1.078
 8777SOL    HW227231   0.192   4.320   1.010
 8778SOL     OW27232   6.403   2.569   4.561
 8778SOL    HW127233   6.414   2.516   4.646
 8778SOL    HW227234   6.414   2.666   4.581
 8779SOL     OW27235   2.237   5.195   1.868
 8779SOL    HW127236   2.304   5.200   1.794
 8779SOL    HW227237   2.284   5.165   1.952
 8780SOL     OW27238   1.249   5.720   3.650
 8780SOL    HW127239   1.257   5.785   3.574
 8780SOL    HW227240   1.279   5.630   3.620
 8781SOL     OW27241   6.461   2.355   4.331
 8781SOL    HW127242   6.374   2.311   4.354
 8781SOL    HW227243   6.484   2.421   4.402
 8782SOL     OW27244   5.378   0.635   1.865
 8782SOL    HW127245   5.424   0.548   1.845
 8782SOL    HW227246   5.405   0.703   1.798
 8783SOL     OW27247   6.059   3.491   3.601
 8783SOL    HW127248   6.095   3.399   3.588
 8783SOL    HW227249   6.093   3.529   3.687
 8784SOL     OW27250   5.207   4.052   4.713
 8784SOL    HW127251   5.231   4.148   4.729
 8784SOL    HW227252   5.122   4.048   4.660
 8785SOL     OW27253   6.272   3.546   0.001
 8785SOL    HW127254   6.276   3.471   6.956
 8785SOL    HW227255   6.225   3.624   6.982
 8786SOL     OW27256   2.580   6.180   0.125
 8786SOL    HW127257   2.665   6.232   0.118
 8786SOL    HW227258   2.589   6.112   0.198
 8787SOL     OW27259   1.738   2.788   2.064
 8787SOL    HW127260   1.789   2.723   2.121
 8787SOL    HW227261   1.740   2.878   2.107
 8788SOL     OW27262   6.733   2.044   5.626
 8788SOL    HW127263   6.673   1.969   5.654
 8788SOL    HW227264   6.682   2.106   5.566
 8789SOL     OW27265   6.238   6.919   5.593
 8789SOL    HW127266   6.155   6.903   5.646
 8789SOL    HW227267   6.318   6.900   5.649
 8790SOL     OW27268   6.943   1.064   0.265
 8790SOL    HW127269   6.958   1.118   0.182
 8790SOL    HW227270   6.858   1.094   0.309
 8791SOL     OW27271   5.480   6.821   5.060
 8791SOL    HW127272   5.478   6.848   4.964
 8791SOL    HW227273   5.452   6.899   5.117
 8792SOL     OW27274   4.037   6.254   2.926
 8792SOL    HW127275   4.067   6.227   3.018
 8792SOL    HW227276   3.967   6.324   2.934
 8793SOL     OW27277   1.806   5.426   3.801
 8793SOL    HW127278   1.897   5.414   3.762
 8793SOL    HW227279   1.761   5.505   3.757
 8794SOL     OW27280   3.832   6.595   1.878
 8794SOL    HW127281   3.737   6.563   1.874
 8794SOL    HW227282   3.885   6.537   1.939
 8795SOL     OW27283   1.572   6.537   5.042
 8795SOL    HW127284   1.511   6.459   5.051
 8795SOL    HW227285   1.633   6.541   5.122
 8796SOL     OW27286   3.974   0.424   5.338
 8796SOL    HW127287   3.992   0.510   5.291
 8796SOL    HW227288   3.932   0.442   5.427
 8797SOL     OW27289   0.970   6.918   5.178
 8797SOL    HW127290   1.013   7.004   5.152
 8797SOL    HW227291   0.994   6.847   5.113
 8798SOL     OW27292   5.281   4.519   5.162
 8798SOL    HW127293   5.371   4.506   5.120
 8798SOL    HW227294   5.276   4.611   5.202
 8799SOL     OW27295   2.039   4.644   3.127
 8799SOL    HW127296   2.138   4.638   3.115
 8799SOL    HW227297   2.013   4.597   3.211
 8800SOL     OW27298   6.050   3.870   4.900
 8800SOL    HW127299   6.122   3.939   4.912
 8800SOL    HW227300   6.006   3.883   4.812
 8801SOL     OW27301   1.539   1.490   4.569
 8801SOL    HW127302   1.497   1.428   4.503
 8801SOL    HW227303   1.584   1.565   4.519
 8802SOL     OW27304   1.201   0.524   0.742
 8802SOL    HW127305   1.106   0.537   0.770
 8802SOL    HW227306   1.213   0.431   0.706
 8803SOL     OW27307   1.534   5.088   5.897
 8803SOL    HW127308   1.590   5.156   5.945
 8803SOL    HW227309   1.475   5.042   5.963
 8804SOL     OW27310   2.925   0.639   2.137
 8804SOL    HW127311   2.856   0.604   2.200
 8804SOL    HW227312   2.963   0.563   2.084
 8805SOL     OW27313   2.783   0.610   3.806
 8805SOL    HW127314   2.852   0.539   3.817
 8805SOL    HW227315   2.692   0.569   3.807
 8806SOL     OW27316   1.489   5.252   1.889
 8806SOL    HW127317   1.569   5.297   1.927
 8806SOL    HW227318   1.409   5.271   1.946
 8807SOL     OW27319   6.475   6.126   5.981
 8807SOL    HW127320   6.511   6.209   6.023
 8807SOL    HW227321   6.551   6.063   5.961
 8808SOL     OW27322   5.435   1.856   0.984
 8808SOL    HW127323   5.485   1.906   0.913
 8808SOL    HW227324   5.342   1.836   0.952
 8809SOL     OW27325   5.393   4.151   2.588
 8809SOL    HW127326   5.401   4.087   2.664
 8809SOL    HW227327   5.321   4.217   2.607
 8810SOL     OW27328   5.557   1.658   5.931
 8810SOL    HW127329   5.513   1.579   5.889
 8810SOL    HW227330   5.565   1.643   6.030
 8811SOL     OW27331   3.108   1.897   3.933
 8811SOL    HW127332   3.100   1.941   3.844
 8811SOL    HW227333   3.203   1.870   3.949
 8812SOL     OW27334   1.350   0.714   0.612
 8812SOL    HW127335   1.312   0.623   0.628
 8812SOL    HW227336   1.413   0.710   0.534
 8813SOL     OW27337   1.084   4.790   1.281
 8813SOL    HW127338   1.127   4.848   1.350
 8813SOL    HW227339   1.012   4.735   1.325
 8814SOL     OW27340   6.534   0.742   0.769
 8814SOL    HW127341   6.492   0.831   0.784
 8814SOL    HW227342   6.615   0.752   0.711
 8815SOL     OW27343   6.678   6.404   0.794
 8815SOL    HW127344   6.745   6.336   0.824
 8815SOL    HW227345   6.591   6.387   0.839
 8816SOL     OW27346   2.160   0.346   0.342
 8816SOL    HW127347   2.114   0.435   0.341
 8816SOL    HW227348   2.155   0.306   0.250
 8817SOL     OW27349   0.522   6.020   5.993
 8817SOL    HW127350   0.481   5.934   6.024
 8817SOL    HW227351   0.584   6.002   5.917
 8818SOL     OW27352   0.423   3.420   3.502
 8818SOL    HW127353   0.385   3.507   3.471
 8818SOL    HW227354   0.415   3.414   3.602
 8819SOL     OW27355   4.317   5.515   4.021
 8819SOL    HW127356   4.232   5.544   3.977
 8819SOL    HW227357   4.333   5.572   4.102
 8820SOL     OW27358   2.466   1.786   4.197
 8820SOL    HW127359   2.520   1.753   4.274
 8820SOL    HW227360   2.489   1.881   4.178
 8821SOL     OW27361   1.880   6.151   0.503
 8821SOL    HW127362   1.782   6.137   0.488
 8821SOL    HW227363   1.922   6.064   0.528
 8822SOL     OW27364   1.081   0.396   3.087
 8822SOL    HW127365   1.004   0.383   3.151
 8822SOL    HW227366   1.048   0.383   2.993
 8823SOL     OW27367   2.160   0.802   0.850
 8823SOL    HW127368   2.131   0.712   0.816
 8823SOL    HW227369   2.108   0.824   0.932
 8824SOL     OW27370   1.658   3.839   1.067
 8824SOL    HW127371   1.617   3.836   0.976
 8824SOL    HW227372   1.587   3.846   1.136
 8825SOL     OW27373   1.690   0.764   3.567
 8825SOL    HW127374   1.723   0.699   3.636
 8825SOL    HW227375   1.643   0.840   3.612
 8826SOL     OW27376   6.438   2.327   0.580
 8826SOL    HW127377   6.352   2.281   0.560
 8826SOL    HW227378   6.429   2.380   0.664
 8827SOL     OW27379   3.400   1.813   3.108
 8827SOL    HW127380   3.380   1.742   3.176
 8827SOL    HW227381   3.367   1.901   3.141
 8828SOL     OW27382   4.635   5.483   4.424
 8828SOL    HW127383   4.656   5.410   4.358
 8828SOL    HW227384   4.701   5.557   4.412
 8829SOL     OW27385   0.186   2.559   0.039
 8829SOL    HW127386   0.127   2.577   0.118
 8829SOL    HW227387   0.243   2.479   0.057
 8830SOL     OW27388   0.458   1.268   1.143
 8830SOL    HW127389   0.538   1.232   1.095
 8830SOL    HW227390   0.454   1.367   1.131
 8831SOL     OW27391   5.454   1.256   3.618
 8831SOL    HW127392   5.376   1.316   3.635
 8831SOL    HW227393   5.440   1.206   3.532
 8832SOL     OW27394   6.171   6.134   2.857
 8832SOL    HW127395   6.124   6.212   2.899
 8832SOL    HW227396   6.218   6.081   2.928
 8833SOL     OW27397   2.015   6.469   5.496
 8833SOL    HW127398   2.044   6.374   5.509
 8833SOL    HW227399   2.096   6.526   5.481
 8834SOL     OW27400   5.574   3.831   4.423
 8834SOL    HW127401   5.594   3.755   4.486
 8834SOL    HW227402   5.492   3.880   4.455
 8835SOL     OW27403   6.363   1.040   6.002
 8835SOL    HW127404   6.435   0.998   5.947
 8835SOL    HW227405   6.310   1.103   5.946
 8836SOL     OW27406   4.537   1.247   6.834
 8836SOL    HW127407   4.470   1.246   6.909
 8836SOL    HW227408   4.598   1.326   6.845
 8837SOL     OW27409   0.379   6.727   2.659
 8837SOL    HW127410   0.449   6.794   2.636
 8837SOL    HW227411   0.422   6.648   2.704
 8838SOL     OW27412   3.101   4.920   3.180
 8838SOL    HW127413   3.160   4.892   3.104
 8838SOL    HW227414   3.036   4.989   3.149
 8839SOL     OW27415   5.152   5.577   2.239
 8839SOL    HW127416   5.208   5.631   2.176
 8839SOL    HW227417   5.125   5.492   2.195
 8840SOL     OW27418   6.405   2.200   1.999
 8840SOL    HW127419   6.381   2.293   2.027
 8840SOL    HW227420   6.484   2.168   2.052
 8841SOL     OW27421   1.609   0.926   4.719
 8841SOL    HW127422   1.699   0.968   4.729
 8841SOL    HW227423   1.599   0.852   4.786
 8842SOL     OW27424   3.567   2.954   0.647
 8842SOL    HW127425   3.472   2.953   0.616
 8842SOL    HW227426   3.584   3.039   0.698
 8843SOL     OW27427   1.848   3.290   4.969
 8843SOL    HW127428   1.826   3.280   4.872
 8843SOL    HW227429   1.939   3.330   4.979
 8844SOL     OW27430   5.354   1.222   0.544
 8844SOL    HW127431   5.388   1.299   0.490
 8844SOL    HW227432   5.417   1.145   0.537
 8845SOL     OW27433   4.531   4.407   6.844
 8845SOL    HW127434   4.482   4.493   6.859
 8845SOL    HW227435   4.471   4.343   6.795
 8846SOL     OW27436   2.177   5.717   3.803
 8846SOL    HW127437   2.245   5.644   3.794
 8846SOL    HW227438   2.145   5.721   3.898
 8847SOL     OW27439   2.758   0.730   2.795
 8847SOL    HW127440   2.750   0.771   2.703
 8847SOL    HW227441   2.753   0.802   2.864
 8848SOL     OW27442   2.645   0.789   1.548
 8848SOL    HW127443   2.563   0.802   1.603
 8848SOL    HW227444   2.620   0.755   1.458
 8849SOL     OW27445   2.949   6.275   3.087
 8849SOL    HW127446   2.931   6.278   3.185
 8849SOL    HW227447   2.901   6.350   3.042
 8850SOL     OW27448   1.221   1.817   0.290
 8850SOL    HW127449   1.183   1.737   0.337
 8850SOL    HW227450   1.250   1.791   0.198
 8851SOL     OW27451   1.761   4.340   2.014
 8851SOL    HW127452   1.763   4.353   2.113
 8851SOL    HW227453   1.758   4.242   1.993
 8852SOL     OW27454   0.656   1.581   5.208
 8852SOL    HW127455   0.622   1.533   5.289
 8852SOL    HW227456   0.754   1.566   5.199
 8853SOL     OW27457   2.718   0.972   1.853
 8853SOL    HW127458   2.747   0.964   1.758
 8853SOL    HW227459   2.728   0.883   1.898
 8854SOL     OW27460   1.896   2.971   4.522
 8854SOL    HW127461   1.995   2.984   4.519
 8854SOL    HW227462   1.856   3.034   4.589
 8855SOL     OW27463   6.357   5.069   1.337
 8855SOL    HW127464   6.377   5.137   1.267
 8855SOL    HW227465   6.336   5.116   1.423
 8856SOL     OW27466   6.899   6.199   6.667
 8856SOL    HW127467   6.979   6.206   6.726
 8856SOL    HW227468   6.917   6.134   6.593
 8857SOL     OW27469   6.883   1.877   4.921
 8857SOL    HW127470   6.798   1.834   4.948
 8857SOL    HW227471   6.960   1.816   4.940
 8858SOL     OW27472   0.395   5.059   4.619
 8858SOL    HW127473   0.347   4.985   4.573
 8858SOL    HW227474   0.337   5.096   4.692
 8859SOL     OW27475   1.044   1.040   3.945
 8859SOL    HW127476   0.988   1.109   3.898
 8859SOL    HW227477   0.986   0.962   3.969
 8860SOL     OW27478   6.835   2.616   1.641
 8860SOL    HW127479   6.765   2.546   1.632
 8860SOL    HW227480   6.856   2.654   1.551
 8861SOL     OW27481   3.868   1.063   0.014
 8861SOL    HW127482   3.793   1.000   0.032
 8861SOL    HW227483   3.931   1.063   0.092
 8862SOL     OW27484   5.321   6.463   3.667
 8862SOL    HW127485   5.311   6.378   3.719
 8862SOL    HW227486   5.240   6.520   3.682
 8863SOL     OW27487   1.832   5.162   3.342
 8863SOL    HW127488   1.884   5.146   3.259
 8863SOL    HW227489   1.853   5.091   3.409
 8864SOL     OW27490   4.363   4.187   6.724
 8864SOL    HW127491   4.443   4.180   6.665
 8864SOL    HW227492   4.285   4.220   6.671
 8865SOL     OW27493   3.336   0.937   5.512
 8865SOL    HW127494   3.375   0.974   5.428
 8865SOL    HW227495   3.321   0.839   5.502
 8866SOL     OW27496   5.059   6.979   3.106
 8866SOL    HW127497   5.147   6.944   3.072
 8866SOL    HW227498   5.075   0.012   3.188
 8867SOL     OW27499   6.348   4.094   3.791
 8867SOL    HW127500   6.296   4.026   3.843
 8867SOL    HW227501   6.286   4.153   3.740
 8868SOL     OW27502   6.606   3.583   2.480
 8868SOL    HW127503   6.594   3.647   2.556
 8868SOL    HW227504   6.527   3.521   2.476
 8869SOL     OW27505   3.813   6.052   5.181
 8869SOL    HW127506   3.737   6.116   5.174
 8869SOL    HW227507   3.899   6.103   5.186
 8870SOL     OW27508   1.947   6.481   1.586
 8870SOL    HW127509   1.865   6.430   1.562
 8870SOL    HW227510   1.943   6.506   1.683
 8871SOL     OW27511   2.053   1.177   3.309
 8871SOL    HW127512   1.983   1.125   3.261
 8871SOL    HW227513   2.056   1.270   3.272
 8872SOL     OW27514   1.044   4.942   6.373
 8872SOL    HW127515   1.075   4.988   6.456
 8872SOL    HW227516   1.027   5.009   6.301
 8873SOL     OW27517   1.564   0.122   1.493
 8873SOL    HW127518   1.596   0.216   1.508
 8873SOL    HW227519   1.572   0.071   1.579
 8874SOL     OW27520   1.256   5.977   2.143
 8874SOL    HW127521   1.241   6.052   2.079
 8874SOL    HW227522   1.216   5.999   2.232
 8875SOL     OW27523   0.085   3.542   4.066
 8875SOL    HW127524   7.015   3.511   4.039
 8875SOL    HW227525   0.079   3.590   4.153
 8876SOL     OW27526   2.689   0.671   6.847
 8876SOL    HW127527   2.657   0.744   6.786
 8876SOL    HW227528   2.610   0.630   6.893
 8877SOL     OW27529   1.530   3.686   2.859
 8877SOL    HW127530   1.514   3.783   2.841
 8877SOL    HW227531   1.628   3.666   2.852
 8878SOL     OW27532   3.681   4.963   0.674
 8878SOL    HW127533   3.635   4.983   0.760
 8878SOL    HW227534   3.622   4.904   0.618
 8879SOL     OW27535   6.175   4.786   2.149
 8879SOL    HW127536   6.181   4.734   2.063
 8879SOL    HW227537   6.267   4.815   2.176
 8880SOL     OW27538   4.137   6.160   4.397
 8880SOL    HW127539   4.223   6.142   4.446
 8880SOL    HW227540   4.092   6.240   4.438
 8881SOL     OW27541   4.992   5.205   4.549
 8881SOL    HW127542   4.941   5.148   4.485
 8881SOL    HW227543   5.032   5.283   4.500
 8882SOL     OW27544   3.480   0.670   0.635
 8882SOL    HW127545   3.524   0.580   0.630
 8882SOL    HW227546   3.547   0.741   0.614
 8883SOL     OW27547   0.944   5.932   6.099
 8883SOL    HW127548   0.852   5.906   6.129
 8883SOL    HW227549   0.937   6.007   6.033
 8884SOL     OW27550   6.237   4.009   5.235
 8884SOL    HW127551   6.193   3.942   5.295
 8884SOL    HW227552   6.177   4.087   5.221
 8885SOL     OW27553   5.224   4.875   0.300
 8885SOL    HW127554   5.130   4.909   0.311
 8885SOL    HW227555   5.275   4.891   0.384
 8886SOL     OW27556   3.883   5.634   6.209
 8886SOL    HW127557   3.949   5.570   6.247
 8886SOL    HW227558   3.825   5.670   6.282
 8887SOL     OW27559   3.879   1.443   1.005
 8887SOL    HW127560   3.945   1.517   0.992
 8887SOL    HW227561   3.891   1.375   0.932
 8888SOL     OW27562   2.525   2.209   3.679
 8888SOL    HW127563   2.606   2.220   3.737
 8888SOL    HW227564   2.513   2.112   3.657
 8889SOL     OW27565   6.593   6.349   6.136
 8889SOL    HW127566   6.666   6.313   6.078
 8889SOL    HW227567   6.605   6.448   6.146
 8890SOL     OW27568   0.693   6.253   6.725
 8890SOL    HW127569   0.751   6.173   6.709
 8890SOL    HW227570   0.634   6.268   6.646
 8891SOL     OW27571   4.272   4.049   0.080
 8891SOL    HW127572   4.362   4.047   0.034
 8891SOL    HW227573   4.286   4.052   0.179
 8892SOL     OW27574   3.946   4.897   3.445
 8892SOL    HW127575   3.958   4.940   3.356
 8892SOL    HW227576   3.921   4.966   3.513
 8893SOL     OW27577   1.609   5.985   5.308
 8893SOL    HW127578   1.654   5.896   5.296
 8893SOL    HW227579   1.532   5.976   5.371
 8894SOL     OW27580   4.005   1.823   0.226
 8894SOL    HW127581   4.102   1.829   0.206
 8894SOL    HW227582   3.958   1.776   0.151
 8895SOL     OW27583   0.698   2.618   0.831
 8895SOL    HW127584   0.771   2.662   0.885
 8895SOL    HW227585   0.611   2.664   0.849
 8896SOL     OW27586   1.925   2.736   4.961
 8896SOL    HW127587   1.987   2.660   4.981
 8896SOL    HW227588   1.840   2.701   4.921
 8897SOL     OW27589   2.087   3.901   3.468
 8897SOL    HW127590   2.124   3.829   3.409
 8897SOL    HW227591   2.006   3.942   3.425
 8898SOL     OW27592   5.741   3.879   2.121
 8898SOL    HW127593   5.781   3.851   2.209
 8898SOL    HW227594   5.757   3.808   2.053
 8899SOL     OW27595   0.026   4.574   6.719
 8899SOL    HW127596   0.093   4.510   6.681
 8899SOL    HW227597   6.994   4.528   6.790
 8900SOL     OW27598   5.707   2.441   3.401
 8900SOL    HW127599   5.796   2.487   3.404
 8900SOL    HW227600   5.696   2.383   3.482
 8901SOL     OW27601   1.042   1.570   3.531
 8901SOL    HW127602   1.078   1.502   3.467
 8901SOL    HW227603   1.118   1.613   3.580
 8902SOL     OW27604   1.733   5.436   6.570
 8902SOL    HW127605   1.672   5.515   6.560
 8902SOL    HW227606   1.826   5.463   6.544
 8903SOL     OW27607   1.228   2.107   4.727
 8903SOL    HW127608   1.291   2.153   4.790
 8903SOL    HW227609   1.279   2.068   4.651
 8904SOL     OW27610   1.122   2.273   3.291
 8904SOL    HW127611   1.188   2.258   3.217
 8904SOL    HW227612   1.029   2.257   3.256
 8905SOL     OW27613   1.680   3.341   2.556
 8905SOL    HW127614   1.656   3.370   2.649
 8905SOL    HW227615   1.643   3.407   2.490
 8906SOL     OW27616   1.368   6.094   1.059
 8906SOL    HW127617   1.404   6.038   1.133
 8906SOL    HW227618   1.298   6.156   1.095
 8907SOL     OW27619   2.788   2.595   5.332
 8907SOL    HW127620   2.845   2.675   5.313
 8907SOL    HW227621   2.820   2.518   5.277
 8908SOL     OW27622   1.751   4.760   0.040
 8908SOL    HW127623   1.760   4.829   0.112
 8908SOL    HW227624   1.804   4.787   6.981
 8909SOL     OW27625   2.908   1.009   6.396
 8909SOL    HW127626   2.955   0.950   6.461
 8909SOL    HW227627   2.965   1.022   6.315
 8910SOL     OW27628   0.256   3.210   5.211
 8910SOL    HW127629   0.326   3.150   5.173
 8910SOL    HW227630   0.201   3.159   5.278
 8911SOL     OW27631   5.514   3.081   4.680
 8911SOL    HW127632   5.578   3.140   4.728
 8911SOL    HW227633   5.562   3.002   4.642
 8912SOL     OW27634   3.107   3.072   6.174
 8912SOL    HW127635   3.116   3.128   6.256
 8912SOL    HW227636   3.151   2.984   6.189
 8913SOL     OW27637   4.638   5.119   6.806
 8913SOL    HW127638   4.596   5.094   6.719
 8913SOL    HW227639   4.579   5.183   6.854
 8914SOL     OW27640   4.893   6.951   4.713
 8914SOL    HW127641   4.806   6.902   4.720
 8914SOL    HW227642   4.942   6.945   4.800
 8915SOL     OW27643   1.399   1.978   4.514
 8915SOL    HW127644   1.439   1.943   4.598
 8915SOL    HW227645   1.466   1.972   4.440
 8916SOL     OW27646   6.167   2.296   6.729
 8916SOL    HW127647   6.112   2.240   6.668
 8916SOL    HW227648   6.230   2.352   6.675
 8917SOL     OW27649   5.516   2.245   0.699
 8917SOL    HW127650   5.587   2.256   0.631
 8917SOL    HW227651   5.426   2.254   0.656
 8918SOL     OW27652   1.572   5.417   0.769
 8918SOL    HW127653   1.527   5.459   0.847
 8918SOL    HW227654   1.621   5.335   0.799
 8919SOL     OW27655   5.269   4.641   6.426
 8919SOL    HW127656   5.290   4.616   6.331
 8919SOL    HW227657   5.170   4.646   6.438
 8920SOL     OW27658   0.749   2.110   6.573
 8920SOL    HW127659   0.832   2.059   6.555
 8920SOL    HW227660   0.768   2.208   6.568
 8921SOL     OW27661   1.689   2.640   1.541
 8921SOL    HW127662   1.603   2.590   1.551
 8921SOL    HW227663   1.704   2.697   1.621
 8922SOL     OW27664   3.964   6.472   2.084
 8922SOL    HW127665   3.888   6.480   2.149
 8922SOL    HW227666   4.019   6.392   2.107
 8923SOL     OW27667   1.261   1.471   5.348
 8923SOL    HW127668   1.236   1.559   5.390
 8923SOL    HW227669   1.347   1.482   5.299
 8924SOL     OW27670   5.200   5.295   5.115
 8924SOL    HW127671   5.108   5.277   5.082
 8924SOL    HW227672   5.206   5.389   5.150
 8925SOL     OW27673   6.722   6.976   2.399
 8925SOL    HW127674   6.659   6.938   2.332
 8925SOL    HW227675   6.813   6.984   2.359
 8926SOL     OW27676   6.468   3.453   5.262
 8926SOL    HW127677   6.448   3.550   5.247
 8926SOL    HW227678   6.558   3.444   5.305
 8927SOL     OW27679   6.657   1.751   4.963
 8927SOL    HW127680   6.593   1.690   5.011
 8927SOL    HW227681   6.698   1.702   4.886
 8928SOL     OW27682   1.267   6.964   6.216
 8928SOL    HW127683   1.332   6.988   6.144
 8928SOL    HW227684   1.306   6.893   6.275
 8929SOL     OW27685   6.627   2.102   5.086
 8929SOL    HW127686   6.557   2.086   5.016
 8929SOL    HW227687   6.588   2.083   5.177
 8930SOL     OW27688   0.621   3.185   3.211
 8930SOL    HW127689   0.590   3.209   3.119
 8930SOL    HW227690   0.542   3.178   3.272
 8931SOL     OW27691   3.001   3.026   1.705
 8931SOL    HW127692   2.921   3.085   1.717
 8931SOL    HW227693   3.074   3.055   1.767
 8932SOL     OW27694   6.837   2.265   2.420
 8932SOL    HW127695   6.748   2.239   2.456
 8932SOL    HW227696   6.877   2.187   2.372
 8933SOL     OW27697   2.975   2.454   6.615
 8933SOL    HW127698   3.011   2.538   6.655
 8933SOL    HW227699   2.881   2.469   6.585
 8934SOL     OW27700   3.685   5.075   5.085
 8934SOL    HW127701   3.714   5.152   5.141
 8934SOL    HW227702   3.676   4.993   5.142
 8935SOL     OW27703   0.154   4.505   0.283
 8935SOL    HW127704   0.084   4.576   0.275
 8935SOL    HW227705   0.214   4.509   0.203
 8936SOL     OW27706   1.487   3.843   0.459
 8936SOL    HW127707   1.462   3.772   0.393
 8936SOL    HW227708   1.539   3.915   0.413
 8937SOL     OW27709   0.519   0.013   4.801
 8937SOL    HW127710   0.477   0.060   4.724
 8937SOL    HW227711   0.616   0.037   4.806
 8938SOL     OW27712   0.411   5.401   0.710
 8938SOL    HW127713   0.480   5.333   0.685
 8938SOL    HW227714   0.393   5.461   0.632
 8939SOL     OW27715   4.846   2.754   4.192
 8939SOL    HW127716   4.896   2.833   4.230
 8939SOL    HW227717   4.849   2.758   4.093
 8940SOL     OW27718   0.204   1.165   3.975
 8940SOL    HW127719   0.205   1.074   3.933
 8940SOL    HW227720   0.126   1.217   3.941
 8941SOL     OW27721   5.500   2.635   5.346
 8941SOL    HW127722   5.545   2.618   5.259
 8941SOL    HW227723   5.422   2.573   5.356
 8942SOL     OW27724   1.024   4.189   5.334
 8942SOL    HW127725   1.052   4.132   5.411
 8942SOL    HW227726   0.924   4.200   5.335
 8943SOL     OW27727   3.782   3.874   0.245
 8943SOL    HW127728   3.833   3.959   0.258
 8943SOL    HW227729   3.836   3.810   0.190
 8944SOL     OW27730   5.051   4.769   5.142
 8944SOL    HW127731   5.140   4.777   5.186
 8944SOL    HW227732   5.020   4.859   5.113
 8945SOL     OW27733   1.865   0.903   3.916
 8945SOL    HW127734   1.959   0.934   3.901
 8945SOL    HW227735   1.842   0.831   3.850
 8946SOL     OW27736   2.975   1.476   4.814
 8946SOL    HW127737   2.884   1.452   4.782
 8946SOL    HW227738   3.044   1.429   4.757
 8947SOL     OW27739   1.289   3.914   5.291
 8947SOL    HW127740   1.356   3.975   5.332
 8947SOL    HW227741   1.248   3.958   5.211
 8948SOL     OW27742   6.244   5.729   4.045
 8948SOL    HW127743   6.217   5.647   4.096
 8948SOL    HW227744   6.266   5.803   4.109
 8949SOL     OW27745   2.412   0.147   0.578
 8949SOL    HW127746   2.419   0.242   0.547
 8949SOL    HW227747   2.330   0.137   0.634
 8950SOL     OW27748   4.763   3.544   5.669
 8950SOL    HW127749   4.823   3.569   5.745
 8950SOL    HW227750   4.803   3.469   5.617
 8951SOL     OW27751   0.785   2.287   5.032
 8951SOL    HW127752   0.781   2.380   4.996
 8951SOL    HW227753   0.849   2.232   4.978
 8952SOL     OW27754   1.107   6.913   2.096
 8952SOL    HW127755   1.040   6.974   2.140
 8952SOL    HW227756   1.100   6.822   2.137
 8953SOL     OW27757   0.807   4.207   6.703
 8953SOL    HW127758   0.867   4.284   6.682
 8953SOL    HW227759   0.831   4.170   6.793
 8954SOL     OW27760   0.434   6.351   6.312
 8954SOL    HW127761   0.419   6.392   6.222
 8954SOL    HW227762   0.435   6.252   6.304
 8955SOL     OW27763   0.515   4.550   2.568
 8955SOL    HW127764   0.492   4.487   2.643
 8955SOL    HW227765   0.554   4.498   2.492
 8956SOL     OW27766   0.073   1.901   0.005
 8956SOL    HW127767   0.017   1.907   6.944
 8956SOL    HW227768   0.017   1.926   0.084
 8957SOL     OW27769   3.091   4.262   1.719
 8957SOL    HW127770   3.036   4.327   1.772
 8957SOL    HW227771   3.136   4.309   1.644
 8958SOL     OW27772   1.118   0.383   4.348
 8958SOL    HW127773   1.205   0.359   4.303
 8958SOL    HW227774   1.128   0.472   4.393
 8959SOL     OW27775   1.566   4.617   1.356
 8959SOL    HW127776   1.517   4.560   1.290
 8959SOL    HW227777   1.662   4.589   1.358
 8960SOL     OW27778   4.887   5.913   2.186
 8960SOL    HW127779   4.820   5.969   2.235
 8960SOL    HW227780   4.897   5.825   2.232
 8961SOL     OW27781   2.295   2.782   4.312
 8961SOL    HW127782   2.350   2.736   4.382
 8961SOL    HW227783   2.326   2.754   4.221
 8962SOL     OW27784   6.493   6.468   2.745
 8962SOL    HW127785   6.436   6.444   2.667
 8962SOL    HW227786   6.574   6.408   2.746
 8963SOL     OW27787   4.834   6.782   4.401
 8963SOL    HW127788   4.849   6.848   4.328
 8963SOL    HW227789   4.907   6.790   4.469
 8964SOL     OW27790   6.167   3.602   3.859
 8964SOL    HW127791   6.200   3.690   3.892
 8964SOL    HW227792   6.099   3.566   3.924
 8965SOL     OW27793   2.079   5.137   0.540
 8965SOL    HW127794   2.059   5.234   0.554
 8965SOL    HW227795   2.127   5.101   0.620
 8966SOL     OW27796   1.636   4.105   5.588
 8966SOL    HW127797   1.664   4.019   5.632
 8966SOL    HW227798   1.714   4.167   5.583
 8967SOL     OW27799   3.452   6.188   1.573
 8967SOL    HW127800   3.403   6.210   1.488
 8967SOL    HW227801   3.549   6.206   1.561
 8968SOL     OW27802   5.137   4.776   2.455
 8968SOL    HW127803   5.112   4.698   2.396
 8968SOL    HW227804   5.228   4.761   2.492
 8969SOL     OW27805   6.322   0.045   3.935
 8969SOL    HW127806   6.386   0.020   3.861
 8969SOL    HW227807   6.353   0.129   3.979
 8970SOL     OW27808   3.255   2.536   0.196
 8970SOL    HW127809   3.283   2.594   0.273
 8970SOL    HW227810   3.267   2.440   0.220
 8971SOL     OW27811   4.080   5.313   2.280
 8971SOL    HW127812   4.126   5.368   2.210
 8971SOL    HW227813   4.114   5.338   2.371
 8972SOL     OW27814   5.101   5.283   6.395
 8972SOL    HW127815   5.023   5.280   6.458
 8972SOL    HW227816   5.141   5.374   6.395
 8973SOL     OW27817   1.098   3.092   2.260
 8973SOL    HW127818   1.084   3.191   2.262
 8973SOL    HW227819   1.098   3.059   2.166
 8974SOL     OW27820   1.529   4.278   5.791
 8974SOL    HW127821   1.603   4.341   5.813
 8974SOL    HW227822   1.531   4.258   5.693
 8975SOL     OW27823   2.599   7.020   6.714
 8975SOL    HW127824   2.533   6.957   6.675
 8975SOL    HW227825   2.671   6.968   6.761
 8976SOL     OW27826   0.946   5.270   5.178
 8976SOL    HW127827   0.900   5.230   5.099
 8976SOL    HW227828   0.887   5.263   5.258
 8977SOL     OW27829   5.801   1.415   6.856
 8977SOL    HW127830   5.882   1.365   6.827
 8977SOL    HW227831   5.740   1.354   6.907
 8978SOL     OW27832   5.929   6.817   6.230
 8978SOL    HW127833   5.974   6.733   6.201
 8978SOL    HW227834   5.930   6.884   6.155
 8979SOL     OW27835   1.419   3.276   4.350
 8979SOL    HW127836   1.383   3.301   4.440
 8979SOL    HW227837   1.497   3.214   4.361
 8980SOL     OW27838   2.394   3.220   5.370
 8980SOL    HW127839   2.297   3.218   5.345
 8980SOL    HW227840   2.445   3.159   5.311
 8981SOL     OW27841   3.728   1.514   5.396
 8981SOL    HW127842   3.677   1.596   5.367
 8981SOL    HW227843   3.666   1.452   5.444
 8982SOL     OW27844   1.406   2.570   0.470
 8982SOL    HW127845   1.500   2.544   0.446
 8982SOL    HW227846   1.366   2.500   0.528
 8983SOL     OW27847   2.793   6.673   6.340
 8983SOL    HW127848   2.809   6.633   6.250
 8983SOL    HW227849   2.708   6.638   6.378
 8984SOL     OW27850   0.751   0.049   3.925
 8984SOL    HW127851   0.747   0.114   4.001
 8984SOL    HW227852   0.668   7.016   3.924
 8985SOL     OW27853   3.387   2.366   0.564
 8985SOL    HW127854   3.395   2.395   0.469
 8985SOL    HW227855   3.353   2.442   0.619
 8986SOL     OW27856   4.241   5.662   2.695
 8986SOL    HW127857   4.158   5.710   2.724
 8986SOL    HW227858   4.222   5.615   2.609
 8987SOL     OW27859   4.431   6.708   2.029
 8987SOL    HW127860   4.465   6.774   2.096
 8987SOL    HW227861   4.335   6.687   2.050
 8988SOL     OW27862   1.300   4.722   4.816
 8988SOL    HW127863   1.264   4.641   4.768
 8988SOL    HW227864   1.364   4.693   4.887
 8989SOL     OW27865   5.107   3.584   0.496
 8989SOL    HW127866   5.192   3.634   0.507
 8989SOL    HW227867   5.051   3.628   0.426
 8990SOL     OW27868   1.808   5.691   4.473
 8990SOL    HW127869   1.839   5.736   4.557
 8990SOL    HW227870   1.768   5.602   4.496
 8991SOL     OW27871   1.754   2.651   4.575
 8991SOL    HW127872   1.843   2.673   4.535
 8991SOL    HW227873   1.712   2.575   4.524
 8992SOL     OW27874   4.469   1.172   0.700
 8992SOL    HW127875   4.437   1.267   0.693
 8992SOL    HW227876   4.451   1.137   0.792
 8993SOL     OW27877   4.578   2.435   1.117
 8993SOL    HW127878   4.567   2.534   1.128
 8993SOL    HW227879   4.581   2.392   1.208
 8994SOL     OW27880   1.447   4.115   5.381
 8994SOL    HW127881   1.502   4.122   5.464
 8994SOL    HW227882   1.504   4.085   5.305
 8995SOL     OW27883   1.215   2.416   0.113
 8995SOL    HW127884   1.126   2.403   0.158
 8995SOL    HW227885   1.279   2.347   0.146
 8996SOL     OW27886   5.136   4.270   6.687
 8996SOL    HW127887   5.161   4.188   6.739
 8996SOL    HW227888   5.188   4.348   6.722
 8997SOL     OW27889   5.191   2.075   6.280
 8997SOL    HW127890   5.267   2.035   6.331
 8997SOL    HW227891   5.123   2.111   6.344
 8998SOL     OW27892   6.279   3.628   4.294
 8998SOL    HW127893   6.219   3.663   4.366
 8998SOL    HW227894   6.359   3.687   4.285
 8999SOL     OW27895   4.928   6.439   5.974
 8999SOL    HW127896   4.859   6.372   6.000
 8999SOL    HW227897   5.019   6.401   5.989
 9000SOL     OW27898   1.339   3.061   1.526
 9000SOL    HW127899   1.326   3.122   1.604
 9000SOL    HW227900   1.371   2.972   1.558
 9001SOL     OW27901   1.116   4.412   2.270
 9001SOL    HW127902   1.034   4.376   2.226
 9001SOL    HW227903   1.192   4.411   2.205
 9002SOL     OW27904   1.877   5.257   5.143
 9002SOL    HW127905   1.853   5.173   5.193
 9002SOL    HW227906   1.820   5.265   5.062
 9003SOL     OW27907   5.899   4.079   1.778
 9003SOL    HW127908   5.905   4.119   1.869
 9003SOL    HW227909   5.991   4.061   1.743
 9004SOL     OW27910   4.191   6.198   0.992
 9004SOL    HW127911   4.215   6.252   0.911
 9004SOL    HW227912   4.141   6.116   0.964
 9005SOL     OW27913   6.871   2.199   5.185
 9005SOL    HW127914   6.794   2.147   5.148
 9005SOL    HW227915   6.937   2.218   5.112
 9006SOL     OW27916   2.024   5.682   1.214
 9006SOL    HW127917   2.045   5.748   1.287
 9006SOL    HW227918   1.928   5.690   1.189
 9007SOL     OW27919   3.516   1.111   3.287
 9007SOL    HW127920   3.522   1.084   3.383
 9007SOL    HW227921   3.514   1.030   3.230
 9008SOL     OW27922   0.946   5.236   3.217
 9008SOL    HW127923   1.014   5.257   3.288
 9008SOL    HW227924   0.902   5.149   3.238
 9009SOL     OW27925   2.493   5.730   0.851
 9009SOL    HW127926   2.429   5.684   0.789
 9009SOL    HW227927   2.486   5.829   0.838
 9010SOL     OW27928   1.630   6.483   4.250
 9010SOL    HW127929   1.536   6.457   4.226
 9010SOL    HW227930   1.693   6.418   4.208
 9011SOL     OW27931   5.028   1.292   1.178
 9011SOL    HW127932   5.031   1.390   1.200
 9011SOL    HW227933   4.937   1.269   1.141
 9012SOL     OW27934   2.151   4.600   6.900
 9012SOL    HW127935   2.234   4.604   6.844
 9012SOL    HW227936   2.176   4.602   6.997
 9013SOL     OW27937   0.040   0.106   6.187
 9013SOL    HW127938   7.008   0.183   6.151
 9013SOL    HW227939   0.105   0.139   6.255
 9014SOL     OW27940   6.903   2.185   0.571
 9014SOL    HW127941   6.971   2.134   0.519
 9014SOL    HW227942   6.936   2.200   0.664
 9015SOL     OW27943   4.629   2.317   1.832
 9015SOL    HW127944   4.553   2.274   1.784
 9015SOL    HW227945   4.627   2.416   1.815
 9016SOL     OW27946   0.146   6.340   6.427
 9016SOL    HW127947   0.245   6.342   6.409
 9016SOL    HW227948   0.104   6.421   6.387
 9017SOL     OW27949   4.759   1.590   4.498
 9017SOL    HW127950   4.771   1.612   4.401
 9017SOL    HW227951   4.665   1.608   4.525
 9018SOL     OW27952   2.932   2.976   6.438
 9018SOL    HW127953   2.870   3.010   6.367
 9018SOL    HW227954   2.910   2.880   6.458
 9019SOL     OW27955   1.725   4.928   2.128
 9019SOL    HW127956   1.747   4.997   2.196
 9019SOL    HW227957   1.630   4.940   2.098
 9020SOL     OW27958   6.975   3.930   0.871
 9020SOL    HW127959   6.878   3.916   0.888
 9020SOL    HW227960   7.020   3.841   0.863
 9021SOL     OW27961   0.064   0.570   3.473
 9021SOL    HW127962   0.124   0.528   3.405
 9021SOL    HW227963   7.010   0.617   3.426
 9022SOL     OW27964   2.802   1.016   6.987
 9022SOL    HW127965   2.841   1.048   0.052
 9022SOL    HW227966   2.770   1.094   6.933
 9023SOL     OW27967   3.421   3.252   2.050
 9023SOL    HW127968   3.508   3.242   2.096
 9023SOL    HW227969   3.436   3.293   1.960
 9024SOL     OW27970   1.485   3.687   6.001
 9024SOL    HW127971   1.423   3.698   5.923
 9024SOL    HW227972   1.556   3.621   5.978
 9025SOL     OW27973   0.575   5.238   0.558
 9025SOL    HW127974   0.530   5.153   0.584
 9025SOL    HW227975   0.608   5.232   0.464
 9026SOL     OW27976   3.373   2.975   0.954
 9026SOL    HW127977   3.313   2.914   0.903
 9026SOL    HW227978   3.448   2.923   0.994
 9027SOL     OW27979   0.738   3.081   2.680
 9027SOL    HW127980   0.649   3.096   2.637
 9027SOL    HW227981   0.805   3.143   2.639
 9028SOL     OW27982   2.926   2.840   5.327
 9028SOL    HW127983   2.936   2.925   5.274
 9028SOL    HW227984   3.007   2.828   5.385
 9029SOL     OW27985   3.721   6.884   5.062
 9029SOL    HW127986   3.633   6.920   5.094
 9029SOL    HW227987   3.769   6.954   5.009
 9030SOL     OW27988   1.804   2.199   3.594
 9030SOL    HW127989   1.875   2.263   3.623
 9030SOL    HW227990   1.719   2.220   3.641
 9031SOL     OW27991   4.126   5.999   4.138
 9031SOL    HW127992   4.062   5.922   4.142
 9031SOL    HW227993   4.112   6.058   4.218
 9032SOL     OW27994   4.574   3.818   1.041
 9032SOL    HW127995   4.575   3.900   0.984
 9032SOL    HW227996   4.558   3.737   0.983
 9033SOL     OW27997   0.276   4.247   2.471
 9033SOL    HW127998   0.184   4.249   2.432
 9033SOL    HW227999   0.271   4.214   2.565
 9034SOL     OW28000   2.815   6.120   4.475
 9034SOL    HW128001   2.827   6.141   4.572
 9034SOL    HW228002   2.861   6.033   4.455
 9035SOL     OW28003   2.805   4.378   0.190
 9035SOL    HW128004   2.723   4.409   0.141
 9035SOL    HW228005   2.810   4.278   0.188
 9036SOL     OW28006   2.036   3.241   5.820
 9036SOL    HW128007   2.057   3.152   5.860
 9036SOL    HW228008   2.080   3.249   5.730
 9037SOL     OW28009   1.388   4.439   4.571
 9037SOL    HW128010   1.356   4.371   4.504
 9037SOL    HW228011   1.463   4.400   4.625
 9038SOL     OW28012   4.287   1.196   6.404
 9038SOL    HW128013   4.295   1.228   6.498
 9038SOL    HW228014   4.273   1.097   6.403
 9039SOL     OW28015   2.490   4.842   6.199
 9039SOL    HW128016   2.399   4.816   6.232
 9039SOL    HW228017   2.482   4.896   6.115
 9040SOL     OW28018   2.727   2.296   2.651
 9040SOL    HW128019   2.653   2.316   2.715
 9040SOL    HW228020   2.695   2.309   2.557
 9041SOL     OW28021   1.160   2.259   1.254
 9041SOL    HW128022   1.252   2.296   1.266
 9041SOL    HW228023   1.159   2.162   1.280
 9042SOL     OW28024   4.218   0.071   4.529
 9042SOL    HW128025   4.258   0.044   4.441
 9042SOL    HW228026   4.289   0.066   4.600
 9043SOL     OW28027   1.840   0.872   6.479
 9043SOL    HW128028   1.816   0.791   6.425
 9043SOL    HW228029   1.940   0.880   6.483
 9044SOL     OW28030   6.545   0.064   0.616
 9044SOL    HW128031   6.538   6.991   0.584
 9044SOL    HW228032   6.489   0.123   0.559
 9045SOL     OW28033   3.421   1.253   2.712
 9045SOL    HW128034   3.345   1.314   2.687
 9045SOL    HW228035   3.458   1.281   2.801
 9046SOL     OW28036   3.263   4.096   2.961
 9046SOL    HW128037   3.203   4.068   2.886
 9046SOL    HW228038   3.220   4.074   3.049
 9047SOL     OW28039   1.856   3.588   4.820
 9047SOL    HW128040   1.892   3.676   4.790
 9047SOL    HW228041   1.790   3.602   4.894
 9048SOL     OW28042   6.427   3.073   6.351
 9048SOL    HW128043   6.411   2.990   6.298
 9048SOL    HW228044   6.513   3.115   6.322
 9049SOL     OW28045   4.473   6.484   5.504
 9049SOL    HW128046   4.449   6.561   5.445
 9049SOL    HW228047   4.428   6.495   5.593
 9050SOL     OW28048   0.800   3.927   0.837
 9050SOL    HW128049   0.743   3.898   0.760
 9050SOL    HW228050   0.875   3.983   0.804
 9051SOL     OW28051   3.161   0.234   1.371
 9051SOL    HW128052   3.235   0.167   1.377
 9051SOL    HW228053   3.193   0.316   1.325
 9052SOL     OW28054   2.427   2.379   3.486
 9052SOL    HW128055   2.342   2.348   3.444
 9052SOL    HW228056   2.458   2.312   3.553
 9053SOL     OW28057   2.039   1.392   2.653
 9053SOL    HW128058   2.137   1.407   2.643
 9053SOL    HW228059   1.999   1.376   2.562
 9054SOL     OW28060   3.040   5.723   3.941
 9054SOL    HW128061   3.043   5.656   4.016
 9054SOL    HW228062   2.948   5.725   3.902
 9055SOL     OW28063   5.324   2.443   4.534
 9055SOL    HW128064   5.338   2.501   4.454
 9055SOL    HW228065   5.230   2.410   4.535
 9056SOL     OW28066   0.662   2.425   1.229
 9056SOL    HW128067   0.703   2.487   1.295
 9056SOL    HW228068   0.710   2.337   1.230
 9057SOL     OW28069   4.795   2.760   5.380
 9057SOL    HW128070   4.699   2.774   5.355
 9057SOL    HW228071   4.853   2.781   5.301
 9058SOL     OW28072   1.955   0.731   1.662
 9058SOL    HW128073   2.007   0.814   1.642
 9058SOL    HW228074   2.013   0.666   1.711
 9059SOL     OW28075   0.888   2.516   2.846
 9059SOL    HW128076   0.902   2.604   2.799
 9059SOL    HW228077   0.917   2.524   2.941
 9060SOL     OW28078   5.946   2.946   4.291
 9060SOL    HW128079   5.971   2.885   4.367
 9060SOL    HW228080   5.880   3.014   4.323
 9061SOL     OW28081   2.429   5.546   2.136
 9061SOL    HW128082   2.343   5.498   2.159
 9061SOL    HW228083   2.475   5.572   2.221
 9062SOL     OW28084   1.065   6.333   2.564
 9062SOL    HW128085   1.077   6.259   2.631
 9062SOL    HW228086   1.005   6.403   2.602
 9063SOL     OW28087   2.950   0.419   3.900
 9063SOL    HW128088   2.969   0.321   3.907
 9063SOL    HW228089   2.943   0.458   3.992
 9064SOL     OW28090   6.145   3.062   6.139
 9064SOL    HW128091   6.156   2.963   6.127
 9064SOL    HW228092   6.154   3.084   6.236
 9065SOL     OW28093   4.031   0.361   6.797
 9065SOL    HW128094   4.108   0.354   6.860
 9065SOL    HW228095   3.978   0.275   6.799
 9066SOL     OW28096   5.226   6.653   0.590
 9066SOL    HW128097   5.161   6.724   0.619
 9066SOL    HW228098   5.276   6.620   0.669
 9067SOL     OW28099   1.025   1.005   3.479
 9067SOL    HW128100   1.124   1.015   3.489
 9067SOL    HW228101   0.979   1.067   3.542
 9068SOL     OW28102   1.549   6.187   4.621
 9068SOL    HW128103   1.576   6.278   4.591
 9068SOL    HW228104   1.561   6.122   4.546
 9069SOL     OW28105   1.366   2.830   1.147
 9069SOL    HW128106   1.403   2.803   1.236
 9069SOL    HW228107   1.353   2.929   1.145
 9070SOL     OW28108   1.538   3.448   5.107
 9070SOL    HW128109   1.562   3.354   5.131
 9070SOL    HW228110   1.454   3.448   5.054
 9071SOL     OW28111   6.616   6.260   1.393
 9071SOL    HW128112   6.618   6.169   1.435
 9071SOL    HW228113   6.651   6.254   1.300
 9072SOL     OW28114   0.031   2.537   0.965
 9072SOL    HW128115   0.014   2.598   0.888
 9072SOL    HW228116   0.127   2.541   0.991
 9073SOL     OW28117   2.368   0.001   2.602
 9073SOL    HW128118   2.409   0.077   2.551
 9073SOL    HW228119   2.412   6.936   2.575
 9074SOL     OW28120   1.171   0.283   2.211
 9074SOL    HW128121   1.149   0.263   2.307
 9074SOL    HW228122   1.087   0.279   2.157
 9075SOL     OW28123   0.065   1.671   2.518
 9075SOL    HW128124   7.017   1.697   2.584
 9075SOL    HW228125   0.083   1.573   2.526
 9076SOL     OW28126   6.776   1.048   6.288
 9076SOL    HW128127   6.735   1.139   6.290
 9076SOL    HW228128   6.771   1.011   6.195
 9077SOL     OW28129   4.268   0.117   1.362
 9077SOL    HW128130   4.357   0.157   1.383
 9077SOL    HW228131   4.274   0.017   1.369
 9078SOL     OW28132   3.402   3.458   4.750
 9078SOL    HW128133   3.494   3.464   4.788
 9078SOL    HW228134   3.345   3.531   4.788
 9079SOL     OW28135   2.469   0.615   4.753
 9079SOL    HW128136   2.466   0.713   4.731
 9079SOL    HW228137   2.539   0.599   4.823
 9080SOL     OW28138   5.142   2.977   6.532
 9080SOL    HW128139   5.047   2.948   6.545
 9080SOL    HW228140   5.204   2.903   6.559
 9081SOL     OW28141   4.805   6.529   2.482
 9081SOL    HW128142   4.892   6.548   2.436
 9081SOL    HW228143   4.797   6.588   2.563
 9082SOL     OW28144   1.697   0.397   4.889
 9082SOL    HW128145   1.698   0.467   4.818
 9082SOL    HW228146   1.710   0.307   4.848
 9083SOL     OW28147   4.062   4.661   5.848
 9083SOL    HW128148   4.118   4.619   5.777
 9083SOL    HW228149   4.046   4.758   5.826
 9084SOL     OW28150   3.302   3.758   3.256
 9084SOL    HW128151   3.250   3.731   3.175
 9084SOL    HW228152   3.270   3.848   3.286
 9085SOL     OW28153   2.491   0.416   0.761
 9085SOL    HW128154   2.555   0.481   0.718
 9085SOL    HW228155   2.397   0.445   0.742
 9086SOL     OW28156   0.555   4.287   0.477
 9086SOL    HW128157   0.539   4.274   0.575
 9086SOL    HW228158   0.503   4.219   0.426
 9087SOL     OW28159   4.645   2.851   1.664
 9087SOL    HW128160   4.733   2.834   1.619
 9087SOL    HW228161   4.659   2.909   1.744
 9088SOL     OW28162   6.293   0.105   1.018
 9088SOL    HW128163   6.327   0.199   1.010
 9088SOL    HW228164   6.198   0.106   1.050
 9089SOL     OW28165   5.360   6.760   5.318
 9089SOL    HW128166   5.314   6.846   5.344
 9089SOL    HW228167   5.387   6.765   5.222
 9090SOL     OW28168   6.005   1.491   5.561
 9090SOL    HW128169   6.036   1.400   5.588
 9090SOL    HW228170   5.915   1.509   5.599
 9091SOL     OW28171   2.712   3.556   6.751
 9091SOL    HW128172   2.740   3.493   6.678
 9091SOL    HW228173   2.793   3.595   6.793
 9092SOL     OW28174   6.540   0.722   0.261
 9092SOL    HW128175   6.552   0.725   0.161
 9092SOL    HW228176   6.477   0.794   0.290
 9093SOL     OW28177   1.954   5.932   5.102
 9093SOL    HW128178   1.885   6.003   5.093
 9093SOL    HW228179   2.032   5.954   5.043
 9094SOL     OW28180   6.686   4.531   2.553
 9094SOL    HW128181   6.775   4.485   2.549
 9094SOL    HW228182   6.675   4.574   2.643
 9095SOL     OW28183   4.615   4.635   6.023
 9095SOL    HW128184   4.622   4.537   6.001
 9095SOL    HW228185   4.558   4.680   5.954
 9096SOL     OW28186   6.371   5.135   3.277
 9096SOL    HW128187   6.345   5.218   3.326
 9096SOL    HW228188   6.335   5.138   3.184
 9097SOL     OW28189   2.070   1.957   6.824
 9097SOL    HW128190   2.079   2.000   6.914
 9097SOL    HW228191   1.998   1.888   6.827
 9098SOL     OW28192   2.582   2.230   4.904
 9098SOL    HW128193   2.679   2.206   4.907
 9098SOL    HW228194   2.565   2.311   4.960
 9099SOL     OW28195   2.420   3.232   6.798
 9099SOL    HW128196   2.428   3.163   6.725
 9099SOL    HW228197   2.328   3.227   6.837
 9100SOL     OW28198   0.860   3.790   2.218
 9100SOL    HW128199   0.945   3.742   2.241
 9100SOL    HW228200   0.809   3.736   2.151
 9101SOL     OW28201   2.546   1.085   2.354
 9101SOL    HW128202   2.483   1.041   2.417
 9101SOL    HW228203   2.634   1.101   2.399
 9102SOL     OW28204   3.688   6.808   1.535
 9102SOL    HW128205   3.771   6.864   1.533
 9102SOL    HW228206   3.714   6.711   1.539
 9103SOL     OW28207   5.531   1.711   6.881
 9103SOL    HW128208   5.586   1.673   6.807
 9103SOL    HW228209   5.459   1.647   6.905
 9104SOL     OW28210   7.009   6.923   1.913
 9104SOL    HW128211   6.936   6.966   1.966
 9104SOL    HW228212   0.038   6.993   1.862
 9105SOL     OW28213   1.399   6.748   5.112
 9105SOL    HW128214   1.441   6.683   5.049
 9105SOL    HW228215   1.368   6.699   5.194
 9106SOL     OW28216   0.448   3.690   6.722
 9106SOL    HW128217   0.400   3.655   6.802
 9106SOL    HW228218   0.450   3.790   6.725
 9107SOL     OW28219   2.102   0.889   6.738
 9107SOL    HW128220   2.023   0.828   6.737
 9107SOL    HW228221   2.130   0.908   6.644
 9108SOL     OW28222   5.005   4.147   5.363
 9108SOL    HW128223   5.068   4.225   5.366
 9108SOL    HW228224   4.938   4.161   5.290
 9109SOL     OW28225   4.910   2.617   2.862
 9109SOL    HW128226   4.999   2.572   2.853
 9109SOL    HW228227   4.924   2.714   2.881
 9110SOL     OW28228   1.187   5.585   4.493
 9110SOL    HW128229   1.181   5.574   4.394
 9110SOL    HW228230   1.263   5.530   4.528
 9111SOL     OW28231   4.752   2.912   6.318
 9111SOL    HW128232   4.842   2.893   6.280
 9111SOL    HW228233   4.703   2.975   6.258
 9112SOL     OW28234   1.335   4.658   2.816
 9112SOL    HW128235   1.399   4.716   2.764
 9112SOL    HW228236   1.308   4.580   2.759
 9113SOL     OW28237   5.497   2.269   4.116
 9113SOL    HW128238   5.461   2.321   4.039
 9113SOL    HW228239   5.422   2.233   4.171
 9114SOL     OW28240   1.105   6.073   4.077
 9114SOL    HW128241   1.103   6.153   4.017
 9114SOL    HW228242   1.183   6.015   4.052
 9115SOL     OW28243   6.130   5.135   3.515
 9115SOL    HW128244   6.174   5.208   3.463
 9115SOL    HW228245   6.061   5.174   3.577
 9116SOL     OW28246   0.428   0.149   2.952
 9116SOL    HW128247   0.368   0.225   2.976
 9116SOL    HW228248   0.505   0.183   2.898
 9117SOL     OW28249   4.141   1.789   6.185
 9117SOL    HW128250   4.200   1.838   6.250
 9117SOL    HW228251   4.181   1.700   6.165
 9118SOL     OW28252   6.243   3.864   0.629
 9118SOL    HW128253   6.212   3.923   0.555
 9118SOL    HW228254   6.343   3.856   0.625
 9119SOL     OW28255   3.907   6.965   1.522
 9119SOL    HW128256   3.940   6.883   1.474
 9119SOL    HW228257   3.983   0.008   1.534
 9120SOL     OW28258   6.444   2.840   6.065
 9120SOL    HW128259   6.526   2.810   6.113
 9120SOL    HW228260   6.465   2.918   6.008
 9121SOL     OW28261   3.922   0.187   5.733
 9121SOL    HW128262   4.018   0.182   5.703
 9121SOL    HW228263   3.897   0.100   5.776
 9122SOL     OW28264   2.256   3.940   1.890
 9122SOL    HW128265   2.325   3.973   1.954
 9122SOL    HW228266   2.193   4.014   1.868
 9123SOL     OW28267   1.487   0.687   3.414
 9123SOL    HW128268   1.405   0.709   3.468
 9123SOL    HW228269   1.568   0.704   3.470
 9124SOL     OW28270   3.702   5.248   1.979
 9124SOL    HW128271   3.622   5.191   1.958
 9124SOL    HW228272   3.748   5.212   2.060
 9125SOL     OW28273   3.779   5.563   0.370
 9125SOL    HW128274   3.793   5.558   0.271
 9125SOL    HW228275   3.691   5.606   0.390
 9126SOL     OW28276   4.613   4.403   0.786
 9126SOL    HW128277   4.707   4.380   0.815
 9126SOL    HW228278   4.564   4.318   0.766
 9127SOL     OW28279   6.827   3.113   5.126
 9127SOL    HW128280   6.866   3.044   5.065
 9127SOL    HW228281   6.730   3.124   5.105
 9128SOL     OW28282   6.186   3.090   4.783
 9128SOL    HW128283   6.110   3.137   4.827
 9128SOL    HW228284   6.250   3.058   4.853
 9129SOL     OW28285   1.545   1.858   0.946
 9129SOL    HW128286   1.480   1.863   1.021
 9129SOL    HW228287   1.551   1.946   0.900
 9130SOL     OW28288   1.930   4.153   5.805
 9130SOL    HW128289   1.923   4.188   5.712
 9130SOL    HW228290   1.915   4.054   5.804
 9131SOL     OW28291   5.377   2.922   0.179
 9131SOL    HW128292   5.472   2.897   0.199
 9131SOL    HW228293   5.319   2.840   0.186
 9132SOL     OW28294   1.157   4.906   4.181
 9132SOL    HW128295   1.159   4.989   4.125
 9132SOL    HW228296   1.136   4.930   4.275
 9133SOL     OW28297   3.116   0.488   1.100
 9133SOL    HW128298   3.122   0.562   1.033
 9133SOL    HW228299   3.070   0.522   1.182
 9134SOL     OW28300   4.574   5.569   0.646
 9134SOL    HW128301   4.661   5.534   0.681
 9134SOL    HW228302   4.533   5.631   0.714
 9135SOL     OW28303   0.968   6.409   2.091
 9135SOL    HW128304   0.928   6.364   2.171
 9135SOL    HW228305   1.062   6.437   2.112
 9136SOL     OW28306   4.868   4.781   6.045
 9136SOL    HW128307   4.796   4.713   6.058
 9136SOL    HW228308   4.839   4.849   5.978
 9137SOL     OW28309   4.761   6.111   5.885
 9137SOL    HW128310   4.713   6.172   5.823
 9137SOL    HW228311   4.766   6.153   5.976
 9138SOL     OW28312   1.933   2.997   0.596
 9138SOL    HW128313   1.908   3.082   0.644
 9138SOL    HW228314   1.897   3.001   0.502
 9139SOL     OW28315   0.275   0.725   1.337
 9139SOL    HW128316   0.293   0.671   1.254
 9139SOL    HW228317   0.204   0.792   1.318
 9140SOL     OW28318   0.405   4.690   1.728
 9140SOL    HW128319   0.470   4.766   1.727
 9140SOL    HW228320   0.336   4.704   1.657
 9141SOL     OW28321   0.150   5.854   6.212
 9141SOL    HW128322   0.103   5.928   6.164
 9141SOL    HW228323   0.214   5.808   6.150
 9142SOL     OW28324   0.637   3.453   2.792
 9142SOL    HW128325   0.736   3.444   2.780
 9142SOL    HW228326   0.605   3.382   2.855
 9143SOL     OW28327   6.888   4.176   1.671
 9143SOL    HW128328   6.790   4.181   1.652
 9143SOL    HW228329   6.917   4.080   1.672
 9144SOL     OW28330   3.138   5.372   4.396
 9144SOL    HW128331   3.225   5.419   4.414
 9144SOL    HW228332   3.083   5.372   4.479
 9145SOL     OW28333   1.582   6.552   6.450
 9145SOL    HW128334   1.645   6.565   6.526
 9145SOL    HW228335   1.491   6.530   6.484
 9146SOL     OW28336   5.971   3.148   3.357
 9146SOL    HW128337   6.009   3.069   3.310
 9146SOL    HW228338   6.033   3.176   3.431
 9147SOL     OW28339   5.635   0.033   4.390
 9147SOL    HW128340   5.595   0.055   4.478
 9147SOL    HW228341   5.691   6.971   4.398
 9148SOL     OW28342   6.357   0.374   1.947
 9148SOL    HW128343   6.446   0.417   1.965
 9148SOL    HW228344   6.347   0.359   1.849
 9149SOL     OW28345   6.089   2.896   1.204
 9149SOL    HW128346   6.071   2.808   1.248
 9149SOL    HW228347   6.008   2.954   1.214
 9150SOL     OW28348   2.726   4.079   0.303
 9150SOL    HW128349   2.814   4.106   0.343
 9150SOL    HW228350   2.736   4.074   0.204
 9151SOL     OW28351   2.193   4.090   3.778
 9151SOL    HW128352   2.095   4.097   3.760
 9151SOL    HW228353   2.227   4.004   3.740
 9152SOL     OW28354   2.156   3.778   3.985
 9152SOL    HW128355   2.178   3.788   3.888
 9152SOL    HW228356   2.064   3.738   3.994
 9153SOL     OW28357   0.562   2.180   6.381
 9153SOL    HW128358   0.611   2.224   6.306
 9153SOL    HW228359   0.628   2.142   6.446
 9154SOL     OW28360   5.935   5.411   3.100
 9154SOL    HW128361   5.849   5.370   3.070
 9154SOL    HW228362   5.962   5.484   3.037
 9155SOL     OW28363   1.766   5.175   2.443
 9155SOL    HW128364   1.836   5.214   2.383
 9155SOL    HW228365   1.808   5.107   2.503
 9156SOL     OW28366   6.643   2.959   1.187
 9156SOL    HW128367   6.564   3.015   1.164
 9156SOL    HW228368   6.653   2.886   1.120
 9157SOL     OW28369   3.621   4.259   6.143
 9157SOL    HW128370   3.636   4.290   6.237
 9157SOL    HW228371   3.659   4.167   6.132
 9158SOL     OW28372   6.839   3.811   3.976
 9158SOL    HW128373   6.912   3.784   3.913
 9158SOL    HW228374   6.828   3.910   3.974
 9159SOL     OW28375   2.886   0.131   3.190
 9159SOL    HW128376   2.865   0.120   3.093
 9159SOL    HW228377   2.970   0.185   3.201
 9160SOL     OW28378   0.523   5.005   6.583
 9160SOL    HW128379   0.551   4.948   6.506
 9160SOL    HW228380   0.448   5.065   6.556
 9161SOL     OW28381   5.931   4.155   2.032
 9161SOL    HW128382   6.013   4.188   2.079
 9161SOL    HW228383   5.895   4.075   2.080
 9162SOL     OW28384   4.267   1.697   2.597
 9162SOL    HW128385   4.240   1.725   2.505
 9162SOL    HW228386   4.239   1.602   2.612
 9163SOL     OW28387   0.621   2.525   2.265
 9163SOL    HW128388   0.649   2.601   2.207
 9163SOL    HW228389   0.699   2.492   2.317
 9164SOL     OW28390   2.327   0.265   6.845
 9164SOL    HW128391   2.303   0.183   6.794
 9164SOL    HW228392   2.305   0.346   6.790
 9165SOL     OW28393   4.907   2.769   5.122
 9165SOL    HW128394   4.825   2.723   5.087
 9165SOL    HW228395   4.929   2.847   5.065
 9166SOL     OW28396   4.589   5.700   1.850
 9166SOL    HW128397   4.490   5.687   1.841
 9166SOL    HW228398   4.632   5.612   1.872
 9167SOL     OW28399   0.766   1.533   6.067
 9167SOL    HW128400   0.809   1.619   6.092
 9167SOL    HW228401   0.710   1.500   6.144
 9168SOL     OW28402   6.420   5.307   4.802
 9168SOL    HW128403   6.439   5.221   4.849
 9168SOL    HW228404   6.358   5.291   4.726
 9169SOL     OW28405   6.340   5.551   6.928
 9169SOL    HW128406   6.303   5.644   6.928
 9169SOL    HW228407   6.395   5.537   7.011
 9170SOL     OW28408   1.519   1.838   6.352
 9170SOL    HW128409   1.477   1.765   6.405
 9170SOL    HW228410   1.593   1.800   6.296
 9171SOL     OW28411   2.906   4.676   0.496
 9171SOL    HW128412   2.973   4.602   0.504
 9171SOL    HW228413   2.915   4.738   0.574
 9172SOL     OW28414   5.523   1.245   4.987
 9172SOL    HW128415   5.444   1.203   5.033
 9172SOL    HW228416   5.518   1.344   4.995
 9173SOL     OW28417   6.535   2.847   3.865
 9173SOL    HW128418   6.583   2.828   3.951
 9173SOL    HW228419   6.466   2.776   3.849
 9174SOL     OW28420   0.859   6.003   0.034
 9174SOL    HW128421   0.889   6.051   0.116
 9174SOL    HW228422   0.825   6.070   6.989
 9175SOL     OW28423   2.029   6.915   0.159
 9175SOL    HW128424   2.022   6.845   0.230
 9175SOL    HW228425   2.112   6.968   0.172
 9176SOL     OW28426   2.416   0.820   3.097
 9176SOL    HW128427   2.410   0.789   3.002
 9176SOL    HW228428   2.338   0.880   3.117
 9177SOL     OW28429   0.821   4.365   4.093
 9177SOL    HW128430   0.721   4.371   4.083
 9177SOL    HW228431   0.843   4.308   4.171
 9178SOL     OW28432   2.349   6.494   0.069
 9178SOL    HW128433   2.360   6.593   0.077
 9178SOL    HW228434   2.253   6.470   0.079
 9179SOL     OW28435   3.857   6.380   5.388
 9179SOL    HW128436   3.783   6.377   5.456
 9179SOL    HW228437   3.840   6.456   5.325
 9180SOL     OW28438   7.002   1.395   4.374
 9180SOL    HW128439   0.000   1.455   4.451
 9180SOL    HW228440   6.961   1.310   4.408
 9181SOL     OW28441   4.219   1.609   3.653
 9181SOL    HW128442   4.203   1.553   3.572
 9181SOL    HW228443   4.305   1.660   3.642
 9182SOL     OW28444   1.685   1.187   2.915
 9182SOL    HW128445   1.759   1.125   2.889
 9182SOL    HW228446   1.699   1.276   2.871
 9183SOL     OW28447   5.236   2.820   6.954
 9183SOL    HW128448   5.280   2.865   0.011
 9183SOL    HW228449   5.140   2.804   6.975
 9184SOL     OW28450   3.356   3.255   0.732
 9184SOL    HW128451   3.264   3.231   0.763
 9184SOL    HW228452   3.423   3.224   0.799
 9185SOL     OW28453   0.586   0.732   6.765
 9185SOL    HW128454   0.637   0.799   6.820
 9185SOL    HW228455   0.507   0.700   6.816
 9186SOL     OW28456   4.994   0.177   6.609
 9186SOL    HW128457   5.009   0.271   6.640
 9186SOL    HW228458   5.000   0.115   6.687
 9187SOL     OW28459   4.745   1.600   6.638
 9187SOL    HW128460   4.646   1.584   6.632
 9187SOL    HW228461   4.780   1.621   6.547
 9188SOL     OW28462   1.254   0.309   1.322
 9188SOL    HW128463   1.169   0.259   1.302
 9188SOL    HW228464   1.332   0.251   1.300
 9189SOL     OW28465   2.935   1.579   3.511
 9189SOL    HW128466   2.969   1.591   3.604
 9189SOL    HW228467   2.838   1.554   3.515
 9190SOL     OW28468   6.105   3.825   5.363
 9190SOL    HW128469   6.028   3.785   5.314
 9190SOL    HW228470   6.118   3.778   5.450
 9191SOL     OW28471   5.482   6.289   6.560
 9191SOL    HW128472   5.578   6.313   6.554
 9191SOL    HW228473   5.469   6.195   6.528
 9192SOL     OW28474   0.109   4.202   6.149
 9192SOL    HW128475   0.176   4.180   6.078
 9192SOL    HW228476   0.017   4.183   6.115
 9193SOL     OW28477   3.762   3.428   3.869
 9193SOL    HW128478   3.688   3.378   3.914
 9193SOL    HW228479   3.819   3.364   3.818
 9194SOL     OW28480   3.168   5.632   2.480
 9194SOL    HW128481   3.127   5.688   2.552
 9194SOL    HW228482   3.106   5.630   2.401
 9195SOL     OW28483   0.120   3.407   3.237
 9195SOL    HW128484   0.079   3.476   3.297
 9195SOL    HW228485   0.074   3.319   3.252
 9196SOL     OW28486   3.683   0.732   3.477
 9196SOL    HW128487   3.685   0.812   3.537
 9196SOL    HW228488   3.739   0.659   3.518
 9197SOL     OW28489   2.688   3.279   6.820
 9197SOL    HW128490   2.725   3.238   6.737
 9197SOL    HW228491   2.592   3.254   6.830
 9198SOL     OW28492   5.470   3.740   5.941
 9198SOL    HW128493   5.419   3.725   6.026
 9198SOL    HW228494   5.503   3.652   5.906
 9199SOL     OW28495   1.698   3.818   6.516
 9199SOL    HW128496   1.798   3.815   6.524
 9199SOL    HW228497   1.672   3.792   6.423
 9200SOL     OW28498   6.977   6.801   0.905
 9200SOL    HW128499   6.880   6.826   0.908
 9200SOL    HW228500   0.009   6.881   0.877
 9201SOL     OW28501   6.906   4.539   1.718
 9201SOL    HW128502   6.972   4.465   1.727
 9201SOL    HW228503   6.845   4.539   1.798
 9202SOL     OW28504   2.627   4.909   3.959
 9202SOL    HW128505   2.670   4.896   4.049
 9202SOL    HW228506   2.667   4.846   3.893
 9203SOL     OW28507   5.781   1.343   5.907
 9203SOL    HW128508   5.739   1.260   5.870
 9203SOL    HW228509   5.877   1.348   5.879
 9204SOL     OW28510   5.548   3.630   3.506
 9204SOL    HW128511   5.487   3.551   3.508
 9204SOL    HW228512   5.642   3.600   3.520
 9205SOL     OW28513   5.944   2.649   3.031
 9205SOL    HW128514   5.902   2.625   3.119
 9205SOL    HW228515   5.888   2.718   2.985
 9206SOL     OW28516   1.937   6.111   3.702
 9206SOL    HW128517   2.001   6.046   3.659
 9206SOL    HW228518   1.877   6.149   3.631
 9207SOL     OW28519   4.417   6.214   6.029
 9207SOL    HW128520   4.451   6.277   6.100
 9207SOL    HW228521   4.390   6.267   5.948
 9208SOL     OW28522   4.893   3.365   2.516
 9208SOL    HW128523   4.850   3.297   2.576
 9208SOL    HW228524   4.883   3.456   2.556
 9209SOL     OW28525   4.163   1.096   2.937
 9209SOL    HW128526   4.232   1.084   2.865
 9209SOL    HW228527   4.101   1.170   2.912
 9210SOL     OW28528   2.233   6.808   1.436
 9210SOL    HW128529   2.134   6.798   1.423
 9210SOL    HW228530   2.263   6.895   1.397
 9211SOL     OW28531   5.088   1.717   6.418
 9211SOL    HW128532   5.053   1.633   6.377
 9211SOL    HW228533   5.012   1.769   6.458
 9212SOL     OW28534   4.816   4.797   4.312
 9212SOL    HW128535   4.735   4.775   4.258
 9212SOL    HW228536   4.822   4.735   4.391
 9213SOL     OW28537   6.145   0.523   4.044
 9213SOL    HW128538   6.093   0.556   3.966
 9213SOL    HW228539   6.094   0.541   4.128
 9214SOL     OW28540   1.543   2.830   4.573
 9214SOL    HW128541   1.629   2.779   4.575
 9214SOL    HW228542   1.478   2.789   4.637
 9215SOL     OW28543   0.316   3.558   2.602
 9215SOL    HW128544   0.378   3.565   2.524
 9215SOL    HW228545   0.296   3.649   2.637
 9216SOL     OW28546   2.771   5.784   5.168
 9216SOL    HW128547   2.683   5.736   5.173
 9216SOL    HW228548   2.765   5.857   5.100
 9217SOL     OW28549   5.429   1.382   6.294
 9217SOL    HW128550   5.373   1.415   6.370
 9217SOL    HW228551   5.369   1.350   6.220
 9218SOL     OW28552   5.910   6.581   6.437
 9218SOL    HW128553   5.951   6.592   6.528
 9218SOL    HW228554   5.915   6.668   6.388
 9219SOL     OW28555   3.695   2.600   5.380
 9219SOL    HW128556   3.789   2.568   5.385
 9219SOL    HW228557   3.695   2.699   5.365
 9220SOL     OW28558   1.765   6.259   2.782
 9220SOL    HW128559   1.667   6.275   2.781
 9220SOL    HW228560   1.808   6.316   2.852
 9221SOL     OW28561   2.532   0.499   6.645
 9221SOL    HW128562   2.579   0.587   6.656
 9221SOL    HW228563   2.599   0.426   6.645
 9222SOL     OW28564   1.978   4.750   3.719
 9222SOL    HW128565   1.883   4.763   3.689
 9222SOL    HW228566   2.004   4.827   3.778
 9223SOL     OW28567   1.581   4.248   4.666
 9223SOL    HW128568   1.585   4.197   4.580
 9223SOL    HW228569   1.596   4.186   4.743
 9224SOL     OW28570   1.517   4.731   3.768
 9224SOL    HW128571   1.575   4.672   3.824
 9224SOL    HW228572   1.470   4.797   3.827
 9225SOL     OW28573   3.949   6.714   6.675
 9225SOL    HW128574   4.036   6.668   6.654
 9225SOL    HW228575   3.874   6.662   6.636
 9226SOL     OW28576   1.216   6.760   0.988
 9226SOL    HW128577   1.295   6.807   1.027
 9226SOL    HW228578   1.133   6.810   1.012
 9227SOL     OW28579   2.094   5.617   0.557
 9227SOL    HW128580   2.043   5.701   0.570
 9227SOL    HW228581   2.175   5.617   0.616
 9228SOL     OW28582   1.946   2.690   5.473
 9228SOL    HW128583   1.912   2.609   5.426
 9228SOL    HW228584   1.981   2.755   5.406
 9229SOL     OW28585   0.290   4.285   6.826
 9229SOL    HW128586   0.236   4.325   6.752
 9229SOL    HW228587   0.385   4.278   6.798
 9230SOL     OW28588   4.800   2.485   4.228
 9230SOL    HW128589   4.882   2.445   4.270
 9230SOL    HW228590   4.808   2.585   4.226
 9231SOL     OW28591   1.054   5.579   5.312
 9231SOL    HW128592   0.991   5.511   5.273
 9231SOL    HW228593   1.119   5.608   5.241
 9232SOL     OW28594   1.926   5.517   1.804
 9232SOL    HW128595   2.023   5.515   1.830
 9232SOL    HW228596   1.910   5.453   1.729
 9233SOL     OW28597   0.261   6.940   1.191
 9233SOL    HW128598   0.193   6.866   1.196
 9233SOL    HW228599   0.335   6.913   1.129
 9234SOL     OW28600   2.385   4.940   0.740
 9234SOL    HW128601   2.464   4.878   0.735
 9234SOL    HW228602   2.304   4.893   0.706
 9235SOL     OW28603   2.470   2.584   3.133
 9235SOL    HW128604   2.505   2.677   3.133
 9235SOL    HW228605   2.539   2.522   3.169
 9236SOL     OW28606   1.629   2.952   6.635
 9236SOL    HW128607   1.602   2.915   6.724
 9236SOL    HW228608   1.717   2.913   6.607
 9237SOL     OW28609   5.927   5.212   3.693
 9237SOL    HW128610   5.914   5.301   3.737
 9237SOL    HW228611   5.838   5.174   3.667
 9238SOL     OW28612   1.679   3.196   5.239
 9238SOL    HW128613   1.715   3.283   5.275
 9238SOL    HW228614   1.744   3.158   5.174
 9239SOL     OW28615   0.125   4.807   0.273
 9239SOL    HW128616   0.164   4.837   0.360
 9239SOL    HW228617   0.178   4.844   0.197
 9240SOL     OW28618   5.064   2.890   3.099
 9240SOL    HW128619   5.003   2.969   3.099
 9240SOL    HW228620   5.060   2.843   3.187
 9241SOL     OW28621   6.837   6.259   0.355
 9241SOL    HW128622   6.779   6.281   0.433
 9241SOL    HW228623   6.786   6.202   0.290
 9242SOL     OW28624   1.225   2.229   2.180
 9242SOL    HW128625   1.159   2.219   2.105
 9242SOL    HW228626   1.280   2.311   2.165
 9243SOL     OW28627   0.210   0.333   1.198
 9243SOL    HW128628   0.204   0.345   1.297
 9243SOL    HW228629   0.176   0.243   1.174
 9244SOL     OW28630   3.399   6.446   5.511
 9244SOL    HW128631   3.367   6.534   5.474
 9244SOL    HW228632   3.410   6.381   5.436
 9245SOL     OW28633   0.885   4.061   3.049
 9245SOL    HW128634   0.943   3.985   3.078
 9245SOL    HW228635   0.929   4.108   2.972
 9246SOL     OW28636   6.250   0.017   4.374
 9246SOL    HW128637   6.238   6.976   4.297
 9246SOL    HW228638   6.270   6.985   4.456
 9247SOL     OW28639   3.720   5.571   3.029
 9247SOL    HW128640   3.642   5.596   2.971
 9247SOL    HW228641   3.718   5.626   3.113
 9248SOL     OW28642   2.568   1.653   4.916
 9248SOL    HW128643   2.598   1.577   4.858
 9248SOL    HW228644   2.634   1.728   4.910
 9249SOL     OW28645   3.713   4.824   1.695
 9249SOL    HW128646   3.662   4.745   1.732
 9249SOL    HW228647   3.799   4.792   1.655
 9250SOL     OW28648   6.711   4.265   4.406
 9250SOL    HW128649   6.649   4.340   4.432
 9250SOL    HW228650   6.795   4.303   4.368
 9251SOL     OW28651   3.966   2.813   1.215
 9251SOL    HW128652   3.922   2.855   1.136
 9251SOL    HW228653   4.034   2.746   1.183
 9252SOL     OW28654   4.129   0.792   4.936
 9252SOL    HW128655   4.083   0.844   4.864
 9252SOL    HW228656   4.181   0.854   4.994
 9253SOL     OW28657   0.351   4.514   5.406
 9253SOL    HW128658   0.254   4.495   5.389
 9253SOL    HW228659   0.367   4.612   5.400
 9254SOL     OW28660   5.984   4.446   2.758
 9254SOL    HW128661   6.033   4.360   2.773
 9254SOL    HW228662   5.886   4.428   2.749
 9255SOL     OW28663   6.371   3.914   0.077
 9255SOL    HW128664   6.377   3.926   0.176
 9255SOL    HW228665   6.275   3.918   0.049
 9256SOL     OW28666   1.988   6.836   1.885
 9256SOL    HW128667   2.035   6.908   1.835
 9256SOL    HW228668   1.992   6.856   1.983
 9257SOL     OW28669   6.936   5.729   3.316
 9257SOL    HW128670   6.877   5.650   3.298
 9257SOL    HW228671   6.995   5.745   3.237
 9258SOL     OW28672   3.428   3.289   0.187
 9258SOL    HW128673   3.522   3.299   0.220
 9258SOL    HW228674   3.413   3.195   0.155
 9259SOL     OW28675   1.538   1.310   6.441
 9259SOL    HW128676   1.456   1.253   6.435
 9259SOL    HW228677   1.590   1.303   6.357
 9260SOL     OW28678   5.645   3.069   5.819
 9260SOL    HW128679   5.620   3.128   5.895
 9260SOL    HW228680   5.744   3.054   5.821
 9261SOL     OW28681   3.865   1.618   0.704
 9261SOL    HW128682   3.900   1.616   0.797
 9261SOL    HW228683   3.942   1.623   0.640
 9262SOL     OW28684   6.700   6.754   4.381
 9262SOL    HW128685   6.603   6.743   4.357
 9262SOL    HW228686   6.709   6.757   4.481
 9263SOL     OW28687   2.737   5.096   2.928
 9263SOL    HW128688   2.738   5.072   2.831
 9263SOL    HW228689   2.644   5.112   2.958
 9264SOL     OW28690   5.449   3.492   6.858
 9264SOL    HW128691   5.372   3.512   6.796
 9264SOL    HW228692   5.524   3.452   6.805
 9265SOL     OW28693   3.979   2.009   6.939
 9265SOL    HW128694   4.060   2.034   6.992
 9265SOL    HW228695   3.964   2.077   6.868
 9266SOL     OW28696   0.809   4.432   1.605
 9266SOL    HW128697   0.891   4.468   1.647
 9266SOL    HW228698   0.752   4.388   1.674
 9267SOL     OW28699   0.900   1.193   3.632
 9267SOL    HW128700   0.945   1.240   3.708
 9267SOL    HW228701   0.825   1.137   3.668
 9268SOL     OW28702   0.568   6.787   1.854
 9268SOL    HW128703   0.667   6.785   1.843
 9268SOL    HW228704   0.532   6.871   1.814
 9269SOL     OW28705   4.917   6.993   0.067
 9269SOL    HW128706   4.918   0.067   0.098
 9269SOL    HW228707   4.823   6.958   0.072
 9270SOL     OW28708   3.578   1.013   6.269
 9270SOL    HW128709   3.635   0.931   6.276
 9270SOL    HW228710   3.528   1.011   6.182
 9271SOL     OW28711   1.001   0.571   6.840
 9271SOL    HW128712   0.920   0.563   6.782
 9271SOL    HW228713   1.074   0.618   6.789
 9272SOL     OW28714   6.311   6.612   6.123
 9272SOL    HW128715   6.283   6.680   6.055
 9272SOL    HW228716   6.410   6.617   6.136
 9273SOL     OW28717   5.612   5.838   3.991
 9273SOL    HW128718   5.647   5.912   4.049
 9273SOL    HW228719   5.532   5.797   4.034
 9274SOL     OW28720   0.606   2.989   0.724
 9274SOL    HW128721   0.560   2.935   0.653
 9274SOL    HW228722   0.601   3.086   0.701
 9275SOL     OW28723   0.875   6.259   1.405
 9275SOL    HW128724   0.841   6.244   1.498
 9275SOL    HW228725   0.826   6.200   1.341
 9276SOL     OW28726   3.522   4.797   0.500
 9276SOL    HW128727   3.430   4.769   0.529
 9276SOL    HW228728   3.533   4.781   0.402
 9277SOL     OW28729   4.510   4.808   2.557
 9277SOL    HW128730   4.510   4.709   2.541
 9277SOL    HW228731   4.569   4.852   2.489
 9278SOL     OW28732   0.366   0.415   4.029
 9278SOL    HW128733   0.281   0.434   3.979
 9278SOL    HW228734   0.382   0.316   4.031
 9279SOL     OW28735   3.510   5.557   1.591
 9279SOL    HW128736   3.461   5.476   1.557
 9279SOL    HW228737   3.576   5.529   1.660
 9280SOL     OW28738   1.283   1.331   2.568
 9280SOL    HW128739   1.380   1.343   2.592
 9280SOL    HW228740   1.235   1.418   2.577
 9281SOL     OW28741   3.915   3.419   6.272
 9281SOL    HW128742   3.946   3.429   6.178
 9281SOL    HW228743   3.815   3.407   6.273
 9282SOL     OW28744   3.417   0.514   4.524
 9282SOL    HW128745   3.468   0.565   4.593
 9282SOL    HW228746   3.479   0.452   4.476
 9283SOL     OW28747   5.488   6.909   6.346
 9283SOL    HW128748   5.586   6.922   6.366
 9283SOL    HW228749   5.476   6.894   6.248
 9284SOL     OW28750   3.443   3.830   5.234
 9284SOL    HW128751   3.486   3.856   5.320
 9284SOL    HW228752   3.425   3.732   5.234
 9285SOL     OW28753   5.879   3.046   2.441
 9285SOL    HW128754   5.947   3.120   2.437
 9285SOL    HW228755   5.909   2.969   2.386
 9286SOL     OW28756   5.055   6.418   0.801
 9286SOL    HW128757   5.026   6.323   0.790
 9286SOL    HW228758   5.059   6.462   0.711
 9287SOL     OW28759   2.650   4.569   5.795
 9287SOL    HW128760   2.633   4.511   5.716
 9287SOL    HW228761   2.657   4.664   5.766
 9288SOL     OW28762   4.332   2.232   4.063
 9288SOL    HW128763   4.347   2.138   4.094
 9288SOL    HW228764   4.408   2.290   4.094
 9289SOL     OW28765   4.350   6.783   5.911
 9289SOL    HW128766   4.309   6.743   5.829
 9289SOL    HW228767   4.449   6.790   5.898
 9290SOL     OW28768   5.421   0.618   4.794
 9290SOL    HW128769   5.499   0.639   4.734
 9290SOL    HW228770   5.336   0.645   4.748
 9291SOL     OW28771   1.344   5.933   5.203
 9291SOL    HW128772   1.430   5.959   5.159
 9291SOL    HW228773   1.272   5.998   5.177
 9292SOL     OW28774   1.466   1.313   5.877
 9292SOL    HW128775   1.425   1.285   5.790
 9292SOL    HW228776   1.556   1.270   5.886
 9293SOL     OW28777   5.003   2.796   5.785
 9293SOL    HW128778   5.087   2.804   5.839
 9293SOL    HW228779   5.026   2.798   5.688
 9294SOL     OW28780   4.740   0.858   0.489
 9294SOL    HW128781   4.655   0.821   0.452
 9294SOL    HW228782   4.815   0.836   0.426
 9295SOL     OW28783   0.474   0.612   5.204
 9295SOL    HW128784   0.451   0.699   5.248
 9295SOL    HW228785   0.532   0.629   5.124
 9296SOL     OW28786   2.804   3.993   0.897
 9296SOL    HW128787   2.857   4.074   0.920
 9296SOL    HW228788   2.810   3.926   0.971
 9297SOL     OW28789   6.712   6.309   3.326
 9297SOL    HW128790   6.767   6.362   3.391
 9297SOL    HW228791   6.678   6.369   3.253
 9298SOL     OW28792   1.211   6.330   5.896
 9298SOL    HW128793   1.232   6.238   5.929
 9298SOL    HW228794   1.271   6.352   5.819
 9299SOL     OW28795   1.869   2.218   4.143
 9299SOL    HW128796   1.885   2.297   4.202
 9299SOL    HW228797   1.953   2.195   4.094
 9300SOL     OW28798   1.739   6.133   5.102
 9300SOL    HW128799   1.682   6.113   5.182
 9300SOL    HW228800   1.683   6.175   5.030
 9301SOL     OW28801   0.857   3.993   4.655
 9301SOL    HW128802   0.767   4.037   4.651
 9301SOL    HW228803   0.868   3.932   4.577
 9302SOL     OW28804   2.228   3.021   4.840
 9302SOL    HW128805   2.282   2.991   4.919
 9302SOL    HW228806   2.192   2.941   4.792
 9303SOL     OW28807   3.163   3.728   0.118
 9303SOL    HW128808   3.128   3.640   0.150
 9303SOL    HW228809   3.248   3.713   0.067
 9304SOL     OW28810   4.968   4.845   1.051
 9304SOL    HW128811   4.976   4.748   1.026
 9304SOL    HW228812   5.004   4.902   0.978
 9305SOL     OW28813   2.449   1.421   0.702
 9305SOL    HW128814   2.520   1.489   0.687
 9305SOL    HW228815   2.387   1.452   0.774
 9306SOL     OW28816   0.279   4.043   4.753
 9306SOL    HW128817   0.273   3.943   4.744
 9306SOL    HW228818   0.351   4.066   4.818
 9307SOL     OW28819   2.269   3.226   0.814
 9307SOL    HW128820   2.301   3.256   0.724
 9307SOL    HW228821   2.193   3.161   0.803
 9308SOL     OW28822   1.132   4.230   1.641
 9308SOL    HW128823   1.138   4.267   1.548
 9308SOL    HW228824   1.167   4.137   1.642
 9309SOL     OW28825   5.123   5.828   5.637
 9309SOL    HW128826   5.207   5.775   5.644
 9309SOL    HW228827   5.046   5.774   5.672
 9310SOL     OW28828   4.277   5.685   5.772
 9310SOL    HW128829   4.244   5.594   5.747
 9310SOL    HW228830   4.356   5.708   5.716
 9311SOL     OW28831   4.389   3.432   1.718
 9311SOL    HW128832   4.354   3.351   1.766
 9311SOL    HW228833   4.441   3.404   1.638
 9312SOL     OW28834   1.262   2.076   1.033
 9312SOL    HW128835   1.276   2.169   1.068
 9312SOL    HW228836   1.196   2.028   1.090
 9313SOL     OW28837   1.331   0.568   2.041
 9313SOL    HW128838   1.246   0.616   2.018
 9313SOL    HW228839   1.329   0.476   2.001
 9314SOL     OW28840   4.788   2.658   0.792
 9314SOL    HW128841   4.788   2.721   0.714
 9314SOL    HW228842   4.871   2.602   0.788
 9315SOL     OW28843   5.597   1.158   6.742
 9315SOL    HW128844   5.643   1.093   6.681
 9315SOL    HW228845   5.629   1.142   6.836
 9316SOL     OW28846   5.398   0.464   5.542
 9316SOL    HW128847   5.473   0.515   5.584
 9316SOL    HW228848   5.335   0.527   5.498
 9317SOL     OW28849   2.977   5.404   3.889
 9317SOL    HW128850   2.985   5.346   3.970
 9317SOL    HW228851   3.048   5.379   3.823
 9318SOL     OW28852   5.424   5.722   0.552
 9318SOL    HW128853   5.409   5.642   0.610
 9318SOL    HW228854   5.337   5.754   0.516
 9319SOL     OW28855   2.734   4.285   1.121
 9319SOL    HW128856   2.689   4.270   1.033
 9319SOL    HW228857   2.774   4.200   1.153
 9320SOL     OW28858   5.586   0.208   5.902
 9320SOL    HW128859   5.630   0.287   5.944
 9320SOL    HW228860   5.489   0.228   5.887
 9321SOL     OW28861   0.146   3.164   5.565
 9321SOL    HW128862   0.168   3.091   5.500
 9321SOL    HW228863   0.206   3.158   5.644
 9322SOL     OW28864   5.808   3.981   5.720
 9322SOL    HW128865   5.745   4.046   5.678
 9322SOL    HW228866   5.778   3.888   5.701
 9323SOL     OW28867   1.316   3.703   3.617
 9323SOL    HW128868   1.307   3.621   3.674
 9323SOL    HW228869   1.229   3.724   3.574
 9324SOL     OW28870   1.003   4.071   0.720
 9324SOL    HW128871   1.064   4.127   0.775
 9324SOL    HW228872   1.054   4.035   0.641
 9325SOL     OW28873   1.978   5.199   2.256
 9325SOL    HW128874   2.078   5.197   2.248
 9325SOL    HW228875   1.937   5.162   2.172
 9326SOL     OW28876   3.986   4.094   0.276
 9326SOL    HW128877   4.056   4.133   0.335
 9326SOL    HW228878   4.021   4.085   0.183
 9327SOL     OW28879   4.743   0.694   3.230
 9327SOL    HW128880   4.662   0.653   3.273
 9327SOL    HW228881   4.732   0.691   3.131
 9328SOL     OW28882   3.211   6.816   4.541
 9328SOL    HW128883   3.125   6.772   4.517
 9328SOL    HW228884   3.198   6.915   4.545
 9329SOL     OW28885   6.997   6.180   5.841
 9329SOL    HW128886   0.011   6.092   5.808
 9329SOL    HW228887   0.031   6.210   5.919
 9330SOL     OW28888   6.794   6.950   6.864
 9330SOL    HW128889   6.769   6.919   6.772
 9330SOL    HW228890   6.769   0.025   6.875
 9331SOL     OW28891   1.141   3.248   4.923
 9331SOL    HW128892   1.056   3.301   4.930
 9331SOL    HW228893   1.219   3.311   4.926
 9332SOL     OW28894   4.068   5.998   0.842
 9332SOL    HW128895   4.068   6.025   0.746
 9332SOL    HW228896   4.092   5.901   0.849
 9333SOL     OW28897   3.728   5.067   0.432
 9333SOL    HW128898   3.674   5.050   0.515
 9333SOL    HW228899   3.776   5.154   0.440
 9334SOL     OW28900   5.047   6.202   4.703
 9334SOL    HW128901   5.010   6.255   4.780
 9334SOL    HW228902   4.973   6.157   4.654
 9335SOL     OW28903   2.137   1.904   1.328
 9335SOL    HW128904   2.110   1.990   1.286
 9335SOL    HW228905   2.139   1.832   1.259
 9336SOL     OW28906   6.304   0.664   5.116
 9336SOL    HW128907   6.230   0.621   5.063
 9336SOL    HW228908   6.265   0.733   5.177
 9337SOL     OW28909   4.471   7.012   6.577
 9337SOL    HW128910   4.565   6.993   6.606
 9337SOL    HW228911   4.447   6.948   6.503
 9338SOL     OW28912   0.147   6.251   0.262
 9338SOL    HW128913   0.074   6.215   0.319
 9338SOL    HW228914   0.199   6.320   0.313
 9339SOL     OW28915   5.813   4.774   6.638
 9339SOL    HW128916   5.863   4.815   6.715
 9339SOL    HW228917   5.846   4.814   6.552
 9340SOL     OW28918   3.565   6.131   2.405
 9340SOL    HW128919   3.474   6.149   2.442
 9340SOL    HW228920   3.557   6.083   2.318
 9341SOL     OW28921   5.765   4.232   6.611
 9341SOL    HW128922   5.840   4.179   6.649
 9341SOL    HW228923   5.734   4.300   6.678
 9342SOL     OW28924   2.715   0.387   4.363
 9342SOL    HW128925   2.667   0.403   4.449
 9342SOL    HW228926   2.736   0.289   4.355
 9343SOL     OW28927   4.672   4.459   1.860
 9343SOL    HW128928   4.600   4.393   1.881
 9343SOL    HW228929   4.758   4.430   1.901
 9344SOL     OW28930   5.374   4.671   6.070
 9344SOL    HW128931   5.357   4.587   6.122
 9344SOL    HW228932   5.296   4.733   6.081
 9345SOL     OW28933   6.685   6.129   0.157
 9345SOL    HW128934   6.616   6.200   0.145
 9345SOL    HW228935   6.660   6.048   0.104
 9346SOL     OW28936   5.274   6.734   2.407
 9346SOL    HW128937   5.288   6.641   2.441
 9346SOL    HW228938   5.309   6.800   2.474
 9347SOL     OW28939   3.696   5.623   1.394
 9347SOL    HW128940   3.620   5.633   1.458
 9347SOL    HW228941   3.725   5.527   1.390
 9348SOL     OW28942   2.269   6.322   3.124
 9348SOL    HW128943   2.293   6.371   3.208
 9348SOL    HW228944   2.300   6.376   3.045
 9349SOL     OW28945   6.540   5.762   2.475
 9349SOL    HW128946   6.561   5.706   2.555
 9349SOL    HW228947   6.603   5.738   2.401
 9350SOL     OW28948   6.820   1.401   4.752
 9350SOL    HW128949   6.912   1.423   4.784
 9350SOL    HW228950   6.825   1.327   4.684
 9351SOL     OW28951   1.918   0.861   5.764
 9351SOL    HW128952   2.000   0.902   5.725
 9351SOL    HW228953   1.852   0.933   5.785
 9352SOL     OW28954   1.762   2.467   5.391
 9352SOL    HW128955   1.731   2.461   5.486
 9352SOL    HW228956   1.688   2.505   5.335
 9353SOL     OW28957   1.838   4.202   1.603
 9353SOL    HW128958   1.797   4.144   1.673
 9353SOL    HW228959   1.937   4.193   1.605
 9354SOL     OW28960   6.333   1.696   1.188
 9354SOL    HW128961   6.402   1.768   1.194
 9354SOL    HW228962   6.300   1.672   1.279
 9355SOL     OW28963   6.558   0.961   4.558
 9355SOL    HW128964   6.623   0.974   4.482
 9355SOL    HW228965   6.465   0.974   4.524
 9356SOL     OW28966   4.248   4.951   2.451
 9356SOL    HW128967   4.192   4.909   2.379
 9356SOL    HW228968   4.320   4.887   2.479
 9357SOL     OW28969   2.452   3.329   0.327
 9357SOL    HW128970   2.519   3.256   0.313
 9357SOL    HW228971   2.446   3.385   0.244
 9358SOL     OW28972   5.599   4.005   1.863
 9358SOL    HW128973   5.647   4.050   1.939
 9358SOL    HW228974   5.647   3.920   1.840
 9359SOL     OW28975   7.007   3.850   6.277
 9359SOL    HW128976   0.002   3.861   6.375
 9359SOL    HW228977   6.914   3.881   6.255
 9360SOL     OW28978   1.770   0.141   5.326
 9360SOL    HW128979   1.780   0.050   5.285
 9360SOL    HW228980   1.860   0.185   5.329
 9361SOL     OW28981   2.983   6.107   2.867
 9361SOL    HW128982   3.041   6.152   2.800
 9361SOL    HW228983   2.980   6.160   2.951
 9362SOL     OW28984   2.434   1.087   1.939
 9362SOL    HW128985   2.342   1.064   1.972
 9362SOL    HW228986   2.435   1.085   1.839
 9363SOL     OW28987   3.303   5.441   1.778
 9363SOL    HW128988   3.249   5.431   1.862
 9363SOL    HW228989   3.262   5.385   1.706
 9364SOL     OW28990   4.571   2.765   6.519
 9364SOL    HW128991   4.507   2.700   6.477
 9364SOL    HW228992   4.637   2.796   6.451
 9365SOL     OW28993   2.600   2.333   5.250
 9365SOL    HW128994   2.596   2.431   5.266
 9365SOL    HW228995   2.689   2.309   5.210
 9366SOL     OW28996   3.288   1.756   0.084
 9366SOL    HW128997   3.307   1.849   0.055
 9366SOL    HW228998   3.282   1.752   0.184
 9367SOL     OW28999   0.357   5.326   4.339
 9367SOL    HW129000   0.306   5.251   4.381
 9367SOL    HW229001   0.406   5.377   4.410
 9368SOL     OW29002   3.604   1.955   2.340
 9368SOL    HW129003   3.615   2.010   2.422
 9368SOL    HW229004   3.637   1.862   2.357
 9369SOL     OW29005   6.650   1.588   6.045
 9369SOL    HW129006   6.672   1.515   6.110
 9369SOL    HW229007   6.551   1.597   6.037
 9370SOL     OW29008   5.411   1.146   3.004
 9370SOL    HW129009   5.319   1.185   2.996
 9370SOL    HW229010   5.443   1.118   2.914
 9371SOL     OW29011   1.525   5.431   0.100
 9371SOL    HW129012   1.471   5.440   0.017
 9371SOL    HW229013   1.621   5.417   0.077
 9372SOL     OW29014   5.502   6.476   3.221
 9372SOL    HW129015   5.453   6.397   3.259
 9372SOL    HW229016   5.601   6.460   3.229
 9373SOL     OW29017   4.510   2.029   2.880
 9373SOL    HW129018   4.578   2.082   2.829
 9373SOL    HW229019   4.521   1.932   2.861
 9374SOL     OW29020   5.718   2.520   0.393
 9374SOL    HW129021   5.707   2.525   0.294
 9374SOL    HW229022   5.809   2.484   0.414
 9375SOL     OW29023   6.779   1.261   3.179
 9375SOL    HW129024   6.703   1.250   3.243
 9375SOL    HW229025   6.747   1.310   3.098
 9376SOL     OW29026   3.139   3.642   0.604
 9376SOL    HW129027   3.119   3.730   0.562
 9376SOL    HW229028   3.080   3.628   0.684
 9377SOL     OW29029   6.840   5.473   3.299
 9377SOL    HW129030   6.761   5.424   3.335
 9377SOL    HW229031   6.921   5.415   3.304
 9378SOL     OW29032   2.292   0.135   5.706
 9378SOL    HW129033   2.293   0.142   5.607
 9378SOL    HW229034   2.337   0.216   5.746
 9379SOL     OW29035   4.912   4.374   4.829
 9379SOL    HW129036   4.990   4.326   4.870
 9379SOL    HW229037   4.924   4.473   4.841
 9380SOL     OW29038   6.101   6.212   5.681
 9380SOL    HW129039   6.191   6.175   5.705
 9380SOL    HW229040   6.070   6.273   5.754
 9381SOL     OW29041   3.008   3.177   5.469
 9381SOL    HW129042   3.004   3.264   5.420
 9381SOL    HW229043   2.919   3.131   5.462
 9382SOL     OW29044   3.896   1.280   3.231
 9382SOL    HW129045   3.901   1.214   3.156
 9382SOL    HW229046   3.806   1.324   3.230
 9383SOL     OW29047   3.487   5.883   4.898
 9383SOL    HW129048   3.395   5.892   4.938
 9383SOL    HW229049   3.516   5.788   4.904
 9384SOL     OW29050   4.519   6.277   2.075
 9384SOL    HW129051   4.442   6.304   2.017
 9384SOL    HW229052   4.501   6.308   2.169
 9385SOL     OW29053   3.825   1.676   2.634
 9385SOL    HW129054   3.747   1.617   2.611
 9385SOL    HW229055   3.887   1.627   2.696
 9386SOL     OW29056   3.254   6.070   4.299
 9386SOL    HW129057   3.297   6.155   4.328
 9386SOL    HW229058   3.283   6.048   4.205
 9387SOL     OW29059   4.266   0.413   1.131
 9387SOL    HW129060   4.273   0.424   1.032
 9387SOL    HW229061   4.200   0.341   1.152
 9388SOL     OW29062   1.461   5.753   3.000
 9388SOL    HW129063   1.428   5.838   2.961
 9388SOL    HW229064   1.392   5.714   3.061
 9389SOL     OW29065   2.659   0.195   4.860
 9389SOL    HW129066   2.603   0.243   4.792
 9389SOL    HW229067   2.608   0.186   4.945
 9390SOL     OW29068   3.871   5.849   3.097
 9390SOL    HW129069   3.793   5.902   3.063
 9390SOL    HW229070   3.838   5.777   3.158
 9391SOL     OW29071   2.028   0.643   5.500
 9391SOL    HW129072   2.120   0.665   5.467
 9391SOL    HW229073   1.971   0.725   5.497
 9392SOL     OW29074   0.464   6.756   4.531
 9392SOL    HW129075   0.560   6.786   4.534
 9392SOL    HW229076   0.426   6.776   4.441
 9393SOL     OW29077   4.141   1.618   4.397
 9393SOL    HW129078   4.102   1.552   4.461
 9393SOL    HW229079   4.238   1.629   4.416
 9394SOL     OW29080   5.982   2.484   3.440
 9394SOL    HW129081   5.970   2.444   3.531
 9394SOL    HW229082   6.031   2.571   3.449
 9395SOL     OW29083   2.616   2.478   0.450
 9395SOL    HW129084   2.669   2.398   0.477
 9395SOL    HW229085   2.638   2.554   0.511
 9396SOL     OW29086   0.489   6.510   4.913
 9396SOL    HW129087   0.398   6.540   4.883
 9396SOL    HW229088   0.551   6.589   4.912
 9397SOL     OW29089   2.684   0.145   0.258
 9397SOL    HW129090   2.660   0.242   0.269
 9397SOL    HW229091   2.779   0.138   0.228
 9398SOL     OW29092   1.821   0.325   6.485
 9398SOL    HW129093   1.836   0.233   6.448
 9398SOL    HW229094   1.897   0.350   6.545
 9399SOL     OW29095   0.319   2.328   0.115
 9399SOL    HW129096   0.404   2.324   0.168
 9399SOL    HW229097   0.341   2.317   0.018
 9400SOL     OW29098   5.466   3.652   1.674
 9400SOL    HW129099   5.467   3.726   1.741
 9400SOL    HW229100   5.373   3.635   1.643
 9401SOL     OW29101   2.930   6.092   3.553
 9401SOL    HW129102   2.970   6.137   3.632
 9401SOL    HW229103   2.994   6.023   3.518
 9402SOL     OW29104   1.690   4.622   5.623
 9402SOL    HW129105   1.772   4.577   5.658
 9402SOL    HW229106   1.635   4.657   5.699
 9403SOL     OW29107   4.515   1.655   2.917
 9403SOL    HW129108   4.597   1.707   2.941
 9403SOL    HW229109   4.541   1.580   2.856
 9404SOL     OW29110   1.331   4.217   6.438
 9404SOL    HW129111   1.400   4.289   6.444
 9404SOL    HW229112   1.311   4.197   6.342
 9405SOL     OW29113   6.675   6.753   2.115
 9405SOL    HW129114   6.695   6.659   2.144
 9405SOL    HW229115   6.609   6.752   2.040
 9406SOL     OW29116   6.865   1.636   5.769
 9406SOL    HW129117   6.819   1.685   5.842
 9406SOL    HW229118   6.900   1.549   5.803
 9407SOL     OW29119   2.766   6.531   2.493
 9407SOL    HW129120   2.813   6.597   2.553
 9407SOL    HW229121   2.791   6.438   2.521
 9408SOL     OW29122   3.801   1.901   5.628
 9408SOL    HW129123   3.737   1.954   5.572
 9408SOL    HW229124   3.818   1.949   5.714
 9409SOL     OW29125   5.133   4.250   5.034
 9409SOL    HW129126   5.219   4.246   5.084
 9409SOL    HW229127   5.078   4.169   5.055
 9410SOL     OW29128   3.624   5.431   1.807
 9410SOL    HW129129   3.633   5.378   1.892
 9410SOL    HW229130   3.529   5.457   1.794
 9411SOL     OW29131   3.395   4.562   1.094
 9411SOL    HW129132   3.468   4.498   1.118
 9411SOL    HW229133   3.365   4.610   1.177
 9412SOL     OW29134   0.055   3.501   1.637
 9412SOL    HW129135   0.070   3.491   1.539
 9412SOL    HW229136   0.128   3.455   1.687
 9413SOL     OW29137   4.532   5.626   5.054
 9413SOL    HW129138   4.513   5.551   4.991
 9413SOL    HW229139   4.590   5.693   5.010
 9414SOL     OW29140   3.598   1.790   3.464
 9414SOL    HW129141   3.580   1.716   3.529
 9414SOL    HW229142   3.696   1.792   3.442
 9415SOL     OW29143   2.431   6.433   2.615
 9415SOL    HW129144   2.436   6.370   2.537
 9415SOL    HW229145   2.363   6.504   2.596
 9416SOL     OW29146   0.752   1.722   1.794
 9416SOL    HW129147   0.779   1.757   1.704
 9416SOL    HW229148   0.671   1.664   1.785
 9417SOL     OW29149   3.076   0.875   5.867
 9417SOL    HW129150   2.982   0.862   5.836
 9417SOL    HW229151   3.103   0.799   5.927
 9418SOL     OW29152   3.107   6.865   0.773
 9418SOL    HW129153   3.155   6.832   0.854
 9418SOL    HW229154   3.160   6.938   0.730
 9419SOL     OW29155   3.158   6.275   5.554
 9419SOL    HW129156   3.234   6.332   5.585
 9419SOL    HW229157   3.169   6.183   5.590
 9420SOL     OW29158   0.707   1.971   4.599
 9420SOL    HW129159   0.795   1.931   4.625
 9420SOL    HW229160   0.689   1.951   4.503
 9421SOL     OW29161   2.399   6.045   5.054
 9421SOL    HW129162   2.358   5.969   5.104
 9421SOL    HW229163   2.487   6.068   5.094
 9422SOL     OW29164   5.036   0.100   2.817
 9422SOL    HW129165   5.133   0.119   2.802
 9422SOL    HW229166   5.011   0.128   2.909
 9423SOL     OW29167   4.060   0.530   2.847
 9423SOL    HW129168   3.977   0.499   2.800
 9423SOL    HW229169   4.043   0.619   2.889
 9424SOL     OW29170   4.600   0.538   5.142
 9424SOL    HW129171   4.654   0.622   5.140
 9424SOL    HW229172   4.647   0.469   5.197
 9425SOL     OW29173   6.941   3.461   6.455
 9425SOL    HW129174   6.854   3.477   6.408
 9425SOL    HW229175   6.930   3.385   6.520
 9426SOL     OW29176   2.926   1.724   0.229
 9426SOL    HW129177   2.871   1.766   0.301
 9426SOL    HW229178   3.002   1.784   0.204
 9427SOL     OW29179   2.709   4.871   5.166
 9427SOL    HW129180   2.734   4.782   5.128
 9427SOL    HW229181   2.661   4.925   5.096
 9428SOL     OW29182   4.967   0.464   1.569
 9428SOL    HW129183   5.038   0.476   1.638
 9428SOL    HW229184   4.952   0.550   1.520
 9429SOL     OW29185   1.246   4.747   1.619
 9429SOL    HW129186   1.256   4.649   1.606
 9429SOL    HW229187   1.158   4.766   1.664
 9430SOL     OW29188   7.001   6.533   2.173
 9430SOL    HW129189   0.057   6.502   2.120
 9430SOL    HW229190   0.010   6.558   2.265
 9431SOL     OW29191   5.911   4.903   0.757
 9431SOL    HW129192   5.986   4.841   0.734
 9431SOL    HW229193   5.916   4.927   0.854
 9432SOL     OW29194   0.302   0.222   3.480
 9432SOL    HW129195   0.208   0.220   3.513
 9432SOL    HW229196   0.318   0.306   3.429
 9433SOL     OW29197   3.352   4.890   3.771
 9433SOL    HW129198   3.322   4.859   3.861
 9433SOL    HW229199   3.273   4.919   3.717
 9434SOL     OW29200   5.630   4.450   3.440
 9434SOL    HW129201   5.658   4.439   3.536
 9434SOL    HW229202   5.541   4.495   3.436
 9435SOL     OW29203   0.932   1.562   3.777
 9435SOL    HW129204   0.980   1.549   3.691
 9435SOL    HW229205   0.834   1.542   3.765
 9436SOL     OW29206   1.027   4.543   1.727
 9436SOL    HW129207   1.122   4.512   1.736
 9436SOL    HW229208   0.993   4.572   1.816
 9437SOL     OW29209   1.323   6.482   3.738
 9437SOL    HW129210   1.249   6.421   3.764
 9437SOL    HW229211   1.292   6.545   3.667
 9438SOL     OW29212   1.178   6.304   1.571
 9438SOL    HW129213   1.127   6.368   1.513
 9438SOL    HW229214   1.127   6.219   1.579
 9439SOL     OW29215   0.489   3.275   1.717
 9439SOL    HW129216   0.550   3.304   1.643
 9439SOL    HW229217   0.442   3.191   1.689
 9440SOL     OW29218   4.699   6.040   3.980
 9440SOL    HW129219   4.684   5.941   3.985
 9440SOL    HW229220   4.737   6.064   3.891
 9441SOL     OW29221   1.613   5.135   5.061
 9441SOL    HW129222   1.669   5.196   5.006
 9441SOL    HW229223   1.516   5.157   5.046
 9442SOL     OW29224   6.287   2.580   0.333
 9442SOL    HW129225   6.339   2.521   0.271
 9442SOL    HW229226   6.343   2.601   0.413
 9443SOL     OW29227   2.121   4.935   1.004
 9443SOL    HW129228   2.111   5.029   0.971
 9443SOL    HW229229   2.209   4.925   1.049
 9444SOL     OW29230   0.706   4.193   6.442
 9444SOL    HW129231   0.725   4.194   6.540
 9444SOL    HW229232   0.790   4.214   6.392
 9445SOL     OW29233   5.156   3.374   2.158
 9445SOL    HW129234   5.196   3.461   2.128
 9445SOL    HW229235   5.057   3.379   2.153
 9446SOL     OW29236   6.389   6.816   3.568
 9446SOL    HW129237   6.300   6.819   3.522
 9446SOL    HW229238   6.460   6.791   3.502
 9447SOL     OW29239   5.803   3.549   3.494
 9447SOL    HW129240   5.798   3.523   3.398
 9447SOL    HW229241   5.894   3.532   3.529
 9448SOL     OW29242   5.685   6.557   5.839
 9448SOL    HW129243   5.631   6.494   5.783
 9448SOL    HW229244   5.644   6.563   5.930
 9449SOL     OW29245   6.964   6.013   6.452
 9449SOL    HW129246   6.947   5.916   6.435
 9449SOL    HW229247   0.040   6.028   6.467
 9450SOL     OW29248   3.291   4.906   4.804
 9450SOL    HW129249   3.366   4.898   4.739
 9450SOL    HW229250   3.205   4.880   4.759
 9451SOL     OW29251   4.290   5.610   6.264
 9451SOL    HW129252   4.292   5.703   6.300
 9451SOL    HW229253   4.374   5.562   6.291
 9452SOL     OW29254   1.633   2.919   0.805
 9452SOL    HW129255   1.584   2.832   0.800
 9452SOL    HW229256   1.656   2.938   0.901
 9453SOL     OW29257   2.256   4.571   3.384
 9453SOL    HW129258   2.192   4.569   3.461
 9453SOL    HW229259   2.274   4.478   3.353
 9454SOL     OW29260   1.660   3.486   5.932
 9454SOL    HW129261   1.721   3.554   5.891
 9454SOL    HW229262   1.676   3.397   5.889
 9455SOL     OW29263   3.598   1.532   2.620
 9455SOL    HW129264   3.522   1.477   2.585
 9455SOL    HW229265   3.570   1.577   2.704
 9456SOL     OW29266   0.009   4.334   0.093
 9456SOL    HW129267   0.105   4.358   0.111
 9456SOL    HW229268   6.994   4.392   0.020
 9457SOL     OW29269   1.935   3.603   6.126
 9457SOL    HW129270   2.025   3.559   6.123
 9457SOL    HW229271   1.872   3.554   6.066
 9458SOL     OW29272   1.072   3.809   6.294
 9458SOL    HW129273   1.139   3.867   6.339
 9458SOL    HW229274   1.011   3.768   6.363
 9459SOL     OW29275   6.396   4.439   2.625
 9459SOL    HW129276   6.351   4.350   2.623
 9459SOL    HW229277   6.457   4.444   2.704
 9460SOL     OW29278   0.412   1.597   4.425
 9460SOL    HW129279   0.455   1.540   4.355
 9460SOL    HW229280   0.464   1.591   4.510
 9461SOL     OW29281   6.773   1.878   3.724
 9461SOL    HW129282   6.854   1.830   3.690
 9461SOL    HW229283   6.691   1.828   3.698
 9462SOL     OW29284   2.040   4.142   2.872
 9462SOL    HW129285   1.945   4.140   2.902
 9462SOL    HW229286   2.060   4.229   2.828
 9463SOL     OW29287   0.480   1.128   1.400
 9463SOL    HW129288   0.546   1.057   1.378
 9463SOL    HW229289   0.478   1.196   1.326
 9464SOL     OW29290   5.437   6.580   0.410
 9464SOL    HW129291   5.349   6.602   0.452
 9464SOL    HW229292   5.456   6.644   0.337
 9465SOL     OW29293   0.003   7.013   3.046
 9465SOL    HW129294   0.046   6.978   2.963
 9465SOL    HW229295   0.074   0.017   3.111
 9466SOL     OW29296   3.881   3.723   5.224
 9466SOL    HW129297   3.822   3.642   5.225
 9466SOL    HW229298   3.929   3.728   5.136
 9467SOL     OW29299   0.912   2.920   1.705
 9467SOL    HW129300   0.821   2.948   1.674
 9467SOL    HW229301   0.980   2.945   1.636
 9468SOL     OW29302   5.570   2.285   6.213
 9468SOL    HW129303   5.566   2.366   6.271
 9468SOL    HW229304   5.533   2.308   6.123
 9469SOL     OW29305   5.952   5.735   1.519
 9469SOL    HW129306   5.984   5.691   1.604
 9469SOL    HW229307   6.031   5.768   1.468
 9470SOL     OW29308   5.788   2.938   6.135
 9470SOL    HW129309   5.867   2.902   6.086
 9470SOL    HW229310   5.815   3.021   6.184
 9471SOL     OW29311   6.110   2.277   4.981
 9471SOL    HW129312   6.085   2.329   5.063
 9471SOL    HW229313   6.105   2.337   4.901
 9472SOL     OW29314   6.935   3.910   4.220
 9472SOL    HW129315   7.007   3.973   4.191
 9472SOL    HW229316   6.921   3.841   4.148
 9473SOL     OW29317   3.488   6.087   5.769
 9473SOL    HW129318   3.547   6.098   5.689
 9473SOL    HW229319   3.528   6.134   5.847
 9474SOL     OW29320   6.455   3.639   0.974
 9474SOL    HW129321   6.512   3.598   0.903
 9474SOL    HW229322   6.440   3.573   1.048
 9475SOL     OW29323   3.084   2.996   0.300
 9475SOL    HW129324   3.173   3.040   0.310
 9475SOL    HW229325   3.089   2.903   0.338
 9476SOL     OW29326   3.741   3.682   4.926
 9476SOL    HW129327   3.715   3.722   4.838
 9476SOL    HW229328   3.808   3.742   4.971
 9477SOL     OW29329   6.925   3.581   2.082
 9477SOL    HW129330   6.872   3.590   1.998
 9477SOL    HW229331   6.968   3.490   2.084
 9478SOL     OW29332   6.022   3.462   6.137
 9478SOL    HW129333   5.958   3.531   6.104
 9478SOL    HW229334   6.008   3.377   6.086
 9479SOL     OW29335   5.988   6.400   6.235
 9479SOL    HW129336   5.934   6.473   6.279
 9479SOL    HW229337   6.075   6.390   6.283
 9480SOL     OW29338   4.452   4.697   6.745
 9480SOL    HW129339   4.544   4.709   6.708
 9480SOL    HW229340   4.385   4.704   6.670
 9481SOL     OW29341   5.902   3.884   1.402
 9481SOL    HW129342   5.968   3.881   1.476
 9481SOL    HW229343   5.822   3.938   1.430
 9482SOL     OW29344   6.296   1.466   3.348
 9482SOL    HW129345   6.378   1.411   3.360
 9482SOL    HW229346   6.255   1.485   3.437
 9483SOL     OW29347   1.497   1.635   0.794
 9483SOL    HW129348   1.516   1.729   0.821
 9483SOL    HW229349   1.498   1.576   0.875
 9484SOL     OW29350   4.630   1.492   3.713
 9484SOL    HW129351   4.663   1.405   3.676
 9484SOL    HW229352   4.569   1.535   3.646
 9485SOL     OW29353   0.917   0.049   2.188
 9485SOL    HW129354   0.841   0.012   2.241
 9485SOL    HW229355   0.906   0.148   2.178
 9486SOL     OW29356   2.219   4.998   1.357
 9486SOL    HW129357   2.175   4.918   1.316
 9486SOL    HW229358   2.281   4.969   1.430
 9487SOL     OW29359   3.028   3.221   3.408
 9487SOL    HW129360   3.031   3.305   3.353
 9487SOL    HW229361   3.006   3.244   3.503
 9488SOL     OW29362   2.885   6.399   1.246
 9488SOL    HW129363   2.942   6.409   1.165
 9488SOL    HW229364   2.890   6.484   1.300
 9489SOL     OW29365   3.429   3.919   1.611
 9489SOL    HW129366   3.472   3.838   1.651
 9489SOL    HW229367   3.389   3.975   1.683
 9490SOL     OW29368   6.208   6.091   0.053
 9490SOL    HW129369   6.115   6.070   0.023
 9490SOL    HW229370   6.273   6.058   7.006
 9491SOL     OW29371   0.183   4.695   4.057
 9491SOL    HW129372   0.184   4.657   3.964
 9491SOL    HW229373   0.270   4.740   4.075
 9492SOL     OW29374   3.338   3.778   2.751
 9492SOL    HW129375   3.265   3.830   2.707
 9492SOL    HW229376   3.403   3.840   2.795
 9493SOL     OW29377   4.049   5.087   3.780
 9493SOL    HW129378   4.117   5.155   3.751
 9493SOL    HW229379   4.095   5.001   3.801
 9494SOL     OW29380   3.853   4.364   0.914
 9494SOL    HW129381   3.828   4.310   0.834
 9494SOL    HW229382   3.914   4.311   0.973
 9495SOL     OW29383   6.130   2.515   4.486
 9495SOL    HW129384   6.223   2.547   4.505
 9495SOL    HW229385   6.066   2.591   4.493
 9496SOL     OW29386   5.109   4.896   0.812
 9496SOL    HW129387   5.164   4.972   0.846
 9496SOL    HW229388   5.165   4.814   0.807
 9497SOL     OW29389   5.325   4.592   0.370
 9497SOL    HW129390   5.305   4.684   0.334
 9497SOL    HW229391   5.378   4.600   0.454
 9498SOL     OW29392   5.723   0.565   6.241
 9498SOL    HW129393   5.755   0.625   6.168
 9498SOL    HW229394   5.796   0.550   6.307
 9499SOL     OW29395   2.372   3.158   5.909
 9499SOL    HW129396   2.326   3.247   5.908
 9499SOL    HW229397   2.406   3.138   5.817
 9500SOL     OW29398   3.620   6.884   1.780
 9500SOL    HW129399   3.640   6.885   1.682
 9500SOL    HW229400   3.706   6.889   1.832
 9501SOL     OW29401   2.878   1.418   4.325
 9501SOL    HW129402   2.813   1.399   4.251
 9501SOL    HW229403   2.933   1.498   4.301
 9502SOL     OW29404   0.427   1.827   4.708
 9502SOL    HW129405   0.458   1.902   4.649
 9502SOL    HW229406   0.336   1.849   4.744
 9503SOL     OW29407   0.642   1.219   1.594
 9503SOL    HW129408   0.729   1.179   1.564
 9503SOL    HW229409   0.570   1.196   1.528
 9504SOL     OW29410   0.460   2.503   1.070
 9504SOL    HW129411   0.498   2.540   0.985
 9504SOL    HW229412   0.534   2.479   1.132
 9505SOL     OW29413   5.420   3.881   3.531
 9505SOL    HW129414   5.354   3.854   3.461
 9505SOL    HW229415   5.504   3.828   3.519
 9506SOL     OW29416   0.424   3.269   6.491
 9506SOL    HW129417   0.441   3.368   6.490
 9506SOL    HW229418   0.325   3.252   6.488
 9507SOL     OW29419   1.911   1.358   3.934
 9507SOL    HW129420   1.979   1.356   3.860
 9507SOL    HW229421   1.951   1.402   4.014
 9508SOL     OW29422   6.327   2.703   0.605
 9508SOL    HW129423   6.301   2.626   0.664
 9508SOL    HW229424   6.337   2.786   0.661
 9509SOL     OW29425   1.262   6.591   5.330
 9509SOL    HW129426   1.292   6.496   5.337
 9509SOL    HW229427   1.162   6.594   5.320
 9510SOL     OW29428   0.465   3.824   1.668
 9510SOL    HW129429   0.403   3.901   1.680
 9510SOL    HW229430   0.486   3.814   1.570
 9511SOL     OW29431   1.234   1.444   6.803
 9511SOL    HW129432   1.326   1.459   6.838
 9511SOL    HW229433   1.190   1.371   6.854
 9512SOL     OW29434   5.839   2.017   3.128
 9512SOL    HW129435   5.897   2.097   3.114
 9512SOL    HW229436   5.747   2.046   3.153
 9513SOL     OW29437   1.215   3.149   5.163
 9513SOL    HW129438   1.179   3.203   5.087
 9513SOL    HW229439   1.250   3.062   5.129
 9514SOL     OW29440   1.390   3.759   6.725
 9514SOL    HW129441   1.340   3.840   6.697
 9514SOL    HW229442   1.477   3.786   6.767
 9515SOL     OW29443   1.638   6.249   0.387
 9515SOL    HW129444   1.617   6.345   0.366
 9515SOL    HW229445   1.553   6.196   0.389
 9516SOL     OW29446   4.902   3.512   4.500
 9516SOL    HW129447   4.958   3.493   4.581
 9516SOL    HW229448   4.808   3.531   4.528
 9517SOL     OW29449   1.217   4.931   0.326
 9517SOL    HW129450   1.175   4.844   0.352
 9517SOL    HW229451   1.278   4.961   0.399
 9518SOL     OW29452   0.841   2.068   6.880
 9518SOL    HW129453   0.741   2.069   6.885
 9518SOL    HW229454   0.872   1.973   6.868
 9519SOL     OW29455   3.866   3.356   3.470
 9519SOL    HW129456   3.955   3.333   3.431
 9519SOL    HW229457   3.878   3.429   3.538
 9520SOL     OW29458   6.729   1.633   3.359
 9520SOL    HW129459   6.683   1.719   3.336
 9520SOL    HW229460   6.769   1.594   3.276
 9521SOL     OW29461   3.569   3.695   1.646
 9521SOL    HW129462   3.596   3.662   1.736
 9521SOL    HW229463   3.488   3.646   1.615
 9522SOL     OW29464   4.140   5.670   3.010
 9522SOL    HW129465   4.204   5.744   2.992
 9522SOL    HW229466   4.050   5.707   3.031
 9523SOL     OW29467   2.566   5.281   4.801
 9523SOL    HW129468   2.499   5.219   4.842
 9523SOL    HW229469   2.621   5.323   4.873
 9524SOL     OW29470   1.656   2.515   0.876
 9524SOL    HW129471   1.628   2.592   0.935
 9524SOL    HW229472   1.578   2.455   0.860
 9525SOL     OW29473   1.411   2.159   4.929
 9525SOL    HW129474   1.457   2.199   4.850
 9525SOL    HW229475   1.469   2.170   5.010
 9526SOL     OW29476   5.991   4.560   1.735
 9526SOL    HW129477   5.999   4.617   1.654
 9526SOL    HW229478   5.895   4.546   1.757
 9527SOL     OW29479   2.404   0.457   4.970
 9527SOL    HW129480   2.360   0.520   5.034
 9527SOL    HW229481   2.400   0.494   4.878
 9528SOL     OW29482   5.814   1.532   1.029
 9528SOL    HW129483   5.873   1.612   1.045
 9528SOL    HW229484   5.720   1.563   1.015
 9529SOL     OW29485   5.545   4.003   0.336
 9529SOL    HW129486   5.641   4.024   0.353
 9529SOL    HW229487   5.492   4.016   0.420
 9530SOL     OW29488   0.903   4.849   4.163
 9530SOL    HW129489   1.002   4.866   4.167
 9530SOL    HW229490   0.880   4.807   4.075
 9531SOL     OW29491   4.686   4.397   2.936
 9531SOL    HW129492   4.680   4.326   2.866
 9531SOL    HW229493   4.748   4.469   2.905
 9532SOL     OW29494   0.293   5.264   1.267
 9532SOL    HW129495   0.327   5.344   1.217
 9532SOL    HW229496   0.271   5.290   1.361
 9533SOL     OW29497   0.926   5.000   3.570
 9533SOL    HW129498   0.933   5.069   3.641
 9533SOL    HW229499   0.833   4.999   3.533
 9534SOL     OW29500   6.015   4.332   4.724
 9534SOL    HW129501   6.079   4.262   4.756
 9534SOL    HW229502   6.066   4.416   4.703
 9535SOL     OW29503   1.867   0.883   6.184
 9535SOL    HW129504   1.820   0.846   6.105
 9535SOL    HW229505   1.919   0.965   6.157
 9536SOL     OW29506   3.262   3.574   5.611
 9536SOL    HW129507   3.243   3.653   5.552
 9536SOL    HW229508   3.331   3.516   5.566
 9537SOL     OW29509   2.845   0.984   4.843
 9537SOL    HW129510   2.837   1.079   4.874
 9537SOL    HW229511   2.937   0.967   4.807
 9538SOL     OW29512   4.836   0.543   4.355
 9538SOL    HW129513   4.775   0.516   4.430
 9538SOL    HW229514   4.782   0.553   4.271
 9539SOL     OW29515   2.927   3.713   4.682
 9539SOL    HW129516   2.880   3.723   4.594
 9539SOL    HW229517   3.021   3.747   4.674
 9540SOL     OW29518   5.654   5.097   4.338
 9540SOL    HW129519   5.723   5.062   4.274
 9540SOL    HW229520   5.679   5.071   4.431
 9541SOL     OW29521   2.181   0.888   6.225
 9541SOL    HW129522   2.130   0.804   6.204
 9541SOL    HW229523   2.143   0.964   6.172
 9542SOL     OW29524   5.648   5.000   4.607
 9542SOL    HW129525   5.595   4.915   4.607
 9542SOL    HW229526   5.606   5.065   4.670
 9543SOL     OW29527   3.927   0.656   6.503
 9543SOL    HW129528   3.910   0.559   6.483
 9543SOL    HW229529   3.874   0.683   6.583
 9544SOL     OW29530   5.467   3.117   4.345
 9544SOL    HW129531   5.394   3.177   4.376
 9544SOL    HW229532   5.440   3.022   4.360
 9545SOL     OW29533   5.630   5.202   2.638
 9545SOL    HW129534   5.613   5.138   2.713
 9545SOL    HW229535   5.623   5.153   2.551
 9546SOL     OW29536   4.254   1.119   5.806
 9546SOL    HW129537   4.181   1.175   5.844
 9546SOL    HW229538   4.303   1.073   5.881
 9547SOL     OW29539   2.616   5.380   3.685
 9547SOL    HW129540   2.671   5.379   3.601
 9547SOL    HW229541   2.615   5.289   3.725
 9548SOL     OW29542   6.991   5.394   4.543
 9548SOL    HW129543   7.001   5.493   4.532
 9548SOL    HW229544   6.926   5.375   4.617
 9549SOL     OW29545   2.754   1.214   1.972
 9549SOL    HW129546   2.716   1.133   1.928
 9549SOL    HW229547   2.761   1.288   1.905
 9550SOL     OW29548   6.699   1.025   7.010
 9550SOL    HW129549   6.662   1.023   6.917
 9550SOL    HW229550   6.799   1.030   7.006
 9551SOL     OW29551   5.676   2.675   6.099
 9551SOL    HW129552   5.720   2.759   6.131
 9551SOL    HW229553   5.622   2.695   6.017
 9552SOL     OW29554   2.499   5.909   5.762
 9552SOL    HW129555   2.451   5.853   5.694
 9552SOL    HW229556   2.569   5.855   5.807
 9553SOL     OW29557   5.739   2.213   0.468
 9553SOL    HW129558   5.714   2.119   0.447
 9553SOL    HW229559   5.786   2.254   0.390
 9554SOL     OW29560   1.457   6.485   3.262
 9554SOL    HW129561   1.433   6.579   3.284
 9554SOL    HW229562   1.389   6.447   3.200
 9555SOL     OW29563   0.194   1.251   3.224
 9555SOL    HW129564   0.114   1.289   3.270
 9555SOL    HW229565   0.274   1.309   3.242
 9556SOL     OW29566   1.265   3.485   0.880
 9556SOL    HW129567   1.186   3.455   0.826
 9556SOL    HW229568   1.233   3.528   0.965
 9557SOL     OW29569   5.615   6.834   1.181
 9557SOL    HW129570   5.572   6.891   1.111
 9557SOL    HW229571   5.596   6.873   1.271
 9558SOL     OW29572   5.943   5.954   5.588
 9558SOL    HW129573   5.907   5.867   5.622
 9558SOL    HW229574   5.913   6.029   5.647
 9559SOL     OW29575   0.745   4.770   0.675
 9559SOL    HW129576   0.680   4.798   0.747
 9559SOL    HW229577   0.827   4.826   0.682
 9560SOL     OW29578   2.332   0.983   2.734
 9560SOL    HW129579   2.337   0.897   2.786
 9560SOL    HW229580   2.411   1.040   2.756
 9561SOL     OW29581   0.679   0.936   1.303
 9561SOL    HW129582   0.690   0.934   1.402
 9561SOL    HW229583   0.763   0.902   1.260
 9562SOL     OW29584   2.817   0.054   4.660
 9562SOL    HW129585   2.808   6.980   4.634
 9562SOL    HW229586   2.754   0.075   4.735
 9563SOL     OW29587   0.174   6.925   0.272
 9563SOL    HW129588   0.100   6.882   0.324
 9563SOL    HW229589   0.227   6.854   0.225
 9564SOL     OW29590   2.556   1.052   0.288
 9564SOL    HW129591   2.470   1.002   0.288
 9564SOL    HW229592   2.539   1.148   0.265
 9565SOL     OW29593   3.882   1.017   5.401
 9565SOL    HW129594   3.892   0.965   5.317
 9565SOL    HW229595   3.973   1.034   5.440
 9566SOL     OW29596   3.056   5.948   0.100
 9566SOL    HW129597   2.979   5.987   0.151
 9566SOL    HW229598   3.139   5.953   0.156
 9567SOL     OW29599   4.933   4.715   0.584
 9567SOL    HW129600   4.929   4.781   0.508
 9567SOL    HW229601   5.006   4.741   0.647
 9568SOL     OW29602   4.619   1.972   6.949
 9568SOL    HW129603   4.636   1.965   6.850
 9568SOL    HW229604   4.706   1.982   6.997
 9569SOL     OW29605   6.926   2.055   2.275
 9569SOL    HW129606   6.928   1.961   2.309
 9569SOL    HW229607   7.017   2.096   2.287
 9570SOL     OW29608   0.701   3.347   1.544
 9570SOL    HW129609   0.713   3.441   1.512
 9570SOL    HW229610   0.765   3.287   1.496
 9571SOL     OW29611   3.521   2.864   5.757
 9571SOL    HW129612   3.438   2.918   5.746
 9571SOL    HW229613   3.599   2.925   5.769
 9572SOL     OW29614   1.856   4.872   1.910
 9572SOL    HW129615   1.803   4.907   1.987
 9572SOL    HW229616   1.841   4.774   1.902
 9573SOL     OW29617   0.792   2.389   6.312
 9573SOL    HW129618   0.871   2.339   6.276
 9573SOL    HW229619   0.787   2.480   6.269
 9574SOL     OW29620   3.613   2.869   2.891
 9574SOL    HW129621   3.665   2.954   2.897
 9574SOL    HW229622   3.515   2.889   2.893
 9575SOL     OW29623   0.652   1.257   2.049
 9575SOL    HW129624   0.567   1.209   2.072
 9575SOL    HW229625   0.704   1.202   1.984
 9576SOL     OW29626   1.944   1.935   0.331
 9576SOL    HW129627   1.938   1.841   0.297
 9576SOL    HW229628   2.000   1.937   0.413
 9577SOL     OW29629   0.632   0.547   6.033
 9577SOL    HW129630   0.716   0.543   5.979
 9577SOL    HW229631   0.555   0.571   5.975
 9578SOL     OW29632   1.133   3.844   3.030
 9578SOL    HW129633   1.098   3.751   3.018
 9578SOL    HW229634   1.160   3.857   3.126
 9579SOL     OW29635   0.236   5.076   3.582
 9579SOL    HW129636   0.291   4.993   3.573
 9579SOL    HW229637   0.143   5.052   3.610
 9580SOL     OW29638   4.530   3.565   0.873
 9580SOL    HW129639   4.480   3.597   0.792
 9580SOL    HW229640   4.612   3.516   0.844
 9581SOL     OW29641   0.571   0.061   6.654
 9581SOL    HW129642   0.534   0.124   6.586
 9581SOL    HW229643   0.534   0.083   6.744
 9582SOL     OW29644   4.426   5.221   5.095
 9582SOL    HW129645   4.493   5.235   5.169
 9582SOL    HW229646   4.449   5.280   5.018
 9583SOL     OW29647   3.060   3.890   1.506
 9583SOL    HW129648   3.084   3.824   1.434
 9583SOL    HW229649   2.965   3.877   1.532
 9584SOL     OW29650   0.051   5.047   5.736
 9584SOL    HW129651   6.976   5.027   5.722
 9584SOL    HW229652   0.062   5.112   5.811
 9585SOL     OW29653   6.089   6.607   3.480
 9585SOL    HW129654   5.993   6.637   3.488
 9585SOL    HW229655   6.143   6.681   3.440
 9586SOL     OW29656   5.253   5.070   2.220
 9586SOL    HW129657   5.169   5.026   2.249
 9586SOL    HW229658   5.325   5.000   2.209
 9587SOL     OW29659   0.863   0.001   1.308
 9587SOL    HW129660   0.767   6.994   1.307
 9587SOL    HW229661   0.903   7.002   1.398
 9588SOL     OW29662   6.282   6.664   1.458
 9588SOL    HW129663   6.344   6.587   1.444
 9588SOL    HW229664   6.250   6.698   1.370
 9589SOL     OW29665   1.819   4.987   0.216
 9589SOL    HW129666   1.723   5.010   0.204
 9589SOL    HW229667   1.876   5.052   0.166
 9590SOL     OW29668   5.834   3.359   1.841
 9590SOL    HW129669   5.862   3.327   1.932
 9590SOL    HW229670   5.739   3.388   1.844
 9591SOL     OW29671   2.735   5.260   5.672
 9591SOL    HW129672   2.644   5.227   5.694
 9591SOL    HW229673   2.781   5.195   5.612
 9592SOL     OW29674   2.896   4.300   0.431
 9592SOL    HW129675   2.974   4.262   0.381
 9592SOL    HW229676   2.857   4.376   0.379
 9593SOL     OW29677   0.517   1.230   6.440
 9593SOL    HW129678   0.432   1.179   6.425
 9593SOL    HW229679   0.594   1.176   6.408
 9594SOL     OW29680   1.773   5.030   3.749
 9594SOL    HW129681   1.706   5.095   3.713
 9594SOL    HW229682   1.746   5.003   3.842
 9595SOL     OW29683   0.428   2.925   4.542
 9595SOL    HW129684   0.342   2.881   4.517
 9595SOL    HW229685   0.502   2.859   4.539
 9596SOL     OW29686   1.001   5.262   6.615
 9596SOL    HW129687   0.999   5.163   6.632
 9596SOL    HW229688   1.029   5.278   6.520
 9597SOL     OW29689   6.967   4.336   1.399
 9597SOL    HW129690   0.027   4.391   1.420
 9597SOL    HW229691   6.910   4.329   1.481
 9598SOL     OW29692   1.457   4.976   3.292
 9598SOL    HW129693   1.390   4.935   3.354
 9598SOL    HW229694   1.532   4.912   3.276
 9599SOL     OW29695   2.688   0.616   4.239
 9599SOL    HW129696   2.693   0.523   4.276
 9599SOL    HW229697   2.681   0.681   4.314
 9600SOL     OW29698   3.444   6.624   0.122
 9600SOL    HW129699   3.348   6.621   0.097
 9600SOL    HW229700   3.457   6.689   0.198
 9601SOL     OW29701   5.021   4.023   0.988
 9601SOL    HW129702   4.980   3.986   1.071
 9601SOL    HW229703   5.118   4.037   1.002
 9602SOL     OW29704   5.914   4.121   6.301
 9602SOL    HW129705   5.892   4.027   6.324
 9602SOL    HW229706   5.961   4.164   6.378
 9603SOL     OW29707   4.694   1.563   5.125
 9603SOL    HW129708   4.679   1.467   5.145
 9603SOL    HW229709   4.606   1.610   5.120
 9604SOL     OW29710   4.626   0.518   0.338
 9604SOL    HW129711   4.583   0.459   0.407
 9604SOL    HW229712   4.601   0.613   0.356
 9605SOL     OW29713   0.866   5.674   3.514
 9605SOL    HW129714   0.828   5.743   3.452
 9605SOL    HW229715   0.808   5.666   3.595
 9606SOL     OW29716   1.956   6.262   6.893
 9606SOL    HW129717   1.881   6.224   6.839
 9606SOL    HW229718   2.012   6.187   6.929
 9607SOL     OW29719   1.855   1.528   6.670
 9607SOL    HW129720   1.913   1.447   6.677
 9607SOL    HW229721   1.760   1.499   6.656
 9608SOL     OW29722   6.902   5.427   2.272
 9608SOL    HW129723   6.932   5.477   2.191
 9608SOL    HW229724   6.969   5.356   2.294
 9609SOL     OW29725   1.948   3.725   0.086
 9609SOL    HW129726   1.964   3.726   7.008
 9609SOL    HW229727   2.031   3.694   0.132
 9610SOL     OW29728   1.709   4.809   3.595
 9610SOL    HW129729   1.715   4.905   3.619
 9610SOL    HW229730   1.635   4.766   3.646
 9611SOL     OW29731   1.050   6.266   6.969
 9611SOL    HW129732   1.096   6.348   7.004
 9611SOL    HW229733   0.951   6.275   6.981
 9612SOL     OW29734   0.320   4.007   1.310
 9612SOL    HW129735   0.316   4.052   1.221
 9612SOL    HW229736   0.382   4.057   1.371
 9613SOL     OW29737   5.156   0.444   3.723
 9613SOL    HW129738   5.124   0.520   3.779
 9613SOL    HW229739   5.245   0.412   3.757
 9614SOL     OW29740   3.635   2.502   1.431
 9614SOL    HW129741   3.698   2.576   1.408
 9614SOL    HW229742   3.667   2.455   1.513
 9615SOL     OW29743   2.708   0.052   0.517
 9615SOL    HW129744   2.657   0.129   0.555
 9615SOL    HW229745   2.713   0.060   0.418
 9616SOL     OW29746   3.404   3.628   1.106
 9616SOL    HW129747   3.353   3.701   1.152
 9616SOL    HW229748   3.456   3.667   1.030
 9617SOL     OW29749   1.282   3.790   3.275
 9617SOL    HW129750   1.381   3.775   3.280
 9617SOL    HW229751   1.258   3.869   3.331
 9618SOL     OW29752   4.311   6.709   6.777
 9618SOL    HW129753   4.229   6.655   6.758
 9618SOL    HW229754   4.382   6.687   6.710
 9619SOL     OW29755   1.761   6.633   6.643
 9619SOL    HW129756   1.738   6.626   6.740
 9619SOL    HW229757   1.851   6.675   6.634
 9620SOL     OW29758   4.366   1.319   6.174
 9620SOL    HW129759   4.325   1.247   6.231
 9620SOL    HW229760   4.445   1.281   6.125
 9621SOL     OW29761   0.822   1.575   2.196
 9621SOL    HW129762   0.798   1.546   2.104
 9621SOL    HW229763   0.810   1.498   2.260
 9622SOL     OW29764   0.022   1.159   0.599
 9622SOL    HW129765   6.962   1.205   0.564
 9622SOL    HW229766   0.012   1.144   0.698
 9623SOL     OW29767   2.881   3.892   5.466
 9623SOL    HW129768   2.934   3.961   5.416
 9623SOL    HW229769   2.809   3.856   5.406
 9624SOL     OW29770   6.731   4.027   2.334
 9624SOL    HW129771   6.737   3.928   2.341
 9624SOL    HW229772   6.772   4.069   2.414
 9625SOL     OW29773   4.961   5.423   6.805
 9625SOL    HW129774   4.928   5.393   6.894
 9625SOL    HW229775   4.948   5.349   6.738
 9626SOL     OW29776   3.921   4.404   6.734
 9626SOL    HW129777   3.969   4.474   6.787
 9626SOL    HW229778   3.836   4.441   6.698
 9627SOL     OW29779   6.996   6.082   4.748
 9627SOL    HW129780   6.983   6.180   4.737
 9627SOL    HW229781   0.055   6.052   4.695
 9628SOL     OW29782   4.856   4.742   7.017
 9628SOL    HW129783   4.854   4.829   6.967
 9628SOL    HW229784   4.860   4.666   6.951
 9629SOL     OW29785   0.526   0.077   1.773
 9629SOL    HW129786   0.464   0.155   1.759
 9629SOL    HW229787   0.553   0.073   1.869
 9630SOL     OW29788   6.731   6.953   5.300
 9630SOL    HW129789   6.727   0.022   5.258
 9630SOL    HW229790   6.638   6.921   5.318
 9631SOL     OW29791   6.979   6.690   6.621
 9631SOL    HW129792   0.026   6.763   6.617
 9631SOL    HW229793   7.008   6.620   6.686
 9632SOL     OW29794   0.855   0.036   2.912
 9632SOL    HW129795   0.862   6.962   2.883
 9632SOL    HW229796   0.915   0.050   2.991
 9633SOL     OW29797   5.007   4.551   5.921
 9633SOL    HW129798   5.095   4.586   5.888
 9633SOL    HW229799   4.955   4.625   5.962
 9634SOL     OW29800   0.981   5.641   4.109
 9634SOL    HW129801   0.971   5.718   4.172
 9634SOL    HW229802   0.990   5.677   4.016
 9635SOL     OW29803   1.779   4.674   5.249
 9635SOL    HW129804   1.763   4.615   5.171
 9635SOL    HW229805   1.700   4.735   5.262
 9636SOL     OW29806   4.180   1.899   5.604
 9636SOL    HW129807   4.235   1.836   5.549
 9636SOL    HW229808   4.221   1.990   5.600
 9637SOL     OW29809   2.646   1.347   6.315
 9637SOL    HW129810   2.709   1.396   6.253
 9637SOL    HW229811   2.563   1.324   6.265
 9638SOL     OW29812   6.684   3.694   6.875
 9638SOL    HW129813   6.602   3.734   6.833
 9638SOL    HW229814   6.764   3.749   6.851
 9639SOL     OW29815   3.418   1.499   2.385
 9639SOL    HW129816   3.372   1.553   2.456
 9639SOL    HW229817   3.351   1.466   2.320
 9640SOL     OW29818   2.195   3.083   3.135
 9640SOL    HW129819   2.174   2.986   3.132
 9640SOL    HW229820   2.135   3.133   3.072
 9641SOL     OW29821   3.949   6.504   0.893
 9641SOL    HW129822   4.043   6.490   0.922
 9641SOL    HW229823   3.887   6.469   0.964
 9642SOL     OW29824   3.709   6.635   4.881
 9642SOL    HW129825   3.659   6.721   4.870
 9642SOL    HW229826   3.670   6.565   4.821
 9643SOL     OW29827   5.355   4.998   4.082
 9643SOL    HW129828   5.372   4.900   4.067
 9643SOL    HW229829   5.442   5.043   4.104
 9644SOL     OW29830   1.148   4.104   5.896
 9644SOL    HW129831   1.238   4.061   5.904
 9644SOL    HW229832   1.078   4.043   5.933
 9645SOL     OW29833   3.382   5.325   3.459
 9645SOL    HW129834   3.462   5.267   3.474
 9645SOL    HW229835   3.308   5.297   3.521
 9646SOL     OW29836   2.836   4.791   2.104
 9646SOL    HW129837   2.797   4.718   2.050
 9646SOL    HW229838   2.934   4.798   2.086
 9647SOL     OW29839   5.974   5.363   1.719
 9647SOL    HW129840   5.955   5.332   1.626
 9647SOL    HW229841   6.059   5.320   1.751
 9648SOL     OW29842   4.053   1.637   0.489
 9648SOL    HW129843   3.990   1.677   0.423
 9648SOL    HW229844   4.131   1.699   0.501
 9649SOL     OW29845   3.009   6.575   0.245
 9649SOL    HW129846   2.965   6.654   0.202
 9649SOL    HW229847   2.968   6.558   0.334
 9650SOL     OW29848   5.623   5.011   2.435
 9650SOL    HW129849   5.682   5.059   2.369
 9650SOL    HW229850   5.664   4.922   2.457
 9651SOL     OW29851   6.722   0.717   6.266
 9651SOL    HW129852   6.745   0.695   6.361
 9651SOL    HW229853   6.741   0.814   6.249
 9652SOL     OW29854   2.151   4.810   0.674
 9652SOL    HW129855   2.155   4.728   0.730
 9652SOL    HW229856   2.055   4.837   0.663
 9653SOL     OW29857   4.243   5.546   4.713
 9653SOL    HW129858   4.233   5.509   4.620
 9653SOL    HW229859   4.152   5.559   4.753
 9654SOL     OW29860   3.195   2.992   1.496
 9654SOL    HW129861   3.141   2.977   1.579
 9654SOL    HW229862   3.289   3.015   1.522
 9655SOL     OW29863   0.155   1.435   6.910
 9655SOL    HW129864   0.124   1.418   7.003
 9655SOL    HW229865   0.170   1.533   6.897
 9656SOL     OW29866   2.639   2.050   0.910
 9656SOL    HW129867   2.607   2.123   0.850
 9656SOL    HW229868   2.563   2.019   0.968
 9657SOL     OW29869   5.981   0.551   3.784
 9657SOL    HW129870   5.972   0.532   3.686
 9657SOL    HW229871   5.891   0.547   3.827
 9658SOL     OW29872   5.896   2.166   3.426
 9658SOL    HW129873   5.800   2.192   3.414
 9658SOL    HW229874   5.954   2.231   3.376
 9659SOL     OW29875   6.414   4.491   0.546
 9659SOL    HW129876   6.350   4.419   0.520
 9659SOL    HW229877   6.399   4.571   0.488
 9660SOL     OW29878   0.823   5.823   0.408
 9660SOL    HW129879   0.744   5.812   0.468
 9660SOL    HW229880   0.792   5.843   0.315
 9661SOL     OW29881   4.011   6.362   1.588
 9661SOL    HW129882   4.100   6.407   1.591
 9661SOL    HW229883   3.996   6.323   1.498
 9662SOL     OW29884   6.028   2.500   5.151
 9662SOL    HW129885   6.006   2.587   5.195
 9662SOL    HW229886   5.946   2.444   5.144
 9663SOL     OW29887   0.729   5.731   4.246
 9663SOL    HW129888   0.757   5.643   4.285
 9663SOL    HW229889   0.632   5.747   4.266
 9664SOL     OW29890   6.202   6.847   3.388
 9664SOL    HW129891   6.129   6.914   3.398
 9664SOL    HW229892   6.238   6.851   3.295
 9665SOL     OW29893   5.351   5.301   5.407
 9665SOL    HW129894   5.296   5.253   5.338
 9665SOL    HW229895   5.448   5.292   5.383
 9666SOL     OW29896   5.481   4.156   2.129
 9666SOL    HW129897   5.438   4.247   2.127
 9666SOL    HW229898   5.426   4.092   2.077
 9667SOL     OW29899   3.433   2.894   4.095
 9667SOL    HW129900   3.440   2.850   4.185
 9667SOL    HW229901   3.339   2.925   4.081
 9668SOL     OW29902   6.236   0.891   6.936
 9668SOL    HW129903   6.172   0.822   6.969
 9668SOL    HW229904   6.326   0.851   6.924
 9669SOL     OW29905   0.524   0.561   1.244
 9669SOL    HW129906   0.438   0.577   1.194
 9669SOL    HW229907   0.598   0.611   1.200
 9670SOL     OW29908   5.166   4.855   6.134
 9670SOL    HW129909   5.197   4.949   6.146
 9670SOL    HW229910   5.076   4.844   6.178
 9671SOL     OW29911   0.699   4.938   6.145
 9671SOL    HW129912   0.726   4.857   6.093
 9671SOL    HW229913   0.779   4.996   6.160
 9672SOL     OW29914   1.511   6.494   4.672
 9672SOL    HW129915   1.461   6.482   4.758
 9672SOL    HW229916   1.533   6.590   4.659
 9673SOL     OW29917   5.069   4.389   7.020
 9673SOL    HW129918   5.128   4.364   0.075
 9673SOL    HW229919   5.124   4.398   6.937
 9674SOL     OW29920   2.580   6.257   3.309
 9674SOL    HW129921   2.563   6.278   3.212
 9674SOL    HW229922   2.500   6.282   3.363
 9675SOL     OW29923   5.541   1.594   0.950
 9675SOL    HW129924   5.475   1.669   0.952
 9675SOL    HW229925   5.498   1.514   0.907
 9676SOL     OW29926   1.407   3.229   5.842
 9676SOL    HW129927   1.411   3.276   5.930
 9676SOL    HW229928   1.456   3.142   5.847
 9677SOL     OW29929   2.671   5.138   6.197
 9677SOL    HW129930   2.657   5.232   6.228
 9677SOL    HW229931   2.702   5.082   6.273
 9678SOL     OW29932   3.216   4.041   2.671
 9678SOL    HW129933   3.288   4.105   2.699
 9678SOL    HW229934   3.208   4.041   2.571
 9679SOL     OW29935   1.782   1.427   1.900
 9679SOL    HW129936   1.703   1.380   1.938
 9679SOL    HW229937   1.773   1.525   1.912
 9680SOL     OW29938   6.382   0.327   3.999
 9680SOL    HW129939   6.314   0.401   3.995
 9680SOL    HW229940   6.433   0.324   3.913
 9681SOL     OW29941   2.875   1.029   0.984
 9681SOL    HW129942   2.864   1.107   1.047
 9681SOL    HW229943   2.870   0.944   1.035
 9682SOL     OW29944   4.943   5.342   3.646
 9682SOL    HW129945   4.936   5.388   3.735
 9682SOL    HW229946   5.026   5.287   3.644
 9683SOL     OW29947   3.207   4.966   0.623
 9683SOL    HW129948   3.255   4.895   0.674
 9683SOL    HW229949   3.272   5.013   0.562
 9684SOL     OW29950   7.016   2.798   5.145
 9684SOL    HW129951   0.041   2.754   5.222
 9684SOL    HW229952   0.062   2.827   5.077
 9685SOL     OW29953   2.119   3.022   0.791
 9685SOL    HW129954   2.047   2.990   0.730
 9685SOL    HW229955   2.122   2.963   0.872
 9686SOL     OW29956   5.779   2.046   0.873
 9686SOL    HW129957   5.815   2.119   0.815
 9686SOL    HW229958   5.687   2.021   0.842
 9687SOL     OW29959   2.268   0.788   4.081
 9687SOL    HW129960   2.274   0.831   4.171
 9687SOL    HW229961   2.178   0.747   4.069
 9688SOL     OW29962   6.998   2.421   3.756
 9688SOL    HW129963   6.956   2.398   3.669
 9688SOL    HW229964   0.069   2.457   3.740
 9689SOL     OW29965   1.902   6.172   1.328
 9689SOL    HW129966   1.853   6.087   1.311
 9689SOL    HW229967   1.855   6.248   1.282
 9690SOL     OW29968   5.609   5.645   6.655
 9690SOL    HW129969   5.694   5.620   6.700
 9690SOL    HW229970   5.583   5.738   6.683
 9691SOL     OW29971   2.587   4.389   1.313
 9691SOL    HW129972   2.667   4.363   1.258
 9691SOL    HW229973   2.512   4.325   1.296
 9692SOL     OW29974   2.762   5.112   2.627
 9692SOL    HW129975   2.730   5.188   2.571
 9692SOL    HW229976   2.860   5.099   2.612
 9693SOL     OW29977   6.228   5.227   1.743
 9693SOL    HW129978   6.173   5.157   1.788
 9693SOL    HW229979   6.195   5.241   1.650
 9694SOL     OW29980   2.490   1.328   6.099
 9694SOL    HW129981   2.410   1.274   6.071
 9694SOL    HW229982   2.466   1.425   6.097
 9695SOL     OW29983   6.551   3.881   1.318
 9695SOL    HW129984   6.605   3.862   1.399
 9695SOL    HW229985   6.471   3.936   1.343
 9696SOL     OW29986   5.139   2.009   1.258
 9696SOL    HW129987   5.185   1.974   1.340
 9696SOL    HW229988   5.206   2.059   1.202
 9697SOL     OW29989   6.851   5.219   7.013
 9697SOL    HW129990   6.764   5.249   6.972
 9697SOL    HW229991   6.833   5.169   0.075
 9698SOL     OW29992   5.378   0.741   5.866
 9698SOL    HW129993   5.308   0.708   5.930
 9698SOL    HW229994   5.436   0.808   5.912
 9699SOL     OW29995   0.171   4.709   6.251
 9699SOL    HW129996   0.153   4.611   6.239
 9699SOL    HW229997   0.267   4.728   6.229
 9700SOL     OW29998   3.964   5.570   5.431
 9700SOL    HW129999   4.039   5.627   5.465
 9700SOL    HW230000   3.878   5.621   5.439
 9701SOL     OW30001   3.590   5.308   4.491
 9701SOL    HW130002   3.524   5.235   4.477
 9701SOL    HW230003   3.670   5.272   4.540
 9702SOL     OW30004   5.730   0.270   0.082
 9702SOL    HW130005   5.799   0.205   0.050
 9702SOL    HW230006   5.740   0.284   0.180
 9703SOL     OW30007   3.971   5.799   3.709
 9703SOL    HW130008   3.911   5.878   3.704
 9703SOL    HW230009   3.933   5.724   3.654
 9704SOL     OW30010   3.201   1.138   2.227
 9704SOL    HW130011   3.107   1.123   2.198
 9704SOL    HW230012   3.229   1.232   2.204
 9705SOL     OW30013   5.491   5.473   0.929
 9705SOL    HW130014   5.464   5.389   0.976
 9705SOL    HW230015   5.424   5.545   0.947
 9706SOL     OW30016   0.869   2.479   0.668
 9706SOL    HW130017   0.812   2.524   0.737
 9706SOL    HW230018   0.963   2.471   0.702
 9707SOL     OW30019   6.486   4.364   1.370
 9707SOL    HW130020   6.515   4.288   1.311
 9707SOL    HW230021   6.563   4.394   1.425
 9708SOL     OW30022   1.509   2.395   3.292
 9708SOL    HW130023   1.576   2.323   3.313
 9708SOL    HW230024   1.549   2.461   3.228
 9709SOL     OW30025   6.158   5.268   3.099
 9709SOL    HW130026   6.153   5.282   3.001
 9709SOL    HW230027   6.072   5.296   3.142
 9710SOL     OW30028   0.457   1.706   2.124
 9710SOL    HW130029   0.460   1.778   2.193
 9710SOL    HW230030   0.505   1.737   2.042
 9711SOL     OW30031   1.722   3.230   5.858
 9711SOL    HW130032   1.806   3.200   5.812
 9711SOL    HW230033   1.654   3.157   5.855
 9712SOL     OW30034   5.421   3.908   4.817
 9712SOL    HW130035   5.342   3.966   4.798
 9712SOL    HW230036   5.413   3.823   4.766
 9713SOL     OW30037   0.681   4.949   3.452
 9713SOL    HW130038   0.672   4.851   3.435
 9713SOL    HW230039   0.624   4.974   3.530
 9714SOL     OW30040   1.920   1.174   1.693
 9714SOL    HW130041   1.990   1.233   1.653
 9714SOL    HW230042   1.918   1.185   1.792
 9715SOL     OW30043   6.148   5.231   5.110
 9715SOL    HW130044   6.217   5.238   5.037
 9715SOL    HW230045   6.161   5.306   5.174
 9716SOL     OW30046   4.295   2.700   6.789
 9716SOL    HW130047   4.280   2.601   6.790
 9716SOL    HW230048   4.256   2.739   6.706
 9717SOL     OW30049   6.242   5.232   5.823
 9717SOL    HW130050   6.283   5.284   5.748
 9717SOL    HW230051   6.278   5.265   5.910
 9718SOL     OW30052   4.776   3.180   1.679
 9718SOL    HW130053   4.721   3.155   1.759
 9718SOL    HW230054   4.748   3.125   1.600
 9719SOL     OW30055   0.891   2.099   0.111
 9719SOL    HW130056   0.861   2.052   0.027
 9719SOL    HW230057   0.854   2.051   0.190
 9720SOL     OW30058   0.687   5.752   1.822
 9720SOL    HW130059   0.623   5.706   1.761
 9720SOL    HW230060   0.681   5.712   1.914
 9721SOL     OW30061   0.875   2.755   0.989
 9721SOL    HW130062   0.850   2.828   0.925
 9721SOL    HW230063   0.974   2.757   1.004
 9722SOL     OW30064   0.493   6.876   3.591
 9722SOL    HW130065   0.540   6.837   3.670
 9722SOL    HW230066   0.553   6.874   3.511
 9723SOL     OW30067   1.902   5.997   3.328
 9723SOL    HW130068   1.815   5.989   3.278
 9723SOL    HW230069   1.977   5.995   3.263
 9724SOL     OW30070   2.748   3.090   0.879
 9724SOL    HW130071   2.828   3.141   0.912
 9724SOL    HW230072   2.774   2.995   0.861
 9725SOL     OW30073   4.141   3.724   6.581
 9725SOL    HW130074   4.150   3.775   6.666
 9725SOL    HW230075   4.142   3.626   6.601
 9726SOL     OW30076   4.366   6.699   4.527
 9726SOL    HW130077   4.382   6.696   4.625
 9726SOL    HW230078   4.433   6.759   4.483
 9727SOL     OW30079   1.127   3.489   5.419
 9727SOL    HW130080   1.034   3.471   5.449
 9727SOL    HW230081   1.153   3.582   5.445
 9728SOL     OW30082   0.922   6.788   6.763
 9728SOL    HW130083   0.908   6.711   6.700
 9728SOL    HW230084   0.919   6.755   6.857
 9729SOL     OW30085   0.841   4.460   2.253
 9729SOL    HW130086   0.837   4.499   2.345
 9729SOL    HW230087   0.753   4.415   2.232
 9730SOL     OW30088   0.326   3.650   2.225
 9730SOL    HW130089   0.367   3.623   2.138
 9730SOL    HW230090   0.396   3.652   2.296
 9731SOL     OW30091   4.369   4.495   0.865
 9731SOL    HW130092   4.433   4.522   0.937
 9731SOL    HW230093   4.370   4.395   0.856
 9732SOL     OW30094   5.144   5.829   3.006
 9732SOL    HW130095   5.059   5.800   2.963
 9732SOL    HW230096   5.166   5.768   3.082
 9733SOL     OW30097   5.323   4.755   5.314
 9733SOL    HW130098   5.305   4.852   5.298
 9733SOL    HW230099   5.422   4.738   5.311
 9734SOL     OW30100   5.081   2.015   3.837
 9734SOL    HW130101   5.085   2.114   3.835
 9734SOL    HW230102   4.990   1.984   3.808
 9735SOL     OW30103   1.511   4.502   2.546
 9735SOL    HW130104   1.540   4.595   2.568
 9735SOL    HW230105   1.570   4.437   2.594
 9736SOL     OW30106   6.232   1.888   6.096
 9736SOL    HW130107   6.250   1.869   6.193
 9736SOL    HW230108   6.163   1.824   6.062
 9737SOL     OW30109   6.050   3.373   5.090
 9737SOL    HW130110   6.083   3.450   5.036
 9737SOL    HW230111   6.076   3.386   5.186
 9738SOL     OW30112   1.630   0.145   3.275
 9738SOL    HW130113   1.636   0.239   3.244
 9738SOL    HW230114   1.646   0.083   3.199
 9739SOL     OW30115   0.025   5.575   2.023
 9739SOL    HW130116   0.058   5.606   2.112
 9739SOL    HW230117   6.949   5.597   2.014
 9740SOL     OW30118   6.765   3.254   3.406
 9740SOL    HW130119   6.751   3.309   3.324
 9740SOL    HW230120   6.752   3.312   3.487
 9741SOL     OW30121   4.649   1.326   2.508
 9741SOL    HW130122   4.570   1.275   2.475
 9741SOL    HW230123   4.721   1.324   2.439
 9742SOL     OW30124   4.457   6.984   3.034
 9742SOL    HW130125   4.414   0.052   3.021
 9742SOL    HW230126   4.531   6.973   2.968
 9743SOL     OW30127   1.964   2.248   4.548
 9743SOL    HW130128   2.024   2.256   4.468
 9743SOL    HW230129   1.902   2.327   4.551
 9744SOL     OW30130   0.165   0.168   2.761
 9744SOL    HW130131   0.073   0.160   2.722
 9744SOL    HW230132   0.198   0.077   2.788
 9745SOL     OW30133   0.138   2.694   6.012
 9745SOL    HW130134   0.182   2.753   6.079
 9745SOL    HW230135   0.164   2.599   6.029
 9746SOL     OW30136   5.999   1.527   6.057
 9746SOL    HW130137   5.929   1.526   6.128
 9746SOL    HW230138   6.022   1.621   6.034
 9747SOL     OW30139   1.622   0.835   1.509
 9747SOL    HW130140   1.662   0.897   1.576
 9747SOL    HW230141   1.629   0.741   1.542
 9748SOL     OW30142   1.291   1.029   4.443
 9748SOL    HW130143   1.305   1.084   4.360
 9748SOL    HW230144   1.315   1.084   4.523
 9749SOL     OW30145   2.077   2.283   4.795
 9749SOL    HW130146   2.156   2.221   4.794
 9749SOL    HW230147   2.020   2.266   4.715
 9750SOL     OW30148   4.765   5.169   3.470
 9750SOL    HW130149   4.831   5.202   3.537
 9750SOL    HW230150   4.673   5.196   3.498
 9751SOL     OW30151   2.055   2.142   0.536
 9751SOL    HW130152   2.069   2.130   0.438
 9751SOL    HW230153   2.061   2.240   0.559
 9752SOL     OW30154   4.444   0.767   6.967
 9752SOL    HW130155   4.520   0.717   7.006
 9752SOL    HW230156   4.389   0.705   6.909
 9753SOL     OW30157   5.874   5.740   4.949
 9753SOL    HW130158   5.807   5.694   5.008
 9753SOL    HW230159   5.859   5.711   4.854
 9754SOL     OW30160   1.058   1.593   0.360
 9754SOL    HW130161   1.112   1.522   0.314
 9754SOL    HW230162   1.000   1.551   0.430
 9755SOL     OW30163   4.185   3.154   5.357
 9755SOL    HW130164   4.197   3.230   5.294
 9755SOL    HW230165   4.087   3.142   5.377
 9756SOL     OW30166   6.110   2.994   0.415
 9756SOL    HW130167   6.079   3.000   0.321
 9756SOL    HW230168   6.075   2.909   0.456
 9757SOL     OW30169   5.415   2.993   3.126
 9757SOL    HW130170   5.381   2.981   3.032
 9757SOL    HW230171   5.338   3.007   3.188
 9758SOL     OW30172   2.023   6.670   6.572
 9758SOL    HW130173   1.993   6.668   6.477
 9758SOL    HW230174   2.121   6.649   6.576
 9759SOL     OW30175   2.217   6.950   0.681
 9759SOL    HW130176   2.226   6.890   0.602
 9759SOL    HW230177   2.123   6.948   0.715
 9760SOL     OW30178   4.850   3.717   5.304
 9760SOL    HW130179   4.817   3.658   5.231
 9760SOL    HW230180   4.772   3.761   5.349
 9761SOL     OW30181   5.935   6.277   2.545
 9761SOL    HW130182   5.977   6.195   2.585
 9761SOL    HW230183   5.987   6.304   2.464
 9762SOL     OW30184   2.892   2.073   4.526
 9762SOL    HW130185   2.945   2.099   4.606
 9762SOL    HW230186   2.800   2.044   4.554
 9763SOL     OW30187   4.347   2.480   1.825
 9763SOL    HW130188   4.286   2.416   1.780
 9763SOL    HW230189   4.361   2.452   1.920
 9764SOL     OW30190   0.731   2.439   3.395
 9764SOL    HW130191   0.826   2.469   3.405
 9764SOL    HW230192   0.725   2.341   3.413
 9765SOL     OW30193   6.430   2.424   4.823
 9765SOL    HW130194   6.394   2.335   4.848
 9765SOL    HW230195   6.489   2.458   4.896
 9766SOL     OW30196   2.717   0.489   2.905
 9766SOL    HW130197   2.812   0.469   2.929
 9766SOL    HW230198   2.711   0.580   2.864
 9767SOL     OW30199   5.491   2.130   5.270
 9767SOL    HW130200   5.523   2.223   5.249
 9767SOL    HW230201   5.549   2.063   5.224
 9768SOL     OW30202   4.845   1.785   2.003
 9768SOL    HW130203   4.821   1.724   1.928
 9768SOL    HW230204   4.854   1.732   2.087
 9769SOL     OW30205   2.145   1.381   2.206
 9769SOL    HW130206   2.241   1.366   2.186
 9769SOL    HW230207   2.132   1.476   2.237
 9770SOL     OW30208   5.969   6.564   6.721
 9770SOL    HW130209   5.972   6.662   6.741
 9770SOL    HW230210   6.001   6.513   6.800
 9771SOL     OW30211   3.914   4.686   1.562
 9771SOL    HW130212   3.873   4.602   1.597
 9771SOL    HW230213   3.940   4.674   1.466
 9772SOL     OW30214   0.644   6.423   1.748
 9772SOL    HW130215   0.649   6.398   1.844
 9772SOL    HW230216   0.582   6.500   1.737
 9773SOL     OW30217   5.160   6.507   4.098
 9773SOL    HW130218   5.177   6.409   4.107
 9773SOL    HW230219   5.245   6.553   4.072
 9774SOL     OW30220   6.162   5.280   2.494
 9774SOL    HW130221   6.181   5.376   2.511
 9774SOL    HW230222   6.063   5.266   2.485
 9775SOL     OW30223   2.681   1.665   4.035
 9775SOL    HW130224   2.588   1.687   4.065
 9775SOL    HW230225   2.737   1.748   4.036
 9776SOL     OW30226   6.811   6.023   4.553
 9776SOL    HW130227   6.724   6.067   4.575
 9776SOL    HW230228   6.874   6.035   4.630
 9777SOL     OW30229   5.553   5.127   6.320
 9777SOL    HW130230   5.640   5.152   6.360
 9777SOL    HW230231   5.537   5.029   6.331
 9778SOL     OW30232   5.945   0.263   3.824
 9778SOL    HW130233   5.966   0.217   3.910
 9778SOL    HW230234   5.993   0.351   3.821
 9779SOL     OW30235   2.649   1.943   4.668
 9779SOL    HW130236   2.679   1.908   4.757
 9779SOL    HW230237   2.559   1.905   4.647
 9780SOL     OW30238   1.800   1.813   0.805
 9780SOL    HW130239   1.729   1.794   0.872
 9780SOL    HW230240   1.764   1.875   0.735
 9781SOL     OW30241   2.004   4.352   3.789
 9781SOL    HW130242   1.970   4.263   3.758
 9781SOL    HW230243   2.079   4.337   3.854
 9782SOL     OW30244   6.756   0.700   1.619
 9782SOL    HW130245   6.776   0.728   1.525
 9782SOL    HW230246   6.838   0.658   1.659
 9783SOL     OW30247   5.170   1.407   1.579
 9783SOL    HW130248   5.219   1.465   1.515
 9783SOL    HW230249   5.112   1.343   1.529
 9784SOL     OW30250   4.906   1.071   4.053
 9784SOL    HW130251   4.985   1.075   3.991
 9784SOL    HW230252   4.829   1.120   4.012
 9785SOL     OW30253   0.333   4.164   4.509
 9785SOL    HW130254   0.308   4.103   4.584
 9785SOL    HW230255   0.259   4.166   4.441
 9786SOL     OW30256   1.874   5.146   5.919
 9786SOL    HW130257   1.834   5.056   5.904
 9786SOL    HW230258   1.808   5.205   5.965
 9787SOL     OW30259   5.019   3.706   1.296
 9787SOL    HW130260   5.103   3.684   1.246
 9787SOL    HW230261   4.958   3.759   1.237
 9788SOL     OW30262   0.535   0.448   3.759
 9788SOL    HW130263   0.527   0.521   3.692
 9788SOL    HW230264   0.519   0.485   3.851
 9789SOL     OW30265   2.264   5.724   6.692
 9789SOL    HW130266   2.343   5.785   6.692
 9789SOL    HW230267   2.218   5.728   6.603
 9790SOL     OW30268   5.776   3.460   5.153
 9790SOL    HW130269   5.850   3.397   5.128
 9790SOL    HW230270   5.754   3.518   5.075
 9791SOL     OW30271   0.816   1.055   2.554
 9791SOL    HW130272   0.784   1.070   2.461
 9791SOL    HW230273   0.737   1.053   2.616
 9792SOL     OW30274   4.745   5.045   1.745
 9792SOL    HW130275   4.814   5.096   1.693
 9792SOL    HW230276   4.767   4.947   1.742
 9793SOL     OW30277   5.794   5.758   3.140
 9793SOL    HW130278   5.850   5.709   3.073
 9793SOL    HW230279   5.703   5.772   3.103
 9794SOL     OW30280   5.985   3.645   6.687
 9794SOL    HW130281   6.047   3.571   6.711
 9794SOL    HW230282   5.893   3.623   6.718
 9795SOL     OW30283   1.131   2.622   4.094
 9795SOL    HW130284   1.211   2.658   4.046
 9795SOL    HW230285   1.103   2.686   4.166
 9796SOL     OW30286   3.066   4.257   1.136
 9796SOL    HW130287   3.091   4.346   1.099
 9796SOL    HW230288   2.999   4.268   1.210
 9797SOL     OW30289   4.018   3.816   0.426
 9797SOL    HW130290   4.096   3.878   0.436
 9797SOL    HW230291   4.012   3.783   0.332
 9798SOL     OW30292   2.375   0.851   0.673
 9798SOL    HW130293   2.325   0.826   0.756
 9798SOL    HW230294   2.395   0.949   0.675
 9799SOL     OW30295   3.303   3.488   2.795
 9799SOL    HW130296   3.314   3.584   2.770
 9799SOL    HW230297   3.387   3.438   2.777
 9800SOL     OW30298   3.997   5.785   5.773
 9800SOL    HW130299   3.961   5.798   5.681
 9800SOL    HW230300   4.093   5.758   5.768
 9801SOL     OW30301   4.004   5.000   6.884
 9801SOL    HW130302   3.944   4.941   6.830
 9801SOL    HW230303   4.087   4.950   6.908
 9802SOL     OW30304   6.897   2.887   2.018
 9802SOL    HW130305   6.955   2.935   2.084
 9802SOL    HW230306   6.871   2.798   2.054
 9803SOL     OW30307   6.142   0.320   6.640
 9803SOL    HW130308   6.052   0.281   6.621
 9803SOL    HW230309   6.206   0.293   6.568
 9804SOL     OW30310   0.070   5.462   3.655
 9804SOL    HW130311   0.047   5.490   3.748
 9804SOL    HW230312   7.013   5.478   3.595
 9805SOL     OW30313   1.342   5.704   6.826
 9805SOL    HW130314   1.337   5.604   6.820
 9805SOL    HW230315   1.438   5.732   6.832
 9806SOL     OW30316   0.404   1.970   1.426
 9806SOL    HW130317   0.417   1.894   1.489
 9806SOL    HW230318   0.416   2.057   1.474
 9807SOL     OW30319   2.917   2.153   6.488
 9807SOL    HW130320   2.937   2.217   6.413
 9807SOL    HW230321   2.820   2.160   6.513
 9808SOL     OW30322   5.613   0.582   5.679
 9808SOL    HW130323   5.674   0.635   5.620
 9808SOL    HW230324   5.562   0.645   5.738
 9809SOL     OW30325   0.664   1.810   6.295
 9809SOL    HW130326   0.751   1.803   6.247
 9809SOL    HW230327   0.603   1.870   6.242
 9810SOL     OW30328   2.636   2.399   3.279
 9810SOL    HW130329   2.590   2.419   3.365
 9810SOL    HW230330   2.733   2.379   3.296
 9811SOL     OW30331   6.290   5.669   3.590
 9811SOL    HW130332   6.306   5.766   3.576
 9811SOL    HW230333   6.205   5.642   3.544
 9812SOL     OW30334   4.010   2.175   6.569
 9812SOL    HW130335   3.942   2.212   6.633
 9812SOL    HW230336   3.993   2.077   6.556
 9813SOL     OW30337   6.220   5.770   0.058
 9813SOL    HW130338   6.207   5.681   0.101
 9813SOL    HW230339   6.313   5.803   0.077
 9814SOL     OW30340   6.943   0.542   6.160
 9814SOL    HW130341   6.853   0.584   6.168
 9814SOL    HW230342   6.994   0.587   6.087
 9815SOL     OW30343   6.486   1.932   1.254
 9815SOL    HW130344   6.460   2.027   1.236
 9815SOL    HW230345   6.586   1.924   1.254
 9816SOL     OW30346   6.469   1.238   6.586
 9816SOL    HW130347   6.437   1.323   6.628
 9816SOL    HW230348   6.391   1.188   6.550
 9817SOL     OW30349   2.948   5.679   1.728
 9817SOL    HW130350   2.885   5.634   1.666
 9817SOL    HW230351   2.979   5.765   1.688
 9818SOL     OW30352   2.095   1.462   3.272
 9818SOL    HW130353   2.082   1.545   3.326
 9818SOL    HW230354   2.118   1.486   3.178
 9819SOL     OW30355   5.710   4.467   4.536
 9819SOL    HW130356   5.632   4.404   4.537
 9819SOL    HW230357   5.792   4.420   4.569
 9820SOL     OW30358   2.882   2.571   6.215
 9820SOL    HW130359   2.958   2.509   6.234
 9820SOL    HW230360   2.905   2.628   6.135
 9821SOL     OW30361   4.351   1.827   1.224
 9821SOL    HW130362   4.269   1.884   1.212
 9821SOL    HW230363   4.323   1.734   1.250
 9822SOL     OW30364   3.840   5.969   4.503
 9822SOL    HW130365   3.769   5.907   4.471
 9822SOL    HW230366   3.926   5.920   4.511
 9823SOL     OW30367   1.453   0.665   2.268
 9823SOL    HW130368   1.551   0.679   2.254
 9823SOL    HW230369   1.411   0.636   2.182
 9824SOL     OW30370   2.676   6.048   5.432
 9824SOL    HW130371   2.634   5.958   5.416
 9824SOL    HW230372   2.700   6.056   5.529
 9825SOL     OW30373   5.288   6.065   4.907
 9825SOL    HW130374   5.318   6.002   4.978
 9825SOL    HW230375   5.239   6.142   4.949
 9826SOL     OW30376   3.545   6.995   5.593
 9826SOL    HW130377   3.583   0.010   5.678
 9826SOL    HW230378   3.467   6.936   5.613
 9827SOL     OW30379   2.018   5.414   2.804
 9827SOL    HW130380   2.043   5.327   2.847
 9827SOL    HW230381   2.101   5.463   2.779
 9828SOL     OW30382   3.628   2.044   4.975
 9828SOL    HW130383   3.542   2.092   4.957
 9828SOL    HW230384   3.610   1.948   4.994
 9829SOL     OW30385   5.130   6.246   6.003
 9829SOL    HW130386   5.225   6.261   5.976
 9829SOL    HW230387   5.108   6.149   5.999
 9830SOL     OW30388   5.851   1.269   2.606
 9830SOL    HW130389   5.821   1.175   2.588
 9830SOL    HW230390   5.773   1.331   2.603
 9831SOL     OW30391   0.120   4.489   2.207
 9831SOL    HW130392   0.177   4.414   2.173
 9831SOL    HW230393   0.032   4.489   2.158
 9832SOL     OW30394   4.858   4.627   4.574
 9832SOL    HW130395   4.763   4.604   4.554
 9832SOL    HW230396   4.863   4.683   4.656
 9833SOL     OW30397   3.308   4.116   3.392
 9833SOL    HW130398   3.403   4.128   3.420
 9833SOL    HW230399   3.304   4.107   3.293
 9834SOL     OW30400   2.678   5.522   5.617
 9834SOL    HW130401   2.705   5.428   5.639
 9834SOL    HW230402   2.742   5.561   5.551
 9835SOL     OW30403   3.773   3.929   3.981
 9835SOL    HW130404   3.762   3.843   4.030
 9835SOL    HW230405   3.754   4.005   4.043
 9836SOL     OW30406   0.945   4.320   5.678
 9836SOL    HW130407   1.014   4.291   5.612
 9836SOL    HW230408   0.941   4.254   5.753
 9837SOL     OW30409   5.299   2.001   1.981
 9837SOL    HW130410   5.357   2.063   1.930
 9837SOL    HW230411   5.333   1.994   2.075
 9838SOL     OW30412   1.463   6.277   1.516
 9838SOL    HW130413   1.488   6.288   1.420
 9838SOL    HW230414   1.365   6.294   1.527
 9839SOL     OW30415   4.727   0.950   4.246
 9839SOL    HW130416   4.776   0.978   4.163
 9839SOL    HW230417   4.746   0.854   4.265
 9840SOL     OW30418   5.260   0.998   6.792
 9840SOL    HW130419   5.179   1.056   6.780
 9840SOL    HW230420   5.296   1.010   6.884
 9841SOL     OW30421   0.041   5.266   3.313
 9841SOL    HW130422   6.999   5.205   3.266
 9841SOL    HW230423   0.060   5.232   3.405
 9842SOL     OW30424   3.564   3.305   0.529
 9842SOL    HW130425   3.470   3.290   0.561
 9842SOL    HW230426   3.619   3.341   0.605
 9843SOL     OW30427   6.364   0.498   1.392
 9843SOL    HW130428   6.330   0.405   1.398
 9843SOL    HW230429   6.302   0.560   1.440
 9844SOL     OW30430   5.689   0.570   4.380
 9844SOL    HW130431   5.658   0.484   4.339
 9844SOL    HW230432   5.684   0.643   4.312
 9845SOL     OW30433   1.075   2.068   2.656
 9845SOL    HW130434   1.117   2.151   2.619
 9845SOL    HW230435   1.004   2.037   2.593
 9846SOL     OW30436   5.201   1.493   0.641
 9846SOL    HW130437   5.198   1.531   0.733
 9846SOL    HW230438   5.116   1.443   0.622
 9847SOL     OW30439   3.912   2.998   2.264
 9847SOL    HW130440   3.876   2.948   2.186
 9847SOL    HW230441   4.000   3.039   2.240
 9848SOL     OW30442   3.324   4.041   5.423
 9848SOL    HW130443   3.224   4.048   5.416
 9848SOL    HW230444   3.354   4.075   5.512
 9849SOL     OW30445   1.131   0.708   6.638
 9849SOL    HW130446   1.065   0.748   6.574
 9849SOL    HW230447   1.195   0.651   6.587
 9850SOL     OW30448   0.445   0.156   4.090
 9850SOL    HW130449   0.456   0.080   4.026
 9850SOL    HW230450   0.531   0.173   4.137
 9851SOL     OW30451   3.137   5.176   4.703
 9851SOL    HW130452   3.191   5.120   4.766
 9851SOL    HW230453   3.089   5.248   4.753
 9852SOL     OW30454   1.288   2.001   6.323
 9852SOL    HW130455   1.273   2.054   6.406
 9852SOL    HW230456   1.374   1.951   6.331
 9853SOL     OW30457   7.014   4.089   4.690
 9853SOL    HW130458   0.092   4.084   4.701
 9853SOL    HW230459   6.971   4.019   4.747
 9854SOL     OW30460   1.145   5.783   5.748
 9854SOL    HW130461   1.209   5.734   5.688
 9854SOL    HW230462   1.157   5.882   5.736
 9855SOL     OW30463   0.798   3.438   0.544
 9855SOL    HW130464   0.862   3.421   0.469
 9855SOL    HW230465   0.753   3.526   0.530
 9856SOL     OW30466   5.658   4.999   3.793
 9856SOL    HW130467   5.613   5.025   3.708
 9856SOL    HW230468   5.729   4.931   3.774
 9857SOL     OW30469   5.566   2.941   3.389
 9857SOL    HW130470   5.497   2.914   3.322
 9857SOL    HW230471   5.644   2.878   3.383
 9858SOL     OW30472   1.037   6.705   2.260
 9858SOL    HW130473   1.101   6.654   2.317
 9858SOL    HW230474   0.950   6.656   2.256
 9859SOL     OW30475   7.009   4.798   4.982
 9859SOL    HW130476   0.047   4.843   4.916
 9859SOL    HW230477   6.958   4.725   4.936
 9860SOL     OW30478   2.037   2.481   4.979
 9860SOL    HW130479   2.034   2.437   5.068
 9860SOL    HW230480   2.035   2.411   4.907
 9861SOL     OW30481   3.242   1.375   4.025
 9861SOL    HW130482   3.171   1.348   3.960
 9861SOL    HW230483   3.251   1.475   4.024
 9862SOL     OW30484   2.338   4.466   1.057
 9862SOL    HW130485   2.323   4.424   1.146
 9862SOL    HW230486   2.276   4.426   0.990
 9863SOL     OW30487   3.136   5.650   0.873
 9863SOL    HW130488   3.096   5.572   0.921
 9863SOL    HW230489   3.130   5.731   0.931
 9864SOL     OW30490   2.912   6.616   5.175
 9864SOL    HW130491   3.004   6.643   5.149
 9864SOL    HW230492   2.915   6.564   5.261
 9865SOL     OW30493   0.709   6.979   5.456
 9865SOL    HW130494   0.666   0.048   5.458
 9865SOL    HW230495   0.694   6.937   5.367
 9866SOL     OW30496   6.150   4.600   4.733
 9866SOL    HW130497   6.132   4.698   4.746
 9866SOL    HW230498   6.204   4.565   4.809
 9867SOL     OW30499   4.969   1.942   2.297
 9867SOL    HW130500   4.979   2.038   2.321
 9867SOL    HW230501   4.876   1.927   2.262
 9868SOL     OW30502   1.140   4.431   3.558
 9868SOL    HW130503   1.108   4.339   3.581
 9868SOL    HW230504   1.224   4.451   3.608
 9869SOL     OW30505   0.237   2.327   0.995
 9869SOL    HW130506   0.203   2.252   1.052
 9869SOL    HW230507   0.319   2.366   1.037
 9870SOL     OW30508   4.123   1.423   2.232
 9870SOL    HW130509   4.125   1.394   2.328
 9870SOL    HW230510   4.215   1.447   2.203
 9871SOL     OW30511   6.745   3.153   5.566
 9871SOL    HW130512   6.718   3.078   5.506
 9871SOL    HW230513   6.808   3.119   5.636
 9872SOL     OW30514   2.465   5.701   4.966
 9872SOL    HW130515   2.454   5.647   4.883
 9872SOL    HW230516   2.382   5.755   4.982
 9873SOL     OW30517   1.791   2.365   5.939
 9873SOL    HW130518   1.747   2.280   5.967
 9873SOL    HW230519   1.884   2.369   5.976
 9874SOL     OW30520   0.938   3.015   4.408
 9874SOL    HW130521   0.891   3.013   4.497
 9874SOL    HW230522   1.035   3.032   4.422
 9875SOL     OW30523   0.375   6.304   0.964
 9875SOL    HW130524   0.398   6.209   0.943
 9875SOL    HW230525   0.287   6.327   0.921
 9876SOL     OW30526   3.364   0.203   3.482
 9876SOL    HW130527   3.292   0.142   3.450
 9876SOL    HW230528   3.381   0.274   3.414
 9877SOL     OW30529   6.862   4.554   4.650
 9877SOL    HW130530   6.938   4.560   4.585
 9877SOL    HW230531   6.876   4.476   4.711
 9878SOL     OW30532   1.913   2.976   6.935
 9878SOL    HW130533   1.987   3.006   6.995
 9878SOL    HW230534   1.837   3.041   6.940
 9879SOL     OW30535   1.570   4.590   6.063
 9879SOL    HW130536   1.603   4.521   6.127
 9879SOL    HW230537   1.644   4.655   6.043
 9880SOL     OW30538   2.536   1.217   0.063
 9880SOL    HW130539   2.521   1.118   0.074
 9880SOL    HW230540   2.611   1.232   7.020
 9881SOL     OW30541   5.324   0.615   4.360
 9881SOL    HW130542   5.226   0.631   4.372
 9881SOL    HW230543   5.351   0.536   4.415
 9882SOL     OW30544   3.775   3.144   4.899
 9882SOL    HW130545   3.740   3.095   4.820
 9882SOL    HW230546   3.838   3.216   4.869
 9883SOL     OW30547   1.615   5.773   2.048
 9883SOL    HW130548   1.702   5.814   2.021
 9883SOL    HW230549   1.585   5.812   2.134
 9884SOL     OW30550   1.465   3.299   7.006
 9884SOL    HW130551   1.502   3.332   6.919
 9884SOL    HW230552   1.534   3.311   0.057
 9885SOL     OW30553   6.967   2.997   4.122
 9885SOL    HW130554   6.868   3.009   4.114
 9885SOL    HW230555   7.006   3.078   4.167
 9886SOL     OW30556   5.670   6.028   1.941
 9886SOL    HW130557   5.738   5.961   1.971
 9886SOL    HW230558   5.710   6.119   1.938
 9887SOL     OW30559   4.501   6.459   0.326
 9887SOL    HW130560   4.486   6.414   0.414
 9887SOL    HW230561   4.517   6.389   0.256
 9888SOL     OW30562   5.642   5.464   2.309
 9888SOL    HW130563   5.562   5.416   2.344
 9888SOL    HW230564   5.691   5.406   2.243
 9889SOL     OW30565   6.812   5.056   2.915
 9889SOL    HW130566   6.837   4.961   2.896
 9889SOL    HW230567   6.892   5.104   2.952
 9890SOL     OW30568   6.675   2.593   0.678
 9890SOL    HW130569   6.675   2.693   0.671
 9890SOL    HW230570   6.729   2.555   0.603
 9891SOL     OW30571   4.945   5.167   0.958
 9891SOL    HW130572   4.945   5.217   1.045
 9891SOL    HW230573   4.957   5.232   0.883
 9892SOL     OW30574   2.396   5.251   3.862
 9892SOL    HW130575   2.476   5.306   3.884
 9892SOL    HW230576   2.333   5.305   3.807
 9893SOL     OW30577   5.826   5.485   2.801
 9893SOL    HW130578   5.858   5.459   2.710
 9893SOL    HW230579   5.869   5.571   2.828
 9894SOL     OW30580   3.811   2.075   5.932
 9894SOL    HW130581   3.811   2.089   6.031
 9894SOL    HW230582   3.861   1.992   5.909
 9895SOL     OW30583   5.256   2.376   6.557
 9895SOL    HW130584   5.167   2.377   6.603
 9895SOL    HW230585   5.327   2.401   6.623
 9896SOL     OW30586   3.401   3.532   0.735
 9896SOL    HW130587   3.376   3.435   0.735
 9896SOL    HW230588   3.319   3.587   0.714
 9897SOL     OW30589   4.856   1.633   3.084
 9897SOL    HW130590   4.799   1.601   3.160
 9897SOL    HW230591   4.798   1.670   3.012
 9898SOL     OW30592   1.213   4.900   5.384
 9898SOL    HW130593   1.159   4.906   5.300
 9898SOL    HW230594   1.158   4.928   5.462
 9899SOL     OW30595   5.563   4.398   2.262
 9899SOL    HW130596   5.539   4.467   2.194
 9899SOL    HW230597   5.604   4.319   2.216
 9900SOL     OW30598   1.536   1.954   3.533
 9900SOL    HW130599   1.608   1.895   3.496
 9900SOL    HW230600   1.468   1.972   3.462
 9901SOL     OW30601   1.983   2.025   6.556
 9901SOL    HW130602   2.048   2.081   6.607
 9901SOL    HW230603   2.004   1.928   6.572
 9902SOL     OW30604   3.541   3.724   0.861
 9902SOL    HW130605   3.471   3.795   0.865
 9902SOL    HW230606   3.502   3.642   0.819
 9903SOL     OW30607   4.618   1.020   2.453
 9903SOL    HW130608   4.589   0.932   2.415
 9903SOL    HW230609   4.717   1.022   2.462
 9904SOL     OW30610   6.433   3.229   0.192
 9904SOL    HW130611   6.351   3.230   0.135
 9904SOL    HW230612   6.514   3.233   0.133
 9905SOL     OW30613   1.273   5.974   6.795
 9905SOL    HW130614   1.261   5.986   6.697
 9905SOL    HW230615   1.308   5.882   6.814
 9906SOL     OW30616   1.655   2.702   6.270
 9906SOL    HW130617   1.596   2.767   6.319
 9906SOL    HW230618   1.604   2.662   6.194
 9907SOL     OW30619   2.652   5.697   3.309
 9907SOL    HW130620   2.576   5.678   3.371
 9907SOL    HW230621   2.729   5.735   3.361
 9908SOL     OW30622   0.809   3.736   6.346
 9908SOL    HW130623   0.826   3.653   6.293
 9908SOL    HW230624   0.752   3.798   6.292
 9909SOL     OW30625   2.550   1.683   2.975
 9909SOL    HW130626   2.625   1.748   2.963
 9909SOL    HW230627   2.586   1.594   3.003
 9910SOL     OW30628   0.209   5.061   1.144
 9910SOL    HW130629   0.125   5.022   1.182
 9910SOL    HW230630   0.242   5.134   1.205
 9911SOL     OW30631   4.808   4.628   2.852
 9911SOL    HW130632   4.853   4.689   2.786
 9911SOL    HW230633   4.782   4.680   2.933
 9912SOL     OW30634   4.537   0.640   2.096
 9912SOL    HW130635   4.571   0.550   2.069
 9912SOL    HW230636   4.438   0.643   2.088
 9913SOL     OW30637   5.472   2.826   2.490
 9913SOL    HW130638   5.441   2.731   2.492
 9913SOL    HW230639   5.446   2.868   2.403
 9914SOL     OW30640   1.569   0.484   5.414
 9914SOL    HW130641   1.667   0.463   5.420
 9914SOL    HW230642   1.529   0.433   5.338
 9915SOL     OW30643   5.425   3.167   4.006
 9915SOL    HW130644   5.425   3.106   4.086
 9915SOL    HW230645   5.373   3.250   4.028
 9916SOL     OW30646   2.132   3.114   2.598
 9916SOL    HW130647   2.123   3.209   2.627
 9916SOL    HW230648   2.163   3.059   2.675
 9917SOL     OW30649   3.386   3.879   4.968
 9917SOL    HW130650   3.349   3.789   4.944
 9917SOL    HW230651   3.420   3.877   5.062
 9918SOL     OW30652   2.215   1.548   6.228
 9918SOL    HW130653   2.275   1.590   6.296
 9918SOL    HW230654   2.259   1.555   6.138
 9919SOL     OW30655   1.318   5.637   2.358
 9919SOL    HW130656   1.360   5.601   2.275
 9919SOL    HW230657   1.386   5.688   2.410
 9920SOL     OW30658   3.971   0.105   2.018
 9920SOL    HW130659   3.986   0.169   1.943
 9920SOL    HW230660   3.925   0.023   1.984
 9921SOL     OW30661   5.816   0.303   3.335
 9921SOL    HW130662   5.854   0.323   3.244
 9921SOL    HW230663   5.852   0.215   3.367
 9922SOL     OW30664   4.525   4.654   1.053
 9922SOL    HW130665   4.508   4.739   1.102
 9922SOL    HW230666   4.588   4.671   0.977
 9923SOL     OW30667   6.313   2.186   6.281
 9923SOL    HW130668   6.306   2.282   6.254
 9923SOL    HW230669   6.226   2.140   6.261
 9924SOL     OW30670   5.636   1.450   2.675
 9924SOL    HW130671   5.542   1.419   2.665
 9924SOL    HW230672   5.652   1.479   2.770
 9925SOL     OW30673   2.473   3.568   5.662
 9925SOL    HW130674   2.546   3.608   5.606
 9925SOL    HW230675   2.384   3.590   5.622
 9926SOL     OW30676   1.688   1.563   1.009
 9926SOL    HW130677   1.595   1.550   1.042
 9926SOL    HW230678   1.737   1.625   1.070
 9927SOL     OW30679   1.208   1.830   2.452
 9927SOL    HW130680   1.155   1.793   2.376
 9927SOL    HW230681   1.279   1.891   2.417
 9928SOL     OW30682   0.597   4.865   1.629
 9928SOL    HW130683   0.552   4.947   1.595
 9928SOL    HW230684   0.655   4.888   1.707
 9929SOL     OW30685   3.582   4.376   5.301
 9929SOL    HW130686   3.496   4.352   5.256
 9929SOL    HW230687   3.578   4.347   5.397
 9930SOL     OW30688   0.328   0.780   5.922
 9930SOL    HW130689   0.323   0.855   5.856
 9930SOL    HW230690   0.351   0.816   6.012
 9931SOL     OW30691   1.298   6.450   4.501
 9931SOL    HW130692   1.247   6.534   4.486
 9931SOL    HW230693   1.359   6.461   4.580
 9932SOL     OW30694   1.463   1.950   0.604
 9932SOL    HW130695   1.390   1.950   0.673
 9932SOL    HW230696   1.504   1.858   0.600
 9933SOL     OW30697   2.725   0.437   3.525
 9933SOL    HW130698   2.730   0.338   3.513
 9933SOL    HW230699   2.630   0.467   3.525
 9934SOL     OW30700   5.990   1.534   6.554
 9934SOL    HW130701   6.056   1.596   6.596
 9934SOL    HW230702   6.000   1.442   6.594
 9935SOL     OW30703   2.759   2.264   0.554
 9935SOL    HW130704   2.840   2.251   0.612
 9935SOL    HW230705   2.758   2.194   0.483
 9936SOL     OW30706   4.938   4.800   5.577
 9936SOL    HW130707   4.966   4.884   5.624
 9936SOL    HW230708   4.838   4.793   5.578
 9937SOL     OW30709   6.923   0.150   2.676
 9937SOL    HW130710   6.851   0.211   2.643
 9937SOL    HW230711   6.894   0.055   2.663
 9938SOL     OW30712   6.402   1.261   4.583
 9938SOL    HW130713   6.445   1.312   4.657
 9938SOL    HW230714   6.321   1.214   4.618
 9939SOL     OW30715   1.791   3.430   1.614
 9939SOL    HW130716   1.781   3.353   1.551
 9939SOL    HW230717   1.874   3.480   1.592
 9940SOL     OW30718   0.126   0.314   3.176
 9940SOL    HW130719   0.030   0.301   3.153
 9940SOL    HW230720   0.170   0.225   3.186
 9941SOL     OW30721   4.046   5.170   5.732
 9941SOL    HW130722   4.089   5.149   5.820
 9941SOL    HW230723   3.950   5.140   5.734
 9942SOL     OW30724   4.756   4.800   3.110
 9942SOL    HW130725   4.771   4.873   3.177
 9942SOL    HW230726   4.703   4.726   3.152
 9943SOL     OW30727   1.622   3.865   6.912
 9943SOL    HW130728   1.609   3.945   6.971
 9943SOL    HW230729   1.572   3.788   6.950
 9944SOL     OW30730   1.825   4.944   6.793
 9944SOL    HW130731   1.919   4.934   6.825
 9944SOL    HW230732   1.816   5.030   6.742
 9945SOL     OW30733   6.133   4.008   7.011
 9945SOL    HW130734   6.123   4.041   6.918
 9945SOL    HW230735   6.087   4.071   0.053
 9946SOL     OW30736   6.133   0.891   2.835
 9946SOL    HW130737   6.214   0.948   2.846
 9946SOL    HW230738   6.144   0.831   2.756
 9947SOL     OW30739   1.134   2.636   4.470
 9947SOL    HW130740   1.220   2.625   4.421
 9947SOL    HW230741   1.069   2.688   4.414
 9948SOL     OW30742   6.514   7.005   3.711
 9948SOL    HW130743   6.603   0.004   3.671
 9948SOL    HW230744   6.471   6.930   3.662
 9949SOL     OW30745   6.671   4.344   5.393
 9949SOL    HW130746   6.576   4.356   5.421
 9949SOL    HW230747   6.729   4.409   5.443
 9950SOL     OW30748   6.587   4.655   6.270
 9950SOL    HW130749   6.609   4.558   6.279
 9950SOL    HW230750   6.504   4.665   6.216
 9951SOL     OW30751   0.962   3.174   2.567
 9951SOL    HW130752   0.997   3.080   2.568
 9951SOL    HW230753   0.987   3.217   2.480
 9952SOL     OW30754   0.992   3.588   1.336
 9952SOL    HW130755   0.894   3.590   1.357
 9952SOL    HW230756   1.043   3.627   1.413
 9953SOL     OW30757   6.466   2.745   3.495
 9953SOL    HW130758   6.379   2.718   3.453
 9953SOL    HW230759   6.477   2.697   3.582
 9954SOL     OW30760   2.867   1.604   5.266
 9954SOL    HW130761   2.906   1.542   5.197
 9954SOL    HW230762   2.871   1.561   5.356
 9955SOL     OW30763   4.221   3.406   0.469
 9955SOL    HW130764   4.141   3.445   0.515
 9955SOL    HW230765   4.240   3.315   0.506
 9956SOL     OW30766   1.113   4.364   2.980
 9956SOL    HW130767   1.207   4.334   2.959
 9956SOL    HW230768   1.098   4.455   2.942
 9957SOL     OW30769   5.344   0.337   1.602
 9957SOL    HW130770   5.262   0.303   1.556
 9957SOL    HW230771   5.425   0.299   1.557
 9958SOL     OW30772   3.729   4.649   6.343
 9958SOL    HW130773   3.823   4.623   6.366
 9958SOL    HW230774   3.719   4.654   6.244
 9959SOL     OW30775   4.796   4.070   1.302
 9959SOL    HW130776   4.869   4.106   1.361
 9959SOL    HW230777   4.711   4.120   1.321
 9960SOL     OW30778   6.399   6.409   1.443
 9960SOL    HW130779   6.363   6.363   1.524
 9960SOL    HW230780   6.492   6.377   1.425
 9961SOL     OW30781   1.323   4.015   1.658
 9961SOL    HW130782   1.387   3.947   1.694
 9961SOL    HW230783   1.356   4.048   1.570
 9962SOL     OW30784   3.728   6.149   1.536
 9962SOL    HW130785   3.769   6.149   1.627
 9962SOL    HW230786   3.711   6.055   1.507
 9963SOL     OW30787   2.384   1.977   0.459
 9963SOL    HW130788   2.471   1.979   0.507
 9963SOL    HW230789   2.332   2.060   0.480
 9964SOL     OW30790   4.586   4.540   5.384
 9964SOL    HW130791   4.565   4.505   5.475
 9964SOL    HW230792   4.599   4.639   5.388
 9965SOL     OW30793   3.197   6.276   5.004
 9965SOL    HW130794   3.203   6.227   4.917
 9965SOL    HW230795   3.190   6.210   5.078
 9966SOL     OW30796   2.969   4.913   2.591
 9966SOL    HW130797   2.899   4.855   2.550
 9966SOL    HW230798   2.978   4.890   2.688
 9967SOL     OW30799   6.184   6.554   2.746
 9967SOL    HW130800   6.230   6.529   2.661
 9967SOL    HW230801   6.131   6.638   2.733
 9968SOL     OW30802   4.510   5.350   0.073
 9968SOL    HW130803   4.434   5.354   0.007
 9968SOL    HW230804   4.581   5.415   0.046
 9969SOL     OW30805   1.026   4.221   4.652
 9969SOL    HW130806   0.964   4.147   4.628
 9969SOL    HW230807   1.121   4.190   4.643
 9970SOL     OW30808   5.262   5.387   1.424
 9970SOL    HW130809   5.248   5.321   1.351
 9970SOL    HW230810   5.278   5.339   1.510
 9971SOL     OW30811   1.365   2.776   1.434
 9971SOL    HW130812   1.280   2.728   1.455
 9971SOL    HW230813   1.422   2.781   1.516
 9972SOL     OW30814   3.322   3.867   0.864
 9972SOL    HW130815   3.276   3.923   0.795
 9972SOL    HW230816   3.259   3.796   0.896
 9973SOL     OW30817   4.126   2.268   4.313
 9973SOL    HW130818   4.117   2.288   4.215
 9973SOL    HW230819   4.057   2.201   4.340
 9974SOL     OW30820   6.673   2.605   3.398
 9974SOL    HW130821   6.598   2.670   3.406
 9974SOL    HW230822   6.747   2.646   3.345
 9975SOL     OW30823   0.688   5.277   6.903
 9975SOL    HW130824   0.722   5.315   6.817
 9975SOL    HW230825   0.688   5.348   6.973
 9976SOL     OW30826   1.487   5.354   5.752
 9976SOL    HW130827   1.489   5.257   5.779
 9976SOL    HW230828   1.554   5.369   5.679
 9977SOL     OW30829   5.280   5.015   5.233
 9977SOL    HW130830   5.203   5.064   5.193
 9977SOL    HW230831   5.366   5.051   5.195
 9978SOL     OW30832   0.383   2.101   5.893
 9978SOL    HW130833   0.383   2.134   5.987
 9978SOL    HW230834   0.463   2.042   5.879
 9979SOL     OW30835   5.206   3.436   5.842
 9979SOL    HW130836   5.177   3.427   5.937
 9979SOL    HW230837   5.132   3.475   5.788
 9980SOL     OW30838   1.649   0.948   0.249
 9980SOL    HW130839   1.715   0.947   0.173
 9980SOL    HW230840   1.662   1.030   0.304
 9981SOL     OW30841   1.459   2.295   1.237
 9981SOL    HW130842   1.479   2.211   1.288
 9981SOL    HW230843   1.517   2.370   1.271
 9982SOL     OW30844   1.746   1.215   4.671
 9982SOL    HW130845   1.728   1.265   4.756
 9982SOL    HW230846   1.669   1.226   4.609
 9983SOL     OW30847   6.024   2.876   2.740
 9983SOL    HW130848   5.993   2.918   2.655
 9983SOL    HW230849   5.945   2.841   2.791
 9984SOL     OW30850   0.270   5.833   1.282
 9984SOL    HW130851   0.361   5.801   1.257
 9984SOL    HW230852   0.236   5.897   1.213
 9985SOL     OW30853   3.799   5.191   0.934
 9985SOL    HW130854   3.722   5.133   0.962
 9985SOL    HW230855   3.771   5.249   0.858
 9986SOL     OW30856   5.504   4.619   0.584
 9986SOL    HW130857   5.536   4.525   0.581
 9986SOL    HW230858   5.583   4.681   0.587
 9987SOL     OW30859   5.227   3.340   1.696
 9987SOL    HW130860   5.167   3.265   1.667
 9987SOL    HW230861   5.194   3.377   1.782
 9988SOL     OW30862   6.956   5.323   4.149
 9988SOL    HW130863   0.035   5.325   4.151
 9988SOL    HW230864   6.925   5.232   4.123
 9989SOL     OW30865   6.017   3.488   2.116
 9989SOL    HW130866   6.000   3.391   2.097
 9989SOL    HW230867   6.075   3.526   2.044
 9990SOL     OW30868   0.658   6.424   3.276
 9990SOL    HW130869   0.730   6.492   3.290
 9990SOL    HW230870   0.611   6.408   3.363
 9991SOL     OW30871   1.572   3.785   3.710
 9991SOL    HW130872   1.547   3.833   3.794
 9991SOL    HW230873   1.489   3.755   3.662
 9992SOL     OW30874   3.471   4.019   1.130
 9992SOL    HW130875   3.417   4.058   1.057
 9992SOL    HW230876   3.536   3.953   1.092
 9993SOL     OW30877   3.242   6.002   3.808
 9993SOL    HW130878   3.306   5.981   3.734
 9993SOL    HW230879   3.190   6.084   3.784
 9994SOL     OW30880   0.008   4.298   3.336
 9994SOL    HW130881   0.099   4.256   3.329
 9994SOL    HW230882   6.961   4.228   3.350
 9995SOL     OW30883   3.554   1.061   3.806
 9995SOL    HW130884   3.471   1.067   3.861
 9995SOL    HW230885   3.586   0.966   3.804
 9996SOL     OW30886   3.016   3.930   0.531
 9996SOL    HW130887   3.016   3.929   0.431
 9996SOL    HW230888   3.073   4.005   0.564
 9997SOL     OW30889   5.163   1.560   3.216
 9997SOL    HW130890   5.206   1.561   3.126
 9997SOL    HW230891   5.118   1.472   3.231
 9998SOL     OW30892   4.848   4.051   2.596
 9998SOL    HW130893   4.922   4.109   2.561
 9998SOL    HW230894   4.859   3.958   2.559
 9999SOL     OW30895   0.917   7.007   4.281
 9999SOL    HW130896   1.015   6.994   4.294
 9999SOL    HW230897   0.895   6.999   4.184
10000SOL     OW30898   5.560   1.379   1.481
10000SOL    HW130899   5.647   1.355   1.438
10000SOL    HW230900   5.505   1.432   1.416
10001SOL     OW30901   3.439   6.456   2.458
10001SOL    HW130902   3.477   6.541   2.420
10001SOL    HW230903   3.428   6.466   2.557
10002SOL     OW30904   2.401   1.321   1.098
10002SOL    HW130905   2.398   1.320   0.998
10002SOL    HW230906   2.494   1.300   1.128
10003SOL     OW30907   2.979   1.603   2.528
10003SOL    HW130908   3.043   1.544   2.577
10003SOL    HW230909   3.009   1.698   2.534
10004SOL     OW30910   5.308   4.761   4.888
10004SOL    HW130911   5.310   4.727   4.794
10004SOL    HW230912   5.378   4.714   4.942
10005SOL     OW30913   3.248   5.202   2.793
10005SOL    HW130914   3.184   5.232   2.863
10005SOL    HW230915   3.273   5.106   2.810
10006SOL     OW30916   5.552   0.601   5.236
10006SOL    HW130917   5.606   0.624   5.154
10006SOL    HW230918   5.499   0.519   5.218
10007SOL     OW30919   0.421   3.426   4.285
10007SOL    HW130920   0.348   3.412   4.352
10007SOL    HW230921   0.506   3.384   4.319
10008SOL     OW30922   4.666   1.842   3.916
10008SOL    HW130923   4.669   1.939   3.941
10008SOL    HW230924   4.570   1.813   3.907
10009SOL     OW30925   1.806   3.842   1.326
10009SOL    HW130926   1.739   3.916   1.334
10009SOL    HW230927   1.759   3.756   1.306
10010SOL     OW30928   2.840   5.625   6.668
10010SOL    HW130929   2.841   5.540   6.720
10010SOL    HW230930   2.919   5.681   6.695
10011SOL     OW30931   0.207   4.433   6.601
10011SOL    HW130932   0.296   4.469   6.627
10011SOL    HW230933   0.199   4.433   6.501
10012SOL     OW30934   4.587   0.308   2.488
10012SOL    HW130935   4.591   0.259   2.401
10012SOL    HW230936   4.491   0.315   2.517
10013SOL     OW30937   1.000   4.514   4.225
10013SOL    HW130938   0.965   4.470   4.143
10013SOL    HW230939   1.100   4.517   4.221
10014SOL     OW30940   1.684   0.013   2.443
10014SOL    HW130941   1.722   0.098   2.481
10014SOL    HW230942   1.752   6.962   2.450
10015SOL     OW30943   3.940   5.095   0.136
10015SOL    HW130944   3.983   5.055   0.055
10015SOL    HW230945   3.875   5.166   0.108
10016SOL     OW30946   2.353   1.556   5.131
10016SOL    HW130947   2.421   1.573   5.059
10016SOL    HW230948   2.275   1.617   5.118
10017SOL     OW30949   2.146   1.500   3.008
10017SOL    HW130950   2.170   1.563   2.934
10017SOL    HW230951   2.131   1.409   2.970
10018SOL     OW30952   6.358   3.927   5.586
10018SOL    HW130953   6.268   3.969   5.598
10018SOL    HW230954   6.400   3.960   5.502
10019SOL     OW30955   0.312   1.125   3.023
10019SOL    HW130956   0.318   1.026   3.036
10019SOL    HW230957   0.262   1.166   3.100
10020SOL     OW30958   0.209   1.333   2.209
10020SOL    HW130959   0.156   1.393   2.149
10020SOL    HW230960   0.302   1.369   2.219
10021SOL     OW30961   0.803   3.378   1.827
10021SOL    HW130962   0.777   3.298   1.881
10021SOL    HW230963   0.751   3.378   1.741
10022SOL     OW30964   2.449   5.714   0.222
10022SOL    HW130965   2.455   5.754   0.130
10022SOL    HW230966   2.355   5.685   0.240
10023SOL     OW30967   2.783   6.022   5.689
10023SOL    HW130968   2.791   5.946   5.754
10023SOL    HW230969   2.825   6.104   5.728
10024SOL     OW30970   0.702   5.305   2.969
10024SOL    HW130971   0.653   5.385   3.004
10024SOL    HW230972   0.705   5.235   3.040
10025SOL     OW30973   1.543   2.736   2.439
10025SOL    HW130974   1.569   2.806   2.505
10025SOL    HW230975   1.489   2.776   2.366
10026SOL     OW30976   4.913   0.637   3.752
10026SOL    HW130977   4.852   0.559   3.767
10026SOL    HW230978   4.964   0.655   3.837
10027SOL     OW30979   0.934   2.960   5.139
10027SOL    HW130980   0.858   2.899   5.162
10027SOL    HW230981   1.020   2.912   5.153
10028SOL     OW30982   2.689   1.226   0.834
10028SOL    HW130983   2.656   1.142   0.876
10028SOL    HW230984   2.778   1.250   0.872
10029SOL     OW30985   1.061   3.651   3.854
10029SOL    HW130986   1.017   3.671   3.766
10029SOL    HW230987   1.028   3.563   3.888
10030SOL     OW30988   3.272   0.182   5.040
10030SOL    HW130989   3.306   0.143   4.955
10030SOL    HW230990   3.219   0.265   5.020
10031SOL     OW30991   4.463   5.065   4.826
10031SOL    HW130992   4.426   4.972   4.833
10031SOL    HW230993   4.409   5.117   4.760
10032SOL     OW30994   3.964   0.411   6.093
10032SOL    HW130995   4.015   0.349   6.153
10032SOL    HW230996   3.873   0.427   6.132
10033SOL     OW30997   4.396   2.206   4.760
10033SOL    HW130998   4.351   2.177   4.844
10033SOL    HW230999   4.330   2.207   4.685
10034SOL     OW31000   2.113   1.294   3.765
10034SOL    HW131001   2.202   1.323   3.731
10034SOL    HW231002   2.095   1.200   3.735
10035SOL     OW31003   5.641   4.381   0.587
10035SOL    HW131004   5.718   4.376   0.650
10035SOL    HW231005   5.670   4.428   0.503
10036SOL     OW31006   6.400   0.914   0.952
10036SOL    HW131007   6.390   0.892   1.049
10036SOL    HW231008   6.477   0.977   0.940
10037SOL     OW31009   6.243   6.438   6.339
10037SOL    HW131010   6.293   6.498   6.276
10037SOL    HW231011   6.245   6.476   6.431
10038SOL     OW31012   4.313   0.001   6.058
10038SOL    HW131013   4.330   6.941   6.002
10038SOL    HW231014   4.400   0.038   6.090
10039SOL     OW31015   5.828   6.709   5.127
10039SOL    HW131016   5.767   6.657   5.187
10039SOL    HW231017   5.795   6.804   5.120
10040SOL     OW31018   4.349   6.454   5.744
10040SOL    HW131019   4.278   6.512   5.785
10040SOL    HW231020   4.430   6.454   5.803
10041SOL     OW31021   5.562   5.131   6.037
10041SOL    HW131022   5.550   5.135   6.136
10041SOL    HW231023   5.590   5.221   6.004
10042SOL     OW31024   0.362   0.857   5.270
10042SOL    HW131025   0.277   0.842   5.221
10042SOL    HW231026   0.348   0.926   5.341
10043SOL     OW31027   0.674   0.765   3.939
10043SOL    HW131028   0.721   0.837   3.887
10043SOL    HW231029   0.585   0.798   3.970
10044SOL     OW31030   2.728   2.095   3.821
10044SOL    HW131031   2.704   2.046   3.905
10044SOL    HW231032   2.748   2.030   3.748
10045SOL     OW31033   5.201   0.130   3.961
10045SOL    HW131034   5.279   0.079   3.998
10045SOL    HW231035   5.208   0.134   3.861
10046SOL     OW31036   1.327   2.235   1.547
10046SOL    HW131037   1.246   2.208   1.599
10046SOL    HW231038   1.348   2.164   1.479
10047SOL     OW31039   6.122   3.642   5.011
10047SOL    HW131040   6.090   3.731   4.979
10047SOL    HW231041   6.203   3.654   5.069
10048SOL     OW31042   3.342   2.108   2.473
10048SOL    HW131043   3.247   2.137   2.473
10048SOL    HW231044   3.381   2.122   2.382
10049SOL     OW31045   0.502   1.076   6.885
10049SOL    HW131046   0.568   1.101   6.815
10049SOL    HW231047   0.419   1.041   6.841
10050SOL     OW31048   5.955   2.865   5.084
10050SOL    HW131049   5.921   2.807   5.010
10050SOL    HW231050   5.927   2.827   5.172
10051SOL     OW31051   6.201   2.726   5.032
10051SOL    HW131052   6.144   2.808   5.032
10051SOL    HW231053   6.287   2.746   4.983
10052SOL     OW31054   1.625   2.211   2.123
10052SOL    HW131055   1.663   2.179   2.210
10052SOL    HW231056   1.535   2.253   2.139
10053SOL     OW31057   3.115   5.487   1.962
10053SOL    HW131058   3.055   5.435   2.023
10053SOL    HW231059   3.064   5.564   1.923
10054SOL     OW31060   4.102   6.125   5.873
10054SOL    HW131061   4.173   6.075   5.923
10054SOL    HW231062   4.018   6.126   5.928
10055SOL     OW31063   5.570   2.037   5.998
10055SOL    HW131064   5.573   2.127   6.042
10055SOL    HW231065   5.507   2.040   5.921
10056SOL     OW31066   6.681   5.053   0.466
10056SOL    HW131067   6.697   5.037   0.369
10056SOL    HW231068   6.649   4.969   0.509
10057SOL     OW31069   4.194   0.961   4.262
10057SOL    HW131070   4.158   0.869   4.250
10057SOL    HW231071   4.294   0.957   4.268
10058SOL     OW31072   0.631   3.911   4.491
10058SOL    HW131073   0.632   3.970   4.572
10058SOL    HW231074   0.672   3.823   4.514
10059SOL     OW31075   5.662   6.263   0.043
10059SOL    HW131076   5.625   6.171   0.034
10059SOL    HW231077   5.598   6.319   0.096
10060SOL     OW31078   2.476   1.623   2.117
10060SOL    HW131079   2.549   1.681   2.082
10060SOL    HW231080   2.401   1.621   2.052
10061SOL     OW31081   5.688   1.170   4.528
10061SOL    HW131082   5.658   1.210   4.441
10061SOL    HW231083   5.728   1.241   4.585
10062SOL     OW31084   6.280   6.288   4.898
10062SOL    HW131085   6.314   6.373   4.940
10062SOL    HW231086   6.349   6.216   4.910
10063SOL     OW31087   1.823   2.000   3.201
10063SOL    HW131088   1.879   1.917   3.196
10063SOL    HW231089   1.736   1.983   3.155
10064SOL     OW31090   5.824   6.002   6.297
10064SOL    HW131091   5.806   6.000   6.199
10064SOL    HW231092   5.786   6.085   6.336
10065SOL     OW31093   2.341   0.708   1.970
10065SOL    HW131094   2.400   0.722   2.050
10065SOL    HW231095   2.377   0.761   1.893
10066SOL     OW31096   1.498   1.139   4.167
10066SOL    HW131097   1.476   1.220   4.112
10066SOL    HW231098   1.593   1.111   4.148
10067SOL     OW31099   5.728   3.716   5.587
10067SOL    HW131100   5.661   3.645   5.609
10067SOL    HW231101   5.790   3.683   5.516
10068SOL     OW31102   5.851   3.348   4.395
10068SOL    HW131103   5.936   3.306   4.424
10068SOL    HW231104   5.780   3.278   4.384
10069SOL     OW31105   2.040   5.107   3.705
10069SOL    HW131106   1.947   5.073   3.723
10069SOL    HW231107   2.036   5.205   3.684
10070SOL     OW31108   0.356   0.223   5.239
10070SOL    HW131109   0.294   0.159   5.285
10070SOL    HW231110   0.413   0.172   5.174
10071SOL     OW31111   4.977   5.774   3.814
10071SOL    HW131112   4.889   5.786   3.768
10071SOL    HW231113   5.014   5.864   3.839
10072SOL     OW31114   0.704   6.057   4.218
10072SOL    HW131115   0.689   6.071   4.316
10072SOL    HW231116   0.725   5.961   4.201
10073SOL     OW31117   6.506   4.117   4.292
10073SOL    HW131118   6.475   4.061   4.368
10073SOL    HW231119   6.577   4.181   4.323
10074SOL     OW31120   1.203   0.835   5.507
10074SOL    HW131121   1.225   0.777   5.429
10074SOL    HW231122   1.135   0.904   5.479
10075SOL     OW31123   1.332   2.684   2.917
10075SOL    HW131124   1.323   2.631   2.833
10075SOL    HW231125   1.426   2.717   2.927
10076SOL     OW31126   5.630   0.304   3.958
10076SOL    HW131127   5.646   0.226   4.018
10076SOL    HW231128   5.677   0.290   3.871
10077SOL     OW31129   3.220   2.017   6.447
10077SOL    HW131130   3.218   2.095   6.384
10077SOL    HW231131   3.129   1.977   6.455
10078SOL     OW31132   0.063   6.240   4.027
10078SOL    HW131133   0.152   6.195   4.029
10078SOL    HW231134   0.036   6.264   4.120
10079SOL     OW31135   0.764   3.534   2.104
10079SOL    HW131136   0.784   3.499   2.012
10079SOL    HW231137   0.740   3.459   2.164
10080SOL     OW31138   3.261   1.291   5.858
10080SOL    HW131139   3.209   1.218   5.815
10080SOL    HW231140   3.357   1.263   5.866
10081SOL     OW31141   0.579   0.391   0.366
10081SOL    HW131142   0.627   0.478   0.368
10081SOL    HW231143   0.644   0.317   0.346
10082SOL     OW31144   6.922   4.417   2.418
10082SOL    HW131145   6.989   4.485   2.448
10082SOL    HW231146   6.863   4.457   2.348
10083SOL     OW31147   5.280   0.820   2.583
10083SOL    HW131148   5.204   0.802   2.521
10083SOL    HW231149   5.263   0.905   2.632
10084SOL     OW31150   3.293   0.879   6.267
10084SOL    HW131151   3.313   0.928   6.182
10084SOL    HW231152   3.304   0.781   6.252
10085SOL     OW31153   0.688   6.118   2.451
10085SOL    HW131154   0.608   6.136   2.509
10085SOL    HW231155   0.659   6.065   2.371
10086SOL     OW31156   5.636   5.412   1.560
10086SOL    HW131157   5.604   5.318   1.564
10086SOL    HW231158   5.665   5.441   1.652
10087SOL     OW31159   0.003   6.868   3.775
10087SOL    HW131160   0.044   6.954   3.808
10087SOL    HW231161   7.009   6.874   3.677
10088SOL     OW31162   0.053   0.051   0.001
10088SOL    HW131163   0.010   6.982   7.020
10088SOL    HW231164   0.055   0.084   0.095
10089SOL     OW31165   2.586   2.365   2.870
10089SOL    HW131166   2.674   2.411   2.881
10089SOL    HW231167   2.561   2.318   2.955
10090SOL     OW31168   0.988   4.870   0.650
10090SOL    HW131169   1.072   4.833   0.610
10090SOL    HW231170   1.011   4.936   0.722
10091SOL     OW31171   1.491   3.300   5.593
10091SOL    HW131172   1.457   3.301   5.687
10091SOL    HW231173   1.415   3.312   5.529
10092SOL     OW31174   2.153   3.390   5.024
10092SOL    HW131175   2.247   3.387   4.988
10092SOL    HW231176   2.136   3.307   5.077
10093SOL     OW31177   0.808   4.472   4.696
10093SOL    HW131178   0.875   4.398   4.684
10093SOL    HW231179   0.854   4.555   4.727
10094SOL     OW31180   1.901   6.170   2.055
10094SOL    HW131181   1.997   6.160   2.081
10094SOL    HW231182   1.848   6.196   2.136
10095SOL     OW31183   6.149   2.153   5.842
10095SOL    HW131184   6.236   2.107   5.824
10095SOL    HW231185   6.165   2.239   5.889
10096SOL     OW31186   5.549   5.480   2.010
10096SOL    HW131187   5.559   5.504   2.107
10096SOL    HW231188   5.531   5.563   1.957
10097SOL     OW31189   1.018   1.031   0.061
10097SOL    HW131190   1.046   1.028   0.157
10097SOL    HW231191   1.076   0.969   0.008
10098SOL     OW31192   2.253   0.792   5.480
10098SOL    HW131193   2.352   0.780   5.480
10098SOL    HW231194   2.221   0.811   5.387
10099SOL     OW31195   6.819   4.773   0.469
10099SOL    HW131196   6.789   4.680   0.493
10099SOL    HW231197   6.884   4.768   0.393
10100SOL     OW31198   5.269   0.169   4.491
10100SOL    HW131199   5.195   0.102   4.490
10100SOL    HW231200   5.232   0.259   4.513
10101SOL     OW31201   5.704   4.022   1.545
10101SOL    HW131202   5.751   4.006   1.632
10101SOL    HW231203   5.605   4.011   1.559
10102SOL     OW31204   1.571   1.129   2.411
10102SOL    HW131205   1.538   1.060   2.347
10102SOL    HW231206   1.640   1.089   2.471
10103SOL     OW31207   2.248   1.828   5.856
10103SOL    HW131208   2.247   1.918   5.901
10103SOL    HW231209   2.160   1.782   5.871
10104SOL     OW31210   1.400   2.632   4.370
10104SOL    HW131211   1.443   2.568   4.306
10104SOL    HW231212   1.421   2.604   4.464
10105SOL     OW31213   1.126   1.011   0.320
10105SOL    HW131214   1.069   0.966   0.389
10105SOL    HW231215   1.223   0.990   0.338
10106SOL     OW31216   4.319   6.159   1.246
10106SOL    HW131217   4.272   6.157   1.157
10106SOL    HW231218   4.417   6.143   1.232
10107SOL     OW31219   0.403   2.257   6.889
10107SOL    HW131220   0.440   2.167   6.912
10107SOL    HW231221   0.475   2.314   6.849
10108SOL     OW31222   6.402   5.896   6.880
10108SOL    HW131223   6.391   5.979   6.826
10108SOL    HW231224   6.352   5.821   6.837
10109SOL     OW31225   3.988   6.791   1.316
10109SOL    HW131226   4.048   6.712   1.326
10109SOL    HW231227   4.021   6.848   1.241
10110SOL     OW31228   4.872   6.330   4.859
10110SOL    HW131229   4.882   6.403   4.927
10110SOL    HW231230   4.789   6.278   4.878
10111SOL     OW31231   5.671   3.734   3.794
10111SOL    HW131232   5.652   3.722   3.696
10111SOL    HW231233   5.725   3.817   3.808
10112SOL     OW31234   5.922   4.076   4.377
10112SOL    HW131235   5.904   4.126   4.462
10112SOL    HW231236   5.838   4.069   4.324
10113SOL     OW31237   4.407   0.178   5.189
10113SOL    HW131238   4.346   0.256   5.175
10113SOL    HW231239   4.481   0.180   5.122
10114SOL     OW31240   5.253   0.469   1.117
10114SOL    HW131241   5.285   0.519   1.198
10114SOL    HW231242   5.292   0.377   1.117
10115SOL     OW31243   3.390   1.869   3.914
10115SOL    HW131244   3.381   1.967   3.932
10115SOL    HW231245   3.451   1.854   3.837
10116SOL     OW31246   0.265   6.433   0.442
10116SOL    HW131247   0.226   6.458   0.530
10116SOL    HW231248   0.364   6.444   0.444
10117SOL     OW31249   6.770   6.645   4.922
10117SOL    HW131250   6.793   6.674   5.015
10117SOL    HW231251   6.854   6.637   4.868
10118SOL     OW31252   1.361   5.412   3.214
10118SOL    HW131253   1.368   5.506   3.247
10118SOL    HW231254   1.334   5.411   3.118
10119SOL     OW31255   0.726   6.476   4.341
10119SOL    HW131256   0.746   6.416   4.264
10119SOL    HW231257   0.640   6.525   4.323
10120SOL     OW31258   1.646   3.850   4.531
10120SOL    HW131259   1.550   3.824   4.526
10120SOL    HW231260   1.671   3.865   4.627
10121SOL     OW31261   6.076   4.253   6.488
10121SOL    HW131262   6.164   4.275   6.531
10121SOL    HW231263   6.008   4.319   6.517
10122SOL     OW31264   5.748   3.198   0.634
10122SOL    HW131265   5.764   3.247   0.548
10122SOL    HW231266   5.834   3.189   0.684
10123SOL     OW31267   6.892   6.771   0.019
10123SOL    HW131268   6.849   6.833   6.975
10123SOL    HW231269   6.868   6.677   7.018
10124SOL     OW31270   1.812   3.461   6.842
10124SOL    HW131271   1.908   3.439   6.825
10124SOL    HW231272   1.771   3.499   6.759
10125SOL     OW31273   1.517   0.414   2.503
10125SOL    HW131274   1.519   0.513   2.515
10125SOL    HW231275   1.606   0.382   2.471
10126SOL     OW31276   0.198   6.753   6.255
10126SOL    HW131277   0.165   6.787   6.167
10126SOL    HW231278   0.239   6.829   6.306
10127SOL     OW31279   2.182   4.652   5.883
10127SOL    HW131280   2.280   4.660   5.905
10127SOL    HW231281   2.139   4.742   5.895
10128SOL     OW31282   1.630   1.045   1.165
10128SOL    HW131283   1.599   1.086   1.079
10128SOL    HW231284   1.590   0.954   1.175
10129SOL     OW31285   5.335   2.898   3.674
10129SOL    HW131286   5.395   2.978   3.677
10129SOL    HW231287   5.258   2.916   3.613
10130SOL     OW31288   2.094   4.191   1.861
10130SOL    HW131289   2.062   4.168   1.953
10130SOL    HW231290   2.173   4.253   1.868
10131SOL     OW31291   0.685   0.398   3.470
10131SOL    HW131292   0.733   0.400   3.382
10131SOL    HW231293   0.648   0.488   3.490
10132SOL     OW31294   3.022   0.150   4.337
10132SOL    HW131295   3.088   0.108   4.276
10132SOL    HW231296   3.037   0.249   4.339
10133SOL     OW31297   4.812   6.188   1.474
10133SOL    HW131298   4.777   6.133   1.398
10133SOL    HW231299   4.740   6.200   1.542
10134SOL     OW31300   6.925   6.146   3.821
10134SOL    HW131301   6.834   6.120   3.854
10134SOL    HW231302   6.986   6.161   3.900
10135SOL     OW31303   5.023   3.251   3.435
10135SOL    HW131304   4.940   3.289   3.476
10135SOL    HW231305   5.077   3.206   3.506
10136SOL     OW31306   5.408   0.911   3.148
10136SOL    HW131307   5.488   0.851   3.147
10136SOL    HW231308   5.429   0.995   3.098
10137SOL     OW31309   5.971   4.319   4.174
10137SOL    HW131310   6.008   4.228   4.195
10137SOL    HW231311   6.032   4.366   4.110
10138SOL     OW31312   4.997   2.469   0.722
10138SOL    HW131313   5.003   2.386   0.779
10138SOL    HW231314   4.953   2.447   0.636
10139SOL     OW31315   3.858   3.972   3.379
10139SOL    HW131316   3.893   3.984   3.286
10139SOL    HW231317   3.919   3.913   3.431
10140SOL     OW31318   6.223   6.388   5.970
10140SOL    HW131319   6.268   6.429   5.890
10140SOL    HW231320   6.270   6.417   6.053
10141SOL     OW31321   3.546   1.567   4.551
10141SOL    HW131322   3.474   1.587   4.484
10141SOL    HW231323   3.603   1.649   4.564
10142SOL     OW31324   6.187   6.313   4.653
10142SOL    HW131325   6.127   6.393   4.644
10142SOL    HW231326   6.212   6.301   4.748
10143SOL     OW31327   4.072   0.657   6.986
10143SOL    HW131328   4.023   0.585   6.937
10143SOL    HW231329   4.064   0.743   6.936
10144SOL     OW31330   3.672   6.691   6.399
10144SOL    HW131331   3.666   6.740   6.312
10144SOL    HW231332   3.585   6.698   6.447
10145SOL     OW31333   3.114   5.420   5.519
10145SOL    HW131334   3.111   5.453   5.613
10145SOL    HW231335   3.025   5.382   5.494
10146SOL     OW31336   4.073   5.469   4.232
10146SOL    HW131337   4.096   5.419   4.149
10146SOL    HW231338   4.156   5.499   4.278
10147SOL     OW31339   5.638   4.025   4.991
10147SOL    HW131340   5.709   3.991   5.052
10147SOL    HW231341   5.593   3.947   4.945
10148SOL     OW31342   4.916   5.404   0.083
10148SOL    HW131343   4.972   5.377   0.161
10148SOL    HW231344   4.851   5.475   0.111
10149SOL     OW31345   5.837   2.676   0.728
10149SOL    HW131346   5.866   2.722   0.812
10149SOL    HW231347   5.743   2.644   0.738
10150SOL     OW31348   4.079   3.573   0.712
10150SOL    HW131349   4.023   3.493   0.690
10150SOL    HW231350   4.041   3.653   0.665
10151SOL     OW31351   1.142   6.809   0.171
10151SOL    HW131352   1.206   6.795   0.095
10151SOL    HW231353   1.186   6.783   0.257
10152SOL     OW31354   0.592   6.193   4.759
10152SOL    HW131355   0.496   6.190   4.788
10152SOL    HW231356   0.642   6.259   4.815
10153SOL     OW31357   4.726   6.323   3.972
10153SOL    HW131358   4.742   6.225   3.970
10153SOL    HW231359   4.637   6.342   4.013
10154SOL     OW31360   5.632   0.313   5.001
10154SOL    HW131361   5.726   0.318   4.967
10154SOL    HW231362   5.627   0.245   5.074
10155SOL     OW31363   3.528   2.124   5.839
10155SOL    HW131364   3.521   2.222   5.817
10155SOL    HW231365   3.615   2.107   5.886
10156SOL     OW31366   6.391   1.482   2.766
10156SOL    HW131367   6.464   1.474   2.834
10156SOL    HW231368   6.304   1.458   2.808
10157SOL     OW31369   6.302   2.140   0.006
10157SOL    HW131370   6.332   2.221   6.976
10157SOL    HW231371   6.262   2.170   0.093
10158SOL     OW31372   5.944   3.685   1.011
10158SOL    HW131373   5.989   3.597   1.030
10158SOL    HW231374   6.004   3.741   0.955
10159SOL     OW31375   2.596   2.716   6.507
10159SOL    HW131376   2.533   2.733   6.583
10159SOL    HW231377   2.588   2.790   6.440
10160SOL     OW31378   2.009   3.041   2.195
10160SOL    HW131379   1.914   3.058   2.220
10160SOL    HW231380   2.014   3.014   2.099
10161SOL     OW31381   3.173   2.833   6.523
10161SOL    HW131382   3.134   2.796   6.608
10161SOL    HW231383   3.110   2.899   6.483
10162SOL     OW31384   3.810   4.605   0.833
10162SOL    HW131385   3.858   4.526   0.870
10162SOL    HW231386   3.765   4.579   0.747
10163SOL     OW31387   6.080   4.826   5.999
10163SOL    HW131388   6.130   4.861   5.919
10163SOL    HW231389   5.982   4.825   5.979
10164SOL     OW31390   5.896   3.524   4.848
10164SOL    HW131391   5.948   3.490   4.769
10164SOL    HW231392   5.959   3.556   4.918
10165SOL     OW31393   0.481   2.403   3.548
10165SOL    HW131394   0.458   2.431   3.455
10165SOL    HW231395   0.578   2.416   3.565
10166SOL     OW31396   3.217   2.027   1.566
10166SOL    HW131397   3.233   2.086   1.645
10166SOL    HW231398   3.239   2.077   1.482
10167SOL     OW31399   2.146   3.562   0.202
10167SOL    HW131400   2.181   3.517   0.119
10167SOL    HW231401   2.083   3.499   0.249
10168SOL     OW31402   5.974   3.668   5.838
10168SOL    HW131403   5.905   3.733   5.806
10168SOL    HW231404   5.990   3.682   5.936
10169SOL     OW31405   6.794   4.475   3.715
10169SOL    HW131406   6.840   4.541   3.774
10169SOL    HW231407   6.854   4.451   3.638
10170SOL     OW31408   1.227   5.365   5.640
10170SOL    HW131409   1.243   5.296   5.569
10170SOL    HW231410   1.311   5.381   5.691
10171SOL     OW31411   6.661   2.823   5.616
10171SOL    HW131412   6.562   2.833   5.627
10171SOL    HW231413   6.688   2.857   5.526
10172SOL     OW31414   6.649   6.690   4.658
10172SOL    HW131415   6.576   6.758   4.665
10172SOL    HW231416   6.670   6.654   4.750
10173SOL     OW31417   0.950   2.822   1.309
10173SOL    HW131418   0.987   2.741   1.264
10173SOL    HW231419   0.891   2.872   1.245
10174SOL     OW31420   5.408   5.173   2.407
10174SOL    HW131421   5.339   5.139   2.343
10174SOL    HW231422   5.466   5.097   2.436
10175SOL     OW31423   5.024   2.268   4.127
10175SOL    HW131424   5.033   2.277   4.028
10175SOL    HW231425   5.114   2.258   4.168
10176SOL     OW31426   0.869   3.746   5.793
10176SOL    HW131427   0.781   3.778   5.828
10176SOL    HW231428   0.881   3.650   5.819
10177SOL     OW31429   2.591   0.687   0.641
10177SOL    HW131430   2.659   0.759   0.655
10177SOL    HW231431   2.499   0.727   0.642
10178SOL     OW31432   6.922   0.817   5.650
10178SOL    HW131433   6.993   0.760   5.609
10178SOL    HW231434   6.839   0.762   5.665
10179SOL     OW31435   0.994   1.744   6.607
10179SOL    HW131436   1.038   1.673   6.551
10179SOL    HW231437   0.895   1.737   6.597
10180SOL     OW31438   4.149   0.319   6.284
10180SOL    HW131439   4.134   0.313   6.382
10180SOL    HW231440   4.230   0.375   6.265
10181SOL     OW31441   5.851   2.721   1.745
10181SOL    HW131442   5.864   2.762   1.655
10181SOL    HW231443   5.808   2.788   1.806
10182SOL     OW31444   4.134   0.952   1.216
10182SOL    HW131445   4.042   0.914   1.229
10182SOL    HW231446   4.201   0.877   1.219
10183SOL     OW31447   7.016   2.355   6.909
10183SOL    HW131448   0.005   2.323   6.815
10183SOL    HW231449   0.084   2.368   6.950
10184SOL     OW31450   3.910   1.020   6.451
10184SOL    HW131451   3.919   0.944   6.387
10184SOL    HW231452   3.923   1.106   6.401
10185SOL     OW31453   5.790   5.935   2.408
10185SOL    HW131454   5.887   5.936   2.431
10185SOL    HW231455   5.747   6.019   2.440
10186SOL     OW31456   5.739   4.039   3.779
10186SOL    HW131457   5.834   4.015   3.796
10186SOL    HW231458   5.725   4.053   3.681
10187SOL     OW31459   0.460   3.319   0.661
10187SOL    HW131460   0.458   3.360   0.570
10187SOL    HW231461   0.403   3.237   0.662
10188SOL     OW31462   3.447   5.566   0.677
10188SOL    HW131463   3.501   5.603   0.753
10188SOL    HW231464   3.496   5.488   0.637
10189SOL     OW31465   0.939   1.148   6.125
10189SOL    HW131466   1.000   1.185   6.055
10189SOL    HW231467   0.988   1.142   6.212
10190SOL     OW31468   5.014   3.152   1.955
10190SOL    HW131469   4.922   3.118   1.973
10190SOL    HW231470   5.010   3.250   1.933
10191SOL     OW31471   5.905   5.443   5.264
10191SOL    HW131472   5.976   5.504   5.229
10191SOL    HW231473   5.891   5.367   5.200
10192SOL     OW31474   4.408   1.080   5.405
10192SOL    HW131475   4.362   1.090   5.317
10192SOL    HW231476   4.499   1.120   5.400
10193SOL     OW31477   4.144   3.453   2.030
10193SOL    HW131478   4.152   3.369   1.975
10193SOL    HW231479   4.131   3.428   2.126
10194SOL     OW31480   5.712   5.503   5.554
10194SOL    HW131481   5.724   5.425   5.492
10194SOL    HW231482   5.617   5.506   5.585
10195SOL     OW31483   6.441   5.723   0.506
10195SOL    HW131484   6.428   5.712   0.605
10195SOL    HW231485   6.535   5.752   0.489
10196SOL     OW31486   4.824   1.631   4.198
10196SOL    HW131487   4.842   1.567   4.123
10196SOL    HW231488   4.856   1.722   4.174
10197SOL     OW31489   5.863   1.919   5.596
10197SOL    HW131490   5.891   1.998   5.650
10197SOL    HW231491   5.782   1.877   5.638
10198SOL     OW31492   2.533   6.855   2.469
10198SOL    HW131493   2.526   6.764   2.428
10198SOL    HW231494   2.621   6.896   2.444
10199SOL     OW31495   2.686   2.516   6.913
10199SOL    HW131496   2.723   2.439   6.862
10199SOL    HW231497   2.653   2.484   7.002
10200SOL     OW31498   4.955   1.663   6.977
10200SOL    HW131499   4.931   1.583   0.010
10200SOL    HW231500   4.983   1.635   6.885
10201SOL     OW31501   1.399   4.396   0.882
10201SOL    HW131502   1.494   4.426   0.884
10201SOL    HW231503   1.391   4.306   0.924
10202SOL     OW31504   3.404   3.651   0.369
10202SOL    HW131505   3.478   3.644   0.437
10202SOL    HW231506   3.370   3.745   0.367
10203SOL     OW31507   6.251   3.020   3.448
10203SOL    HW131508   6.212   3.085   3.513
10203SOL    HW231509   6.340   2.989   3.482
10204SOL     OW31510   5.379   5.924   0.111
10204SOL    HW131511   5.448   5.945   0.041
10204SOL    HW231512   5.338   6.009   0.144
10205SOL     OW31513   1.622   0.365   1.355
10205SOL    HW131514   1.566   0.445   1.333
10205SOL    HW231515   1.705   0.394   1.403
10206SOL     OW31516   0.185   0.742   0.383
10206SOL    HW131517   0.205   0.840   0.382
10206SOL    HW231518   0.246   0.695   0.319
10207SOL     OW31519   1.309   1.830   0.027
10207SOL    HW131520   1.311   1.922   7.010
10207SOL    HW231521   1.245   1.774   6.996
10208SOL     OW31522   5.775   4.259   3.894
10208SOL    HW131523   5.761   4.176   3.842
10208SOL    HW231524   5.832   4.239   3.974
10209SOL     OW31525   0.445   0.040   6.928
10209SOL    HW131526   0.504   7.006   6.987
10209SOL    HW231527   0.402   0.112   6.982
10210SOL     OW31528   4.697   6.618   2.196
10210SOL    HW131529   4.627   6.558   2.234
10210SOL    HW231530   4.770   6.563   2.155
10211SOL     OW31531   3.984   6.538   4.762
10211SOL    HW131532   4.046   6.473   4.806
10211SOL    HW231533   3.890   6.520   4.793
10212SOL     OW31534   1.046   0.492   5.447
10212SOL    HW131535   1.054   0.518   5.544
10212SOL    HW231536   1.090   0.404   5.433
10213SOL     OW31537   5.719   3.085   1.405
10213SOL    HW131538   5.671   3.163   1.447
10213SOL    HW231539   5.653   3.015   1.380
10214SOL     OW31540   1.401   1.326   2.334
10214SOL    HW131541   1.484   1.271   2.349
10214SOL    HW231542   1.341   1.317   2.413
10215SOL     OW31543   3.885   3.682   3.319
10215SOL    HW131544   3.863   3.586   3.301
10215SOL    HW231545   3.806   3.727   3.360
10216SOL     OW31546   0.212   1.250   1.400
10216SOL    HW131547   0.222   1.283   1.494
10216SOL    HW231548   0.287   1.187   1.379
10217SOL     OW31549   3.140   2.196   3.184
10217SOL    HW131550   3.217   2.201   3.121
10217SOL    HW231551   3.105   2.102   3.186
10218SOL     OW31552   1.590   1.262   1.320
10218SOL    HW131553   1.609   1.169   1.289
10218SOL    HW231554   1.676   1.305   1.349
10219SOL     OW31555   0.017   2.148   2.721
10219SOL    HW131556   6.959   2.120   2.774
10219SOL    HW231557   0.005   2.124   2.625
10220SOL     OW31558   4.673   1.786   0.796
10220SOL    HW131559   4.725   1.706   0.825
10220SOL    HW231560   4.641   1.837   0.875
10221SOL     OW31561   0.663   4.929   3.049
10221SOL    HW131562   0.674   4.830   3.044
10221SOL    HW231563   0.725   4.967   3.117
10222SOL     OW31564   2.682   3.498   5.913
10222SOL    HW131565   2.664   3.461   5.822
10222SOL    HW231566   2.684   3.598   5.909
10223SOL     OW31567   0.676   4.807   1.205
10223SOL    HW131568   0.765   4.842   1.178
10223SOL    HW231569   0.679   4.780   1.302
10224SOL     OW31570   6.973   3.417   4.348
10224SOL    HW131571   6.967   3.504   4.399
10224SOL    HW231572   6.882   3.392   4.315
10225SOL     OW31573   1.438   4.907   5.716
10225SOL    HW131574   1.465   4.814   5.741
10225SOL    HW231575   1.493   4.972   5.768
10226SOL     OW31576   2.805   0.650   6.357
10226SOL    HW131577   2.843   0.599   6.434
10226SOL    HW231578   2.728   0.599   6.318
10227SOL     OW31579   5.710   4.798   0.577
10227SOL    HW131580   5.774   4.823   0.649
10227SOL    HW231581   5.758   4.796   0.489
10228SOL     OW31582   0.370   6.658   2.037
10228SOL    HW131583   0.360   6.700   2.127
10228SOL    HW231584   0.416   6.722   1.976
10229SOL     OW31585   1.026   3.283   4.630
10229SOL    HW131586   1.003   3.187   4.648
10229SOL    HW231587   0.944   3.339   4.640
10230SOL     OW31588   5.606   5.997   2.914
10230SOL    HW131589   5.585   5.911   2.961
10230SOL    HW231590   5.538   6.066   2.939
10231SOL     OW31591   6.898   5.660   5.199
10231SOL    HW131592   6.838   5.634   5.275
10231SOL    HW231593   6.886   5.594   5.124
10232SOL     OW31594   3.181   1.308   3.658
10232SOL    HW131595   3.115   1.312   3.733
10232SOL    HW231596   3.133   1.322   3.571
10233SOL     OW31597   3.804   4.072   4.695
10233SOL    HW131598   3.774   4.136   4.765
10233SOL    HW231599   3.744   3.992   4.695
10234SOL     OW31600   5.823   1.520   1.424
10234SOL    HW131601   5.909   1.558   1.458
10234SOL    HW231602   5.825   1.421   1.434
10235SOL     OW31603   2.095   2.730   2.003
10235SOL    HW131604   2.075   2.826   1.983
10235SOL    HW231605   2.191   2.712   1.985
10236SOL     OW31606   3.021   6.890   0.070
10236SOL    HW131607   3.080   6.917   7.015
10236SOL    HW231608   2.956   6.821   0.040
10237SOL     OW31609   6.907   3.523   0.069
10237SOL    HW131610   6.865   3.551   0.155
10237SOL    HW231611   6.835   3.495   0.005
10238SOL     OW31612   3.884   4.202   1.737
10238SOL    HW131613   3.854   4.126   1.680
10238SOL    HW231614   3.979   4.226   1.714
10239SOL     OW31615   1.189   3.088   4.460
10239SOL    HW131616   1.250   3.033   4.402
10239SOL    HW231617   1.240   3.166   4.496
10240SOL     OW31618   1.939   5.147   1.999
10240SOL    HW131619   2.034   5.173   2.017
10240SOL    HW231620   1.938   5.069   1.936
10241SOL     OW31621   5.376   0.499   2.248
10241SOL    HW131622   5.393   0.431   2.320
10241SOL    HW231623   5.377   0.591   2.288
10242SOL     OW31624   6.812   1.332   0.562
10242SOL    HW131625   6.783   1.424   0.587
10242SOL    HW231626   6.745   1.265   0.596
10243SOL     OW31627   2.502   4.392   1.665
10243SOL    HW131628   2.602   4.388   1.659
10243SOL    HW231629   2.463   4.307   1.628
10244SOL     OW31630   1.694   4.373   0.456
10244SOL    HW131631   1.765   4.434   0.421
10244SOL    HW231632   1.605   4.418   0.448
10245SOL     OW31633   3.138   3.695   0.941
10245SOL    HW131634   3.045   3.695   0.903
10245SOL    HW231635   3.138   3.645   1.028
10246SOL     OW31636   3.278   4.000   4.169
10246SOL    HW131637   3.291   3.962   4.078
10246SOL    HW231638   3.334   4.082   4.180
10247SOL     OW31639   6.512   4.233   6.039
10247SOL    HW131640   6.439   4.212   5.974
10247SOL    HW231641   6.486   4.204   6.130
10248SOL     OW31642   1.346   6.532   2.833
10248SOL    HW131643   1.337   6.614   2.777
10248SOL    HW231644   1.275   6.532   2.904
10249SOL     OW31645   3.276   5.896   6.546
10249SOL    HW131646   3.219   5.977   6.537
10249SOL    HW231647   3.323   5.880   6.459
10250SOL     OW31648   6.464   3.169   1.169
10250SOL    HW131649   6.395   3.136   1.233
10250SOL    HW231650   6.489   3.263   1.192
10251SOL     OW31651   2.053   1.483   4.692
10251SOL    HW131652   2.092   1.451   4.606
10251SOL    HW231653   1.957   1.508   4.678
10252SOL     OW31654   4.225   3.882   6.375
10252SOL    HW131655   4.221   3.815   6.448
10252SOL    HW231656   4.166   3.854   6.299
10253SOL     OW31657   2.843   5.595   0.751
10253SOL    HW131658   2.934   5.630   0.726
10253SOL    HW231659   2.849   5.552   0.841
10254SOL     OW31660   4.928   1.629   5.240
10254SOL    HW131661   4.839   1.602   5.204
10254SOL    HW231662   4.922   1.722   5.278
10255SOL     OW31663   2.639   6.587   1.014
10255SOL    HW131664   2.589   6.582   0.928
10255SOL    HW231665   2.712   6.656   1.007
10256SOL     OW31666   4.234   1.682   2.317
10256SOL    HW131667   4.144   1.646   2.294
10256SOL    HW231668   4.305   1.625   2.276
10257SOL     OW31669   2.061   5.725   4.043
10257SOL    HW131670   2.020   5.798   4.098
10257SOL    HW231671   2.065   5.641   4.096
10258SOL     OW31672   3.845   2.154   2.827
10258SOL    HW131673   3.799   2.169   2.739
10258SOL    HW231674   3.920   2.220   2.837
10259SOL     OW31675   0.751   4.251   3.197
10259SOL    HW131676   0.785   4.341   3.169
10259SOL    HW231677   0.798   4.180   3.146
10260SOL     OW31678   0.673   1.712   3.136
10260SOL    HW131679   0.701   1.624   3.099
10260SOL    HW231680   0.662   1.705   3.235
10261SOL     OW31681   0.010   5.339   1.145
10261SOL    HW131682   6.997   5.265   1.203
10261SOL    HW231683   0.110   5.337   1.144
10262SOL     OW31684   3.164   6.575   6.431
10262SOL    HW131685   3.089   6.564   6.496
10262SOL    HW231686   3.242   6.518   6.458
10263SOL     OW31687   5.683   0.132   0.828
10263SOL    HW131688   5.618   0.208   0.835
10263SOL    HW231689   5.684   0.100   0.733
10264SOL     OW31690   0.134   6.281   6.712
10264SOL    HW131691   0.114   6.289   6.615
10264SOL    HW231692   0.187   6.197   6.729
10265SOL     OW31693   3.123   2.598   0.646
10265SOL    HW131694   3.216   2.611   0.682
10265SOL    HW231695   3.060   2.581   0.722
10266SOL     OW31696   3.956   3.053   3.490
10266SOL    HW131697   3.919   3.099   3.571
10266SOL    HW231698   3.939   2.955   3.497
10267SOL     OW31699   5.196   1.667   0.427
10267SOL    HW131700   5.207   1.617   0.514
10267SOL    HW231701   5.226   1.609   0.352
10268SOL     OW31702   6.095   6.285   2.335
10268SOL    HW131703   6.162   6.220   2.372
10268SOL    HW231704   6.127   6.378   2.349
10269SOL     OW31705   0.901   3.519   6.130
10269SOL    HW131706   0.970   3.451   6.152
10269SOL    HW231707   0.883   3.517   6.032
10270SOL     OW31708   3.204   5.226   2.382
10270SOL    HW131709   3.301   5.251   2.382
10270SOL    HW231710   3.193   5.138   2.336
10271SOL     OW31711   3.650   2.438   0.354
10271SOL    HW131712   3.645   2.511   0.286
10271SOL    HW231713   3.639   2.477   0.445
10272SOL     OW31714   0.653   1.027   5.499
10272SOL    HW131715   0.611   0.984   5.579
10272SOL    HW231716   0.745   0.991   5.487
10273SOL     OW31717   3.274   5.948   2.749
10273SOL    HW131718   3.310   5.867   2.702
10273SOL    HW231719   3.278   6.026   2.687
10274SOL     OW31720   1.058   4.745   6.066
10274SOL    HW131721   1.038   4.723   6.162
10274SOL    HW231722   1.032   4.839   6.047
10275SOL     OW31723   0.410   0.539   2.185
10275SOL    HW131724   0.459   0.623   2.210
10275SOL    HW231725   0.448   0.462   2.237
10276SOL     OW31726   4.905   6.187   5.164
10276SOL    HW131727   4.810   6.165   5.143
10276SOL    HW231728   4.934   6.137   5.245
10277SOL     OW31729   1.826   6.249   4.739
10277SOL    HW131730   1.747   6.197   4.770
10277SOL    HW231731   1.864   6.207   4.657
10278SOL     OW31732   1.569   1.590   3.301
10278SOL    HW131733   1.594   1.504   3.256
10278SOL    HW231734   1.470   1.605   3.292
10279SOL     OW31735   1.684   4.554   4.653
10279SOL    HW131736   1.662   4.458   4.673
10279SOL    HW231737   1.723   4.597   4.734
10280SOL     OW31738   6.545   2.550   6.257
10280SOL    HW131739   6.596   2.561   6.172
10280SOL    HW231740   6.573   2.620   6.323
10281SOL     OW31741   6.131   2.162   3.795
10281SOL    HW131742   6.194   2.103   3.845
10281SOL    HW231743   6.153   2.160   3.698
10282SOL     OW31744   5.412   3.498   3.837
10282SOL    HW131745   5.384   3.503   3.741
10282SOL    HW231746   5.493   3.555   3.852
10283SOL     OW31747   1.746   3.252   0.994
10283SOL    HW131748   1.762   3.162   1.034
10283SOL    HW231749   1.777   3.252   0.898
10284SOL     OW31750   5.343   1.816   5.272
10284SOL    HW131751   5.321   1.770   5.186
10284SOL    HW231752   5.442   1.829   5.280
10285SOL     OW31753   5.093   6.581   3.382
10285SOL    HW131754   5.065   6.503   3.438
10285SOL    HW231755   5.019   6.648   3.379
10286SOL     OW31756   4.131   0.658   3.691
10286SOL    HW131757   4.091   0.571   3.660
10286SOL    HW231758   4.144   0.718   3.613
10287SOL     OW31759   2.705   5.310   1.829
10287SOL    HW131760   2.684   5.287   1.923
10287SOL    HW231761   2.648   5.387   1.799
10288SOL     OW31762   4.732   6.079   3.108
10288SOL    HW131763   4.706   6.017   3.034
10288SOL    HW231764   4.814   6.044   3.153
10289SOL     OW31765   2.796   6.387   0.142
10289SOL    HW131766   2.861   6.353   0.075
10289SOL    HW231767   2.833   6.467   0.188
10290SOL     OW31768   3.081   3.335   2.731
10290SOL    HW131769   3.013   3.405   2.710
10290SOL    HW231770   3.168   3.380   2.754
10291SOL     OW31771   3.772   1.863   2.871
10291SOL    HW131772   3.814   1.781   2.832
10291SOL    HW231773   3.802   1.943   2.819
10292SOL     OW31774   1.170   1.973   4.961
10292SOL    HW131775   1.203   2.043   4.897
10292SOL    HW231776   1.112   2.017   5.030
10293SOL     OW31777   1.358   3.125   2.595
10293SOL    HW131778   1.343   3.161   2.686
10293SOL    HW231779   1.282   3.064   2.570
10294SOL     OW31780   4.278   1.409   3.350
10294SOL    HW131781   4.275   1.355   3.266
10294SOL    HW231782   4.188   1.446   3.369
10295SOL     OW31783   0.809   3.228   5.818
10295SOL    HW131784   0.834   3.183   5.733
10295SOL    HW231785   0.859   3.186   5.894
10296SOL     OW31786   5.404   1.141   6.539
10296SOL    HW131787   5.374   1.095   6.622
10296SOL    HW231788   5.404   1.240   6.553
10297SOL     OW31789   1.881   0.674   5.997
10297SOL    HW131790   1.835   0.625   5.923
10297SOL    HW231791   1.903   0.767   5.968
10298SOL     OW31792   2.793   4.493   0.786
10298SOL    HW131793   2.767   4.563   0.853
10298SOL    HW231794   2.741   4.410   0.803
10299SOL     OW31795   3.641   4.917   2.931
10299SOL    HW131796   3.614   4.899   2.837
10299SOL    HW231797   3.566   4.892   2.992
10300SOL     OW31798   0.974   4.203   2.073
10300SOL    HW131799   1.059   4.230   2.027
10300SOL    HW231800   0.901   4.198   2.006
10301SOL     OW31801   4.799   2.260   5.485
10301SOL    HW131802   4.730   2.213   5.429
10301SOL    HW231803   4.827   2.201   5.560
10302SOL     OW31804   2.541   6.692   4.707
10302SOL    HW131805   2.558   6.641   4.622
10302SOL    HW231806   2.471   6.761   4.690
10303SOL     OW31807   1.375   5.896   3.444
10303SOL    HW131808   1.418   5.898   3.534
10303SOL    HW231809   1.397   5.981   3.395
10304SOL     OW31810   5.778   0.074   1.729
10304SOL    HW131811   5.831   7.010   1.731
10304SOL    HW231812   5.765   0.107   1.822
10305SOL     OW31813   1.786   3.921   5.767
10305SOL    HW131814   1.851   3.876   5.829
10305SOL    HW231815   1.705   3.863   5.757
10306SOL     OW31816   5.243   5.700   0.053
10306SOL    HW131817   5.305   5.649   7.014
10306SOL    HW231818   5.279   5.792   0.067
10307SOL     OW31819   3.094   2.061   5.192
10307SOL    HW131820   3.029   2.051   5.267
10307SOL    HW231821   3.101   2.157   5.167
10308SOL     OW31822   2.197   4.009   2.477
10308SOL    HW131823   2.146   4.094   2.486
10308SOL    HW231824   2.231   3.999   2.384
10309SOL     OW31825   0.236   2.155   0.311
10309SOL    HW131826   0.250   2.227   0.244
10309SOL    HW231827   0.214   2.195   0.400
10310SOL     OW31828   3.395   4.076   0.536
10310SOL    HW131829   3.412   3.990   0.489
10310SOL    HW231830   3.455   4.147   0.497
10311SOL     OW31831   6.733   5.724   0.546
10311SOL    HW131832   6.809   5.711   0.610
10311SOL    HW231833   6.703   5.820   0.549
10312SOL     OW31834   3.839   6.665   2.265
10312SOL    HW131835   3.753   6.691   2.221
10312SOL    HW231836   3.913   6.720   2.229
10313SOL     OW31837   4.190   5.562   2.126
10313SOL    HW131838   4.269   5.614   2.157
10313SOL    HW231839   4.109   5.590   2.179
10314SOL     OW31840   6.555   0.514   1.182
10314SOL    HW131841   6.498   0.518   1.264
10314SOL    HW231842   6.519   0.444   1.120
10315SOL     OW31843   5.319   5.928   4.659
10315SOL    HW131844   5.315   5.968   4.567
10315SOL    HW231845   5.278   5.992   4.725
10316SOL     OW31846   6.383   2.512   5.724
10316SOL    HW131847   6.412   2.429   5.773
10316SOL    HW231848   6.460   2.546   5.670
10317SOL     OW31849   4.885   5.817   6.239
10317SOL    HW131850   4.973   5.864   6.248
10317SOL    HW231851   4.855   5.786   6.328
10318SOL     OW31852   5.006   0.259   0.155
10318SOL    HW131853   5.054   0.319   0.219
10318SOL    HW231854   4.913   0.294   0.140
10319SOL     OW31855   0.380   3.424   5.341
10319SOL    HW131856   0.329   3.346   5.303
10319SOL    HW231857   0.378   3.420   5.441
10320SOL     OW31858   0.969   6.765   2.511
10320SOL    HW131859   0.977   6.854   2.556
10320SOL    HW231860   0.974   6.776   2.412
10321SOL     OW31861   4.484   2.150   1.990
10321SOL    HW131862   4.572   2.191   2.013
10321SOL    HW231863   4.410   2.206   2.027
10322SOL     OW31864   5.358   5.882   5.089
10322SOL    HW131865   5.281   5.843   5.139
10322SOL    HW231866   5.431   5.906   5.153
10323SOL     OW31867   5.769   4.322   5.423
10323SOL    HW131868   5.791   4.417   5.400
10323SOL    HW231869   5.701   4.287   5.359
10324SOL     OW31870   3.333   2.911   2.131
10324SOL    HW131871   3.301   2.824   2.093
10324SOL    HW231872   3.319   2.911   2.230
10325SOL     OW31873   6.437   4.122   2.345
10325SOL    HW131874   6.506   4.051   2.360
10325SOL    HW231875   6.482   4.209   2.324
10326SOL     OW31876   4.266   4.367   0.156
10326SOL    HW131877   4.249   4.350   0.059
10326SOL    HW231878   4.239   4.287   0.210
10327SOL     OW31879   2.306   2.355   0.731
10327SOL    HW131880   2.226   2.406   0.700
10327SOL    HW231881   2.279   2.290   0.802
10328SOL     OW31882   6.375   2.269   0.920
10328SOL    HW131883   6.405   2.360   0.891
10328SOL    HW231884   6.454   2.215   0.948
10329SOL     OW31885   3.112   1.046   3.837
10329SOL    HW131886   3.057   1.126   3.862
10329SOL    HW231887   3.076   1.007   3.752
10330SOL     OW31888   4.123   1.098   2.599
10330SOL    HW131889   4.221   1.082   2.615
10330SOL    HW231890   4.071   1.020   2.634
10331SOL     OW31891   6.735   0.117   6.016
10331SOL    HW131892   6.703   0.065   6.094
10331SOL    HW231893   6.817   0.169   6.041
10332SOL     OW31894   6.894   0.497   0.953
10332SOL    HW131895   6.913   0.428   0.883
10332SOL    HW231896   6.816   0.553   0.924
10333SOL     OW31897   0.577   4.638   5.174
10333SOL    HW131898   0.565   4.541   5.194
10333SOL    HW231899   0.631   4.648   5.090
10334SOL     OW31900   3.385   0.738   4.357
10334SOL    HW131901   3.364   0.653   4.406
10334SOL    HW231902   3.478   0.767   4.380
10335SOL     OW31903   3.152   4.203   6.683
10335SOL    HW131904   3.084   4.141   6.644
10335SOL    HW231905   3.221   4.224   6.614
10336SOL     OW31906   6.869   0.233   1.712
10336SOL    HW131907   6.860   0.309   1.648
10336SOL    HW231908   6.831   0.150   1.670
10337SOL     OW31909   0.093   6.156   6.188
10337SOL    HW131910   0.099   6.214   6.269
10337SOL    HW231911   0.165   6.180   6.124
10338SOL     OW31912   2.100   6.249   2.397
10338SOL    HW131913   2.140   6.279   2.484
10338SOL    HW231914   2.001   6.255   2.402
10339SOL     OW31915   4.513   3.889   6.707
10339SOL    HW131916   4.506   3.909   6.609
10339SOL    HW231917   4.607   3.906   6.738
10340SOL     OW31918   1.109   3.567   1.098
10340SOL    HW131919   1.074   3.641   1.041
10340SOL    HW231920   1.092   3.589   1.194
10341SOL     OW31921   2.106   3.266   2.333
10341SOL    HW131922   2.095   3.189   2.270
10341SOL    HW231923   2.139   3.233   2.421
10342SOL     OW31924   1.699   0.113   4.826
10342SOL    HW131925   1.616   0.058   4.835
10342SOL    HW231926   1.732   0.110   4.732
10343SOL     OW31927   3.562   5.478   6.702
10343SOL    HW131928   3.465   5.455   6.693
10343SOL    HW231929   3.604   5.486   6.611
10344SOL     OW31930   3.995   3.284   1.135
10344SOL    HW131931   4.061   3.264   1.063
10344SOL    HW231932   4.029   3.358   1.193
10345SOL     OW31933   1.468   1.586   6.419
10345SOL    HW131934   1.411   1.579   6.337
10345SOL    HW231935   1.530   1.508   6.423
10346SOL     OW31936   0.463   5.426   1.845
10346SOL    HW131937   0.404   5.464   1.774
10346SOL    HW231938   0.413   5.421   1.931
10347SOL     OW31939   3.964   1.965   3.612
10347SOL    HW131940   3.921   1.976   3.523
10347SOL    HW231941   3.941   1.874   3.649
10348SOL     OW31942   6.651   2.096   6.858
10348SOL    HW131943   6.708   2.100   6.776
10348SOL    HW231944   6.688   2.158   6.927
10349SOL     OW31945   1.370   0.866   7.014
10349SOL    HW131946   1.327   0.780   0.021
10349SOL    HW231947   1.351   0.882   6.917
10350SOL     OW31948   2.526   6.695   4.970
10350SOL    HW131949   2.622   6.684   4.995
10350SOL    HW231950   2.517   6.692   4.871
10351SOL     OW31951   4.287   4.447   5.991
10351SOL    HW131952   4.339   4.409   6.067
10351SOL    HW231953   4.195   4.472   6.022
10352SOL     OW31954   3.503   1.216   5.979
10352SOL    HW131955   3.455   1.202   6.066
10352SOL    HW231956   3.549   1.305   5.980
10353SOL     OW31957   6.497   3.120   5.642
10353SOL    HW131958   6.585   3.163   5.622
10353SOL    HW231959   6.439   3.122   5.560
10354SOL     OW31960   5.598   2.534   2.351
10354SOL    HW131961   5.647   2.447   2.360
10354SOL    HW231962   5.607   2.568   2.258
10355SOL     OW31963   2.252   6.756   1.700
10355SOL    HW131964   2.269   6.776   1.603
10355SOL    HW231965   2.161   6.715   1.710
10356SOL     OW31966   1.065   4.917   5.163
10356SOL    HW131967   0.967   4.920   5.178
10356SOL    HW231968   1.086   4.950   5.070
10357SOL     OW31969   1.494   2.903   6.387
10357SOL    HW131970   1.502   2.911   6.487
10357SOL    HW231971   1.398   2.912   6.361
10358SOL     OW31972   6.785   3.335   2.944
10358SOL    HW131973   6.792   3.359   2.847
10358SOL    HW231974   6.842   3.255   2.962
10359SOL     OW31975   1.115   2.021   1.471
10359SOL    HW131976   1.077   2.052   1.558
10359SOL    HW231977   1.139   1.924   1.478
10360SOL     OW31978   5.082   4.645   3.170
10360SOL    HW131979   5.081   4.693   3.082
10360SOL    HW231980   5.016   4.569   3.167
10361SOL     OW31981   3.051   6.441   3.467
10361SOL    HW131982   3.000   6.509   3.520
10361SOL    HW231983   3.003   6.422   3.381
10362SOL     OW31984   0.879   4.942   4.809
10362SOL    HW131985   0.843   4.931   4.716
10362SOL    HW231986   0.831   5.017   4.854
10363SOL     OW31987   4.856   1.070   1.581
10363SOL    HW131988   4.871   1.027   1.492
10363SOL    HW231989   4.888   1.008   1.653
10364SOL     OW31990   3.086   3.070   1.253
10364SOL    HW131991   3.124   3.054   1.344
10364SOL    HW231992   3.156   3.108   1.193
10365SOL     OW31993   4.323   4.612   6.444
10365SOL    HW131994   4.359   4.519   6.448
10365SOL    HW231995   4.225   4.611   6.460
10366SOL     OW31996   2.945   0.611   4.139
10366SOL    HW131997   2.856   0.639   4.175
10366SOL    HW231998   2.993   0.691   4.103
10367SOL     OW31999   6.528   2.126   2.816
10367SOL    HW132000   6.562   2.209   2.859
10367SOL    HW232001   6.444   2.146   2.766
10368SOL     OW32002   1.494   1.179   1.588
10368SOL    HW132003   1.523   1.209   1.498
10368SOL    HW232004   1.563   1.117   1.627
10369SOL     OW32005   3.913   0.577   5.569
10369SOL    HW132006   3.866   0.536   5.647
10369SOL    HW232007   4.011   0.582   5.589
10370SOL     OW32008   5.245   1.626   5.424
10370SOL    HW132009   5.311   1.594   5.492
10370SOL    HW232010   5.275   1.713   5.386
10371SOL     OW32011   3.100   5.787   4.748
10371SOL    HW132012   3.061   5.726   4.817
10371SOL    HW232013   3.105   5.880   4.785
10372SOL     OW32014   1.322   1.610   6.191
10372SOL    HW132015   1.336   1.697   6.145
10372SOL    HW232016   1.225   1.597   6.210
10373SOL     OW32017   2.384   6.245   4.621
10373SOL    HW132018   2.316   6.299   4.571
10373SOL    HW232019   2.359   6.148   4.616
10374SOL     OW32020   3.965   1.291   2.868
10374SOL    HW132021   3.969   1.247   2.778
10374SOL    HW232022   3.948   1.389   2.856
10375SOL     OW32023   3.954   2.126   6.248
10375SOL    HW132024   4.006   2.055   6.297
10375SOL    HW232025   4.018   2.183   6.196
10376SOL     OW32026   0.806   6.326   3.838
10376SOL    HW132027   0.793   6.417   3.799
10376SOL    HW232028   0.781   6.257   3.771
10377SOL     OW32029   6.781   0.446   3.814
10377SOL    HW132030   6.759   0.469   3.908
10377SOL    HW232031   6.786   0.347   3.804
10378SOL     OW32032   6.749   1.057   5.679
10378SOL    HW132033   6.807   0.984   5.644
10378SOL    HW232034   6.683   1.018   5.744
10379SOL     OW32035   3.816   0.279   5.164
10379SOL    HW132036   3.884   0.210   5.138
10379SOL    HW232037   3.853   0.336   5.237
10380SOL     OW32038   6.624   1.443   3.007
10380SOL    HW132039   6.541   1.418   3.058
10380SOL    HW232040   6.623   1.541   2.988
10381SOL     OW32041   4.561   5.462   6.044
10381SOL    HW132042   4.615   5.545   6.029
10381SOL    HW232043   4.520   5.434   5.957
10382SOL     OW32044   2.270   4.703   6.251
10382SOL    HW132045   2.350   4.650   6.279
10382SOL    HW232046   2.224   4.656   6.176
10383SOL     OW32047   0.489   3.320   0.966
10383SOL    HW132048   0.455   3.414   0.979
10383SOL    HW232049   0.504   3.303   0.869
10384SOL     OW32050   0.766   0.031   0.494
10384SOL    HW132051   0.690   0.090   0.468
10384SOL    HW232052   0.788   6.990   0.418
10385SOL     OW32053   4.791   7.020   6.536
10385SOL    HW132054   4.853   0.072   6.563
10385SOL    HW232055   4.788   7.014   6.436
10386SOL     OW32056   0.479   3.919   4.936
10386SOL    HW132057   0.560   3.881   4.981
10386SOL    HW232058   0.486   3.905   4.837
10387SOL     OW32059   3.928   1.893   2.486
10387SOL    HW132060   3.927   1.858   2.393
10387SOL    HW232061   3.892   1.824   2.549
10388SOL     OW32062   0.654   5.569   3.780
10388SOL    HW132063   0.677   5.662   3.808
10388SOL    HW232064   0.593   5.572   3.701
10389SOL     OW32065   0.609   5.991   2.191
10389SOL    HW132066   0.546   5.914   2.190
10389SOL    HW232067   0.583   6.057   2.121
10390SOL     OW32068   1.480   3.599   1.998
10390SOL    HW132069   1.560   3.592   1.938
10390SOL    HW232070   1.501   3.660   2.074
10391SOL     OW32071   1.491   5.835   5.531
10391SOL    HW132072   1.422   5.763   5.516
10391SOL    HW232073   1.582   5.793   5.531
10392SOL     OW32074   6.436   4.074   0.500
10392SOL    HW132075   6.477   4.005   0.560
10392SOL    HW232076   6.500   4.149   0.488
10393SOL     OW32077   1.359   1.657   2.725
10393SOL    HW132078   1.273   1.694   2.689
10393SOL    HW232079   1.340   1.580   2.785
10394SOL     OW32080   2.851   6.887   6.129
10394SOL    HW132081   2.915   6.874   6.054
10394SOL    HW232082   2.867   6.818   6.200
10395SOL     OW32083   6.315   1.310   5.050
10395SOL    HW132084   6.377   1.381   5.081
10395SOL    HW232085   6.367   1.237   5.005
10396SOL     OW32086   1.237   0.737   3.537
10396SOL    HW132087   1.229   0.833   3.512
10396SOL    HW232088   1.151   0.690   3.517
10397SOL     OW32089   3.730   1.429   3.856
10397SOL    HW132090   3.784   1.352   3.823
10397SOL    HW232091   3.644   1.434   3.807
10398SOL     OW32092   6.228   2.252   0.356
10398SOL    HW132093   6.178   2.276   0.273
10398SOL    HW232094   6.295   2.323   0.376
10399SOL     OW32095   4.743   1.558   5.491
10399SOL    HW132096   4.825   1.530   5.441
10399SOL    HW232097   4.675   1.484   5.488
10400SOL     OW32098   3.649   5.834   1.860
10400SOL    HW132099   3.671   5.812   1.955
10400SOL    HW232100   3.555   5.809   1.841
10401SOL     OW32101   6.805   6.993   2.096
10401SOL    HW132102   6.749   6.914   2.123
10401SOL    HW232103   6.745   0.045   2.065
10402SOL     OW32104   0.704   2.862   5.750
10402SOL    HW132105   0.638   2.789   5.735
10402SOL    HW232106   0.699   2.892   5.845
10403SOL     OW32107   5.525   1.546   2.896
10403SOL    HW132108   5.444   1.557   2.838
10403SOL    HW232109   5.523   1.456   2.940
10404SOL     OW32110   0.874   6.609   3.592
10404SOL    HW132111   0.863   6.671   3.514
10404SOL    HW232112   0.920   6.526   3.563
10405SOL     OW32113   1.780   5.759   5.234
10405SOL    HW132114   1.864   5.801   5.200
10405SOL    HW232115   1.745   5.694   5.166
10406SOL     OW32116   1.893   4.239   4.843
10406SOL    HW132117   1.903   4.219   4.746
10406SOL    HW232118   1.919   4.334   4.861
10407SOL     OW32119   1.524   0.829   6.270
10407SOL    HW132120   1.424   0.833   6.272
10407SOL    HW232121   1.555   0.741   6.304
10408SOL     OW32122   4.629   6.332   3.012
10408SOL    HW132123   4.634   6.249   3.067
10408SOL    HW232124   4.540   6.375   3.026
10409SOL     OW32125   0.291   4.702   1.464
10409SOL    HW132126   0.333   4.735   1.380
10409SOL    HW232127   0.193   4.721   1.463
10410SOL     OW32128   5.341   0.576   1.405
10410SOL    HW132129   5.279   0.652   1.427
10410SOL    HW232130   5.339   0.510   1.479
10411SOL     OW32131   2.348   4.687   4.168
10411SOL    HW132132   2.375   4.710   4.075
10411SOL    HW232133   2.264   4.737   4.192
10412SOL     OW32134   0.391   1.465   0.163
10412SOL    HW132135   0.391   1.374   0.122
10412SOL    HW232136   0.437   1.529   0.101
10413SOL     OW32137   1.070   2.340   0.881
10413SOL    HW132138   0.993   2.283   0.910
10413SOL    HW232139   1.136   2.347   0.956
10414SOL     OW32140   4.810   6.162   6.351
10414SOL    HW132141   4.855   6.074   6.339
10414SOL    HW232142   4.877   6.229   6.382
10415SOL     OW32143   1.325   5.248   3.743
10415SOL    HW132144   1.299   5.280   3.835
10415SOL    HW232145   1.287   5.157   3.727
10416SOL     OW32146   6.699   1.882   5.976
10416SOL    HW132147   6.658   1.866   5.886
10416SOL    HW232148   6.695   1.797   6.030
10417SOL     OW32149   4.309   4.597   3.060
10417SOL    HW132150   4.292   4.691   3.092
10417SOL    HW232151   4.270   4.532   3.125
10418SOL     OW32152   6.454   4.199   5.736
10418SOL    HW132153   6.453   4.101   5.756
10418SOL    HW232154   6.475   4.213   5.639
10419SOL     OW32155   2.819   1.232   4.992
10419SOL    HW132156   2.767   1.232   5.078
10419SOL    HW232157   2.916   1.244   5.012
10420SOL     OW32158   6.812   3.738   2.399
10420SOL    HW132159   6.765   3.662   2.443
10420SOL    HW232160   6.905   3.710   2.373
10421SOL     OW32161   1.343   4.413   4.112
10421SOL    HW132162   1.308   4.410   4.018
10421SOL    HW232163   1.299   4.488   4.161
10422SOL     OW32164   6.737   4.067   5.450
10422SOL    HW132165   6.762   4.157   5.413
10422SOL    HW232166   6.681   4.018   5.383
10423SOL     OW32167   3.741   4.978   4.050
10423SOL    HW132168   3.652   5.023   4.047
10423SOL    HW232169   3.761   4.949   4.144
10424SOL     OW32170   4.239   1.208   6.945
10424SOL    HW132171   4.155   1.224   6.893
10424SOL    HW232172   4.228   1.242   0.017
10425SOL     OW32173   1.050   6.552   1.533
10425SOL    HW132174   1.026   6.517   1.623
10425SOL    HW232175   1.101   6.637   1.543
10426SOL     OW32176   4.692   3.087   5.364
10426SOL    HW132177   4.593   3.098   5.360
10426SOL    HW232178   4.734   3.135   5.287
10427SOL     OW32179   5.225   5.786   5.337
10427SOL    HW132180   5.155   5.727   5.298
10427SOL    HW232181   5.304   5.730   5.364
10428SOL     OW32182   1.266   1.875   3.403
10428SOL    HW132183   1.316   1.959   3.385
10428SOL    HW232184   1.196   1.863   3.333
10429SOL     OW32185   1.264   3.546   2.355
10429SOL    HW132186   1.231   3.640   2.350
10429SOL    HW232187   1.337   3.539   2.423
10430SOL     OW32188   3.581   6.107   4.385
10430SOL    HW132189   3.672   6.130   4.349
10430SOL    HW232190   3.569   6.008   4.385
10431SOL     OW32191   2.420   1.809   4.589
10431SOL    HW132192   2.367   1.888   4.559
10431SOL    HW232193   2.361   1.747   4.642
10432SOL     OW32194   0.323   6.728   4.836
10432SOL    HW132195   0.287   6.726   4.742
10432SOL    HW232196   0.419   6.757   4.834
10433SOL     OW32197   1.990   0.085   1.504
10433SOL    HW132198   2.051   0.133   1.441
10433SOL    HW232199   1.930   0.024   1.453
10434SOL     OW32200   4.964   0.104   5.685
10434SOL    HW132201   4.939   0.031   5.622
10434SOL    HW232202   5.024   0.068   5.756
10435SOL     OW32203   1.033   2.291   6.225
10435SOL    HW132204   1.025   2.192   6.238
10435SOL    HW232205   1.063   2.310   6.132
10436SOL     OW32206   0.203   3.819   5.019
10436SOL    HW132207   0.291   3.841   4.975
10436SOL    HW232208   0.219   3.792   5.114
10437SOL     OW32209   4.746   5.010   4.807
10437SOL    HW132210   4.797   5.086   4.847
10437SOL    HW232211   4.653   5.039   4.786
10438SOL     OW32212   0.245   6.509   5.903
10438SOL    HW132213   0.154   6.545   5.882
10438SOL    HW232214   0.275   6.449   5.829
10439SOL     OW32215   6.571   1.055   4.821
10439SOL    HW132216   6.542   1.151   4.821
10439SOL    HW232217   6.589   1.026   4.727
10440SOL     OW32218   6.877   1.490   6.746
10440SOL    HW132219   6.941   1.551   6.792
10440SOL    HW232220   6.791   1.487   6.797
10441SOL     OW32221   3.485   1.608   1.406
10441SOL    HW132222   3.500   1.509   1.410
10441SOL    HW232223   3.515   1.649   1.492
10442SOL     OW32224   2.994   0.795   5.132
10442SOL    HW132225   3.069   0.857   5.105
10442SOL    HW232226   3.033   0.711   5.169
10443SOL     OW32227   0.304   2.222   3.240
10443SOL    HW132228   0.357   2.304   3.218
10443SOL    HW232229   0.206   2.245   3.239
10444SOL     OW32230   3.598   4.950   3.655
10444SOL    HW132231   3.525   4.922   3.718
10444SOL    HW232232   3.686   4.943   3.701
10445SOL     OW32233   0.369   4.030   2.030
10445SOL    HW132234   0.462   4.003   2.052
10445SOL    HW232235   0.308   4.000   2.104
10446SOL     OW32236   1.756   4.109   5.089
10446SOL    HW132237   1.737   4.179   5.158
10446SOL    HW232238   1.814   4.147   5.018
10447SOL     OW32239   6.171   1.979   2.932
10447SOL    HW132240   6.165   2.064   2.880
10447SOL    HW232241   6.195   1.999   3.027
10448SOL     OW32242   2.820   1.122   3.724
10448SOL    HW132243   2.873   1.082   3.650
10448SOL    HW232244   2.790   1.049   3.786
10449SOL     OW32245   3.344   5.755   6.815
10449SOL    HW132246   3.437   5.739   6.848
10449SOL    HW232247   3.347   5.779   6.718
10450SOL     OW32248   6.132   0.387   6.206
10450SOL    HW132249   6.069   0.327   6.157
10450SOL    HW232250   6.125   0.480   6.170
10451SOL     OW32251   2.361   0.822   3.834
10451SOL    HW132252   2.347   0.820   3.933
10451SOL    HW232253   2.378   0.729   3.801
10452SOL     OW32254   6.724   2.642   2.784
10452SOL    HW132255   6.771   2.693   2.856
10452SOL    HW232256   6.643   2.693   2.754
10453SOL     OW32257   4.425   6.583   2.688
10453SOL    HW132258   4.512   6.590   2.736
10453SOL    HW232259   4.440   6.597   2.590
10454SOL     OW32260   6.430   1.320   6.979
10454SOL    HW132261   6.418   1.395   0.023
10454SOL    HW232262   6.524   1.321   6.944
10455SOL     OW32263   6.135   6.202   4.249
10455SOL    HW132264   6.216   6.256   4.270
10455SOL    HW232265   6.062   6.225   4.313
10456SOL     OW32266   0.045   5.536   0.112
10456SOL    HW132267   6.973   5.519   0.144
10456SOL    HW232268   0.074   5.628   0.140
10457SOL     OW32269   4.630   3.505   0.149
10457SOL    HW132270   4.534   3.528   0.165
10457SOL    HW232271   4.685   3.588   0.148
10458SOL     OW32272   0.067   0.342   5.489
10458SOL    HW132273   0.148   0.372   5.440
10458SOL    HW232274   7.006   0.379   5.446
10459SOL     OW32275   7.013   5.376   0.896
10459SOL    HW132276   0.018   5.285   0.866
10459SOL    HW232277   6.998   5.375   0.995
10460SOL     OW32278   6.762   4.440   1.962
10460SOL    HW132279   6.688   4.452   1.896
10460SOL    HW232280   6.751   4.353   2.010
10461SOL     OW32281   6.422   4.463   5.490
10461SOL    HW132282   6.454   4.494   5.579
10461SOL    HW232283   6.326   4.438   5.496
10462SOL     OW32284   4.766   1.818   1.562
10462SOL    HW132285   4.704   1.772   1.626
10462SOL    HW232286   4.845   1.854   1.611
10463SOL     OW32287   4.848   1.693   6.177
10463SOL    HW132288   4.909   1.642   6.237
10463SOL    HW232289   4.773   1.732   6.231
10464SOL     OW32290   5.293   5.164   2.687
10464SOL    HW132291   5.329   5.085   2.737
10464SOL    HW232292   5.314   5.155   2.590
10465SOL     OW32293   5.362   3.971   2.861
10465SOL    HW132294   5.284   4.027   2.889
10465SOL    HW232295   5.334   3.875   2.853
10466SOL     OW32296   5.128   4.197   6.038
10466SOL    HW132297   5.113   4.099   6.054
10466SOL    HW232298   5.130   4.215   5.940
10467SOL     OW32299   1.929   2.520   6.670
10467SOL    HW132300   1.867   2.496   6.595
10467SOL    HW232301   1.896   2.603   6.715
10468SOL     OW32302   3.653   5.164   3.497
10468SOL    HW132303   3.731   5.205   3.544
10468SOL    HW232304   3.625   5.081   3.545
10469SOL     OW32305   5.102   3.735   5.644
10469SOL    HW132306   5.088   3.636   5.651
10469SOL    HW232307   5.192   3.753   5.606
10470SOL     OW32308   2.093   2.099   3.294
10470SOL    HW132309   2.054   2.017   3.337
10470SOL    HW232310   2.160   2.071   3.225
10471SOL     OW32311   2.627   0.823   0.097
10471SOL    HW132312   2.678   0.788   0.175
10471SOL    HW232313   2.675   0.902   0.059
10472SOL     OW32314   2.820   5.215   0.825
10472SOL    HW132315   2.880   5.156   0.771
10472SOL    HW232316   2.866   5.303   0.841
10473SOL     OW32317   5.363   5.773   6.212
10473SOL    HW132318   5.396   5.696   6.157
10473SOL    HW232319   5.432   5.797   6.280
10474SOL     OW32320   5.341   0.772   4.065
10474SOL    HW132321   5.378   0.709   4.133
10474SOL    HW232322   5.321   0.860   4.109
10475SOL     OW32323   2.385   6.245   2.074
10475SOL    HW132324   2.475   6.206   2.050
10475SOL    HW232325   2.397   6.340   2.103
10476SOL     OW32326   4.991   5.988   5.978
10476SOL    HW132327   4.906   6.033   5.952
10476SOL    HW232328   4.974   5.923   6.052
10477SOL     OW32329   7.014   6.596   3.794
10477SOL    HW132330   0.012   6.693   3.809
10477SOL    HW232331   0.011   6.573   3.698
10478SOL     OW32332   6.406   6.859   0.104
10478SOL    HW132333   6.440   6.945   0.066
10478SOL    HW232334   6.452   6.840   0.191
10479SOL     OW32335   7.013   2.476   2.052
10479SOL    HW132336   6.931   2.483   2.108
10479SOL    HW232337   0.057   2.548   2.079
10480SOL     OW32338   1.817   0.381   2.320
10480SOL    HW132339   1.764   0.464   2.302
10480SOL    HW232340   1.825   0.327   2.235
10481SOL     OW32341   0.792   6.128   3.287
10481SOL    HW132342   0.884   6.148   3.321
10481SOL    HW232343   0.743   6.214   3.273
10482SOL     OW32344   6.124   4.665   4.454
10482SOL    HW132345   6.082   4.753   4.433
10482SOL    HW232346   6.116   4.648   4.552
10483SOL     OW32347   5.749   5.421   0.537
10483SOL    HW132348   5.771   5.441   0.442
10483SOL    HW232349   5.665   5.367   0.542
10484SOL     OW32350   4.982   1.366   0.805
10484SOL    HW132351   4.889   1.338   0.830
10484SOL    HW232352   5.018   1.303   0.737
10485SOL     OW32353   3.568   4.052   6.669
10485SOL    HW132354   3.656   4.003   6.672
10485SOL    HW232355   3.567   4.121   6.741
10486SOL     OW32356   6.719   1.789   0.886
10486SOL    HW132357   6.784   1.793   0.811
10486SOL    HW232358   6.632   1.829   0.857
10487SOL     OW32359   5.041   6.575   2.369
10487SOL    HW132360   5.116   6.635   2.397
10487SOL    HW232361   5.077   6.503   2.309
10488SOL     OW32362   2.737   2.989   6.258
10488SOL    HW132363   2.644   2.966   6.285
10488SOL    HW232364   2.770   2.922   6.192
10489SOL     OW32365   0.985   6.835   5.952
10489SOL    HW132366   0.985   6.929   5.986
10489SOL    HW232367   0.908   6.822   5.889
10490SOL     OW32368   5.980   1.806   2.465
10490SOL    HW132369   6.046   1.842   2.530
10490SOL    HW232370   5.888   1.830   2.493
10491SOL     OW32371   1.512   3.395   6.728
10491SOL    HW132372   1.599   3.441   6.712
10491SOL    HW232373   1.499   3.323   6.659
10492SOL     OW32374   5.302   3.791   5.479
10492SOL    HW132375   5.226   3.822   5.422
10492SOL    HW232376   5.380   3.852   5.467
10493SOL     OW32377   3.344   0.748   1.640
10493SOL    HW132378   3.299   0.797   1.565
10493SOL    HW232379   3.281   0.679   1.677
10494SOL     OW32380   5.378   2.635   5.664
10494SOL    HW132381   5.373   2.652   5.763
10494SOL    HW232382   5.407   2.541   5.648
10495SOL     OW32383   2.474   6.937   0.422
10495SOL    HW132384   2.385   6.890   0.426
10495SOL    HW232385   2.466   0.006   0.465
10496SOL     OW32386   0.266   6.616   1.046
10496SOL    HW132387   0.334   6.681   1.011
10496SOL    HW232388   0.312   6.551   1.108
10497SOL     OW32389   2.081   6.509   2.121
10497SOL    HW132390   2.177   6.530   2.107
10497SOL    HW232391   2.057   6.522   2.218
10498SOL     OW32392   2.766   6.555   1.707
10498SOL    HW132393   2.728   6.488   1.643
10498SOL    HW232394   2.740   6.647   1.679
10499SOL     OW32395   2.805   6.258   2.494
10499SOL    HW132396   2.732   6.206   2.538
10499SOL    HW232397   2.794   6.254   2.394
10500SOL     OW32398   0.476   1.272   5.737
10500SOL    HW132399   0.558   1.303   5.786
10500SOL    HW232400   0.474   1.313   5.646
10501SOL     OW32401   1.640   5.608   3.702
10501SOL    HW132402   1.550   5.579   3.671
10501SOL    HW232403   1.636   5.701   3.737
10502SOL     OW32404   3.552   0.256   1.015
10502SOL    HW132405   3.505   0.329   0.965
10502SOL    HW232406   3.589   0.293   1.101
10503SOL     OW32407   4.289   2.723   0.692
10503SOL    HW132408   4.272   2.743   0.788
10503SOL    HW232409   4.280   2.624   0.676
10504SOL     OW32410   1.665   2.389   0.476
10504SOL    HW132411   1.729   2.370   0.550
10504SOL    HW232412   1.715   2.402   0.390
10505SOL     OW32413   6.256   5.514   0.450
10505SOL    HW132414   6.186   5.526   0.520
10505SOL    HW232415   6.326   5.584   0.460
10506SOL     OW32416   0.779   5.331   6.150
10506SOL    HW132417   0.849   5.388   6.107
10506SOL    HW232418   0.724   5.287   6.079
10507SOL     OW32419   2.306   6.193   0.147
10507SOL    HW132420   2.399   6.158   0.150
10507SOL    HW232421   2.257   6.151   0.070
10508SOL     OW32422   5.624   6.213   4.375
10508SOL    HW132423   5.567   6.138   4.408
10508SOL    HW232424   5.574   6.299   4.380
10509SOL     OW32425   1.185   6.687   5.624
10509SOL    HW132426   1.090   6.666   5.646
10509SOL    HW232427   1.217   6.627   5.551
10510SOL     OW32428   5.766   5.213   5.725
10510SOL    HW132429   5.819   5.201   5.640
10510SOL    HW232430   5.691   5.147   5.726
10511SOL     OW32431   4.559   2.702   1.168
10511SOL    HW132432   4.476   2.742   1.207
10511SOL    HW232433   4.637   2.759   1.190
10512SOL     OW32434   3.835   0.922   5.970
10512SOL    HW132435   3.803   0.827   5.966
10512SOL    HW232436   3.898   0.932   6.047
10513SOL     OW32437   0.122   2.911   5.821
10513SOL    HW132438   0.125   2.831   5.881
10513SOL    HW232439   0.197   2.972   5.843
10514SOL     OW32440   0.162   3.770   0.339
10514SOL    HW132441   0.101   3.816   0.274
10514SOL    HW232442   0.214   3.839   0.389
10515SOL     OW32443   5.782   3.229   3.185
10515SOL    HW132444   5.846   3.212   3.259
10515SOL    HW232445   5.722   3.149   3.174
10516SOL     OW32446   4.741   0.899   6.556
10516SOL    HW132447   4.653   0.901   6.603
10516SOL    HW232448   4.808   0.854   6.614
10517SOL     OW32449   0.629   2.200   2.619
10517SOL    HW132450   0.561   2.204   2.692
10517SOL    HW232451   0.585   2.168   2.535
10518SOL     OW32452   0.759   4.669   6.823
10518SOL    HW132453   0.762   4.611   6.904
10518SOL    HW232454   0.665   4.703   6.810
10519SOL     OW32455   3.179   2.792   6.224
10519SOL    HW132456   3.142   2.763   6.312
10519SOL    HW232457   3.111   2.779   6.153
10520SOL     OW32458   2.136   2.684   6.600
10520SOL    HW132459   2.082   2.767   6.613
10520SOL    HW232460   2.079   2.603   6.618
10521SOL     OW32461   6.201   5.390   1.522
10521SOL    HW132462   6.140   5.349   1.454
10521SOL    HW232463   6.208   5.488   1.505
10522SOL     OW32464   5.975   0.548   0.847
10522SOL    HW132465   6.071   0.552   0.876
10522SOL    HW232466   5.967   0.578   0.753
10523SOL     OW32467   0.134   6.490   4.536
10523SOL    HW132468   0.233   6.486   4.545
10523SOL    HW232469   0.110   6.529   4.447
10524SOL     OW32470   1.714   2.041   4.988
10524SOL    HW132471   1.748   2.081   5.073
10524SOL    HW232472   1.751   2.091   4.910
10525SOL     OW32473   3.219   6.590   5.784
10525SOL    HW132474   3.181   6.601   5.875
10525SOL    HW232475   3.247   6.495   5.770
10526SOL     OW32476   0.209   0.395   2.913
10526SOL    HW132477   0.156   0.391   2.998
10526SOL    HW232478   0.193   0.311   2.860
10527SOL     OW32479   0.381   2.555   4.172
10527SOL    HW132480   0.287   2.576   4.197
10527SOL    HW232481   0.382   2.482   4.105
10528SOL     OW32482   0.766   4.284   5.328
10528SOL    HW132483   0.716   4.210   5.373
10528SOL    HW232484   0.734   4.295   5.234
10529SOL     OW32485   1.225   6.289   3.225
10529SOL    HW132486   1.202   6.201   3.266
10529SOL    HW232487   1.168   6.361   3.266
10530SOL     OW32488   1.665   1.269   6.181
10530SOL    HW132489   1.678   1.178   6.222
10530SOL    HW232490   1.750   1.321   6.189
10531SOL     OW32491   0.907   3.411   4.971
10531SOL    HW132492   0.926   3.481   5.040
10531SOL    HW232493   0.886   3.455   4.884
10532SOL     OW32494   2.225   3.543   0.521
10532SOL    HW132495   2.250   3.446   0.511
10532SOL    HW232496   2.126   3.553   0.513
10533SOL     OW32497   3.225   1.382   4.331
10533SOL    HW132498   3.240   1.368   4.233
10533SOL    HW232499   3.250   1.298   4.380
10534SOL     OW32500   6.781   5.884   0.839
10534SOL    HW132501   6.731   5.936   0.909
10534SOL    HW232502   6.807   5.795   0.876
10535SOL     OW32503   0.661   2.697   1.912
10535SOL    HW132504   0.624   2.604   1.917
10535SOL    HW232505   0.713   2.716   1.996
10536SOL     OW32506   3.568   0.435   2.853
10536SOL    HW132507   3.594   0.410   2.946
10536SOL    HW232508   3.581   0.534   2.840
10537SOL     OW32509   2.990   5.604   3.099
10537SOL    HW132510   3.068   5.598   3.036
10537SOL    HW232511   2.921   5.537   3.073
10538SOL     OW32512   4.873   2.916   6.578
10538SOL    HW132513   4.818   2.848   6.627
10538SOL    HW232514   4.819   2.956   6.504
10539SOL     OW32515   0.732   4.529   6.528
10539SOL    HW132516   0.801   4.601   6.539
10539SOL    HW232517   0.768   4.458   6.468
10540SOL     OW32518   1.740   1.070   5.785
10540SOL    HW132519   1.783   1.094   5.698
10540SOL    HW232520   1.664   1.007   5.768
10541SOL     OW32521   3.563   3.651   1.933
10541SOL    HW132522   3.658   3.680   1.943
10541SOL    HW232523   3.504   3.710   1.987
10542SOL     OW32524   6.925   1.591   0.024
10542SOL    HW132525   6.866   1.671   0.038
10542SOL    HW232526   6.999   1.592   0.091
10543SOL     OW32527   0.679   0.847   4.907
10543SOL    HW132528   0.661   0.902   4.989
10543SOL    HW232529   0.664   0.903   4.825
10544SOL     OW32530   1.501   0.235   2.767
10544SOL    HW132531   1.478   0.295   2.844
10544SOL    HW232532   1.549   0.287   2.697
10545SOL     OW32533   6.435   0.734   2.706
10545SOL    HW132534   6.445   0.814   2.766
10545SOL    HW232535   6.350   0.742   2.654
10546SOL     OW32536   0.671   0.789   6.335
10546SOL    HW132537   0.722   0.705   6.317
10546SOL    HW232538   0.640   0.828   6.249
10547SOL     OW32539   4.869   1.751   1.325
10547SOL    HW132540   4.821   1.773   1.410
10547SOL    HW232541   4.869   1.831   1.265
10548SOL     OW32542   5.073   3.725   4.976
10548SOL    HW132543   4.981   3.688   4.986
10548SOL    HW232544   5.140   3.652   4.990
10549SOL     OW32545   6.597   0.545   1.982
10549SOL    HW132546   6.693   0.518   1.981
10549SOL    HW232547   6.589   0.641   2.010
10550SOL     OW32548   4.279   6.438   4.557
10550SOL    HW132549   4.323   6.528   4.558
10550SOL    HW232550   4.196   6.443   4.502
10551SOL     OW32551   1.190   2.771   5.207
10551SOL    HW132552   1.157   2.681   5.180
10551SOL    HW232553   1.289   2.775   5.197
10552SOL     OW32554   3.996   1.852   5.951
10552SOL    HW132555   4.056   1.853   6.031
10552SOL    HW232556   4.021   1.776   5.891
10553SOL     OW32557   1.096   4.955   1.928
10553SOL    HW132558   1.144   4.989   1.848
10553SOL    HW232559   1.006   4.921   1.902
10554SOL     OW32560   5.377   5.221   6.831
10554SOL    HW132561   5.405   5.129   6.803
10554SOL    HW232562   5.420   5.289   6.771
10555SOL     OW32563   3.019   2.144   1.302
10555SOL    HW132564   2.989   2.229   1.345
10555SOL    HW232565   2.966   2.127   1.219
10556SOL     OW32566   1.660   2.935   5.317
10556SOL    HW132567   1.654   3.035   5.316
10556SOL    HW232568   1.745   2.906   5.275
10557SOL     OW32569   1.044   2.688   3.213
10557SOL    HW132570   1.078   2.781   3.200
10557SOL    HW232571   1.105   2.624   3.166
10558SOL     OW32572   3.872   0.006   4.871
10558SOL    HW132573   3.919   6.977   4.799
10558SOL    HW232574   3.841   0.094   4.834
10559SOL     OW32575   3.667   1.115   0.682
10559SOL    HW132576   3.682   1.192   0.620
10559SOL    HW232577   3.675   1.029   0.632
10560SOL     OW32578   2.268   6.007   4.351
10560SOL    HW132579   2.365   5.990   4.331
10560SOL    HW232580   2.214   5.927   4.325
10561SOL     OW32581   2.870   4.751   0.120
10561SOL    HW132582   2.807   4.820   0.153
10561SOL    HW232583   2.960   4.792   0.103
10562SOL     OW32584   5.274   6.255   0.265
10562SOL    HW132585   5.209   6.182   0.246
10562SOL    HW232586   5.291   6.260   0.364
10563SOL     OW32587   1.410   0.784   3.755
10563SOL    HW132588   1.354   0.860   3.787
10563SOL    HW232589   1.375   0.753   3.666
10564SOL     OW32590   5.884   6.755   2.183
10564SOL    HW132591   5.877   6.673   2.240
10564SOL    HW232592   5.819   6.824   2.215
10565SOL     OW32593   0.596   0.949   6.124
10565SOL    HW132594   0.588   1.048   6.138
10565SOL    HW232595   0.641   0.932   6.036
10566SOL     OW32596   4.382   3.066   6.923
10566SOL    HW132597   4.337   2.988   6.966
10566SOL    HW232598   4.393   3.139   6.991
10567SOL     OW32599   2.294   2.946   3.571
10567SOL    HW132600   2.228   3.006   3.525
10567SOL    HW232601   2.356   2.907   3.504
10568SOL     OW32602   5.456   1.462   1.186
10568SOL    HW132603   5.518   1.478   1.110
10568SOL    HW232604   5.375   1.414   1.153
10569SOL     OW32605   6.653   3.029   2.001
10569SOL    HW132606   6.744   2.987   1.996
10569SOL    HW232607   6.648   3.105   1.938
10570SOL     OW32608   2.118   5.143   2.622
10570SOL    HW132609   2.132   5.044   2.634
10570SOL    HW232610   2.027   5.167   2.655
10571SOL     OW32611   6.829   5.161   4.434
10571SOL    HW132612   6.887   5.214   4.496
10571SOL    HW232613   6.733   5.170   4.462
10572SOL     OW32614   6.112   3.433   3.258
10572SOL    HW132615   6.021   3.402   3.285
10572SOL    HW232616   6.137   3.392   3.171
10573SOL     OW32617   5.677   5.841   3.708
10573SOL    HW132618   5.658   5.868   3.802
10573SOL    HW232619   5.775   5.821   3.698
10574SOL     OW32620   2.057   2.096   4.002
10574SOL    HW132621   2.106   2.141   3.928
10574SOL    HW232622   2.119   2.081   4.079
10575SOL     OW32623   0.355   0.954   3.615
10575SOL    HW132624   0.323   0.925   3.705
10575SOL    HW232625   0.307   1.037   3.588
10576SOL     OW32626   0.662   6.532   5.504
10576SOL    HW132627   0.580   6.586   5.490
10576SOL    HW232628   0.638   6.449   5.555
10577SOL     OW32629   1.278   2.390   6.591
10577SOL    HW132630   1.334   2.412   6.511
10577SOL    HW232631   1.337   2.366   6.667
10578SOL     OW32632   6.820   0.389   3.469
10578SOL    HW132633   6.862   0.437   3.391
10578SOL    HW232634   6.764   0.453   3.521
10579SOL     OW32635   3.232   1.930   0.613
10579SOL    HW132636   3.216   2.021   0.651
10579SOL    HW232637   3.205   1.861   0.679
10580SOL     OW32638   6.772   0.096   0.283
10580SOL    HW132639   6.782   0.132   0.190
10580SOL    HW232640   6.681   0.120   0.317
10581SOL     OW32641   6.004   0.176   2.934
10581SOL    HW132642   5.949   0.240   2.988
10581SOL    HW232643   5.946   0.131   2.866
10582SOL     OW32644   3.774   5.085   6.528
10582SOL    HW132645   3.859   5.052   6.569
10582SOL    HW232646   3.768   5.053   6.433
10583SOL     OW32647   4.414   0.947   5.635
10583SOL    HW132648   4.381   0.997   5.715
10583SOL    HW232649   4.394   1.000   5.552
10584SOL     OW32650   5.875   6.870   1.033
10584SOL    HW132651   5.908   6.789   0.984
10584SOL    HW232652   5.942   6.944   1.024
10585SOL     OW32653   1.555   3.003   5.825
10585SOL    HW132654   1.517   2.936   5.888
10585SOL    HW232655   1.531   2.977   5.731
10586SOL     OW32656   1.906   5.894   5.562
10586SOL    HW132657   2.000   5.860   5.553
10586SOL    HW232658   1.842   5.823   5.531
10587SOL     OW32659   5.861   4.002   0.127
10587SOL    HW132660   5.905   3.937   0.189
10587SOL    HW232661   5.902   4.092   0.137
10588SOL     OW32662   0.796   4.193   1.853
10588SOL    HW132663   0.832   4.163   1.764
10588SOL    HW232664   0.710   4.242   1.839
10589SOL     OW32665   5.441   1.472   4.425
10589SOL    HW132666   5.375   1.518   4.365
10589SOL    HW232667   5.464   1.382   4.387
10590SOL     OW32668   1.189   0.594   1.771
10590SOL    HW132669   1.156   0.539   1.694
10590SOL    HW232670   1.289   0.596   1.770
10591SOL     OW32671   1.508   1.789   5.449
10591SOL    HW132672   1.600   1.774   5.412
10591SOL    HW232673   1.459   1.702   5.450
10592SOL     OW32674   5.641   2.813   1.063
10592SOL    HW132675   5.592   2.860   1.136
10592SOL    HW232676   5.576   2.766   1.003
10593SOL     OW32677   2.972   5.082   0.622
10593SOL    HW132678   3.069   5.060   0.611
10593SOL    HW232679   2.944   5.144   0.549
10594SOL     OW32680   5.429   1.691   3.678
10594SOL    HW132681   5.412   1.642   3.592
10594SOL    HW232682   5.344   1.733   3.710
10595SOL     OW32683   3.407   0.435   6.080
10595SOL    HW132684   3.348   0.400   6.008
10595SOL    HW232685   3.451   0.520   6.049
10596SOL     OW32686   4.378   7.014   2.016
10596SOL    HW132687   4.373   6.957   2.098
10596SOL    HW232688   4.356   0.087   2.040
10597SOL     OW32689   2.775   1.257   4.522
10597SOL    HW132690   2.857   1.202   4.507
10597SOL    HW232691   2.784   1.346   4.477
10598SOL     OW32692   2.872   2.572   0.158
10598SOL    HW132693   2.776   2.542   0.158
10598SOL    HW232694   2.921   2.528   0.084
10599SOL     OW32695   5.671   1.981   0.328
10599SOL    HW132696   5.690   1.936   0.415
10599SOL    HW232697   5.749   1.970   0.267
10600SOL     OW32698   1.835   3.016   0.342
10600SOL    HW132699   1.884   2.959   0.276
10600SOL    HW232700   1.774   3.079   0.294
10601SOL     OW32701   2.485   5.154   5.731
10601SOL    HW132702   2.462   5.212   5.653
10601SOL    HW232703   2.442   5.064   5.721
10602SOL     OW32704   5.258   1.566   2.788
10602SOL    HW132705   5.207   1.631   2.844
10602SOL    HW232706   5.266   1.602   2.695
10603SOL     OW32707   2.225   5.849   3.359
10603SOL    HW132708   2.280   5.932   3.364
10603SOL    HW232709   2.167   5.852   3.277
10604SOL     OW32710   5.370   4.371   4.656
10604SOL    HW132711   5.343   4.404   4.747
10604SOL    HW232712   5.289   4.365   4.597
10605SOL     OW32713   0.769   4.965   0.180
10605SOL    HW132714   0.684   4.971   0.128
10605SOL    HW232715   0.774   4.875   0.224
10606SOL     OW32716   5.943   0.513   1.891
10606SOL    HW132717   5.863   0.568   1.915
10606SOL    HW232718   6.004   0.508   1.971
10607SOL     OW32719   4.191   3.354   5.699
10607SOL    HW132720   4.200   3.411   5.617
10607SOL    HW232721   4.217   3.407   5.779
10608SOL     OW32722   5.858   2.150   5.053
10608SOL    HW132723   5.842   2.231   5.109
10608SOL    HW232724   5.952   2.152   5.017
10609SOL     OW32725   2.969   5.947   1.676
10609SOL    HW132726   2.979   6.045   1.696
10609SOL    HW232727   2.951   5.934   1.579
10610SOL     OW32728   0.449   4.527   6.629
10610SOL    HW132729   0.473   4.584   6.550
10610SOL    HW232730   0.531   4.506   6.681
10611SOL     OW32731   5.359   3.415   0.074
10611SOL    HW132732   5.394   3.465   7.016
10611SOL    HW232733   5.393   3.321   0.071
10612SOL     OW32734   2.441   6.929   5.750
10612SOL    HW132735   2.523   6.967   5.707
10612SOL    HW232736   2.366   6.995   5.742
10613SOL     OW32737   0.601   0.085   5.808
10613SOL    HW132738   0.551   0.026   5.872
10613SOL    HW232739   0.535   0.138   5.755
10614SOL     OW32740   0.076   1.803   4.296
10614SOL    HW132741   7.008   1.787   4.339
10614SOL    HW232742   0.076   1.764   4.204
10615SOL     OW32743   4.082   5.438   5.675
10615SOL    HW132744   4.008   5.479   5.623
10615SOL    HW232745   4.054   5.348   5.710
10616SOL     OW32746   3.754   6.215   0.333
10616SOL    HW132747   3.844   6.254   0.311
10616SOL    HW232748   3.696   6.217   0.252
10617SOL     OW32749   2.214   2.607   0.437
10617SOL    HW132750   2.225   2.612   0.338
10617SOL    HW232751   2.256   2.686   0.480
10618SOL     OW32752   5.883   3.197   0.383
10618SOL    HW132753   5.930   3.251   0.312
10618SOL    HW232754   5.949   3.135   0.426
10619SOL     OW32755   0.182   3.762   1.830
10619SOL    HW132756   0.277   3.775   1.803
10619SOL    HW232757   0.158   3.665   1.824
10620SOL     OW32758   0.960   6.122   5.533
10620SOL    HW132759   0.901   6.184   5.481
10620SOL    HW232760   0.937   6.027   5.510
10621SOL     OW32761   1.369   6.228   0.751
10621SOL    HW132762   1.449   6.168   0.746
10621SOL    HW232763   1.289   6.174   0.779
10622SOL     OW32764   4.407   1.055   0.935
10622SOL    HW132765   4.455   0.967   0.948
10622SOL    HW232766   4.310   1.043   0.957
10623SOL     OW32767   5.680   3.259   3.951
10623SOL    HW132768   5.592   3.226   3.984
10623SOL    HW232769   5.674   3.280   3.854
10624SOL     OW32770   0.884   1.053   4.366
10624SOL    HW132771   0.841   1.022   4.281
10624SOL    HW232772   0.843   1.139   4.395
10625SOL     OW32773   0.573   4.330   6.812
10625SOL    HW132774   0.573   4.390   6.892
10625SOL    HW232775   0.660   4.340   6.764
10626SOL     OW32776   0.792   2.587   1.429
10626SOL    HW132777   0.839   2.521   1.488
10626SOL    HW232778   0.858   2.654   1.396
10627SOL     OW32779   5.683   6.182   2.509
10627SOL    HW132780   5.778   6.211   2.519
10627SOL    HW232781   5.633   6.202   2.593
10628SOL     OW32782   5.144   5.085   5.943
10628SOL    HW132783   5.220   5.022   5.933
10628SOL    HW232784   5.148   5.129   6.033
10629SOL     OW32785   2.690   4.556   5.364
10629SOL    HW132786   2.764   4.544   5.297
10629SOL    HW232787   2.700   4.643   5.410
10630SOL     OW32788   6.367   0.870   3.167
10630SOL    HW132789   6.442   0.908   3.112
10630SOL    HW232790   6.387   0.882   3.264
10631SOL     OW32791   1.319   5.823   4.531
10631SOL    HW132792   1.249   5.751   4.532
10631SOL    HW232793   1.340   5.848   4.436
10632SOL     OW32794   5.649   2.490   4.227
10632SOL    HW132795   5.599   2.427   4.168
10632SOL    HW232796   5.696   2.438   4.298
10633SOL     OW32797   2.838   4.048   1.213
10633SOL    HW132798   2.743   4.017   1.223
10633SOL    HW232799   2.893   3.972   1.177
10634SOL     OW32800   3.675   5.327   0.498
10634SOL    HW132801   3.725   5.399   0.451
10634SOL    HW232802   3.655   5.253   0.434
10635SOL     OW32803   2.687   1.357   1.161
10635SOL    HW132804   2.694   1.348   1.260
10635SOL    HW232805   2.779   1.352   1.121
10636SOL     OW32806   1.185   2.452   1.770
10636SOL    HW132807   1.183   2.354   1.789
10636SOL    HW232808   1.260   2.494   1.820
10637SOL     OW32809   3.707   3.948   5.606
10637SOL    HW132810   3.679   3.866   5.556
10637SOL    HW232811   3.768   4.003   5.549
10638SOL     OW32812   0.116   6.187   2.603
10638SOL    HW132813   0.021   6.219   2.604
10638SOL    HW232814   0.121   6.098   2.559
10639SOL     OW32815   0.618   1.828   3.516
10639SOL    HW132816   0.625   1.825   3.616
10639SOL    HW232817   0.709   1.839   3.476
10640SOL     OW32818   4.275   0.041   6.962
10640SOL    HW132819   4.236   0.003   6.878
10640SOL    HW232820   4.249   0.137   6.971
10641SOL     OW32821   3.724   1.934   0.400
10641SOL    HW132822   3.796   1.906   0.464
10641SOL    HW232823   3.643   1.877   0.415
10642SOL     OW32824   0.373   3.045   1.603
10642SOL    HW132825   0.423   2.966   1.638
10642SOL    HW232826   0.368   3.039   1.503
10643SOL     OW32827   2.203   4.136   5.774
10643SOL    HW132828   2.249   4.222   5.752
10643SOL    HW232829   2.108   4.154   5.799
10644SOL     OW32830   4.823   1.732   3.694
10644SOL    HW132831   4.836   1.637   3.720
10644SOL    HW232832   4.788   1.783   3.772
10645SOL     OW32833   1.150   1.092   4.186
10645SOL    HW132834   1.125   1.063   4.093
10645SOL    HW232835   1.122   1.022   4.251
10646SOL     OW32836   0.972   1.952   5.406
10646SOL    HW132837   0.978   1.923   5.501
10646SOL    HW232838   0.935   1.878   5.350
10647SOL     OW32839   5.166   5.475   6.051
10647SOL    HW132840   5.257   5.515   6.038
10647SOL    HW232841   5.148   5.409   5.978
10648SOL     OW32842   5.432   2.894   6.473
10648SOL    HW132843   5.483   2.943   6.401
10648SOL    HW232844   5.346   2.861   6.436
10649SOL     OW32845   0.188   4.447   3.827
10649SOL    HW132846   0.171   4.527   3.769
10649SOL    HW232847   0.109   4.432   3.886
10650SOL     OW32848   1.186   6.664   3.513
10650SOL    HW132849   1.278   6.703   3.519
10650SOL    HW232850   1.119   6.731   3.542
10651SOL     OW32851   4.639   6.799   5.873
10651SOL    HW132852   4.675   6.754   5.955
10651SOL    HW232853   4.673   6.751   5.792
10652SOL     OW32854   3.413   0.047   6.740
10652SOL    HW132855   3.443   0.140   6.763
10652SOL    HW232856   3.314   0.047   6.727
10653SOL     OW32857   5.119   4.607   4.480
10653SOL    HW132858   5.151   4.514   4.465
10653SOL    HW232859   5.021   4.606   4.499
10654SOL     OW32860   3.919   0.455   1.494
10654SOL    HW132861   3.880   0.474   1.404
10654SOL    HW232862   3.859   0.493   1.565
10655SOL     OW32863   3.097   5.419   1.318
10655SOL    HW132864   3.138   5.469   1.241
10655SOL    HW232865   3.158   5.423   1.397
10656SOL     OW32866   6.193   1.972   0.390
10656SOL    HW132867   6.197   2.072   0.381
10656SOL    HW232868   6.130   1.948   0.463
10657SOL     OW32869   6.288   6.613   0.852
10657SOL    HW132870   6.354   6.538   0.841
10657SOL    HW232871   6.334   6.692   0.891
10658SOL     OW32872   0.436   4.506   4.617
10658SOL    HW132873   0.512   4.564   4.647
10658SOL    HW232874   0.470   4.437   4.553
10659SOL     OW32875   6.860   6.514   1.122
10659SOL    HW132876   6.948   6.469   1.106
10659SOL    HW232877   6.857   6.549   1.215
10660SOL     OW32878   4.986   4.076   6.362
10660SOL    HW132879   5.024   4.041   6.277
10660SOL    HW232880   4.887   4.061   6.363
10661SOL     OW32881   6.714   6.683   2.695
10661SOL    HW132882   6.793   6.637   2.657
10661SOL    HW232883   6.640   6.617   2.708
10662SOL     OW32884   5.740   1.054   2.029
10662SOL    HW132885   5.668   1.108   1.984
10662SOL    HW232886   5.822   1.110   2.041
10663SOL     OW32887   0.843   0.265   0.744
10663SOL    HW132888   0.841   0.224   0.836
10663SOL    HW232889   0.891   0.204   0.681
10664SOL     OW32890   2.553   4.037   6.491
10664SOL    HW132891   2.588   4.093   6.415
10664SOL    HW232892   2.454   4.022   6.478
10665SOL     OW32893   1.190   1.132   6.748
10665SOL    HW132894   1.144   1.166   6.830
10665SOL    HW232895   1.209   1.034   6.759
10666SOL     OW32896   4.026   4.129   7.011
10666SOL    HW132897   4.024   4.228   0.002
10666SOL    HW232898   4.121   4.098   7.004
10667SOL     OW32899   4.323   1.700   5.443
10667SOL    HW132900   4.364   1.609   5.441
10667SOL    HW232901   4.256   1.708   5.370
10668SOL     OW32902   1.374   2.128   5.703
10668SOL    HW132903   1.456   2.080   5.670
10668SOL    HW232904   1.339   2.187   5.630
10669SOL     OW32905   0.502   0.108   0.798
10669SOL    HW132906   0.544   0.150   0.717
10669SOL    HW232907   0.453   0.177   0.850
10670SOL     OW32908   4.917   4.357   6.127
10670SOL    HW132909   4.993   4.293   6.115
10670SOL    HW232910   4.930   4.436   6.067
10671SOL     OW32911   2.127   3.737   2.552
10671SOL    HW132912   2.078   3.814   2.511
10671SOL    HW232913   2.224   3.743   2.529
10672SOL     OW32914   6.900   3.038   0.684
10672SOL    HW132915   6.982   3.030   0.741
10672SOL    HW232916   6.839   3.107   0.723
10673SOL     OW32917   2.836   2.630   5.834
10673SOL    HW132918   2.866   2.538   5.811
10673SOL    HW232919   2.753   2.626   5.890
10674SOL     OW32920   3.617   3.649   0.567
10674SOL    HW132921   3.618   3.730   0.626
10674SOL    HW232922   3.614   3.567   0.623
10675SOL     OW32923   0.862   0.909   5.335
10675SOL    HW132924   0.903   0.821   5.312
10675SOL    HW232925   0.934   0.976   5.349
10676SOL     OW32926   6.166   0.231   5.905
10676SOL    HW132927   6.219   0.314   5.890
10676SOL    HW232928   6.217   0.169   5.965
10677SOL     OW32929   0.911   0.861   2.298
10677SOL    HW132930   0.854   0.792   2.253
10677SOL    HW232931   0.862   0.949   2.297
10678SOL     OW32932   3.814   5.394   2.853
10678SOL    HW132933   3.788   5.481   2.894
10678SOL    HW232934   3.731   5.341   2.832
10679SOL     OW32935   5.502   5.663   4.961
10679SOL    HW132936   5.562   5.628   5.034
10679SOL    HW232937   5.466   5.752   4.987
10680SOL     OW32938   1.847   3.553   2.802
10680SOL    HW132939   1.918   3.562   2.872
10680SOL    HW232940   1.890   3.556   2.711
10681SOL     OW32941   6.281   4.437   6.902
10681SOL    HW132942   6.309   4.532   6.890
10681SOL    HW232943   6.181   4.431   6.904
10682SOL     OW32944   1.657   1.666   2.801
10682SOL    HW132945   1.623   1.705   2.886
10682SOL    HW232946   1.581   1.650   2.738
10683SOL     OW32947   2.391   2.638   3.841
10683SOL    HW132948   2.391   2.541   3.865
10683SOL    HW232949   2.389   2.647   3.741
10684SOL     OW32950   5.288   3.901   0.247
10684SOL    HW132951   5.385   3.914   0.230
10684SOL    HW232952   5.247   3.987   0.277
10685SOL     OW32953   0.696   3.917   3.353
10685SOL    HW132954   0.720   3.820   3.352
10685SOL    HW232955   0.646   3.940   3.270
10686SOL     OW32956   4.253   6.063   6.535
10686SOL    HW132957   4.227   6.154   6.569
10686SOL    HW232958   4.339   6.070   6.483
10687SOL     OW32959   0.031   5.218   2.342
10687SOL    HW132960   0.119   5.239   2.385
10687SOL    HW232961   0.030   5.121   2.315
10688SOL     OW32962   6.348   4.173   2.594
10688SOL    HW132963   6.362   4.125   2.508
10688SOL    HW232964   6.308   4.110   2.661
10689SOL     OW32965   6.780   6.959   2.930
10689SOL    HW132966   6.870   6.969   2.974
10689SOL    HW232967   6.792   6.959   2.831
10690SOL     OW32968   4.486   5.801   3.386
10690SOL    HW132969   4.511   5.892   3.419
10690SOL    HW232970   4.462   5.806   3.289
10691SOL     OW32971   6.222   1.241   1.652
10691SOL    HW132972   6.230   1.302   1.573
10691SOL    HW232973   6.219   1.295   1.736
10692SOL     OW32974   3.031   5.862   3.658
10692SOL    HW132975   3.062   5.912   3.739
10692SOL    HW232976   3.109   5.835   3.603
10693SOL     OW32977   1.062   1.115   0.755
10693SOL    HW132978   1.102   1.040   0.702
10693SOL    HW232979   1.085   1.104   0.852
10694SOL     OW32980   3.356   5.805   1.057
10694SOL    HW132981   3.443   5.775   1.019
10694SOL    HW232982   3.307   5.859   0.989
10695SOL     OW32983   0.130   2.667   4.208
10695SOL    HW132984   0.132   2.754   4.160
10695SOL    HW232985   0.035   2.638   4.221
10696SOL     OW32986   0.098   5.743   1.573
10696SOL    HW132987   0.155   5.772   1.650
10696SOL    HW232988   0.043   5.821   1.542
10697SOL     OW32989   0.312   6.203   3.356
10697SOL    HW132990   0.384   6.155   3.306
10697SOL    HW232991   0.247   6.136   3.393
10698SOL     OW32992   3.215   0.417   3.595
10698SOL    HW132993   3.143   0.476   3.557
10698SOL    HW232994   3.297   0.424   3.539
10699SOL     OW32995   4.191   1.738   2.846
10699SOL    HW132996   4.260   1.695   2.904
10699SOL    HW232997   4.225   1.741   2.751
10700SOL     OW32998   1.013   0.092   0.588
10700SOL    HW132999   1.061   0.007   0.610
10700SOL    HW233000   0.929   0.071   0.539
10701SOL     OW33001   4.818   5.688   6.480
10701SOL    HW133002   4.768   5.603   6.460
10701SOL    HW233003   4.855   5.683   6.573
10702SOL     OW33004   5.717   2.720   1.368
10702SOL    HW133005   5.682   2.714   1.274
10702SOL    HW233006   5.682   2.643   1.421
10703SOL     OW33007   3.593   3.702   3.248
10703SOL    HW133008   3.493   3.701   3.249
10703SOL    HW233009   3.625   3.725   3.156
10704SOL     OW33010   5.056   6.714   1.964
10704SOL    HW133011   5.146   6.745   1.995
10704SOL    HW233012   4.985   6.755   2.022
10705SOL     OW33013   1.317   3.571   6.538
10705SOL    HW133014   1.258   3.524   6.603
10705SOL    HW233015   1.380   3.631   6.587
10706SOL     OW33016   4.549   0.796   2.335
10706SOL    HW133017   4.563   0.743   2.251
10706SOL    HW233018   4.456   0.833   2.336
10707SOL     OW33019   0.164   6.913   5.776
10707SOL    HW133020   0.119   6.998   5.748
10707SOL    HW233021   0.167   6.850   5.698
10708SOL     OW33022   4.710   1.036   1.109
10708SOL    HW133023   4.673   1.126   1.131
10708SOL    HW233024   4.637   0.978   1.075
10709SOL     OW33025   6.559   0.551   5.049
10709SOL    HW133026   6.634   0.617   5.054
10709SOL    HW233027   6.473   0.599   5.068
10710SOL     OW33028   6.522   5.585   3.710
10710SOL    HW133029   6.449   5.631   3.660
10710SOL    HW233030   6.609   5.600   3.664
10711SOL     OW33031   1.874   0.451   4.062
10711SOL    HW133032   1.847   0.427   3.969
10711SOL    HW233033   1.793   0.453   4.121
10712SOL     OW33034   3.727   1.233   5.005
10712SOL    HW133035   3.805   1.212   5.064
10712SOL    HW233036   3.650   1.263   5.061
10713SOL     OW33037   2.126   5.552   2.148
10713SOL    HW133038   2.155   5.521   2.058
10713SOL    HW233039   2.153   5.647   2.161
10714SOL     OW33040   0.537   4.826   4.746
10714SOL    HW133041   0.541   4.896   4.675
10714SOL    HW233042   0.442   4.799   4.761
10715SOL     OW33043   4.838   2.104   4.242
10715SOL    HW133044   4.757   2.161   4.251
10715SOL    HW233045   4.915   2.160   4.211
10716SOL     OW33046   6.318   1.481   4.181
10716SOL    HW133047   6.268   1.556   4.225
10716SOL    HW233048   6.255   1.405   4.164
10717SOL     OW33049   7.006   1.284   1.264
10717SOL    HW133050   6.978   1.376   1.237
10717SOL    HW233051   0.083   1.282   1.283
10718SOL     OW33052   6.788   5.508   0.292
10718SOL    HW133053   6.787   5.413   0.325
10718SOL    HW233054   6.706   5.555   0.325
10719SOL     OW33055   5.290   1.120   2.108
10719SOL    HW133056   5.270   1.173   2.025
10719SOL    HW233057   5.261   1.025   2.094
10720SOL     OW33058   6.943   3.875   5.952
10720SOL    HW133059   6.909   3.874   6.046
10720SOL    HW233060   6.953   3.780   5.920
10721SOL     OW33061   6.162   2.139   4.619
10721SOL    HW133062   6.221   2.156   4.697
10721SOL    HW233063   6.136   2.042   4.617
10722SOL     OW33064   6.241   3.949   0.356
10722SOL    HW133065   6.301   3.870   0.350
10722SOL    HW233066   6.294   4.030   0.381
10723SOL     OW33067   5.235   4.025   6.823
10723SOL    HW133068   5.325   4.036   6.780
10723SOL    HW233069   5.231   3.937   6.870
10724SOL     OW33070   4.367   6.723   6.173
10724SOL    HW133071   4.339   6.809   6.216
10724SOL    HW233072   4.353   6.729   6.074
10725SOL     OW33073   0.504   6.232   4.174
10725SOL    HW133074   0.588   6.184   4.149
10725SOL    HW233075   0.425   6.182   4.138
10726SOL     OW33076   5.654   0.645   4.975
10726SOL    HW133077   5.614   0.737   4.970
10726SOL    HW233078   5.617   0.589   4.900
10727SOL     OW33079   2.317   5.006   5.157
10727SOL    HW133080   2.327   4.911   5.129
10727SOL    HW233081   2.396   5.033   5.212
10728SOL     OW33082   4.653   6.996   2.857
10728SOL    HW133083   4.703   6.931   2.914
10728SOL    HW233084   4.718   0.028   2.802
10729SOL     OW33085   5.981   2.240   3.083
10729SOL    HW133086   6.047   2.310   3.111
10729SOL    HW233087   5.920   2.278   3.014
10730SOL     OW33088   2.063   5.834   2.387
10730SOL    HW133089   1.980   5.866   2.432
10730SOL    HW233090   2.043   5.814   2.291
10731SOL     OW33091   3.127   5.804   0.377
10731SOL    HW133092   3.166   5.766   0.461
10731SOL    HW233093   3.167   5.758   0.298
10732SOL     OW33094   5.501   6.527   2.954
10732SOL    HW133095   5.439   6.457   2.919
10732SOL    HW233096   5.504   6.523   3.054
10733SOL     OW33097   5.781   1.008   6.917
10733SOL    HW133098   5.805   1.017   6.820
10733SOL    HW233099   5.790   0.913   6.945
10734SOL     OW33100   1.083   0.139   6.634
10734SOL    HW133101   1.083   0.212   6.703
10734SOL    HW233102   1.002   0.082   6.646
10735SOL     OW33103   0.778   5.297   2.177
10735SOL    HW133104   0.867   5.252   2.186
10735SOL    HW233105   0.768   5.365   2.250
10736SOL     OW33106   6.828   0.685   4.252
10736SOL    HW133107   6.840   0.636   4.339
10736SOL    HW233108   6.904   0.749   4.240
10737SOL     OW33109   0.125   2.099   1.137
10737SOL    HW133110   0.200   2.041   1.169
10737SOL    HW233111   0.069   2.047   1.072
10738SOL     OW33112   2.767   1.077   2.501
10738SOL    HW133113   2.751   1.136   2.580
10738SOL    HW233114   2.838   1.117   2.443
10739SOL     OW33115   6.143   1.910   2.662
10739SOL    HW133116   6.123   1.912   2.760
10739SOL    HW233117   6.222   1.968   2.644
10740SOL     OW33118   1.553   6.759   6.095
10740SOL    HW133119   1.501   6.838   6.063
10740SOL    HW233120   1.497   6.677   6.085
10741SOL     OW33121   1.477   2.953   3.187
10741SOL    HW133122   1.474   3.053   3.186
10741SOL    HW233123   1.389   2.917   3.217
10742SOL     OW33124   6.044   5.600   2.115
10742SOL    HW133125   6.088   5.539   2.050
10742SOL    HW233126   6.105   5.677   2.135
10743SOL     OW33127   3.540   1.347   5.524
10743SOL    HW133128   3.583   1.257   5.529
10743SOL    HW233129   3.462   1.351   5.586
10744SOL     OW33130   3.484   0.342   1.526
10744SOL    HW133131   3.492   0.411   1.455
10744SOL    HW233132   3.458   0.255   1.484
10745SOL     OW33133   1.900   4.593   0.964
10745SOL    HW133134   1.950   4.542   1.034
10745SOL    HW233135   1.956   4.599   0.881
10746SOL     OW33136   2.531   6.036   0.404
10746SOL    HW133137   2.571   5.946   0.419
10746SOL    HW233138   2.470   6.058   0.481
10747SOL     OW33139   5.966   2.743   4.490
10747SOL    HW133140   5.963   2.800   4.573
10747SOL    HW233141   5.874   2.736   4.452
10748SOL     OW33142   4.371   5.565   1.108
10748SOL    HW133143   4.295   5.509   1.143
10748SOL    HW233144   4.444   5.568   1.176
10749SOL     OW33145   5.831   4.595   3.375
10749SOL    HW133146   5.753   4.540   3.404
10749SOL    HW233147   5.916   4.548   3.398
10750SOL     OW33148   4.920   3.567   3.893
10750SOL    HW133149   5.005   3.599   3.933
10750SOL    HW233150   4.844   3.586   3.956
10751SOL     OW33151   1.311   3.482   4.965
10751SOL    HW133152   1.356   3.529   4.889
10751SOL    HW233153   1.269   3.549   5.026
10752SOL     OW33154   6.390   5.039   6.464
10752SOL    HW133155   6.359   4.947   6.441
10752SOL    HW233156   6.479   5.034   6.509
10753SOL     OW33157   4.359   6.116   4.530
10753SOL    HW133158   4.419   6.037   4.527
10753SOL    HW233159   4.401   6.188   4.585
10754SOL     OW33160   0.974   3.059   1.945
10754SOL    HW133161   1.014   2.983   1.995
10754SOL    HW233162   0.933   3.025   1.860
10755SOL     OW33163   6.817   2.339   1.572
10755SOL    HW133164   6.870   2.275   1.517
10755SOL    HW233165   6.877   2.385   1.637
10756SOL     OW33166   6.055   2.007   0.631
10756SOL    HW133167   6.058   1.944   0.709
10756SOL    HW233168   6.093   2.096   0.658
10757SOL     OW33169   6.636   3.917   0.206
10757SOL    HW133170   6.550   3.866   0.212
10757SOL    HW233171   6.634   3.977   0.126
10758SOL     OW33172   1.398   5.636   6.331
10758SOL    HW133173   1.318   5.694   6.348
10758SOL    HW233174   1.466   5.687   6.280
10759SOL     OW33175   1.396   2.181   6.144
10759SOL    HW133176   1.339   2.156   6.065
10759SOL    HW233177   1.361   2.137   6.226
10760SOL     OW33178   1.081   6.635   0.599
10760SOL    HW133179   1.111   6.579   0.676
10760SOL    HW233180   1.066   6.577   0.519
10761SOL     OW33181   0.907   2.062   6.275
10761SOL    HW133182   0.933   2.045   6.370
10761SOL    HW233183   0.967   2.009   6.215
10762SOL     OW33184   4.131   0.742   5.827
10762SOL    HW133185   4.158   0.659   5.776
10762SOL    HW233186   4.068   0.796   5.771
10763SOL     OW33187   5.749   0.828   2.759
10763SOL    HW133188   5.768   0.853   2.854
10763SOL    HW233189   5.652   0.808   2.748
10764SOL     OW33190   4.628   1.188   4.830
10764SOL    HW133191   4.697   1.169   4.900
10764SOL    HW233192   4.667   1.248   4.761
10765SOL     OW33193   5.789   2.050   2.242
10765SOL    HW133194   5.862   2.082   2.303
10765SOL    HW233195   5.720   2.001   2.295
10766SOL     OW33196   1.431   5.294   0.304
10766SOL    HW133197   1.456   5.360   0.233
10766SOL    HW233198   1.463   5.203   0.277
10767SOL     OW33199   1.906   6.421   0.452
10767SOL    HW133200   1.869   6.328   0.449
10767SOL    HW233201   1.994   6.423   0.403
10768SOL     OW33202   5.731   5.160   0.261
10768SOL    HW133203   5.783   5.148   0.345
10768SOL    HW233204   5.791   5.193   0.189
10769SOL     OW33205   2.610   4.194   5.428
10769SOL    HW133206   2.613   4.094   5.437
10769SOL    HW233207   2.542   4.218   5.359
10770SOL     OW33208   5.224   6.534   4.737
10770SOL    HW133209   5.266   6.453   4.696
10770SOL    HW233210   5.168   6.581   4.669
10771SOL     OW33211   4.636   0.065   5.457
10771SOL    HW133212   4.649   0.162   5.439
10771SOL    HW233213   4.621   0.050   5.555
10772SOL     OW33214   5.676   6.384   3.789
10772SOL    HW133215   5.715   6.294   3.771
10772SOL    HW233216   5.642   6.423   3.704
10773SOL     OW33217   6.768   4.257   0.640
10773SOL    HW133218   6.680   4.245   0.687
10773SOL    HW233219   6.778   4.185   0.571
10774SOL     OW33220   1.293   2.387   1.029
10774SOL    HW133221   1.270   2.471   0.979
10774SOL    HW233222   1.366   2.406   1.094
10775SOL     OW33223   1.650   4.535   0.872
10775SOL    HW133224   1.736   4.560   0.916
10775SOL    HW233225   1.629   4.600   0.799
10776SOL     OW33226   6.757   0.325   2.568
10776SOL    HW133227   6.708   0.381   2.635
10776SOL    HW233228   6.782   0.383   2.490
10777SOL     OW33229   2.727   0.883   3.864
10777SOL    HW133230   2.669   0.883   3.945
10777SOL    HW233231   2.753   0.790   3.841
10778SOL     OW33232   6.747   6.351   4.805
10778SOL    HW133233   6.822   6.379   4.745
10778SOL    HW233234   6.690   6.284   4.758
10779SOL     OW33235   5.406   4.605   3.395
10779SOL    HW133236   5.421   4.692   3.348
10779SOL    HW233237   5.318   4.608   3.443
10780SOL     OW33238   0.652   6.109   4.507
10780SOL    HW133239   0.718   6.033   4.509
10780SOL    HW233240   0.646   6.149   4.599
10781SOL     OW33241   6.260   2.116   5.210
10781SOL    HW133242   6.197   2.081   5.280
10781SOL    HW233243   6.267   2.215   5.217
10782SOL     OW33244   0.010   3.374   5.446
10782SOL    HW133245   6.989   3.361   5.356
10782SOL    HW233246   0.066   3.295   5.469
10783SOL     OW33247   1.328   2.480   2.409
10783SOL    HW133248   1.417   2.507   2.372
10783SOL    HW233249   1.311   2.384   2.387
10784SOL     OW33250   3.047   5.980   2.328
10784SOL    HW133251   3.048   6.074   2.294
10784SOL    HW233252   3.138   5.940   2.319
10785SOL     OW33253   1.517   5.148   1.464
10785SOL    HW133254   1.554   5.056   1.448
10785SOL    HW233255   1.477   5.153   1.555
10786SOL     OW33256   4.404   2.303   2.323
10786SOL    HW133257   4.477   2.243   2.354
10786SOL    HW233258   4.332   2.308   2.392
10787SOL     OW33259   3.579   1.483   4.132
10787SOL    HW133260   3.481   1.466   4.145
10787SOL    HW233261   3.615   1.419   4.064
10788SOL     OW33262   0.737   4.476   0.445
10788SOL    HW133263   0.674   4.402   0.468
10788SOL    HW233264   0.826   4.437   0.422
10789SOL     OW33265   6.201   1.047   0.139
10789SOL    HW133266   6.233   1.142   0.143
10789SOL    HW233267   6.219   1.010   0.048
10790SOL     OW33268   0.767   2.733   5.222
10790SOL    HW133269   0.714   2.787   5.157
10790SOL    HW233270   0.712   2.717   5.304
10791SOL     OW33271   2.292   1.895   2.417
10791SOL    HW133272   2.260   1.862   2.328
10791SOL    HW233273   2.352   1.826   2.458
10792SOL     OW33274   3.330   2.410   1.342
10792SOL    HW133275   3.423   2.446   1.329
10792SOL    HW233276   3.278   2.474   1.399
10793SOL     OW33277   5.126   1.693   4.808
10793SOL    HW133278   5.131   1.789   4.832
10793SOL    HW233279   5.103   1.684   4.711
10794SOL     OW33280   4.395   3.067   1.697
10794SOL    HW133281   4.455   3.044   1.774
10794SOL    HW233282   4.443   3.129   1.634
10795SOL     OW33283   0.031   4.194   2.314
10795SOL    HW133284   6.960   4.228   2.326
10795SOL    HW233285   0.028   4.104   2.270
10796SOL     OW33286   6.419   6.675   6.705
10796SOL    HW133287   6.391   6.764   6.740
10796SOL    HW233288   6.516   6.660   6.724
10797SOL     OW33289   3.864   2.934   0.615
10797SOL    HW133290   3.899   2.889   0.533
10797SOL    HW233291   3.765   2.948   0.606
10798SOL     OW33292   2.832   0.095   6.340
10798SOL    HW133293   2.903   0.078   6.408
10798SOL    HW233294   2.792   0.008   6.310
10799SOL     OW33295   3.281   1.628   2.617
10799SOL    HW133296   3.258   1.533   2.637
10799SOL    HW233297   3.307   1.674   2.702
10800SOL     OW33298   1.414   0.177   0.431
10800SOL    HW133299   1.504   0.216   0.413
10800SOL    HW233300   1.406   0.087   0.388
10801SOL     OW33301   2.173   6.249   5.617
10801SOL    HW133302   2.118   6.201   5.686
10801SOL    HW233303   2.239   6.185   5.578
10802SOL     OW33304   1.626   3.961   3.943
10802SOL    HW133305   1.717   3.951   3.983
10802SOL    HW233306   1.610   4.056   3.917
10803SOL     OW33307   5.822   4.508   5.252
10803SOL    HW133308   5.848   4.462   5.167
10803SOL    HW233309   5.875   4.592   5.262
10804SOL     OW33310   6.166   4.063   1.733
10804SOL    HW133311   6.145   4.160   1.738
10804SOL    HW233312   6.220   4.036   1.812
10805SOL     OW33313   4.256   6.489   0.534
10805SOL    HW133314   4.352   6.503   0.559
10805SOL    HW233315   4.204   6.571   0.554
10806SOL     OW33316   5.871   3.580   0.536
10806SOL    HW133317   5.855   3.650   0.606
10806SOL    HW233318   5.796   3.514   0.538
10807SOL     OW33319   3.362   6.008   3.542
10807SOL    HW133320   3.314   6.072   3.483
10807SOL    HW233321   3.335   5.915   3.519
10808SOL     OW33322   0.768   2.952   6.579
10808SOL    HW133323   0.765   2.908   6.669
10808SOL    HW233324   0.811   2.890   6.514
10809SOL     OW33325   3.246   1.154   4.466
10809SOL    HW133326   3.323   1.096   4.491
10809SOL    HW233327   3.166   1.097   4.446
10810SOL     OW33328   6.980   1.492   5.118
10810SOL    HW133329   0.010   1.564   5.072
10810SOL    HW233330   7.020   1.403   5.096
10811SOL     OW33331   4.294   5.432   5.193
10811SOL    HW133332   4.325   5.337   5.203
10811SOL    HW233333   4.213   5.434   5.134
10812SOL     OW33334   6.525   2.826   2.801
10812SOL    HW133335   6.448   2.802   2.743
10812SOL    HW233336   6.524   2.924   2.820
10813SOL     OW33337   2.793   5.960   1.899
10813SOL    HW133338   2.756   5.879   1.944
10813SOL    HW233339   2.866   5.933   1.836
10814SOL     OW33340   2.255   0.213   4.910
10814SOL    HW133341   2.245   0.178   4.817
10814SOL    HW233342   2.331   0.278   4.913
10815SOL     OW33343   5.619   4.077   2.789
10815SOL    HW133344   5.658   4.041   2.873
10815SOL    HW233345   5.534   4.027   2.768
10816SOL     OW33346   2.002   0.803   2.222
10816SOL    HW133347   2.073   0.824   2.289
10816SOL    HW233348   2.027   0.719   2.173
10817SOL     OW33349   5.306   0.316   2.587
10817SOL    HW133350   5.337   0.220   2.590
10817SOL    HW233351   5.383   0.376   2.608
10818SOL     OW33352   5.772   3.102   0.128
10818SOL    HW133353   5.787   3.161   0.049
10818SOL    HW233354   5.680   3.117   0.164
10819SOL     OW33355   0.415   4.896   6.010
10819SOL    HW133356   0.342   4.952   6.050
10819SOL    HW233357   0.490   4.888   6.076
10820SOL     OW33358   0.336   6.594   3.875
10820SOL    HW133359   0.262   6.618   3.939
10820SOL    HW233360   0.311   6.511   3.826
10821SOL     OW33361   6.895   0.018   1.532
10821SOL    HW133362   6.944   6.954   1.550
10821SOL    HW233363   6.943   0.070   1.461
10822SOL     OW33364   0.615   3.340   2.535
10822SOL    HW133365   0.570   3.251   2.533
10822SOL    HW233366   0.603   3.382   2.625
10823SOL     OW33367   2.623   6.077   1.228
10823SOL    HW133368   2.631   5.985   1.267
10823SOL    HW233369   2.533   6.088   1.186
10824SOL     OW33370   5.043   0.791   2.379
10824SOL    HW133371   4.965   0.752   2.427
10824SOL    HW233372   5.070   0.730   2.304
10825SOL     OW33373   3.083   0.942   1.197
10825SOL    HW133374   3.150   0.910   1.265
10825SOL    HW233375   3.086   0.881   1.117
10826SOL     OW33376   6.920   4.062   1.959
10826SOL    HW133377   6.879   4.152   1.975
10826SOL    HW233378   6.974   4.065   1.875
10827SOL     OW33379   0.060   3.935   4.455
10827SOL    HW133380   0.001   3.949   4.376
10827SOL    HW233381   0.044   4.008   4.522
10828SOL     OW33382   1.250   5.869   0.660
10828SOL    HW133383   1.236   5.946   0.722
10828SOL    HW233384   1.217   5.785   0.703
10829SOL     OW33385   3.059   3.990   2.076
10829SOL    HW133386   2.972   4.036   2.093
10829SOL    HW233387   3.053   3.895   2.106
10830SOL     OW33388   5.654   3.377   4.771
10830SOL    HW133389   5.569   3.376   4.825
10830SOL    HW233390   5.725   3.424   4.823
10831SOL     OW33391   5.192   1.106   2.741
10831SOL    HW133392   5.106   1.146   2.711
10831SOL    HW233393   5.267   1.143   2.686
10832SOL     OW33394   0.796   1.754   0.172
10832SOL    HW133395   0.704   1.714   0.181
10832SOL    HW233396   0.808   1.825   0.242
10833SOL     OW33397   2.620   0.784   4.430
10833SOL    HW133398   2.542   0.832   4.469
10833SOL    HW233399   2.705   0.826   4.463
10834SOL     OW33400   0.636   1.254   5.358
10834SOL    HW133401   0.621   1.336   5.414
10834SOL    HW233402   0.650   1.175   5.418
10835SOL     OW33403   6.010   2.136   2.411
10835SOL    HW133404   6.073   2.172   2.343
10835SOL    HW233405   6.051   2.055   2.455
10836SOL     OW33406   0.427   1.695   5.539
10836SOL    HW133407   0.387   1.686   5.447
10836SOL    HW233408   0.354   1.703   5.606
10837SOL     OW33409   6.827   4.339   0.287
10837SOL    HW133410   6.878   4.318   0.370
10837SOL    HW233411   6.886   4.327   0.207
10838SOL     OW33412   5.747   7.005   6.756
10838SOL    HW133413   5.749   0.010   6.852
10838SOL    HW233414   5.722   6.909   6.748
10839SOL     OW33415   2.264   1.727   6.964
10839SOL    HW133416   2.174   1.731   7.007
10839SOL    HW233417   2.266   1.789   6.885
10840SOL     OW33418   3.763   5.885   1.463
10840SOL    HW133419   3.728   5.798   1.429
10840SOL    HW233420   3.854   5.901   1.423
10841SOL     OW33421   4.263   6.009   6.082
10841SOL    HW133422   4.330   6.081   6.097
10841SOL    HW233423   4.229   5.976   6.170
10842SOL     OW33424   6.419   2.520   0.789
10842SOL    HW133425   6.394   2.600   0.845
10842SOL    HW233426   6.502   2.540   0.738
10843SOL     OW33427   1.182   1.692   1.840
10843SOL    HW133428   1.147   1.616   1.785
10843SOL    HW233429   1.278   1.708   1.818
10844SOL     OW33430   6.111   6.845   3.776
10844SOL    HW133431   6.147   6.930   3.735
10844SOL    HW233432   6.186   6.795   3.820
10845SOL     OW33433   1.052   1.161   1.772
10845SOL    HW133434   1.078   1.256   1.756
10845SOL    HW233435   1.128   1.112   1.814
10846SOL     OW33436   3.911   2.325   0.962
10846SOL    HW133437   3.918   2.278   0.875
10846SOL    HW233438   3.832   2.292   1.013
10847SOL     OW33439   3.316   1.965   5.976
10847SOL    HW133440   3.336   2.007   6.064
10847SOL    HW233441   3.376   2.005   5.906
10848SOL     OW33442   2.223   0.815   0.128
10848SOL    HW133443   2.204   0.882   0.056
10848SOL    HW233444   2.170   0.839   0.210
10849SOL     OW33445   2.810   5.057   4.316
10849SOL    HW133446   2.846   5.045   4.408
10849SOL    HW233447   2.851   5.138   4.274
10850SOL     OW33448   5.482   6.785   6.907
10850SOL    HW133449   5.497   6.820   6.814
10850SOL    HW233450   5.440   6.695   6.902
10851SOL     OW33451   2.585   2.594   5.953
10851SOL    HW133452   2.574   2.567   6.049
10851SOL    HW233453   2.508   2.651   5.925
10852SOL     OW33454   0.009   1.021   6.419
10852SOL    HW133455   6.941   0.977   6.413
10852SOL    HW233456   7.021   1.109   6.465
10853SOL     OW33457   3.120   1.875   4.754
10853SOL    HW133458   3.189   1.807   4.731
10853SOL    HW233459   3.070   1.845   4.836
10854SOL     OW33460   6.038   6.816   6.917
10854SOL    HW133461   5.950   6.776   6.942
10854SOL    HW233462   6.112   6.757   6.948
10855SOL     OW33463   1.875   6.371   2.542
10855SOL    HW133464   1.916   6.305   2.604
10855SOL    HW233465   1.778   6.351   2.531
10856SOL     OW33466   6.317   6.127   6.758
10856SOL    HW133467   6.290   6.133   6.662
10856SOL    HW233468   6.345   6.218   6.790
10857SOL     OW33469   6.185   2.506   3.822
10857SOL    HW133470   6.099   2.460   3.799
10857SOL    HW233471   6.198   2.504   3.921
10858SOL     OW33472   1.355   3.566   0.056
10858SOL    HW133473   1.437   3.513   0.075
10858SOL    HW233474   1.318   3.538   6.988
10859SOL     OW33475   1.038   4.553   3.328
10859SOL    HW133476   0.940   4.552   3.307
10859SOL    HW233477   1.052   4.517   3.420
10860SOL     OW33478   6.269   1.360   0.230
10860SOL    HW133479   6.176   1.327   0.249
10860SOL    HW233480   6.334   1.315   0.292
10861SOL     OW33481   3.080   2.603   1.748
10861SOL    HW133482   3.107   2.680   1.805
10861SOL    HW233483   3.003   2.555   1.791
10862SOL     OW33484   3.161   2.265   6.016
10862SOL    HW133485   3.192   2.354   5.981
10862SOL    HW233486   3.138   2.206   5.939
10863SOL     OW33487   2.377   0.503   3.537
10863SOL    HW133488   2.426   0.575   3.488
10863SOL    HW233489   2.366   0.423   3.478
10864SOL     OW33490   2.723   4.607   1.428
10864SOL    HW133491   2.676   4.520   1.411
10864SOL    HW233492   2.668   4.662   1.491
10865SOL     OW33493   5.263   2.895   3.329
10865SOL    HW133494   5.253   2.813   3.272
10865SOL    HW233495   5.185   2.901   3.392
10866SOL     OW33496   6.597   2.890   1.431
10866SOL    HW133497   6.596   2.921   1.335
10866SOL    HW233498   6.636   2.962   1.488
10867SOL     OW33499   2.967   2.420   0.385
10867SOL    HW133500   2.972   2.447   0.481
10867SOL    HW233501   2.911   2.485   0.334
10868SOL     OW33502   0.708   2.153   3.445
10868SOL    HW133503   0.653   2.097   3.383
10868SOL    HW233504   0.791   2.103   3.471
10869NA      NA33505   0.214   2.029   5.764
10870NA      NA33506   4.514   4.420   5.186
10871NA      NA33507   1.592   5.325   2.510
10872NA      NA33508   5.260   4.318   3.683
10873NA      NA33509   4.389   2.563   5.213
10874NA      NA33510   2.467   5.129   1.106
10875NA      NA33511   1.155   5.575   0.321
10876NA      NA33512   3.443   3.956   1.373
10877NA      NA33513   4.505   4.592   0.701
10878NA      NA33514   3.395   1.069   6.412
10879NA      NA33515   5.329   6.042   2.283
10880NA      NA33516   1.477   6.994   5.134
10881NA      NA33517   4.534   5.066   2.138
10882NA      NA33518   2.872   3.301   6.988
   7.02144   7.02144   7.02144
