Generated by trjconv : CNT in water t= 216.00000
33518
    1C        C    1   2.843   2.770   4.752
    1C        C    2   2.901   2.724   4.872
    1C        C    3   2.845   2.779   4.988
    1C        C    4   2.848   2.776   4.265
    1C        C    5   2.898   2.723   4.387
    1C        C    6   2.846   2.771   4.509
    1C        C    7   3.013   2.640   4.627
    1C        C    8   2.900   2.724   4.631
    1C        C    9   3.077   2.606   4.748
    1C        C   10   3.013   2.639   4.869
    1C        C   11   3.184   2.498   4.981
    1C        C   12   3.063   2.568   4.980
    1C        C   13   2.845   2.764   3.775
    1C        C   14   2.898   2.717   3.898
    1C        C   15   2.848   2.768   4.020
    1C        C   16   3.015   2.644   4.143
    1C        C   17   2.897   2.721   4.144
    1C        C   18   3.082   2.612   4.263
    1C        C   19   3.015   2.644   4.383
    1C        C   20   3.209   2.558   4.505
    1C        C   21   3.076   2.605   4.505
    1C        C   22   3.281   2.539   4.625
    1C        C   23   3.209   2.553   4.746
    1C        C   24   3.413   2.495   4.868
    1C        C   25   3.270   2.510   4.867
    1C        C   26   3.492   2.496   4.984
    1C        C   27   2.852   2.766   3.285
    1C        C   28   2.905   2.721   3.408
    1C        C   29   2.852   2.768   3.530
    1C        C   30   3.018   2.640   3.652
    1C        C   31   2.903   2.722   3.654
    1C        C   32   3.080   2.608   3.776
    1C        C   33   3.018   2.643   3.898
    1C        C   34   3.210   2.558   4.019
    1C        C   35   3.079   2.609   4.021
    1C        C   36   3.283   2.547   4.140
    1C        C   37   3.215   2.564   4.262
    1C        C   38   3.419   2.514   4.381
    1C        C   39   3.281   2.541   4.385
    1C        C   40   3.489   2.509   4.505
    1C        C   41   3.419   2.511   4.627
    1C        C   42   3.631   2.492   4.747
    1C        C   43   3.489   2.493   4.749
    1C        C   44   3.707   2.491   4.866
    1C        C   45   3.631   2.483   4.984
    1C        C   46   2.837   2.753   2.795
    1C        C   47   2.895   2.713   2.918
    1C        C   48   2.844   2.763   3.040
    1C        C   49   3.015   2.636   3.162
    1C        C   50   2.901   2.719   3.161
    1C        C   51   3.078   2.601   3.284
    1C        C   52   3.022   2.642   3.408
    1C        C   53   3.210   2.549   3.530
    1C        C   54   3.079   2.602   3.531
    1C        C   55   3.280   2.532   3.652
    1C        C   56   3.209   2.552   3.773
    1C        C   57   3.414   2.510   3.894
    1C        C   58   3.275   2.533   3.896
    1C        C   59   3.487   2.505   4.015
    1C        C   60   3.421   2.517   4.139
    1C        C   61   3.634   2.511   4.262
    1C        C   62   3.492   2.507   4.261
    1C        C   63   3.703   2.515   4.385
    1C        C   64   3.630   2.510   4.505
    1C        C   65   3.839   2.548   4.624
    1C        C   66   3.702   2.514   4.627
    1C        C   67   3.909   2.564   4.745
    1C        C   68   3.843   2.529   4.865
    1C        C   69   4.054   2.593   4.984
    1C        C   70   3.924   2.540   4.978
    1C        C   71   2.828   2.739   2.311
    1C        C   72   2.889   2.697   2.431
    1C        C   73   2.837   2.751   2.551
    1C        C   74   3.009   2.627   2.675
    1C        C   75   2.892   2.707   2.673
    1C        C   76   3.073   2.596   2.797
    1C        C   77   3.012   2.635   2.919
    1C        C   78   3.206   2.545   3.039
    1C        C   79   3.076   2.600   3.040
    1C        C   80   3.274   2.526   3.161
    1C        C   81   3.208   2.546   3.284
    1C        C   82   3.415   2.504   3.402
    1C        C   83   3.276   2.529   3.407
    1C        C   84   3.485   2.501   3.525
    1C        C   85   3.419   2.510   3.650
    1C        C   86   3.629   2.511   3.771
    1C        C   87   3.488   2.505   3.773
    1C        C   88   3.698   2.524   3.894
    1C        C   89   3.628   2.517   4.017
    1C        C   90   3.837   2.555   4.138
    1C        C   91   3.701   2.518   4.138
    1C        C   92   3.906   2.575   4.260
    1C        C   93   3.840   2.551   4.382
    1C        C   94   4.036   2.637   4.504
    1C        C   95   3.908   2.577   4.503
    1C        C   96   4.095   2.674   4.627
    1C        C   97   4.037   2.627   4.746
    1C        C   98   4.195   2.770   4.864
    1C        C   99   4.103   2.660   4.868
    1C        C  100   4.221   2.843   4.981
    1C        C  101   2.829   2.733   2.070
    1C        C  102   2.992   2.594   2.195
    1C        C  103   2.881   2.684   2.190
    1C        C  104   3.065   2.572   2.315
    1C        C  105   3.006   2.618   2.434
    1C        C  106   3.203   2.536   2.553
    1C        C  107   3.070   2.585   2.555
    1C        C  108   3.273   2.521   2.674
    1C        C  109   3.204   2.542   2.796
    1C        C  110   3.414   2.502   2.914
    1C        C  111   3.274   2.523   2.917
    1C        C  112   3.484   2.497   3.036
    1C        C  113   3.414   2.505   3.159
    1C        C  114   3.627   2.504   3.281
    1C        C  115   3.486   2.500   3.280
    1C        C  116   3.695   2.514   3.404
    1C        C  117   3.626   2.505   3.527
    1C        C  118   3.835   2.552   3.648
    1C        C  119   3.698   2.517   3.648
    1C        C  120   3.900   2.579   3.771
    1C        C  121   3.835   2.557   3.895
    1C        C  122   4.030   2.643   4.016
    1C        C  123   3.904   2.580   4.016
    1C        C  124   4.091   2.680   4.138
    1C        C  125   4.031   2.641   4.260
    1C        C  126   4.204   2.764   4.383
    1C        C  127   4.094   2.676   4.381
    1C        C  128   4.250   2.823   4.503
    1C        C  129   4.200   2.768   4.623
    1C        C  130   4.338   2.933   4.745
    1C        C  131   4.252   2.820   4.744
    1C        C  132   4.366   3.004   4.863
    1C        C  133   4.294   2.962   4.975
    1C        C  134   3.176   2.477   2.082
    1C        C  135   3.041   2.516   2.085
    1C        C  136   3.263   2.483   2.191
    1C        C  137   3.198   2.520   2.311
    1C        C  138   3.408   2.484   2.430
    1C        C  139   3.269   2.506   2.432
    1C        C  140   3.483   2.484   2.550
    1C        C  141   3.413   2.498   2.672
    1C        C  142   3.627   2.500   2.792
    1C        C  143   3.486   2.495   2.793
    1C        C  144   3.695   2.505   2.916
    1C        C  145   3.626   2.499   3.039
    1C        C  146   3.836   2.541   3.158
    1C        C  147   3.699   2.508   3.159
    1C        C  148   3.900   2.571   3.281
    1C        C  149   3.831   2.551   3.403
    1C        C  150   4.027   2.634   3.524
    1C        C  151   3.900   2.573   3.524
    1C        C  152   4.086   2.675   3.647
    1C        C  153   4.025   2.645   3.770
    1C        C  154   4.200   2.766   3.893
    1C        C  155   4.087   2.681   3.892
    1C        C  156   4.254   2.811   4.015
    1C        C  157   4.207   2.762   4.139
    1C        C  158   4.347   2.920   4.255
    1C        C  159   4.260   2.810   4.261
    1C        C  160   4.380   2.986   4.376
    1C        C  161   4.337   2.934   4.500
    1C        C  162   4.443   3.117   4.617
    1C        C  163   4.378   2.991   4.623
    1C        C  164   4.466   3.186   4.738
    1C        C  165   4.436   3.127   4.863
    1C        C  166   4.513   3.326   4.978
    1C        C  167   4.483   3.190   4.979
    1C        C  168   3.480   2.440   2.075
    1C        C  169   3.402   2.458   2.190
    1C        C  170   3.620   2.467   2.309
    1C        C  171   3.478   2.462   2.309
    1C        C  172   3.696   2.488   2.427
    1C        C  173   3.624   2.488   2.548
    1C        C  174   3.832   2.545   2.667
    1C        C  175   3.695   2.509   2.668
    1C        C  176   3.897   2.567   2.791
    1C        C  177   3.831   2.542   2.913
    1C        C  178   4.023   2.633   3.033
    1C        C  179   3.900   2.563   3.034
    1C        C  180   4.085   2.670   3.155
    1C        C  181   4.028   2.632   3.279
    1C        C  182   4.201   2.752   3.403
    1C        C  183   4.087   2.668   3.401
    1C        C  184   4.251   2.805   3.524
    1C        C  185   4.198   2.760   3.647
    1C        C  186   4.342   2.917   3.769
    1C        C  187   4.253   2.807   3.769
    1C        C  188   4.386   2.975   3.890
    1C        C  189   4.349   2.917   4.013
    1C        C  190   4.451   3.106   4.131
    1C        C  191   4.384   2.982   4.133
    1C        C  192   4.476   3.174   4.253
    1C        C  193   4.446   3.111   4.376
    1C        C  194   4.507   3.319   4.494
    1C        C  195   4.469   3.183   4.495
    1C        C  196   4.519   3.391   4.615
    1C        C  197   4.507   3.323   4.738
    1C        C  198   4.554   3.537   4.854
    1C        C  199   4.532   3.395   4.857
    1C        C  200   4.583   3.621   4.966
    1C        C  201   3.619   2.424   2.074
    1C        C  202   3.829   2.516   2.182
    1C        C  203   3.695   2.466   2.188
    1C        C  204   3.901   2.543   2.302
    1C        C  205   3.833   2.523   2.424
    1C        C  206   4.024   2.624   2.545
    1C        C  207   3.899   2.559   2.544
    1C        C  208   4.085   2.664   2.667
    1C        C  209   4.023   2.632   2.790
    1C        C  210   4.201   2.749   2.912
    1C        C  211   4.085   2.668   2.911
    1C        C  212   4.251   2.800   3.034
    1C        C  213   4.198   2.754   3.157
    1C        C  214   4.338   2.910   3.276
    1C        C  215   4.251   2.800   3.280
    1C        C  216   4.378   2.969   3.398
    1C        C  217   4.338   2.916   3.523
    1C        C  218   4.438   3.102   3.642
    1C        C  219   4.379   2.974   3.645
    1C        C  220   4.466   3.169   3.764
    1C        C  221   4.441   3.106   3.888
    1C        C  222   4.507   3.308   4.007
    1C        C  223   4.477   3.170   4.008
    1C        C  224   4.518   3.381   4.127
    1C        C  225   4.509   3.311   4.250
    1C        C  226   4.521   3.525   4.370
    1C        C  227   4.525   3.384   4.370
    1C        C  228   4.521   3.600   4.489
    1C        C  229   4.526   3.532   4.613
    1C        C  230   4.507   3.746   4.729
    1C        C  231   4.539   3.608   4.731
    1C        C  232   4.499   3.821   4.848
    1C        C  233   4.551   3.757   4.961
    1C        C  234   4.021   2.614   2.061
    1C        C  235   3.898   2.550   2.065
    1C        C  236   4.086   2.651   2.180
    1C        C  237   4.026   2.611   2.301
    1C        C  238   4.201   2.737   2.424
    1C        C  239   4.083   2.657   2.421
    1C        C  240   4.259   2.783   2.544
    1C        C  241   4.200   2.745   2.666
    1C        C  242   4.341   2.903   2.787
    1C        C  243   4.254   2.791   2.788
    1C        C  244   4.384   2.962   2.907
    1C        C  245   4.342   2.908   3.031
    1C        C  246   4.436   3.098   3.153
    1C        C  247   4.375   2.971   3.154
    1C        C  248   4.461   3.165   3.275
    1C        C  249   4.436   3.099   3.398
    1C        C  250   4.501   3.303   3.517
    1C        C  251   4.459   3.167   3.519
    1C        C  252   4.513   3.372   3.639
    1C        C  253   4.503   3.305   3.764
    1C        C  254   4.516   3.519   3.881
    1C        C  255   4.517   3.378   3.884
    1C        C  256   4.509   3.591   4.003
    1C        C  257   4.520   3.522   4.126
    1C        C  258   4.492   3.734   4.244
    1C        C  259   4.517   3.595   4.247
    1C        C  260   4.478   3.805   4.365
    1C        C  261   4.493   3.739   4.489
    1C        C  262   4.428   3.945   4.607
    1C        C  263   4.478   3.813   4.608
    1C        C  264   4.404   4.014   4.728
    1C        C  265   4.434   3.947   4.848
    1C        C  266   4.324   4.136   4.966
    1C        C  267   4.394   4.016   4.963
    1C        C  268   4.265   2.779   2.066
    1C        C  269   4.199   2.735   2.181
    1C        C  270   4.345   2.894   2.302
    1C        C  271   4.253   2.785   2.302
    1C        C  272   4.390   2.953   2.422
    1C        C  273   4.349   2.892   2.543
    1C        C  274   4.448   3.083   2.663
    1C        C  275   4.380   2.959   2.663
    1C        C  276   4.473   3.153   2.783
    1C        C  277   4.445   3.089   2.906
    1C        C  278   4.506   3.292   3.028
    1C        C  279   4.467   3.157   3.028
    1C        C  280   4.513   3.366   3.148
    1C        C  281   4.503   3.299   3.273
    1C        C  282   4.516   3.512   3.393
    1C        C  283   4.515   3.371   3.394
    1C        C  284   4.518   3.583   3.516
    1C        C  285   4.522   3.513   3.639
    1C        C  286   4.499   3.728   3.757
    1C        C  287   4.517   3.588   3.758
    1C        C  288   4.479   3.798   3.878
    1C        C  289   4.488   3.731   4.002
    1C        C  290   4.430   3.938   4.121
    1C        C  291   4.472   3.803   4.122
    1C        C  292   4.404   4.005   4.243
    1C        C  293   4.431   3.939   4.365
    1C        C  294   4.328   4.130   4.482
    1C        C  295   4.401   4.009   4.483
    1C        C  296   4.289   4.190   4.604
    1C        C  297   4.332   4.136   4.727
    1C        C  298   4.206   4.316   4.841
    1C        C  299   4.291   4.201   4.847
    1C        C  300   4.172   4.400   4.952
    1C        C  301   4.354   2.886   2.064
    1C        C  302   4.475   3.067   2.180
    1C        C  303   4.401   2.945   2.182
    1C        C  304   4.487   3.143   2.299
    1C        C  305   4.456   3.078   2.421
    1C        C  306   4.513   3.285   2.538
    1C        C  307   4.480   3.148   2.541
    1C        C  308   4.522   3.357   2.660
    1C        C  309   4.507   3.290   2.783
    1C        C  310   4.523   3.501   2.902
    1C        C  311   4.520   3.360   2.905
    1C        C  312   4.518   3.574   3.023
    1C        C  313   4.520   3.507   3.148
    1C        C  314   4.489   3.719   3.266
    1C        C  315   4.511   3.579   3.269
    1C        C  316   4.474   3.788   3.389
    1C        C  317   4.494   3.722   3.512
    1C        C  318   4.422   3.923   3.629
    1C        C  319   4.477   3.793   3.633
    1C        C  320   4.393   3.986   3.753
    1C        C  321   4.431   3.931   3.877
    1C        C  322   4.328   4.119   3.993
    1C        C  323   4.405   4.001   3.997
    1C        C  324   4.282   4.176   4.114
    1C        C  325   4.328   4.124   4.238
    1C        C  326   4.187   4.285   4.358
    1C        C  327   4.285   4.184   4.358
    1C        C  328   4.139   4.340   4.479
    1C        C  329   4.192   4.293   4.601
    1C        C  330   4.028   4.437   4.716
    1C        C  331   4.141   4.350   4.719
    1C        C  332   3.973   4.491   4.834
    1C        C  333   4.054   4.475   4.948
    1C        C  334   4.559   3.268   2.068
    1C        C  335   4.532   3.130   2.065
    1C        C  336   4.544   3.353   2.178
    1C        C  337   4.517   3.282   2.297
    1C        C  338   4.525   3.498   2.414
    1C        C  339   4.524   3.357   2.417
    1C        C  340   4.519   3.569   2.536
    1C        C  341   4.523   3.498   2.658
    1C        C  342   4.493   3.710   2.777
    1C        C  343   4.516   3.570   2.779
    1C        C  344   4.475   3.781   2.898
    1C        C  345   4.490   3.713   3.021
    1C        C  346   4.429   3.918   3.139
    1C        C  347   4.472   3.783   3.142
    1C        C  348   4.397   3.983   3.261
    1C        C  349   4.430   3.922   3.384
    1C        C  350   4.321   4.106   3.506
    1C        C  351   4.397   3.987   3.506
    1C        C  352   4.280   4.164   3.628
    1C        C  353   4.319   4.107   3.751
    1C        C  354   4.185   4.274   3.869
    1C        C  355   4.284   4.173   3.871
    1C        C  356   4.128   4.319   3.990
    1C        C  357   4.178   4.271   4.113
    1C        C  358   4.014   4.404   4.235
    1C        C  359   4.131   4.325   4.235
    1C        C  360   3.952   4.446   4.355
    1C        C  361   4.019   4.415   4.475
    1C        C  362   3.829   4.513   4.596
    1C        C  363   3.961   4.463   4.595
    1C        C  364   3.763   4.548   4.715
    1C        C  365   3.840   4.539   4.833
    1C        C  366   3.632   4.596   4.953
    1C        C  367   3.770   4.580   4.948
    1C        C  368   4.510   3.568   2.056
    1C        C  369   4.525   3.493   2.173
    1C        C  370   4.498   3.709   2.290
    1C        C  371   4.519   3.570   2.292
    1C        C  372   4.487   3.778   2.413
    1C        C  373   4.504   3.709   2.535
    1C        C  374   4.426   3.909   2.651
    1C        C  375   4.483   3.780   2.655
    1C        C  376   4.394   3.974   2.773
    1C        C  377   4.431   3.915   2.896
    1C        C  378   4.325   4.101   3.013
    1C        C  379   4.403   3.983   3.017
    1C        C  380   4.281   4.154   3.136
    1C        C  381   4.319   4.100   3.261
    1C        C  382   4.179   4.261   3.382
    1C        C  383   4.276   4.158   3.382
    1C        C  384   4.127   4.313   3.503
    1C        C  385   4.183   4.267   3.624
    1C        C  386   4.012   4.392   3.745
    1C        C  387   4.132   4.318   3.745
    1C        C  388   3.945   4.424   3.865
    1C        C  389   4.009   4.395   3.988
    1C        C  390   3.821   4.488   4.111
    1C        C  391   3.952   4.433   4.111
    1C        C  392   3.753   4.515   4.232
    1C        C  393   3.823   4.503   4.354
    1C        C  394   3.619   4.559   4.476
    1C        C  395   3.758   4.535   4.475
    1C        C  396   3.547   4.564   4.598
    1C        C  397   3.623   4.566   4.717
    1C        C  398   3.414   4.555   4.839
    1C        C  399   3.553   4.580   4.839
    1C        C  400   3.348   4.520   4.958
    1C        C  401   4.500   3.706   2.051
    1C        C  402   4.453   3.918   2.170
    1C        C  403   4.489   3.782   2.169
    1C        C  404   4.412   3.980   2.290
    1C        C  405   4.438   3.910   2.411
    1C        C  406   4.326   4.096   2.529
    1C        C  407   4.401   3.977   2.530
    1C        C  408   4.282   4.154   2.651
    1C        C  409   4.321   4.095   2.773
    1C        C  410   4.176   4.256   2.890
    1C        C  411   4.273   4.153   2.892
    1C        C  412   4.121   4.293   3.015
    1C        C  413   4.178   4.252   3.138
    1C        C  414   4.009   4.384   3.254
    1C        C  415   4.126   4.305   3.258
    1C        C  416   3.949   4.419   3.377
    1C        C  417   4.009   4.390   3.501
    1C        C  418   3.815   4.473   3.620
    1C        C  419   3.947   4.424   3.623
    1C        C  420   3.747   4.497   3.742
    1C        C  421   3.815   4.479   3.865
    1C        C  422   3.614   4.532   3.990
    1C        C  423   3.753   4.507   3.989
    1C        C  424   3.543   4.541   4.112
    1C        C  425   3.615   4.543   4.234
    1C        C  426   3.404   4.550   4.357
    1C        C  427   3.545   4.558   4.356
    1C        C  428   3.332   4.545   4.479
    1C        C  429   3.406   4.559   4.599
    1C        C  430   3.197   4.521   4.725
    1C        C  431   3.336   4.549   4.721
    1C        C  432   3.129   4.495   4.848
    1C        C  433   3.212   4.491   4.961
    1C        C  434   4.387   4.124   2.051
    1C        C  435   4.446   3.997   2.054
    1C        C  436   4.308   4.165   2.163
    1C        C  437   4.338   4.101   2.286
    1C        C  438   4.186   4.254   2.406
    1C        C  439   4.286   4.154   2.406
    1C        C  440   4.131   4.303   2.527
    1C        C  441   4.185   4.256   2.649
    1C        C  442   4.012   4.387   2.768
    1C        C  443   4.129   4.309   2.768
    1C        C  444   3.947   4.417   2.890
    1C        C  445   4.006   4.375   3.011
    1C        C  446   3.816   4.471   3.135
    1C        C  447   3.945   4.414   3.132
    1C        C  448   3.746   4.492   3.256
    1C        C  449   3.817   4.470   3.377
    1C        C  450   3.612   4.529   3.499
    1C        C  451   3.750   4.499   3.498
    1C        C  452   3.544   4.539   3.623
    1C        C  453   3.611   4.535   3.747
    1C        C  454   3.400   4.542   3.865
    1C        C  455   3.541   4.539   3.869
    1C        C  456   3.335   4.525   3.990
    1C        C  457   3.402   4.536   4.114
    1C        C  458   3.194   4.502   4.238
    1C        C  459   3.332   4.533   4.237
    1C        C  460   3.128   4.487   4.361
    1C        C  461   3.194   4.516   4.483
    1C        C  462   2.998   4.440   4.607
    1C        C  463   3.125   4.500   4.605
    1C        C  464   2.930   4.407   4.726
    1C        C  465   2.995   4.446   4.846
    1C        C  466   2.805   4.336   4.964
    1C        C  467   2.912   4.427   4.961
    1C        C  468   4.124   4.290   2.050
    1C        C  469   4.196   4.255   2.165
    1C        C  470   4.015   4.378   2.285
    1C        C  471   4.136   4.304   2.284
    1C        C  472   3.947   4.413   2.404
    1C        C  473   4.014   4.382   2.525
    1C        C  474   3.817   4.467   2.646
    1C        C  475   3.949   4.418   2.645
    1C        C  476   3.748   4.489   2.768
    1C        C  477   3.817   4.474   2.890
    1C        C  478   3.610   4.519   3.014
    1C        C  479   3.749   4.494   3.013
    1C        C  480   3.537   4.532   3.134
    1C        C  481   3.607   4.518   3.256
    1C        C  482   3.397   4.531   3.378
    1C        C  483   3.538   4.529   3.378
    1C        C  484   3.328   4.527   3.502
    1C        C  485   3.402   4.536   3.622
    1C        C  486   3.192   4.500   3.748
    1C        C  487   3.330   4.531   3.743
    1C        C  488   3.127   4.478   3.871
    1C        C  489   3.197   4.496   3.993
    1C        C  490   3.002   4.418   4.119
    1C        C  491   3.127   4.482   4.115
    1C        C  492   2.941   4.385   4.243
    1C        C  493   3.000   4.428   4.364
    1C        C  494   2.828   4.307   4.488
    1C        C  495   2.940   4.394   4.487
    1C        C  496   2.767   4.261   4.607
    1C        C  497   2.819   4.317   4.726
    1C        C  498   2.669   4.167   4.849
    1C        C  499   2.759   4.275   4.846
    1C        C  500   2.597   4.121   4.961
    1C        C  501   4.008   4.367   2.046
    1C        C  502   3.819   4.466   2.158
    1C        C  503   3.948   4.410   2.165
    1C        C  504   3.747   4.484   2.278
    1C        C  505   3.814   4.461   2.400
    1C        C  506   3.609   4.504   2.524
    1C        C  507   3.748   4.481   2.524
    1C        C  508   3.539   4.517   2.646
    1C        C  509   3.609   4.515   2.768
    1C        C  510   3.399   4.525   2.889
    1C        C  511   3.540   4.520   2.891
    1C        C  512   3.326   4.520   3.010
    1C        C  513   3.395   4.530   3.133
    1C        C  514   3.189   4.493   3.257
    1C        C  515   3.326   4.527   3.256
    1C        C  516   3.122   4.472   3.380
    1C        C  517   3.190   4.500   3.501
    1C        C  518   2.998   4.419   3.629
    1C        C  519   3.124   4.482   3.625
    1C        C  520   2.938   4.384   3.752
    1C        C  521   3.000   4.415   3.874
    1C        C  522   2.832   4.289   4.000
    1C        C  523   2.943   4.377   3.998
    1C        C  524   2.780   4.243   4.124
    1C        C  525   2.829   4.299   4.244
    1C        C  526   2.699   4.136   4.367
    1C        C  527   2.782   4.249   4.367
    1C        C  528   2.657   4.078   4.488
    1C        C  529   2.685   4.147   4.608
    1C        C  530   2.587   3.961   4.734
    1C        C  531   2.643   4.092   4.732
    1C        C  532   2.542   3.904   4.856
    1C        C  533   2.529   3.999   4.962
    1C        C  534   3.618   4.553   2.041
    1C        C  535   3.753   4.516   2.045
    1C        C  536   3.538   4.536   2.159
    1C        C  537   3.608   4.514   2.280
    1C        C  538   3.396   4.514   2.404
    1C        C  539   3.537   4.517   2.403
    1C        C  540   3.323   4.512   2.524
    1C        C  541   3.398   4.518   2.644
    1C        C  542   3.189   4.491   2.767
    1C        C  543   3.327   4.519   2.767
    1C        C  544   3.122   4.470   2.890
    1C        C  545   3.188   4.491   3.013
    1C        C  546   2.993   4.409   3.137
    1C        C  547   3.121   4.469   3.136
    1C        C  548   2.938   4.371   3.262
    1C        C  549   2.997   4.407   3.385
    1C        C  550   2.829   4.285   3.509
    1C        C  551   2.936   4.377   3.509
    1C        C  552   2.781   4.238   3.634
    1C        C  553   2.830   4.292   3.755
    1C        C  554   2.695   4.130   3.878
    1C        C  555   2.780   4.243   3.877
    1C        C  556   2.659   4.071   4.000
    1C        C  557   2.698   4.128   4.123
    1C        C  558   2.597   3.945   4.248
    1C        C  559   2.658   4.073   4.247
    1C        C  560   2.575   3.880   4.372
    1C        C  561   2.601   3.948   4.493
    1C        C  562   2.535   3.749   4.620
    1C        C  563   2.570   3.886   4.616
    1C        C  564   2.522   3.684   4.745
    1C        C  565   2.520   3.763   4.864
    1C        C  566   2.533   3.549   4.984
    1C        C  567   2.520   3.687   4.982
    1C        C  568   3.329   4.474   2.044
    1C        C  569   3.397   4.515   2.160
    1C        C  570   3.186   4.477   2.283
    1C        C  571   3.325   4.510   2.282
    1C        C  572   3.115   4.461   2.403
    1C        C  573   3.184   4.488   2.523
    1C        C  574   2.990   4.408   2.651
    1C        C  575   3.117   4.470   2.647
    1C        C  576   2.934   4.367   2.774
    1C        C  577   2.997   4.405   2.894
    1C        C  578   2.823   4.281   3.019
    1C        C  579   2.934   4.369   3.016
    1C        C  580   2.777   4.230   3.142
    1C        C  581   2.830   4.280   3.263
    1C        C  582   2.698   4.118   3.386
    1C        C  583   2.783   4.231   3.387
    1C        C  584   2.661   4.065   3.512
    1C        C  585   2.696   4.125   3.634
    1C        C  586   2.596   3.940   3.756
    1C        C  587   2.657   4.068   3.757
    1C        C  588   2.576   3.877   3.881
    1C        C  589   2.607   3.939   4.004
    1C        C  590   2.552   3.737   4.130
    1C        C  591   2.578   3.876   4.127
    1C        C  592   2.535   3.672   4.254
    1C        C  593   2.537   3.744   4.375
    1C        C  594   2.521   3.536   4.499
    1C        C  595   2.523   3.677   4.499
    1C        C  596   2.524   3.468   4.623
    1C        C  597   2.525   3.542   4.744
    1C        C  598   2.543   3.332   4.865
    1C        C  599   2.534   3.473   4.866
    1C        C  600   2.539   3.252   4.980
    1C        C  601   3.197   4.433   2.048
    1C        C  602   2.985   4.393   2.160
    1C        C  603   3.118   4.444   2.163
    1C        C  604   2.925   4.363   2.286
    1C        C  605   2.987   4.401   2.407
    1C        C  606   2.818   4.278   2.530
    1C        C  607   2.928   4.367   2.531
    1C        C  608   2.771   4.226   2.653
    1C        C  609   2.823   4.280   2.773
    1C        C  610   2.695   4.114   2.896
    1C        C  611   2.774   4.231   2.896
    1C        C  612   2.659   4.056   3.020
    1C        C  613   2.697   4.113   3.143
    1C        C  614   2.591   3.931   3.268
    1C        C  615   2.659   4.055   3.266
    1C        C  616   2.570   3.868   3.394
    1C        C  617   2.601   3.937   3.513
    1C        C  618   2.546   3.732   3.643
    1C        C  619   2.581   3.869   3.635
    1C        C  620   2.532   3.665   3.767
    1C        C  621   2.543   3.739   3.886
    1C        C  622   2.524   3.527   4.010
    1C        C  623   2.538   3.667   4.008
    1C        C  624   2.527   3.458   4.134
    1C        C  625   2.523   3.531   4.255
    1C        C  626   2.544   3.324   4.382
    1C        C  627   2.520   3.463   4.379
    1C        C  628   2.560   3.256   4.505
    1C        C  629   2.539   3.328   4.625
    1C        C  630   2.597   3.122   4.745
    1C        C  631   2.555   3.257   4.746
    1C        C  632   2.617   3.050   4.866
    1C        C  633   2.563   3.114   4.983
    1C        C  634   2.779   4.311   2.056
    1C        C  635   2.896   4.389   2.048
    1C        C  636   2.746   4.236   2.169
    1C        C  637   2.813   4.276   2.286
    1C        C  638   2.682   4.112   2.412
    1C        C  639   2.767   4.225   2.409
    1C        C  640   2.637   4.054   2.533
    1C        C  641   2.685   4.114   2.652
    1C        C  642   2.594   3.925   2.779
    1C        C  643   2.655   4.053   2.775
    1C        C  644   2.574   3.860   2.903
    1C        C  645   2.596   3.930   3.024
    1C        C  646   2.538   3.726   3.150
    1C        C  647   2.570   3.864   3.146
    1C        C  648   2.525   3.659   3.274
    1C        C  649   2.535   3.731   3.395
    1C        C  650   2.524   3.524   3.519
    1C        C  651   2.529   3.665   3.519
    1C        C  652   2.525   3.455   3.642
    1C        C  653   2.520   3.525   3.765
    1C        C  654   2.546   3.317   3.891
    1C        C  655   2.520   3.455   3.889
    1C        C  656   2.560   3.249   4.014
    1C        C  657   2.546   3.318   4.137
    1C        C  658   2.606   3.120   4.261
    1C        C  659   2.558   3.253   4.261
    1C        C  660   2.644   3.059   4.383
    1C        C  661   2.605   3.122   4.503
    1C        C  662   2.706   2.935   4.627
    1C        C  663   2.635   3.057   4.625
    1C        C  664   2.747   2.875   4.748
    1C        C  665   2.692   2.928   4.868
    1C        C  666   2.742   2.873   4.987
    1C        C  667   2.686   4.028   2.056
    1C        C  668   2.682   4.109   2.170
    1C        C  669   2.592   3.916   2.292
    1C        C  670   2.647   4.047   2.291
    1C        C  671   2.561   3.852   2.414
    1C        C  672   2.583   3.924   2.534
    1C        C  673   2.528   3.723   2.663
    1C        C  674   2.565   3.860   2.658
    1C        C  675   2.520   3.652   2.785
    1C        C  676   2.541   3.723   2.905
    1C        C  677   2.520   3.514   3.031
    1C        C  678   2.528   3.655   3.029
    1C        C  679   2.521   3.445   3.155
    1C        C  680   2.515   3.518   3.276
    1C        C  681   2.543   3.309   3.401
    1C        C  682   2.525   3.449   3.399
    1C        C  683   2.561   3.245   3.526
    1C        C  684   2.543   3.315   3.647
    1C        C  685   2.610   3.114   3.773
    1C        C  686   2.561   3.246   3.769
    1C        C  687   2.638   3.051   3.896
    1C        C  688   2.607   3.116   4.018
    1C        C  689   2.712   2.933   4.138
    1C        C  690   2.637   3.053   4.140
    1C        C  691   2.755   2.882   4.263
    1C        C  692   2.716   2.938   4.387
    1C        C  693   2.749   2.873   4.508
    1C        C  694   2.627   3.902   2.056
    1C        C  695   2.531   3.708   2.178
    1C        C  696   2.577   3.842   2.173
    1C        C  697   2.509   3.642   2.300
    1C        C  698   2.523   3.716   2.420
    1C        C  699   2.497   3.508   2.546
    1C        C  700   2.510   3.649   2.544
    1C        C  701   2.507   3.438   2.668
    1C        C  702   2.512   3.511   2.788
    1C        C  703   2.529   3.301   2.914
    1C        C  704   2.512   3.441   2.910
    1C        C  705   2.550   3.234   3.037
    1C        C  706   2.545   3.306   3.159
    1C        C  707   2.601   3.101   3.280
    1C        C  708   2.559   3.236   3.281
    1C        C  709   2.630   3.042   3.405
    1C        C  710   2.608   3.112   3.526
    1C        C  711   2.716   2.932   3.650
    1C        C  712   2.642   3.052   3.650
    1C        C  713   2.758   2.875   3.773
    1C        C  714   2.718   2.934   3.895
    1C        C  715   2.756   2.875   4.017
    1C        C  716   2.452   3.504   2.068
    1C        C  717   2.493   3.638   2.063
    1C        C  718   2.463   3.425   2.187
    1C        C  719   2.483   3.502   2.305
    1C        C  720   2.515   3.293   2.428
    1C        C  721   2.487   3.432   2.428
    1C        C  722   2.534   3.223   2.550
    1C        C  723   2.527   3.298   2.669
    1C        C  724   2.593   3.097   2.789
    1C        C  725   2.547   3.231   2.793
    1C        C  726   2.623   3.036   2.913
    1C        C  727   2.599   3.102   3.035
    1C        C  728   2.714   2.923   3.161
    1C        C  729   2.634   3.040   3.157
    1C        C  730   2.756   2.870   3.285
    1C        C  731   2.715   2.929   3.406
    1C        C  732   2.757   2.873   3.529
    1C        C  733   2.489   3.200   2.077
    1C        C  734   2.493   3.286   2.188
    1C        C  735   2.582   3.087   2.306
    1C        C  736   2.527   3.219   2.309
    1C        C  737   2.608   3.021   2.428
    1C        C  738   2.579   3.089   2.549
    1C        C  739   2.700   2.911   2.669
    1C        C  740   2.620   3.028   2.669
    1C        C  741   2.746   2.860   2.792
    1C        C  742   2.701   2.918   2.913
    1C        C  743   2.746   2.865   3.036
    1C        C  744   2.554   3.077   2.071
    1C        C  745   2.690   2.902   2.185
    1C        C  746   2.610   3.019   2.186
    1C        C  747   2.732   2.843   2.306
    1C        C  748   2.690   2.906   2.425
    1C        C  749   2.740   2.853   2.546
    1C        C  750   2.749   2.847   2.071
    1C        C  751   3.671   2.320   1.982
    1C        O  752   3.699   2.205   2.026
    1C        O  753   3.619   2.313   1.852
    1C        C  754   4.603   3.046   1.966
    1C        O  755   4.559   3.030   1.849
    1C        O  756   4.740   3.029   1.990
    1C        C  757   4.441   4.220   1.952
    1C        O  758   4.507   4.320   1.990
    1C        O  759   4.501   4.186   1.830
    1C        C  760   3.587   4.641   1.926
    1C        O  761   3.621   4.762   1.927
    1C        O  762   3.572   4.591   1.796
    1C        C  763   2.872   4.514   1.973
    1C        O  764   2.922   4.517   1.857
    1C        O  765   2.760   4.596   1.988
    1C        C  766   2.364   3.465   1.956
    1C        O  767   2.408   3.436   1.842
    1C        O  768   2.226   3.442   1.965
    1C        C  769   4.712   3.605   5.037
    1C        O  770   4.717   3.523   5.133
    1C        O  771   4.831   3.622   4.966
    1C        C  772   4.266   4.455   5.053
    1C        O  773   4.278   4.399   5.165
    1C        O  774   4.372   4.540   5.019
    1C        C  775   4.132   2.551   5.102
    1C        O  776   4.240   2.487   5.086
    1C        O  777   4.079   2.505   5.223
    1C        C  778   2.904   4.529   5.069
    1C        O  779   2.817   4.619   5.066
    1C        O  780   2.936   4.494   5.201
    1C        C  781   2.447   3.058   5.056
    1C        O  782   2.362   2.989   4.993
    1C        O  783   2.430   3.037   5.192
    1C        C  784   2.419   3.990   5.061
    1C        O  785   2.296   3.988   5.037
    1C        O  786   2.433   3.944   5.192
    1C        C  787   2.948   2.420   2.021
    1C        O  788   2.912   2.444   1.903
    1C        O  789   2.908   2.298   2.074
    1C        C  790   3.165   2.364   5.042
    1C        O  791   3.149   2.251   4.989
    1C        O  792   3.171   2.337   5.180
    1C        H  793   4.327   2.997   5.071
    1C        H  794   4.192   2.805   5.076
    1C        H  795   4.519   3.126   5.057
    1C        H  796   4.522   3.377   5.071
    1C        H  797   4.603   3.820   5.030
    1C        H  798   4.421   3.974   5.058
    1C        H  799   4.290   4.178   5.058
    1C        H  800   4.001   4.487   5.040
    1C        H  801   3.832   4.639   5.012
    1C        H  802   3.595   4.651   5.037
    1C        H  803   3.393   4.534   5.054
    1C        H  804   3.172   4.466   5.057
    1C        H  805   3.888   2.495   5.068
    1C        H  806   3.684   2.464   5.075
    1C        H  807   3.003   2.566   5.069
    1C        H  808   3.441   2.497   5.077
    1C        H  809   2.894   2.768   5.082
    1C        H  810   2.670   2.872   5.066
    1C        H  811   2.546   3.296   5.077
    1C        H  812   2.489   3.502   5.069
    1C        H  813   2.506   3.740   5.074
    1C        H  814   2.584   4.189   5.043
    1C        H  815   2.780   4.295   5.059
    1C        H  816   2.721   2.887   1.975
    1C        H  817   2.801   2.657   1.999
    1C        H  818   3.215   2.459   1.984
    1C        H  819   3.436   2.446   1.978
    1C        H  820   3.851   2.533   1.971
    1C        H  821   4.053   2.649   1.964
    1C        H  822   4.262   2.720   1.976
    1C        H  823   4.357   2.939   1.971
    1C        H  824   4.630   3.305   1.998
    1C        H  825   4.536   3.526   1.960
    1C        H  826   4.497   3.756   1.956
    1C        H  827   3.806   4.513   1.952
    1C        H  828   3.952   4.364   1.954
    1C        H  829   4.154   4.241   1.960
    1C        H  830   4.514   3.976   1.974
    1C        H  831   2.689   3.835   2.001
    1C        H  832   2.699   4.075   1.960
    1C        H  833   2.721   4.289   1.969
    1C        H  834   3.365   4.485   1.944
    1C        H  835   3.148   4.412   1.955
    1C        H  836   2.522   3.021   1.986
    1C        H  837   2.409   3.224   2.011
    1C        H  838   2.470   3.691   1.973
    2V3OU   H29  839   2.798   3.552   1.997
    2V3OU   C27  840   2.788   3.509   2.100
    2V3OU   H27  841   2.731   3.573   2.173
    2V3OU   H28  842   2.740   3.410   2.081
    2V3OU   O11  843   2.918   3.484   2.155
    2V3OU   C15  844   2.930   3.402   2.265
    2V3OU   C13  845   3.054   3.378   2.327
    2V3OU   C14  846   3.085   3.272   2.413
    2V3OU   C16  847   2.980   3.187   2.448
    2V3OU    H6  848   2.994   3.103   2.516
    2V3OU   C12  849   3.217   3.229   2.465
    2V3OU    O2  850   3.237   3.133   2.542
    2V3OU   C10  851   3.329   3.312   2.417
    2V3OU    C8  852   3.457   3.268   2.449
    2V3OU   O10  853   3.489   3.154   2.516
    2V3OU   H26  854   3.407   3.112   2.545
    2V3OU    C6  855   3.566   3.350   2.406
    2V3OU    C5  856   3.543   3.466   2.332
    2V3OU    C4  857   3.705   3.299   2.420
    2V3OU    H4  858   3.721   3.237   2.514
    2V3OU    H5  859   3.715   3.232   2.330
    2V3OU    C2  860   3.818   3.403   2.420
    2V3OU    O6  861   3.813   3.479   2.541
    2V3OU   H21  862   3.761   3.555   2.509
    2V3OU    C3  863   3.787   3.497   2.304
    2V3OU    H2  864   3.871   3.572   2.313
    2V3OU    H3  865   3.787   3.444   2.206
    2V3OU   C25  866   3.951   3.328   2.404
    2V3OU    O7  867   3.997   3.293   2.296
    2V3OU   C26  868   4.028   3.288   2.529
    2V3OU   H22  869   4.061   3.387   2.570
    2V3OU   H23  870   4.119   3.228   2.500
    2V3OU    O8  871   3.961   3.208   2.624
    2V3OU   H24  872   3.923   3.273   2.685
    2V3OU    C1  873   3.653   3.567   2.322
    2V3OU    H1  874   3.629   3.625   2.228
    2V3OU    O3  875   3.663   3.650   2.437
    2V3OU   C19  876   3.625   3.788   2.433
    2V3OU    H9  877   3.524   3.806   2.386
    2V3OU    O4  878   3.718   3.851   2.348
    2V3OU   C20  879   3.846   3.882   2.405
    2V3OU   H10  880   3.900   3.784   2.415
    2V3OU   C24  881   3.614   3.851   2.572
    2V3OU   H16  882   3.544   3.790   2.635
    2V3OU   H17  883   3.577   3.954   2.547
    2V3OU   C23  884   3.750   3.881   2.635
    2V3OU   H15  885   3.796   3.779   2.657
    2V3OU    N1  886   3.742   3.964   2.754
    2V3OU   H19  887   3.810   3.933   2.820
    2V3OU   H20  888   3.655   3.932   2.791
    2V3OU   C21  889   3.854   3.950   2.542
    2V3OU   H11  890   3.955   3.927   2.586
    2V3OU    O5  891   3.831   4.090   2.553
    2V3OU   H18  892   3.779   4.097   2.635
    2V3OU   C22  893   3.912   3.959   2.292
    2V3OU   H12  894   3.864   4.059   2.278
    2V3OU   H13  895   3.903   3.895   2.200
    2V3OU   H14  896   4.024   3.956   2.302
    2V3OU   C11  897   3.164   3.474   2.312
    2V3OU    O1  898   3.132   3.590   2.278
    2V3OU    C9  899   3.302   3.430   2.343
    2V3OU    C7  900   3.409   3.506   2.299
    2V3OU    O9  901   3.389   3.620   2.224
    2V3OU   H25  902   3.295   3.633   2.203
    2V3OU   C17  903   2.828   3.312   2.304
    2V3OU    H7  904   2.727   3.346   2.281
    2V3OU   C18  905   2.853   3.209   2.394
    2V3OU    H8  906   2.778   3.163   2.459
    3SOL     OW  907   3.102   5.009   0.768
    3SOL    HW1  908   3.028   5.068   0.802
    3SOL    HW2  909   3.085   4.986   0.672
    4SOL     OW  910   6.513   6.261   1.542
    4SOL    HW1  911   6.496   6.358   1.561
    4SOL    HW2  912   6.438   6.224   1.486
    5SOL     OW  913   4.711   1.572   2.936
    5SOL    HW1  914   4.716   1.491   2.995
    5SOL    HW2  915   4.795   1.578   2.881
    6SOL     OW  916   4.432   0.920   0.866
    6SOL    HW1  917   4.369   0.879   0.932
    6SOL    HW2  918   4.463   0.850   0.801
    7SOL     OW  919   6.855   3.734   2.270
    7SOL    HW1  920   6.953   3.719   2.254
    7SOL    HW2  921   6.827   3.684   2.352
    8SOL     OW  922   2.946   0.524   6.757
    8SOL    HW1  923   2.977   0.619   6.756
    8SOL    HW2  924   2.859   0.518   6.807
    9SOL     OW  925   6.412   6.872   6.274
    9SOL    HW1  926   6.399   6.849   6.178
    9SOL    HW2  927   6.377   6.798   6.331
   10SOL     OW  928   1.656   5.280   6.528
   10SOL    HW1  929   1.657   5.331   6.442
   10SOL    HW2  930   1.577   5.219   6.529
   11SOL     OW  931   2.547   0.337   6.183
   11SOL    HW1  932   2.535   0.252   6.132
   11SOL    HW2  933   2.576   0.409   6.120
   12SOL     OW  934   4.044   6.627   3.589
   12SOL    HW1  935   4.107   6.556   3.620
   12SOL    HW2  936   4.037   6.624   3.489
   13SOL     OW  937   3.971   5.650   3.857
   13SOL    HW1  938   3.886   5.702   3.845
   13SOL    HW2  939   3.975   5.613   3.949
   14SOL     OW  940   4.029   5.590   5.887
   14SOL    HW1  941   3.962   5.657   5.855
   14SOL    HW2  942   4.031   5.512   5.825
   15SOL     OW  943   1.598   6.436   1.497
   15SOL    HW1  944   1.629   6.487   1.417
   15SOL    HW2  945   1.604   6.493   1.579
   16SOL     OW  946   5.329   2.983   5.662
   16SOL    HW1  947   5.308   2.886   5.655
   16SOL    HW2  948   5.276   3.023   5.736
   17SOL     OW  949   5.218   5.877   5.840
   17SOL    HW1  950   5.203   5.822   5.757
   17SOL    HW2  951   5.291   5.943   5.822
   18SOL     OW  952   3.389   0.585   5.906
   18SOL    HW1  953   3.366   0.495   5.871
   18SOL    HW2  954   3.453   0.576   5.982
   19SOL     OW  955   0.696   0.199   3.267
   19SOL    HW1  956   0.613   0.143   3.267
   19SOL    HW2  957   0.771   0.146   3.227
   20SOL     OW  958   5.380   2.441   4.742
   20SOL    HW1  959   5.423   2.377   4.806
   20SOL    HW2  960   5.409   2.534   4.763
   21SOL     OW  961   3.683   2.105   2.758
   21SOL    HW1  962   3.679   2.077   2.662
   21SOL    HW2  963   3.705   2.025   2.814
   22SOL     OW  964   2.244   6.143   0.526
   22SOL    HW1  965   2.275   6.207   0.455
   22SOL    HW2  966   2.323   6.101   0.570
   23SOL     OW  967   5.293   6.135   2.998
   23SOL    HW1  968   5.291   6.088   2.910
   23SOL    HW2  969   5.384   6.126   3.038
   24SOL     OW  970   4.758   1.354   3.095
   24SOL    HW1  971   4.854   1.330   3.110
   24SOL    HW2  972   4.703   1.321   3.172
   25SOL     OW  973   2.965   0.053   5.229
   25SOL    HW1  974   3.034   0.118   5.263
   25SOL    HW2  975   2.971   0.047   5.130
   26SOL     OW  976   6.717   0.793   0.125
   26SOL    HW1  977   6.692   0.723   0.058
   26SOL    HW2  978   6.637   0.849   0.145
   27SOL     OW  979   1.177   1.947   2.264
   27SOL    HW1  980   1.179   1.874   2.196
   27SOL    HW2  981   1.125   1.918   2.344
   28SOL     OW  982   3.097   2.045   5.975
   28SOL    HW1  983   3.113   2.097   5.891
   28SOL    HW2  984   3.027   1.976   5.958
   29SOL     OW  985   4.639   2.225   2.068
   29SOL    HW1  986   4.551   2.265   2.094
   29SOL    HW2  987   4.631   2.125   2.066
   30SOL     OW  988   3.393   1.228   4.658
   30SOL    HW1  989   3.452   1.254   4.582
   30SOL    HW2  990   3.449   1.212   4.740
   31SOL     OW  991   1.168   2.682   6.474
   31SOL    HW1  992   1.226   2.685   6.392
   31SOL    HW2  993   1.207   2.742   6.544
   32SOL     OW  994   0.349   1.500   2.822
   32SOL    HW1  995   0.260   1.496   2.867
   32SOL    HW2  996   0.354   1.429   2.752
   33SOL     OW  997   2.205   4.074   6.636
   33SOL    HW1  998   2.293   4.058   6.591
   33SOL    HW2  999   2.217   4.142   6.708
   34SOL     OW 1000   2.508   1.046   4.784
   34SOL    HW1 1001   2.494   1.061   4.686
   34SOL    HW2 1002   2.485   1.130   4.834
   35SOL     OW 1003   3.183   3.644   6.830
   35SOL    HW1 1004   3.235   3.617   6.911
   35SOL    HW2 1005   3.244   3.689   6.765
   36SOL     OW 1006   6.311   1.002   4.919
   36SOL    HW1 1007   6.218   1.039   4.921
   36SOL    HW2 1008   6.354   1.015   5.008
   37SOL     OW 1009   1.278   1.255   0.557
   37SOL    HW1 1010   1.324   1.175   0.595
   37SOL    HW2 1011   1.197   1.276   0.612
   38SOL     OW 1012   6.990   4.589   2.760
   38SOL    HW1 1013   6.957   4.596   2.666
   38SOL    HW2 1014   0.021   4.667   2.780
   39SOL     OW 1015   0.093   5.027   6.659
   39SOL    HW1 1016   0.014   5.081   6.689
   39SOL    HW2 1017   0.079   4.931   6.682
   40SOL     OW 1018   5.302   1.796   0.819
   40SOL    HW1 1019   5.328   1.745   0.738
   40SOL    HW2 1020   5.224   1.752   0.863
   41SOL     OW 1021   6.676   6.207   3.681
   41SOL    HW1 1022   6.648   6.178   3.773
   41SOL    HW2 1023   6.699   6.127   3.626
   42SOL     OW 1024   2.854   5.302   5.260
   42SOL    HW1 1025   2.827   5.398   5.264
   42SOL    HW2 1026   2.813   5.260   5.179
   43SOL     OW 1027   5.849   6.115   5.229
   43SOL    HW1 1028   5.769   6.083   5.177
   43SOL    HW2 1029   5.925   6.052   5.215
   44SOL     OW 1030   5.038   1.526   6.513
   44SOL    HW1 1031   5.124   1.526   6.463
   44SOL    HW2 1032   4.985   1.445   6.489
   45SOL     OW 1033   4.487   6.431   3.057
   45SOL    HW1 1034   4.399   6.415   3.102
   45SOL    HW2 1035   4.489   6.524   3.020
   46SOL     OW 1036   0.726   2.913   3.036
   46SOL    HW1 1037   0.803   2.854   3.063
   46SOL    HW2 1038   0.718   2.913   2.937
   47SOL     OW 1039   4.977   4.310   0.530
   47SOL    HW1 1040   4.935   4.344   0.614
   47SOL    HW2 1041   5.035   4.232   0.551
   48SOL     OW 1042   0.079   2.678   5.429
   48SOL    HW1 1043   0.150   2.619   5.391
   48SOL    HW2 1044   0.098   2.697   5.525
   49SOL     OW 1045   5.423   4.028   1.649
   49SOL    HW1 1046   5.446   3.948   1.705
   49SOL    HW2 1047   5.478   4.106   1.679
   50SOL     OW 1048   5.798   1.197   4.811
   50SOL    HW1 1049   5.746   1.205   4.896
   50SOL    HW2 1050   5.771   1.114   4.762
   51SOL     OW 1051   3.129   6.653   3.499
   51SOL    HW1 1052   3.110   6.687   3.591
   51SOL    HW2 1053   3.141   6.730   3.436
   52SOL     OW 1054   5.530   2.142   3.147
   52SOL    HW1 1055   5.597   2.210   3.178
   52SOL    HW2 1056   5.489   2.174   3.061
   53SOL     OW 1057   3.560   6.719   4.614
   53SOL    HW1 1058   3.650   6.758   4.596
   53SOL    HW2 1059   3.541   6.646   4.549
   54SOL     OW 1060   3.532   5.256   1.092
   54SOL    HW1 1061   3.584   5.312   1.156
   54SOL    HW2 1062   3.579   5.169   1.078
   55SOL     OW 1063   2.776   2.106   6.837
   55SOL    HW1 1064   2.773   2.028   6.774
   55SOL    HW2 1065   2.841   2.174   6.802
   56SOL     OW 1066   7.018   7.003   1.189
   56SOL    HW1 1067   6.973   0.063   1.199
   56SOL    HW2 1068   0.076   7.003   1.239
   57SOL     OW 1069   5.358   1.184   0.929
   57SOL    HW1 1070   5.330   1.110   0.869
   57SOL    HW2 1071   5.378   1.266   0.875
   58SOL     OW 1072   6.382   6.536   5.424
   58SOL    HW1 1073   6.283   6.533   5.405
   58SOL    HW2 1074   6.403   6.470   5.497
   59SOL     OW 1075   1.055   1.913   5.327
   59SOL    HW1 1076   1.059   1.873   5.236
   59SOL    HW2 1077   1.139   1.964   5.346
   60SOL     OW 1078   5.294   2.203   5.944
   60SOL    HW1 1079   5.355   2.206   6.024
   60SOL    HW2 1080   5.331   2.140   5.876
   61SOL     OW 1081   5.315   2.332   5.102
   61SOL    HW1 1082   5.259   2.411   5.130
   61SOL    HW2 1083   5.366   2.297   5.181
   62SOL     OW 1084   0.533   1.201   1.898
   62SOL    HW1 1085   0.455   1.260   1.878
   62SOL    HW2 1086   0.504   1.105   1.895
   63SOL     OW 1087   4.903   1.439   3.473
   63SOL    HW1 1088   4.895   1.347   3.434
   63SOL    HW2 1089   4.995   1.451   3.511
   64SOL     OW 1090   6.928   3.620   5.530
   64SOL    HW1 1091   6.986   3.606   5.449
   64SOL    HW2 1092   6.972   3.686   5.591
   65SOL     OW 1093   0.459   4.996   6.484
   65SOL    HW1 1094   0.546   4.960   6.519
   65SOL    HW2 1095   0.413   5.048   6.555
   66SOL     OW 1096   3.997   0.806   5.601
   66SOL    HW1 1097   4.023   0.787   5.696
   66SOL    HW2 1098   3.973   0.902   5.590
   67SOL     OW 1099   5.323   4.327   5.752
   67SOL    HW1 1100   5.275   4.403   5.796
   67SOL    HW2 1101   5.422   4.343   5.754
   68SOL     OW 1102   5.848   1.247   6.431
   68SOL    HW1 1103   5.772   1.181   6.435
   68SOL    HW2 1104   5.922   1.216   6.491
   69SOL     OW 1105   0.586   3.460   5.627
   69SOL    HW1 1106   0.659   3.527   5.610
   69SOL    HW2 1107   0.534   3.446   5.542
   70SOL     OW 1108   5.591   3.986   4.849
   70SOL    HW1 1109   5.682   3.995   4.809
   70SOL    HW2 1110   5.551   3.898   4.821
   71SOL     OW 1111   4.105   1.810   2.864
   71SOL    HW1 1112   4.043   1.876   2.821
   71SOL    HW2 1113   4.147   1.852   2.944
   72SOL     OW 1114   2.122   6.160   4.385
   72SOL    HW1 1115   2.063   6.079   4.384
   72SOL    HW2 1116   2.142   6.188   4.291
   73SOL     OW 1117   3.324   0.821   1.337
   73SOL    HW1 1118   3.416   0.820   1.297
   73SOL    HW2 1119   3.261   0.869   1.276
   74SOL     OW 1120   4.907   6.773   6.937
   74SOL    HW1 1121   4.814   6.743   6.961
   74SOL    HW2 1122   4.921   6.760   6.839
   75SOL     OW 1123   4.095   0.377   0.963
   75SOL    HW1 1124   4.030   0.383   1.039
   75SOL    HW2 1125   4.067   0.305   0.900
   76SOL     OW 1126   3.331   3.427   0.553
   76SOL    HW1 1127   3.321   3.360   0.626
   76SOL    HW2 1128   3.257   3.417   0.487
   77SOL     OW 1129   6.908   6.871   3.674
   77SOL    HW1 1130   6.950   6.814   3.604
   77SOL    HW2 1131   6.974   6.889   3.747
   78SOL     OW 1132   5.641   1.711   0.096
   78SOL    HW1 1133   5.631   1.690   7.027
   78SOL    HW2 1134   5.680   1.802   0.107
   79SOL     OW 1135   3.272   6.189   0.666
   79SOL    HW1 1136   3.302   6.095   0.682
   79SOL    HW2 1137   3.304   6.247   0.740
   80SOL     OW 1138   5.703   1.387   4.638
   80SOL    HW1 1139   5.753   1.315   4.687
   80SOL    HW2 1140   5.701   1.365   4.541
   81SOL     OW 1141   1.730   6.923   2.485
   81SOL    HW1 1142   1.638   6.908   2.521
   81SOL    HW2 1143   1.787   6.842   2.501
   82SOL     OW 1144   6.294   4.626   1.053
   82SOL    HW1 1145   6.219   4.560   1.064
   82SOL    HW2 1146   6.359   4.616   1.128
   83SOL     OW 1147   0.735   0.851   0.383
   83SOL    HW1 1148   0.664   0.791   0.345
   83SOL    HW2 1149   0.823   0.831   0.341
   84SOL     OW 1150   5.702   2.350   3.248
   84SOL    HW1 1151   5.729   2.425   3.189
   84SOL    HW2 1152   5.724   2.372   3.343
   85SOL     OW 1153   1.572   1.409   4.060
   85SOL    HW1 1154   1.526   1.320   4.065
   85SOL    HW2 1155   1.591   1.431   3.964
   86SOL     OW 1156   6.818   0.812   4.756
   86SOL    HW1 1157   6.742   0.748   4.747
   86SOL    HW2 1158   6.795   0.882   4.824
   87SOL     OW 1159   4.917   3.592   0.775
   87SOL    HW1 1160   4.883   3.664   0.836
   87SOL    HW2 1161   4.921   3.506   0.825
   88SOL     OW 1162   3.376   1.983   5.358
   88SOL    HW1 1163   3.385   2.029   5.269
   88SOL    HW2 1164   3.466   1.955   5.390
   89SOL     OW 1165   1.130   2.676   6.067
   89SOL    HW1 1166   1.110   2.579   6.075
   89SOL    HW2 1167   1.219   2.688   6.023
   90SOL     OW 1168   3.772   5.337   2.346
   90SOL    HW1 1169   3.722   5.369   2.266
   90SOL    HW2 1170   3.769   5.237   2.350
   91SOL     OW 1171   5.157   4.412   5.057
   91SOL    HW1 1172   5.237   4.355   5.077
   91SOL    HW2 1173   5.077   4.375   5.104
   92SOL     OW 1174   4.093   4.682   0.482
   92SOL    HW1 1175   4.008   4.732   0.463
   92SOL    HW2 1176   4.090   4.645   0.575
   93SOL     OW 1177   3.126   4.205   6.857
   93SOL    HW1 1178   3.082   4.123   6.892
   93SOL    HW2 1179   3.057   4.268   6.820
   94SOL     OW 1180   1.825   5.949   6.743
   94SOL    HW1 1181   1.894   5.879   6.764
   94SOL    HW2 1182   1.797   5.993   6.828
   95SOL     OW 1183   1.505   0.631   3.495
   95SOL    HW1 1184   1.419   0.677   3.520
   95SOL    HW2 1185   1.581   0.676   3.542
   96SOL     OW 1186   3.131   0.305   5.256
   96SOL    HW1 1187   3.123   0.361   5.338
   96SOL    HW2 1188   3.062   0.334   5.189
   97SOL     OW 1189   2.335   3.180   5.849
   97SOL    HW1 1190   2.289   3.132   5.924
   97SOL    HW2 1191   2.284   3.167   5.764
   98SOL     OW 1192   0.323   3.812   1.057
   98SOL    HW1 1193   0.233   3.797   1.097
   98SOL    HW2 1194   0.339   3.746   0.984
   99SOL     OW 1195   3.682   3.143   0.742
   99SOL    HW1 1196   3.668   3.155   0.644
   99SOL    HW2 1197   3.716   3.228   0.782
  100SOL     OW 1198   6.727   6.953   4.969
  100SOL    HW1 1199   6.688   0.012   4.941
  100SOL    HW2 1200   6.707   6.884   4.900
  101SOL     OW 1201   1.582   5.099   2.080
  101SOL    HW1 1202   1.513   5.039   2.039
  101SOL    HW2 1203   1.610   5.168   2.013
  102SOL     OW 1204   4.152   5.638   2.474
  102SOL    HW1 1205   4.145   5.644   2.573
  102SOL    HW2 1206   4.110   5.553   2.443
  103SOL     OW 1207   2.139   1.330   1.916
  103SOL    HW1 1208   2.171   1.324   2.010
  103SOL    HW2 1209   2.167   1.248   1.865
  104SOL     OW 1210   0.961   5.913   2.499
  104SOL    HW1 1211   0.866   5.916   2.466
  104SOL    HW2 1212   1.019   5.967   2.438
  105SOL     OW 1213   6.768   2.121   6.148
  105SOL    HW1 1214   6.764   2.210   6.194
  105SOL    HW2 1215   6.859   2.107   6.110
  106SOL     OW 1216   3.522   6.381   4.722
  106SOL    HW1 1217   3.560   6.468   4.754
  106SOL    HW2 1218   3.425   6.375   4.746
  107SOL     OW 1219   2.036   1.626   1.369
  107SOL    HW1 1220   2.040   1.575   1.283
  107SOL    HW2 1221   1.963   1.589   1.426
  108SOL     OW 1222   2.915   5.886   5.598
  108SOL    HW1 1223   2.989   5.954   5.603
  108SOL    HW2 1224   2.861   5.890   5.682
  109SOL     OW 1225   6.790   0.065   1.544
  109SOL    HW1 1226   6.712   0.040   1.488
  109SOL    HW2 1227   6.873   0.065   1.488
  110SOL     OW 1228   3.603   6.133   4.763
  110SOL    HW1 1229   3.578   6.230   4.760
  110SOL    HW2 1230   3.540   6.081   4.704
  111SOL     OW 1231   2.127   0.988   4.557
  111SOL    HW1 1232   2.101   0.991   4.653
  111SOL    HW2 1233   2.226   0.990   4.548
  112SOL     OW 1234   3.724   6.872   6.910
  112SOL    HW1 1235   3.627   6.856   6.888
  112SOL    HW2 1236   3.740   6.849   7.006
  113SOL     OW 1237   7.020   6.122   3.162
  113SOL    HW1 1238   0.057   6.183   3.206
  113SOL    HW2 1239   0.006   6.121   3.063
  114SOL     OW 1240   0.599   0.054   1.785
  114SOL    HW1 1241   0.506   0.056   1.823
  114SOL    HW2 1242   0.628   6.989   1.772
  115SOL     OW 1243   4.305   1.675   3.285
  115SOL    HW1 1244   4.313   1.613   3.207
  115SOL    HW2 1245   4.372   1.749   3.275
  116SOL     OW 1246   5.743   5.452   1.475
  116SOL    HW1 1247   5.701   5.439   1.565
  116SOL    HW2 1248   5.841   5.434   1.481
  117SOL     OW 1249   1.851   1.958   0.312
  117SOL    HW1 1250   1.847   1.873   0.365
  117SOL    HW2 1251   1.759   1.982   0.281
  118SOL     OW 1252   1.467   0.916   2.839
  118SOL    HW1 1253   1.499   0.870   2.921
  118SOL    HW2 1254   1.403   0.857   2.790
  119SOL     OW 1255   0.481   0.456   6.699
  119SOL    HW1 1256   0.385   0.435   6.716
  119SOL    HW2 1257   0.498   0.553   6.716
  120SOL     OW 1258   5.877   6.764   7.026
  120SOL    HW1 1259   5.925   6.691   0.046
  120SOL    HW2 1260   5.926   6.785   6.942
  121SOL     OW 1261   1.319   3.872   6.039
  121SOL    HW1 1262   1.276   3.961   6.055
  121SOL    HW2 1263   1.284   3.834   5.954
  122SOL     OW 1264   1.729   3.273   5.727
  122SOL    HW1 1265   1.723   3.335   5.649
  122SOL    HW2 1266   1.775   3.188   5.700
  123SOL     OW 1267   0.532   1.412   3.008
  123SOL    HW1 1268   0.474   1.360   3.072
  123SOL    HW2 1269   0.475   1.458   2.941
  124SOL     OW 1270   4.260   2.777   0.558
  124SOL    HW1 1271   4.292   2.683   0.543
  124SOL    HW2 1272   4.161   2.779   0.557
  125SOL     OW 1273   3.104   1.912   0.966
  125SOL    HW1 1274   3.010   1.907   0.932
  125SOL    HW2 1275   3.111   1.986   1.033
  126SOL     OW 1276   1.925   4.404   0.989
  126SOL    HW1 1277   1.869   4.487   0.982
  126SOL    HW2 1278   2.022   4.428   0.981
  127SOL     OW 1279   0.808   5.433   0.211
  127SOL    HW1 1280   0.889   5.382   0.238
  127SOL    HW2 1281   0.730   5.372   0.204
  128SOL     OW 1282   5.314   2.632   1.334
  128SOL    HW1 1283   5.286   2.641   1.429
  128SOL    HW2 1284   5.258   2.562   1.289
  129SOL     OW 1285   1.892   3.187   6.465
  129SOL    HW1 1286   1.921   3.278   6.434
  129SOL    HW2 1287   1.880   3.127   6.386
  130SOL     OW 1288   1.130   1.991   4.499
  130SOL    HW1 1289   1.226   2.017   4.491
  130SOL    HW2 1290   1.079   2.064   4.544
  131SOL     OW 1291   5.181   1.418   3.509
  131SOL    HW1 1292   5.224   1.330   3.486
  131SOL    HW2 1293   5.229   1.492   3.462
  132SOL     OW 1294   2.682   3.070   1.154
  132SOL    HW1 1295   2.618   3.097   1.225
  132SOL    HW2 1296   2.770   3.046   1.195
  133SOL     OW 1297   5.110   0.322   4.196
  133SOL    HW1 1298   5.026   0.267   4.202
  133SOL    HW2 1299   5.185   0.264   4.163
  134SOL     OW 1300   6.576   0.574   2.697
  134SOL    HW1 1301   6.607   0.662   2.661
  134SOL    HW2 1302   6.604   0.567   2.793
  135SOL     OW 1303   5.487   3.876   3.395
  135SOL    HW1 1304   5.395   3.896   3.429
  135SOL    HW2 1305   5.549   3.948   3.424
  136SOL     OW 1306   2.778   4.259   5.847
  136SOL    HW1 1307   2.755   4.335   5.787
  136SOL    HW2 1308   2.801   4.179   5.792
  137SOL     OW 1309   5.731   2.119   3.682
  137SOL    HW1 1310   5.811   2.154   3.632
  137SOL    HW2 1311   5.739   2.020   3.693
  138SOL     OW 1312   1.067   4.398   2.487
  138SOL    HW1 1313   0.977   4.440   2.475
  138SOL    HW2 1314   1.072   4.356   2.577
  139SOL     OW 1315   1.418   0.044   5.184
  139SOL    HW1 1316   1.514   0.060   5.205
  139SOL    HW2 1317   1.407   0.030   5.086
  140SOL     OW 1318   1.188   6.200   2.975
  140SOL    HW1 1319   1.157   6.295   2.972
  140SOL    HW2 1320   1.257   6.185   2.904
  141SOL     OW 1321   7.016   2.305   5.323
  141SOL    HW1 1322   7.001   2.238   5.251
  141SOL    HW2 1323   6.995   2.264   5.412
  142SOL     OW 1324   0.992   3.453   1.650
  142SOL    HW1 1325   1.075   3.400   1.633
  142SOL    HW2 1326   0.963   3.498   1.566
  143SOL     OW 1327   6.058   4.628   0.766
  143SOL    HW1 1328   5.997   4.563   0.810
  143SOL    HW2 1329   6.150   4.588   0.760
  144SOL     OW 1330   1.466   5.314   5.844
  144SOL    HW1 1331   1.367   5.314   5.828
  144SOL    HW2 1332   1.491   5.398   5.892
  145SOL     OW 1333   0.006   5.560   0.527
  145SOL    HW1 1334   6.996   5.648   0.556
  145SOL    HW2 1335   6.965   5.489   0.535
  146SOL     OW 1336   4.912   0.544   6.046
  146SOL    HW1 1337   4.947   0.546   5.953
  146SOL    HW2 1338   4.930   0.454   6.087
  147SOL     OW 1339   5.774   3.743   6.791
  147SOL    HW1 1340   5.704   3.802   6.831
  147SOL    HW2 1341   5.820   3.691   6.864
  148SOL     OW 1342   6.373   5.734   6.987
  148SOL    HW1 1343   6.470   5.713   6.971
  148SOL    HW2 1344   6.356   5.830   6.965
  149SOL     OW 1345   3.363   2.137   4.338
  149SOL    HW1 1346   3.352   2.150   4.240
  149SOL    HW2 1347   3.373   2.040   4.358
  150SOL     OW 1348   5.898   6.617   0.676
  150SOL    HW1 1349   5.819   6.671   0.703
  150SOL    HW2 1350   5.938   6.572   0.756
  151SOL     OW 1351   2.718   2.755   1.151
  151SOL    HW1 1352   2.659   2.795   1.221
  151SOL    HW2 1353   2.711   2.809   1.067
  152SOL     OW 1354   0.525   0.749   1.751
  152SOL    HW1 1355   0.464   0.683   1.796
  152SOL    HW2 1356   0.619   0.733   1.781
  153SOL     OW 1357   2.879   0.736   2.046
  153SOL    HW1 1358   2.874   0.699   2.138
  153SOL    HW2 1359   2.863   0.835   2.047
  154SOL     OW 1360   0.200   2.567   1.711
  154SOL    HW1 1361   0.243   2.535   1.626
  154SOL    HW2 1362   0.265   2.621   1.763
  155SOL     OW 1363   0.508   1.510   3.592
  155SOL    HW1 1364   0.465   1.584   3.643
  155SOL    HW2 1365   0.591   1.543   3.546
  156SOL     OW 1366   0.006   2.007   0.628
  156SOL    HW1 1367   0.035   1.912   0.621
  156SOL    HW2 1368   6.937   2.011   0.648
  157SOL     OW 1369   5.235   3.520   1.825
  157SOL    HW1 1370   5.160   3.519   1.891
  157SOL    HW2 1371   5.270   3.427   1.813
  158SOL     OW 1372   2.147   4.755   2.464
  158SOL    HW1 1373   2.197   4.758   2.377
  158SOL    HW2 1374   2.208   4.780   2.539
  159SOL     OW 1375   5.018   4.303   2.563
  159SOL    HW1 1376   5.052   4.217   2.525
  159SOL    HW2 1377   4.919   4.307   2.552
  160SOL     OW 1378   5.392   5.496   1.036
  160SOL    HW1 1379   5.475   5.553   1.030
  160SOL    HW2 1380   5.311   5.554   1.028
  161SOL     OW 1381   2.182   5.964   4.149
  161SOL    HW1 1382   2.186   5.872   4.112
  161SOL    HW2 1383   2.194   6.031   4.075
  162SOL     OW 1384   3.901   6.179   0.265
  162SOL    HW1 1385   3.992   6.185   0.307
  162SOL    HW2 1386   3.901   6.107   0.197
  163SOL     OW 1387   6.121   5.548   0.680
  163SOL    HW1 1388   6.055   5.473   0.680
  163SOL    HW2 1389   6.147   5.569   0.586
  164SOL     OW 1390   6.925   4.603   1.317
  164SOL    HW1 1391   6.894   4.510   1.301
  164SOL    HW2 1392   6.921   4.655   1.231
  165SOL     OW 1393   4.970   3.102   1.166
  165SOL    HW1 1394   5.003   3.151   1.247
  165SOL    HW2 1395   4.911   3.163   1.112
  166SOL     OW 1396   0.421   3.972   2.800
  166SOL    HW1 1397   0.505   3.942   2.845
  166SOL    HW2 1398   0.352   3.899   2.805
  167SOL     OW 1399   5.091   2.959   6.812
  167SOL    HW1 1400   5.105   2.887   6.744
  167SOL    HW2 1401   4.996   2.991   6.807
  168SOL     OW 1402   2.674   3.513   1.217
  168SOL    HW1 1403   2.762   3.521   1.264
  168SOL    HW2 1404   2.600   3.539   1.279
  169SOL     OW 1405   5.241   1.814   1.961
  169SOL    HW1 1406   5.325   1.764   1.984
  169SOL    HW2 1407   5.220   1.880   2.033
  170SOL     OW 1408   0.918   0.685   2.871
  170SOL    HW1 1409   1.010   0.674   2.907
  170SOL    HW2 1410   0.861   0.609   2.902
  171SOL     OW 1411   3.075   4.907   6.378
  171SOL    HW1 1412   3.157   4.929   6.325
  171SOL    HW2 1413   3.097   4.837   6.445
  172SOL     OW 1414   6.529   1.427   2.941
  172SOL    HW1 1415   6.433   1.455   2.942
  172SOL    HW2 1416   6.550   1.379   3.026
  173SOL     OW 1417   5.612   1.483   4.079
  173SOL    HW1 1418   5.590   1.576   4.051
  173SOL    HW2 1419   5.660   1.485   4.168
  174SOL     OW 1420   3.932   4.989   3.497
  174SOL    HW1 1421   3.994   5.061   3.466
  174SOL    HW2 1422   3.923   4.920   3.425
  175SOL     OW 1423   2.852   0.316   1.584
  175SOL    HW1 1424   2.947   0.344   1.599
  175SOL    HW2 1425   2.849   0.220   1.555
  176SOL     OW 1426   0.862   4.698   0.529
  176SOL    HW1 1427   0.900   4.698   0.621
  176SOL    HW2 1428   0.925   4.744   0.466
  177SOL     OW 1429   5.522   3.150   2.832
  177SOL    HW1 1430   5.582   3.085   2.785
  177SOL    HW2 1431   5.516   3.234   2.778
  178SOL     OW 1432   2.561   3.039   6.380
  178SOL    HW1 1433   2.636   3.069   6.439
  178SOL    HW2 1434   2.483   3.101   6.391
  179SOL     OW 1435   3.861   1.391   5.615
  179SOL    HW1 1436   3.817   1.461   5.559
  179SOL    HW2 1437   3.960   1.393   5.601
  180SOL     OW 1438   2.324   6.675   0.171
  180SOL    HW1 1439   2.342   6.591   0.119
  180SOL    HW2 1440   2.379   6.675   0.255
  181SOL     OW 1441   3.217   3.292   6.241
  181SOL    HW1 1442   3.312   3.261   6.233
  181SOL    HW2 1443   3.158   3.232   6.188
  182SOL     OW 1444   3.679   1.996   5.281
  182SOL    HW1 1445   3.636   1.934   5.217
  182SOL    HW2 1446   3.723   2.071   5.231
  183SOL     OW 1447   4.218   2.229   3.457
  183SOL    HW1 1448   4.226   2.293   3.380
  183SOL    HW2 1449   4.302   2.232   3.511
  184SOL     OW 1450   1.399   6.212   4.537
  184SOL    HW1 1451   1.363   6.185   4.448
  184SOL    HW2 1452   1.331   6.266   4.586
  185SOL     OW 1453   0.762   1.128   5.931
  185SOL    HW1 1454   0.811   1.128   6.018
  185SOL    HW2 1455   0.827   1.118   5.856
  186SOL     OW 1456   5.992   0.562   4.404
  186SOL    HW1 1457   6.063   0.526   4.343
  186SOL    HW2 1458   5.971   0.495   4.475
  187SOL     OW 1459   4.429   0.099   2.205
  187SOL    HW1 1460   4.474   0.179   2.165
  187SOL    HW2 1461   4.400   0.038   2.131
  188SOL     OW 1462   0.691   2.142   3.805
  188SOL    HW1 1463   0.764   2.200   3.841
  188SOL    HW2 1464   0.653   2.184   3.722
  189SOL     OW 1465   2.279   5.566   1.579
  189SOL    HW1 1466   2.189   5.610   1.581
  189SOL    HW2 1467   2.319   5.575   1.488
  190SOL     OW 1468   5.051   2.354   4.756
  190SOL    HW1 1469   5.115   2.428   4.777
  190SOL    HW2 1470   5.103   2.271   4.734
  191SOL     OW 1471   5.973   0.098   6.984
  191SOL    HW1 1472   5.874   0.089   6.982
  191SOL    HW2 1473   6.006   0.086   0.049
  192SOL     OW 1474   1.636   5.823   1.783
  192SOL    HW1 1475   1.635   5.729   1.749
  192SOL    HW2 1476   1.621   5.886   1.706
  193SOL     OW 1477   4.236   3.497   5.568
  193SOL    HW1 1478   4.203   3.448   5.649
  193SOL    HW2 1479   4.332   3.474   5.552
  194SOL     OW 1480   4.241   0.658   3.059
  194SOL    HW1 1481   4.294   0.711   2.993
  194SOL    HW2 1482   4.162   0.710   3.089
  195SOL     OW 1483   1.946   0.401   5.198
  195SOL    HW1 1484   1.948   0.497   5.228
  195SOL    HW2 1485   1.860   0.383   5.151
  196SOL     OW 1486   2.592   0.568   0.906
  196SOL    HW1 1487   2.590   0.663   0.937
  196SOL    HW2 1488   2.538   0.559   0.823
  197SOL     OW 1489   2.460   7.013   1.293
  197SOL    HW1 1490   2.468   0.084   1.291
  197SOL    HW2 1491   2.483   6.975   1.204
  198SOL     OW 1492   4.851   0.803   1.990
  198SOL    HW1 1493   4.788   0.734   1.954
  198SOL    HW2 1494   4.945   0.772   1.978
  199SOL     OW 1495   6.619   1.550   3.734
  199SOL    HW1 1496   6.534   1.522   3.779
  199SOL    HW2 1497   6.599   1.570   3.638
  200SOL     OW 1498   1.443   4.563   1.630
  200SOL    HW1 1499   1.497   4.643   1.656
  200SOL    HW2 1500   1.361   4.592   1.581
  201SOL     OW 1501   6.741   0.163   5.306
  201SOL    HW1 1502   6.689   0.114   5.236
  201SOL    HW2 1503   6.679   0.221   5.359
  202SOL     OW 1504   4.575   1.511   6.666
  202SOL    HW1 1505   4.478   1.535   6.656
  202SOL    HW2 1506   4.582   1.419   6.704
  203SOL     OW 1507   5.565   2.123   5.488
  203SOL    HW1 1508   5.635   2.096   5.422
  203SOL    HW2 1509   5.594   2.096   5.580
  204SOL     OW 1510   0.838   0.481   5.260
  204SOL    HW1 1511   0.753   0.432   5.238
  204SOL    HW2 1512   0.838   0.504   5.358
  205SOL     OW 1513   0.686   1.650   2.771
  205SOL    HW1 1514   0.687   1.590   2.692
  205SOL    HW2 1515   0.592   1.669   2.798
  206SOL     OW 1516   0.706   4.490   0.921
  206SOL    HW1 1517   0.784   4.462   0.865
  206SOL    HW2 1518   0.622   4.481   0.867
  207SOL     OW 1519   6.250   1.631   3.661
  207SOL    HW1 1520   6.161   1.643   3.618
  207SOL    HW2 1521   6.281   1.718   3.698
  208SOL     OW 1522   6.178   3.307   5.011
  208SOL    HW1 1523   6.125   3.223   5.004
  208SOL    HW2 1524   6.136   3.378   4.955
  209SOL     OW 1525   0.737   5.051   3.923
  209SOL    HW1 1526   0.755   5.149   3.921
  209SOL    HW2 1527   0.722   5.022   4.018
  210SOL     OW 1528   4.371   2.297   0.692
  210SOL    HW1 1529   4.445   2.344   0.644
  210SOL    HW2 1530   4.283   2.319   0.649
  211SOL     OW 1531   2.270   6.267   2.531
  211SOL    HW1 1532   2.303   6.311   2.447
  211SOL    HW2 1533   2.172   6.284   2.541
  212SOL     OW 1534   0.996   3.866   1.805
  212SOL    HW1 1535   0.950   3.931   1.744
  212SOL    HW2 1536   0.969   3.884   1.900
  213SOL     OW 1537   3.249   0.886   0.671
  213SOL    HW1 1538   3.304   0.925   0.597
  213SOL    HW2 1539   3.223   0.959   0.734
  214SOL     OW 1540   4.604   4.683   1.873
  214SOL    HW1 1541   4.627   4.586   1.865
  214SOL    HW2 1542   4.506   4.692   1.890
  215SOL     OW 1543   2.203   4.401   0.883
  215SOL    HW1 1544   2.191   4.356   0.794
  215SOL    HW2 1545   2.300   4.422   0.896
  216SOL     OW 1546   2.252   6.162   3.969
  216SOL    HW1 1547   2.221   6.187   3.877
  216SOL    HW2 1548   2.339   6.208   3.988
  217SOL     OW 1549   1.228   1.921   4.175
  217SOL    HW1 1550   1.237   1.865   4.092
  217SOL    HW2 1551   1.296   1.892   4.242
  218SOL     OW 1552   6.983   3.707   4.215
  218SOL    HW1 1553   0.010   3.761   4.278
  218SOL    HW2 1554   6.908   3.663   4.266
  219SOL     OW 1555   4.695   0.228   6.450
  219SOL    HW1 1556   4.693   0.301   6.381
  219SOL    HW2 1557   4.607   0.225   6.497
  220SOL     OW 1558   3.131   6.971   1.394
  220SOL    HW1 1559   3.103   6.875   1.394
  220SOL    HW2 1560   3.208   6.983   1.457
  221SOL     OW 1561   6.938   3.560   0.923
  221SOL    HW1 1562   6.879   3.484   0.893
  221SOL    HW2 1563   6.924   3.575   1.021
  222SOL     OW 1564   1.882   4.966   5.740
  222SOL    HW1 1565   1.821   5.044   5.724
  222SOL    HW2 1566   1.859   4.924   5.828
  223SOL     OW 1567   5.905   3.624   6.589
  223SOL    HW1 1568   5.867   3.605   6.499
  223SOL    HW2 1569   5.841   3.680   6.641
  224SOL     OW 1570   1.824   1.380   4.203
  224SOL    HW1 1571   1.888   1.451   4.174
  224SOL    HW2 1572   1.745   1.379   4.142
  225SOL     OW 1573   3.994   3.854   6.390
  225SOL    HW1 1574   4.078   3.909   6.382
  225SOL    HW2 1575   3.915   3.911   6.365
  226SOL     OW 1576   2.037   1.531   5.590
  226SOL    HW1 1577   2.121   1.478   5.577
  226SOL    HW2 1578   1.969   1.473   5.635
  227SOL     OW 1579   1.454   3.655   2.085
  227SOL    HW1 1580   1.361   3.689   2.068
  227SOL    HW2 1581   1.474   3.660   2.182
  228SOL     OW 1582   3.444   6.555   3.669
  228SOL    HW1 1583   3.358   6.549   3.719
  228SOL    HW2 1584   3.493   6.468   3.676
  229SOL     OW 1585   6.328   6.369   0.280
  229SOL    HW1 1586   6.259   6.436   0.252
  229SOL    HW2 1587   6.351   6.384   0.376
  230SOL     OW 1588   3.156   4.870   3.787
  230SOL    HW1 1589   3.223   4.869   3.712
  230SOL    HW2 1590   3.203   4.864   3.874
  231SOL     OW 1591   6.294   1.904   6.341
  231SOL    HW1 1592   6.392   1.886   6.341
  231SOL    HW2 1593   6.249   1.837   6.281
  232SOL     OW 1594   0.715   3.272   6.603
  232SOL    HW1 1595   0.716   3.333   6.683
  232SOL    HW2 1596   0.620   3.248   6.581
  233SOL     OW 1597   3.126   1.570   2.540
  233SOL    HW1 1598   3.178   1.651   2.570
  233SOL    HW2 1599   3.177   1.487   2.563
  234SOL     OW 1600   5.433   0.611   5.914
  234SOL    HW1 1601   5.404   0.706   5.915
  234SOL    HW2 1602   5.369   0.556   5.967
  235SOL     OW 1603   3.367   2.606   1.420
  235SOL    HW1 1604   3.433   2.534   1.401
  235SOL    HW2 1605   3.404   2.694   1.389
  236SOL     OW 1606   5.251   3.356   6.419
  236SOL    HW1 1607   5.232   3.258   6.424
  236SOL    HW2 1608   5.262   3.383   6.323
  237SOL     OW 1609   6.005   4.403   1.797
  237SOL    HW1 1610   6.089   4.363   1.836
  237SOL    HW2 1611   6.023   4.434   1.704
  238SOL     OW 1612   5.042   2.246   0.463
  238SOL    HW1 1613   5.100   2.317   0.424
  238SOL    HW2 1614   5.098   2.181   0.514
  239SOL     OW 1615   0.816   5.047   0.088
  239SOL    HW1 1616   0.902   5.077   0.129
  239SOL    HW2 1617   0.810   5.080   7.022
  240SOL     OW 1618   6.773   2.508   3.416
  240SOL    HW1 1619   6.699   2.492   3.481
  240SOL    HW2 1620   6.843   2.564   3.459
  241SOL     OW 1621   2.399   1.935   5.345
  241SOL    HW1 1622   2.351   1.927   5.432
  241SOL    HW2 1623   2.358   1.872   5.279
  242SOL     OW 1624   3.349   3.566   4.205
  242SOL    HW1 1625   3.392   3.632   4.143
  242SOL    HW2 1626   3.409   3.550   4.283
  243SOL     OW 1627   3.944   0.577   6.134
  243SOL    HW1 1628   3.929   0.483   6.104
  243SOL    HW2 1629   4.040   0.601   6.119
  244SOL     OW 1630   5.960   2.632   5.025
  244SOL    HW1 1631   5.891   2.652   4.955
  244SOL    HW2 1632   5.977   2.715   5.079
  245SOL     OW 1633   5.679   3.580   4.066
  245SOL    HW1 1634   5.752   3.530   4.020
  245SOL    HW2 1635   5.602   3.593   4.003
  246SOL     OW 1636   4.597   2.562   3.662
  246SOL    HW1 1637   4.583   2.566   3.761
  246SOL    HW2 1638   4.517   2.522   3.618
  247SOL     OW 1639   2.938   1.941   1.674
  247SOL    HW1 1640   3.034   1.919   1.658
  247SOL    HW2 1641   2.930   2.038   1.699
  248SOL     OW 1642   3.614   1.422   2.223
  248SOL    HW1 1643   3.632   1.340   2.277
  248SOL    HW2 1644   3.698   1.475   2.214
  249SOL     OW 1645   4.011   0.355   4.990
  249SOL    HW1 1646   3.993   0.257   4.998
  249SOL    HW2 1647   4.017   0.380   4.894
  250SOL     OW 1648   4.853   2.849   0.928
  250SOL    HW1 1649   4.791   2.863   1.006
  250SOL    HW2 1650   4.938   2.807   0.960
  251SOL     OW 1651   4.595   4.192   5.908
  251SOL    HW1 1652   4.571   4.219   5.815
  251SOL    HW2 1653   4.678   4.135   5.906
  252SOL     OW 1654   6.505   5.964   0.319
  252SOL    HW1 1655   6.503   5.938   0.416
  252SOL    HW2 1656   6.417   5.942   0.277
  253SOL     OW 1657   2.167   5.759   6.505
  253SOL    HW1 1658   2.232   5.727   6.574
  253SOL    HW2 1659   2.120   5.681   6.465
  254SOL     OW 1660   5.204   3.177   3.560
  254SOL    HW1 1661   5.241   3.094   3.519
  254SOL    HW2 1662   5.104   3.170   3.567
  255SOL     OW 1663   1.466   4.032   5.386
  255SOL    HW1 1664   1.522   4.030   5.303
  255SOL    HW2 1665   1.397   3.960   5.383
  256SOL     OW 1666   6.547   3.706   6.512
  256SOL    HW1 1667   6.492   3.695   6.595
  256SOL    HW2 1668   6.492   3.749   6.440
  257SOL     OW 1669   4.763   0.174   3.523
  257SOL    HW1 1670   4.854   0.214   3.530
  257SOL    HW2 1671   4.696   0.238   3.561
  258SOL     OW 1672   2.374   4.902   5.180
  258SOL    HW1 1673   2.319   4.917   5.263
  258SOL    HW2 1674   2.405   4.807   5.177
  259SOL     OW 1675   0.659   1.875   2.212
  259SOL    HW1 1676   0.735   1.914   2.159
  259SOL    HW2 1677   0.573   1.891   2.164
  260SOL     OW 1678   4.493   0.503   1.224
  260SOL    HW1 1679   4.587   0.505   1.190
  260SOL    HW2 1680   4.431   0.475   1.151
  261SOL     OW 1681   6.823   3.383   0.734
  261SOL    HW1 1682   6.739   3.342   0.769
  261SOL    HW2 1683   6.894   3.313   0.724
  262SOL     OW 1684   0.287   4.051   0.359
  262SOL    HW1 1685   0.216   4.116   0.386
  262SOL    HW2 1686   0.244   3.965   0.332
  263SOL     OW 1687   1.996   0.816   3.518
  263SOL    HW1 1688   2.083   0.858   3.491
  263SOL    HW2 1689   1.922   0.882   3.506
  264SOL     OW 1690   6.124   3.327   6.526
  264SOL    HW1 1691   6.181   3.387   6.470
  264SOL    HW2 1692   6.032   3.366   6.532
  265SOL     OW 1693   5.349   6.000   2.315
  265SOL    HW1 1694   5.380   6.082   2.362
  265SOL    HW2 1695   5.253   5.983   2.338
  266SOL     OW 1696   3.203   2.769   5.548
  266SOL    HW1 1697   3.236   2.799   5.458
  266SOL    HW2 1698   3.135   2.833   5.582
  267SOL     OW 1699   0.646   1.213   6.716
  267SOL    HW1 1700   0.619   1.218   6.620
  267SOL    HW2 1701   0.724   1.274   6.732
  268SOL     OW 1702   3.598   0.582   6.077
  268SOL    HW1 1703   3.644   0.603   5.990
  268SOL    HW2 1704   3.656   0.612   6.153
  269SOL     OW 1705   0.755   3.587   2.301
  269SOL    HW1 1706   0.802   3.550   2.221
  269SOL    HW2 1707   0.817   3.647   2.352
  270SOL     OW 1708   1.040   0.159   0.535
  270SOL    HW1 1709   1.057   0.223   0.461
  270SOL    HW2 1710   0.972   0.091   0.506
  271SOL     OW 1711   0.392   1.423   6.526
  271SOL    HW1 1712   0.295   1.396   6.526
  271SOL    HW2 1713   0.424   1.432   6.620
  272SOL     OW 1714   3.379   5.463   4.495
  272SOL    HW1 1715   3.383   5.384   4.555
  272SOL    HW2 1716   3.468   5.478   4.452
  273SOL     OW 1717   1.687   4.288   4.785
  273SOL    HW1 1718   1.709   4.376   4.742
  273SOL    HW2 1719   1.719   4.288   4.879
  274SOL     OW 1720   4.211   1.942   3.082
  274SOL    HW1 1721   4.161   2.028   3.075
  274SOL    HW2 1722   4.242   1.929   3.176
  275SOL     OW 1723   5.884   4.278   5.474
  275SOL    HW1 1724   5.970   4.249   5.432
  275SOL    HW2 1725   5.882   4.378   5.480
  276SOL     OW 1726   0.526   6.464   2.706
  276SOL    HW1 1727   0.464   6.451   2.628
  276SOL    HW2 1728   0.544   6.561   2.717
  277SOL     OW 1729   1.339   4.134   0.968
  277SOL    HW1 1730   1.435   4.106   0.959
  277SOL    HW2 1731   1.281   4.067   0.921
  278SOL     OW 1732   6.324   5.064   1.997
  278SOL    HW1 1733   6.314   5.136   1.928
  278SOL    HW2 1734   6.241   5.010   2.001
  279SOL     OW 1735   6.844   3.043   4.162
  279SOL    HW1 1736   6.857   2.970   4.229
  279SOL    HW2 1737   6.895   3.021   4.079
  280SOL     OW 1738   3.169   6.898   3.051
  280SOL    HW1 1739   3.088   6.905   2.994
  280SOL    HW2 1740   3.242   6.955   3.013
  281SOL     OW 1741   2.412   4.856   2.249
  281SOL    HW1 1742   2.463   4.917   2.310
  281SOL    HW2 1743   2.466   4.774   2.230
  282SOL     OW 1744   3.188   1.885   5.728
  282SOL    HW1 1745   3.248   1.852   5.802
  282SOL    HW2 1746   3.190   1.985   5.726
  283SOL     OW 1747   6.252   1.594   6.659
  283SOL    HW1 1748   6.174   1.547   6.618
  283SOL    HW2 1749   6.225   1.687   6.683
  284SOL     OW 1750   1.774   3.947   3.817
  284SOL    HW1 1751   1.785   4.046   3.824
  284SOL    HW2 1752   1.796   3.904   3.905
  285SOL     OW 1753   6.157   4.603   5.334
  285SOL    HW1 1754   6.072   4.573   5.378
  285SOL    HW2 1755   6.209   4.658   5.399
  286SOL     OW 1756   3.832   5.749   5.568
  286SOL    HW1 1757   3.894   5.761   5.491
  286SOL    HW2 1758   3.871   5.791   5.650
  287SOL     OW 1759   0.277   4.621   6.925
  287SOL    HW1 1760   0.276   4.670   6.838
  287SOL    HW2 1761   0.362   4.569   6.932
  288SOL     OW 1762   4.103   1.470   5.931
  288SOL    HW1 1763   4.074   1.465   6.026
  288SOL    HW2 1764   4.131   1.564   5.910
  289SOL     OW 1765   6.855   4.336   4.545
  289SOL    HW1 1766   6.807   4.252   4.572
  289SOL    HW2 1767   6.952   4.316   4.532
  290SOL     OW 1768   6.119   1.812   4.571
  290SOL    HW1 1769   6.174   1.809   4.487
  290SOL    HW2 1770   6.173   1.851   4.645
  291SOL     OW 1771   1.322   2.520   4.663
  291SOL    HW1 1772   1.266   2.445   4.626
  291SOL    HW2 1773   1.301   2.604   4.614
  292SOL     OW 1774   1.428   1.989   3.057
  292SOL    HW1 1775   1.388   1.929   3.126
  292SOL    HW2 1776   1.414   1.949   2.966
  293SOL     OW 1777   4.337   4.943   1.952
  293SOL    HW1 1778   4.242   4.970   1.938
  293SOL    HW2 1779   4.341   4.848   1.981
  294SOL     OW 1780   0.238   5.358   6.481
  294SOL    HW1 1781   0.284   5.398   6.402
  294SOL    HW2 1782   0.171   5.290   6.450
  295SOL     OW 1783   3.102   2.196   4.544
  295SOL    HW1 1784   3.127   2.151   4.630
  295SOL    HW2 1785   3.178   2.190   4.479
  296SOL     OW 1786   4.606   1.737   2.681
  296SOL    HW1 1787   4.625   1.681   2.762
  296SOL    HW2 1788   4.527   1.701   2.633
  297SOL     OW 1789   2.167   4.623   2.895
  297SOL    HW1 1790   2.160   4.616   2.994
  297SOL    HW2 1791   2.263   4.632   2.868
  298SOL     OW 1792   4.115   6.334   0.932
  298SOL    HW1 1793   4.132   6.247   0.887
  298SOL    HW2 1794   4.022   6.334   0.970
  299SOL     OW 1795   4.594   4.125   6.420
  299SOL    HW1 1796   4.640   4.213   6.434
  299SOL    HW2 1797   4.558   4.120   6.327
  300SOL     OW 1798   6.039   0.930   1.537
  300SOL    HW1 1799   5.962   0.869   1.519
  300SOL    HW2 1800   6.016   1.022   1.506
  301SOL     OW 1801   5.065   3.188   1.422
  301SOL    HW1 1802   5.077   3.285   1.445
  301SOL    HW2 1803   4.998   3.148   1.484
  302SOL     OW 1804   0.795   0.417   3.406
  302SOL    HW1 1805   0.758   0.335   3.362
  302SOL    HW2 1806   0.889   0.431   3.374
  303SOL     OW 1807   6.099   6.969   1.498
  303SOL    HW1 1808   6.078   6.969   1.400
  303SOL    HW2 1809   6.069   6.882   1.538
  304SOL     OW 1810   2.751   0.363   4.109
  304SOL    HW1 1811   2.665   0.342   4.062
  304SOL    HW2 1812   2.749   0.457   4.143
  305SOL     OW 1813   0.226   3.381   0.062
  305SOL    HW1 1814   0.157   3.339   0.121
  305SOL    HW2 1815   0.316   3.345   0.087
  306SOL     OW 1816   2.563   1.078   3.716
  306SOL    HW1 1817   2.487   1.052   3.657
  306SOL    HW2 1818   2.555   1.029   3.803
  307SOL     OW 1819   4.790   0.277   0.362
  307SOL    HW1 1820   4.755   0.242   0.276
  307SOL    HW2 1821   4.889   0.262   0.367
  308SOL     OW 1822   5.594   3.080   5.037
  308SOL    HW1 1823   5.586   2.981   5.048
  308SOL    HW2 1824   5.664   3.115   5.098
  309SOL     OW 1825   3.060   5.034   6.882
  309SOL    HW1 1826   3.111   5.047   6.797
  309SOL    HW2 1827   3.001   5.112   6.899
  310SOL     OW 1828   6.063   6.724   4.879
  310SOL    HW1 1829   6.133   6.705   4.811
  310SOL    HW2 1830   6.079   6.668   4.960
  311SOL     OW 1831   5.623   4.848   2.055
  311SOL    HW1 1832   5.604   4.757   2.018
  311SOL    HW2 1833   5.707   4.844   2.109
  312SOL     OW 1834   4.201   1.722   5.476
  312SOL    HW1 1835   4.165   1.814   5.489
  312SOL    HW2 1836   4.136   1.668   5.422
  313SOL     OW 1837   3.465   4.114   1.857
  313SOL    HW1 1838   3.388   4.054   1.879
  313SOL    HW2 1839   3.548   4.060   1.845
  314SOL     OW 1840   3.496   4.949   6.991
  314SOL    HW1 1841   3.411   4.977   0.006
  314SOL    HW2 1842   3.551   4.895   0.026
  315SOL     OW 1843   1.603   2.521   3.597
  315SOL    HW1 1844   1.702   2.527   3.588
  315SOL    HW2 1845   1.559   2.581   3.530
  316SOL     OW 1846   3.241   1.528   4.145
  316SOL    HW1 1847   3.293   1.482   4.072
  316SOL    HW2 1848   3.186   1.461   4.194
  317SOL     OW 1849   0.799   0.590   0.961
  317SOL    HW1 1850   0.759   0.668   1.010
  317SOL    HW2 1851   0.842   0.622   0.877
  318SOL     OW 1852   1.691   6.388   0.177
  318SOL    HW1 1853   1.662   6.301   0.217
  318SOL    HW2 1854   1.662   6.391   0.081
  319SOL     OW 1855   7.020   0.472   3.843
  319SOL    HW1 1856   0.066   0.468   3.908
  319SOL    HW2 1857   0.003   0.551   3.783
  320SOL     OW 1858   6.030   2.226   0.372
  320SOL    HW1 1859   6.076   2.264   0.291
  320SOL    HW2 1860   5.934   2.252   0.371
  321SOL     OW 1861   3.923   1.473   0.944
  321SOL    HW1 1862   3.996   1.494   1.009
  321SOL    HW2 1863   3.909   1.374   0.942
  322SOL     OW 1864   3.593   4.193   4.516
  322SOL    HW1 1865   3.571   4.127   4.587
  322SOL    HW2 1866   3.509   4.227   4.474
  323SOL     OW 1867   0.848   3.543   6.207
  323SOL    HW1 1868   0.773   3.607   6.191
  323SOL    HW2 1869   0.853   3.521   6.304
  324SOL     OW 1870   2.576   1.819   4.106
  324SOL    HW1 1871   2.616   1.755   4.039
  324SOL    HW2 1872   2.523   1.767   4.173
  325SOL     OW 1873   1.187   2.911   1.706
  325SOL    HW1 1874   1.264   2.945   1.652
  325SOL    HW2 1875   1.137   2.843   1.653
  326SOL     OW 1876   1.277   4.878   6.857
  326SOL    HW1 1877   1.332   4.844   6.780
  326SOL    HW2 1878   1.295   4.975   6.871
  327SOL     OW 1879   1.418   5.303   3.645
  327SOL    HW1 1880   1.341   5.347   3.692
  327SOL    HW2 1881   1.425   5.208   3.675
  328SOL     OW 1882   1.475   6.229   1.626
  328SOL    HW1 1883   1.538   6.278   1.567
  328SOL    HW2 1884   1.524   6.156   1.674
  329SOL     OW 1885   3.654   4.113   4.263
  329SOL    HW1 1886   3.654   4.154   4.354
  329SOL    HW2 1887   3.745   4.079   4.241
  330SOL     OW 1888   2.718   0.146   1.031
  330SOL    HW1 1889   2.743   0.217   1.097
  330SOL    HW2 1890   2.689   0.189   0.946
  331SOL     OW 1891   3.594   5.869   0.199
  331SOL    HW1 1892   3.657   5.797   0.170
  331SOL    HW2 1893   3.645   5.950   0.225
  332SOL     OW 1894   2.870   1.535   4.770
  332SOL    HW1 1895   2.951   1.577   4.729
  332SOL    HW2 1896   2.861   1.441   4.737
  333SOL     OW 1897   3.547   6.615   6.612
  333SOL    HW1 1898   3.490   6.539   6.645
  333SOL    HW2 1899   3.633   6.616   6.662
  334SOL     OW 1900   2.770   0.383   1.199
  334SOL    HW1 1901   2.810   0.402   1.110
  334SOL    HW2 1902   2.809   0.444   1.268
  335SOL     OW 1903   3.800   0.059   4.399
  335SOL    HW1 1904   3.795   0.147   4.446
  335SOL    HW2 1905   3.723   0.051   4.336
  336SOL     OW 1906   2.538   0.971   3.977
  336SOL    HW1 1907   2.545   1.056   4.029
  336SOL    HW2 1908   2.471   0.910   4.021
  337SOL     OW 1909   0.066   3.256   0.229
  337SOL    HW1 1910   7.016   3.280   0.286
  337SOL    HW2 1911   0.042   3.179   0.171
  338SOL     OW 1912   3.430   2.918   1.662
  338SOL    HW1 1913   3.468   2.993   1.716
  338SOL    HW2 1914   3.391   2.849   1.723
  339SOL     OW 1915   3.206   6.510   4.483
  339SOL    HW1 1916   3.303   6.519   4.460
  339SOL    HW2 1917   3.197   6.482   4.579
  340SOL     OW 1918   4.915   4.393   5.782
  340SOL    HW1 1919   4.976   4.403   5.861
  340SOL    HW2 1920   4.820   4.394   5.813
  341SOL     OW 1921   6.852   0.698   4.328
  341SOL    HW1 1922   6.757   0.697   4.357
  341SOL    HW2 1923   6.859   0.662   4.235
  342SOL     OW 1924   6.189   3.811   0.130
  342SOL    HW1 1925   6.220   3.883   0.192
  342SOL    HW2 1926   6.119   3.848   0.069
  343SOL     OW 1927   1.807   5.619   0.536
  343SOL    HW1 1928   1.793   5.587   0.442
  343SOL    HW2 1929   1.861   5.703   0.535
  344SOL     OW 1930   1.281   4.948   2.093
  344SOL    HW1 1931   1.214   4.926   2.022
  344SOL    HW2 1932   1.254   5.033   2.140
  345SOL     OW 1933   6.126   1.207   4.653
  345SOL    HW1 1934   6.031   1.216   4.624
  345SOL    HW2 1935   6.186   1.201   4.573
  346SOL     OW 1936   2.197   0.521   2.856
  346SOL    HW1 1937   2.161   0.546   2.766
  346SOL    HW2 1938   2.134   0.458   2.900
  347SOL     OW 1939   3.304   5.768   6.093
  347SOL    HW1 1940   3.325   5.699   6.162
  347SOL    HW2 1941   3.304   5.726   6.002
  348SOL     OW 1942   5.344   5.041   1.602
  348SOL    HW1 1943   5.397   4.963   1.637
  348SOL    HW2 1944   5.394   5.083   1.527
  349SOL     OW 1945   6.896   4.292   0.675
  349SOL    HW1 1946   6.884   4.201   0.713
  349SOL    HW2 1947   6.915   4.357   0.749
  350SOL     OW 1948   3.726   2.888   0.667
  350SOL    HW1 1949   3.707   2.982   0.694
  350SOL    HW2 1950   3.673   2.826   0.724
  351SOL     OW 1951   2.168   2.774   0.301
  351SOL    HW1 1952   2.102   2.784   0.375
  351SOL    HW2 1953   2.126   2.726   0.225
  352SOL     OW 1954   3.323   0.178   4.927
  352SOL    HW1 1955   3.382   0.103   4.956
  352SOL    HW2 1956   3.344   0.260   4.979
  353SOL     OW 1957   2.991   6.739   0.763
  353SOL    HW1 1958   3.020   6.646   0.743
  353SOL    HW2 1959   2.966   6.746   0.859
  354SOL     OW 1960   3.244   2.683   6.959
  354SOL    HW1 1961   3.252   2.699   6.860
  354SOL    HW2 1962   3.211   2.766   7.003
  355SOL     OW 1963   0.101   2.894   2.717
  355SOL    HW1 1964   0.014   2.872   2.763
  355SOL    HW2 1965   0.116   2.993   2.721
  356SOL     OW 1966   3.989   6.098   5.335
  356SOL    HW1 1967   3.963   6.024   5.397
  356SOL    HW2 1968   4.045   6.165   5.384
  357SOL     OW 1969   6.502   6.564   5.174
  357SOL    HW1 1970   6.599   6.545   5.164
  357SOL    HW2 1971   6.476   6.555   5.270
  358SOL     OW 1972   5.331   0.327   1.851
  358SOL    HW1 1973   5.240   0.301   1.884
  358SOL    HW2 1974   5.394   0.336   1.928
  359SOL     OW 1975   1.253   2.230   2.190
  359SOL    HW1 1976   1.247   2.133   2.214
  359SOL    HW2 1977   1.319   2.274   2.251
  360SOL     OW 1978   1.201   5.916   6.615
  360SOL    HW1 1979   1.136   5.864   6.671
  360SOL    HW2 1980   1.152   5.967   6.545
  361SOL     OW 1981   5.678   5.851   3.013
  361SOL    HW1 1982   5.613   5.798   3.067
  361SOL    HW2 1983   5.692   5.941   3.055
  362SOL     OW 1984   3.718   4.103   1.236
  362SOL    HW1 1985   3.642   4.150   1.191
  362SOL    HW2 1986   3.797   4.164   1.242
  363SOL     OW 1987   4.956   4.210   3.852
  363SOL    HW1 1988   4.908   4.292   3.821
  363SOL    HW2 1989   4.889   4.138   3.872
  364SOL     OW 1990   6.855   5.760   6.077
  364SOL    HW1 1991   6.935   5.733   6.024
  364SOL    HW2 1992   6.838   5.858   6.065
  365SOL     OW 1993   5.222   5.168   2.015
  365SOL    HW1 1994   5.243   5.119   2.100
  365SOL    HW2 1995   5.181   5.106   1.949
  366SOL     OW 1996   6.237   0.756   0.049
  366SOL    HW1 1997   6.228   0.824   7.005
  366SOL    HW2 1998   6.230   0.664   0.009
  367SOL     OW 1999   5.110   2.885   1.055
  367SOL    HW1 2000   5.050   2.956   1.092
  367SOL    HW2 2001   5.199   2.889   1.101
  368SOL     OW 2002   0.286   3.257   4.671
  368SOL    HW1 2003   0.261   3.240   4.576
  368SOL    HW2 2004   0.293   3.355   4.687
  369SOL     OW 2005   6.825   5.066   1.617
  369SOL    HW1 2006   6.766   4.991   1.646
  369SOL    HW2 2007   6.889   5.089   1.690
  370SOL     OW 2008   2.909   1.522   5.478
  370SOL    HW1 2009   2.846   1.588   5.519
  370SOL    HW2 2010   2.946   1.559   5.392
  371SOL     OW 2011   2.668   3.527   6.876
  371SOL    HW1 2012   2.632   3.565   6.961
  371SOL    HW2 2013   2.660   3.595   6.803
  372SOL     OW 2014   0.525   7.012   5.649
  372SOL    HW1 2015   0.606   0.021   5.693
  372SOL    HW2 2016   0.444   0.034   5.677
  373SOL     OW 2017   6.292   5.959   5.381
  373SOL    HW1 2018   6.314   5.976   5.477
  373SOL    HW2 2019   6.373   5.926   5.334
  374SOL     OW 2020   3.218   0.977   2.241
  374SOL    HW1 2021   3.144   1.043   2.225
  374SOL    HW2 2022   3.303   1.011   2.200
  375SOL     OW 2023   0.872   4.390   3.490
  375SOL    HW1 2024   0.858   4.487   3.509
  375SOL    HW2 2025   0.873   4.338   3.575
  376SOL     OW 2026   1.966   2.377   4.668
  376SOL    HW1 2027   1.968   2.277   4.680
  376SOL    HW2 2028   1.968   2.421   4.758
  377SOL     OW 2029   6.848   2.821   2.054
  377SOL    HW1 2030   6.798   2.739   2.025
  377SOL    HW2 2031   6.946   2.802   2.053
  378SOL     OW 2032   3.528   2.917   5.497
  378SOL    HW1 2033   3.566   2.904   5.405
  378SOL    HW2 2034   3.549   3.010   5.529
  379SOL     OW 2035   6.385   3.700   1.914
  379SOL    HW1 2036   6.395   3.601   1.904
  379SOL    HW2 2037   6.381   3.743   1.824
  380SOL     OW 2038   2.517   1.520   1.632
  380SOL    HW1 2039   2.606   1.475   1.639
  380SOL    HW2 2040   2.529   1.617   1.611
  381SOL     OW 2041   1.723   4.633   2.699
  381SOL    HW1 2042   1.674   4.602   2.618
  381SOL    HW2 2043   1.817   4.599   2.698
  382SOL     OW 2044   5.367   6.105   5.926
  382SOL    HW1 2045   5.411   6.195   5.923
  382SOL    HW2 2046   5.303   6.101   6.003
  383SOL     OW 2047   5.577   3.374   5.941
  383SOL    HW1 2048   5.630   3.426   5.875
  383SOL    HW2 2049   5.638   3.341   6.014
  384SOL     OW 2050   6.426   4.462   4.214
  384SOL    HW1 2051   6.354   4.398   4.241
  384SOL    HW2 2052   6.498   4.413   4.165
  385SOL     OW 2053   4.331   6.414   6.371
  385SOL    HW1 2054   4.408   6.354   6.387
  385SOL    HW2 2055   4.269   6.373   6.304
  386SOL     OW 2056   3.367   6.585   5.566
  386SOL    HW1 2057   3.270   6.609   5.558
  386SOL    HW2 2058   3.422   6.652   5.515
  387SOL     OW 2059   6.689   6.629   3.006
  387SOL    HW1 2060   6.633   6.548   3.025
  387SOL    HW2 2061   6.781   6.600   2.980
  388SOL     OW 2062   1.024   2.496   3.753
  388SOL    HW1 2063   0.979   2.410   3.779
  388SOL    HW2 2064   1.106   2.477   3.700
  389SOL     OW 2065   4.281   4.203   1.598
  389SOL    HW1 2066   4.309   4.157   1.514
  389SOL    HW2 2067   4.347   4.182   1.671
  390SOL     OW 2068   3.799   1.224   0.209
  390SOL    HW1 2069   3.800   1.219   0.309
  390SOL    HW2 2070   3.873   1.284   0.178
  391SOL     OW 2071   2.277   4.093   5.329
  391SOL    HW1 2072   2.188   4.050   5.338
  391SOL    HW2 2073   2.338   4.033   5.276
  392SOL     OW 2074   1.872   3.799   1.898
  392SOL    HW1 2075   1.779   3.835   1.906
  392SOL    HW2 2076   1.895   3.791   1.801
  393SOL     OW 2077   1.308   5.251   0.407
  393SOL    HW1 2078   1.379   5.318   0.432
  393SOL    HW2 2079   1.325   5.219   0.313
  394SOL     OW 2080   0.843   2.929   6.972
  394SOL    HW1 2081   0.779   2.944   6.896
  394SOL    HW2 2082   0.937   2.940   6.939
  395SOL     OW 2083   5.332   4.241   2.789
  395SOL    HW1 2084   5.344   4.340   2.797
  395SOL    HW2 2085   5.243   4.215   2.827
  396SOL     OW 2086   2.420   2.639   2.031
  396SOL    HW1 2087   2.389   2.552   1.992
  396SOL    HW2 2088   2.390   2.645   2.126
  397SOL     OW 2089   5.378   2.039   6.693
  397SOL    HW1 2090   5.406   1.943   6.691
  397SOL    HW2 2091   5.451   2.095   6.733
  398SOL     OW 2092   1.772   6.054   3.558
  398SOL    HW1 2093   1.784   6.149   3.528
  398SOL    HW2 2094   1.679   6.042   3.592
  399SOL     OW 2095   5.652   6.428   4.430
  399SOL    HW1 2096   5.555   6.412   4.411
  399SOL    HW2 2097   5.661   6.497   4.502
  400SOL     OW 2098   6.042   6.221   5.443
  400SOL    HW1 2099   5.973   6.185   5.379
  400SOL    HW2 2100   6.133   6.205   5.405
  401SOL     OW 2101   5.591   0.470   6.104
  401SOL    HW1 2102   5.546   0.521   6.030
  401SOL    HW2 2103   5.543   0.384   6.120
  402SOL     OW 2104   5.858   6.862   3.254
  402SOL    HW1 2105   5.853   6.957   3.226
  402SOL    HW2 2106   5.772   6.816   3.233
  403SOL     OW 2107   3.644   0.145   5.994
  403SOL    HW1 2108   3.727   0.097   6.020
  403SOL    HW2 2109   3.565   0.103   6.039
  404SOL     OW 2110   1.938   5.285   5.611
  404SOL    HW1 2111   2.033   5.257   5.622
  404SOL    HW2 2112   1.892   5.222   5.548
  405SOL     OW 2113   1.899   3.923   3.283
  405SOL    HW1 2114   1.985   3.874   3.269
  405SOL    HW2 2115   1.872   3.914   3.379
  406SOL     OW 2116   0.459   4.751   4.725
  406SOL    HW1 2117   0.553   4.732   4.756
  406SOL    HW2 2118   0.398   4.749   4.804
  407SOL     OW 2119   2.129   2.482   4.161
  407SOL    HW1 2120   2.179   2.401   4.191
  407SOL    HW2 2121   2.067   2.512   4.234
  408SOL     OW 2122   3.456   2.049   3.141
  408SOL    HW1 2123   3.404   2.064   3.056
  408SOL    HW2 2124   3.449   1.952   3.167
  409SOL     OW 2125   6.748   3.358   1.907
  409SOL    HW1 2126   6.789   3.269   1.885
  409SOL    HW2 2127   6.777   3.385   1.999
  410SOL     OW 2128   1.422   2.248   1.130
  410SOL    HW1 2129   1.385   2.156   1.142
  410SOL    HW2 2130   1.376   2.311   1.192
  411SOL     OW 2131   6.328   0.866   1.497
  411SOL    HW1 2132   6.228   0.858   1.504
  411SOL    HW2 2133   6.354   0.858   1.401
  412SOL     OW 2134   3.554   4.913   2.999
  412SOL    HW1 2135   3.475   4.921   2.938
  412SOL    HW2 2136   3.638   4.924   2.947
  413SOL     OW 2137   4.561   4.391   1.415
  413SOL    HW1 2138   4.660   4.394   1.426
  413SOL    HW2 2139   4.522   4.327   1.482
  414SOL     OW 2140   3.739   0.343   3.968
  414SOL    HW1 2141   3.835   0.373   3.973
  414SOL    HW2 2142   3.734   0.245   3.991
  415SOL     OW 2143   0.570   0.605   0.020
  415SOL    HW1 2144   0.630   0.533   7.016
  415SOL    HW2 2145   0.544   0.585   0.115
  416SOL     OW 2146   5.088   5.217   4.893
  416SOL    HW1 2147   5.089   5.119   4.911
  416SOL    HW2 2148   5.124   5.267   4.972
  417SOL     OW 2149   1.959   1.285   6.653
  417SOL    HW1 2150   2.056   1.307   6.658
  417SOL    HW2 2151   1.909   1.362   6.612
  418SOL     OW 2152   2.558   6.721   5.590
  418SOL    HW1 2153   2.566   6.622   5.601
  418SOL    HW2 2154   2.649   6.761   5.583
  419SOL     OW 2155   0.504   6.707   3.518
  419SOL    HW1 2156   0.462   6.618   3.498
  419SOL    HW2 2157   0.460   6.747   3.598
  420SOL     OW 2158   5.456   1.190   6.084
  420SOL    HW1 2159   5.525   1.164   6.152
  420SOL    HW2 2160   5.502   1.230   6.004
  421SOL     OW 2161   5.859   3.804   5.237
  421SOL    HW1 2162   5.927   3.837   5.171
  421SOL    HW2 2163   5.767   3.822   5.202
  422SOL     OW 2164   5.197   2.912   0.487
  422SOL    HW1 2165   5.214   2.815   0.505
  422SOL    HW2 2166   5.109   2.938   0.526
  423SOL     OW 2167   2.738   1.316   7.003
  423SOL    HW1 2168   2.693   1.404   6.985
  423SOL    HW2 2169   2.837   1.327   6.994
  424SOL     OW 2170   2.099   4.921   2.871
  424SOL    HW1 2171   2.100   4.821   2.868
  424SOL    HW2 2172   2.119   4.952   2.964
  425SOL     OW 2173   5.065   1.105   4.649
  425SOL    HW1 2174   5.146   1.108   4.708
  425SOL    HW2 2175   5.078   1.036   4.578
  426SOL     OW 2176   2.094   3.000   5.038
  426SOL    HW1 2177   2.189   2.986   5.011
  426SOL    HW2 2178   2.033   2.962   4.968
  427SOL     OW 2179   5.292   0.541   3.543
  427SOL    HW1 2180   5.390   0.526   3.558
  427SOL    HW2 2181   5.274   0.547   3.445
  428SOL     OW 2182   3.168   0.542   3.079
  428SOL    HW1 2183   3.126   0.463   3.124
  428SOL    HW2 2184   3.117   0.625   3.102
  429SOL     OW 2185   0.723   5.275   4.294
  429SOL    HW1 2186   0.668   5.286   4.377
  429SOL    HW2 2187   0.724   5.179   4.267
  430SOL     OW 2188   1.659   6.652   3.536
  430SOL    HW1 2189   1.712   6.706   3.471
  430SOL    HW2 2190   1.572   6.626   3.495
  431SOL     OW 2191   2.393   2.275   0.618
  431SOL    HW1 2192   2.403   2.186   0.661
  431SOL    HW2 2193   2.478   2.327   0.626
  432SOL     OW 2194   6.252   1.965   0.643
  432SOL    HW1 2195   6.257   1.976   0.544
  432SOL    HW2 2196   6.208   1.878   0.666
  433SOL     OW 2197   3.072   6.101   5.603
  433SOL    HW1 2198   3.098   6.161   5.527
  433SOL    HW2 2199   3.079   6.152   5.689
  434SOL     OW 2200   4.105   5.821   4.131
  434SOL    HW1 2201   4.151   5.855   4.049
  434SOL    HW2 2202   4.162   5.840   4.211
  435SOL     OW 2203   3.980   1.626   5.353
  435SOL    HW1 2204   3.885   1.617   5.383
  435SOL    HW2 2205   3.991   1.584   5.263
  436SOL     OW 2206   3.432   6.093   2.711
  436SOL    HW1 2207   3.461   6.086   2.616
  436SOL    HW2 2208   3.493   6.157   2.759
  437SOL     OW 2209   0.030   1.151   5.422
  437SOL    HW1 2210   0.107   1.142   5.360
  437SOL    HW2 2211   0.043   1.091   5.501
  438SOL     OW 2212   1.909   3.959   3.562
  438SOL    HW1 2213   1.856   3.944   3.645
  438SOL    HW2 2214   1.983   4.024   3.580
  439SOL     OW 2215   6.092   0.042   2.253
  439SOL    HW1 2216   6.036   0.122   2.275
  439SOL    HW2 2217   6.111   7.020   2.337
  440SOL     OW 2218   3.741   1.211   6.244
  440SOL    HW1 2219   3.674   1.153   6.292
  440SOL    HW2 2220   3.707   1.230   6.152
  441SOL     OW 2221   5.800   4.216   3.201
  441SOL    HW1 2222   5.839   4.127   3.177
  441SOL    HW2 2223   5.811   4.279   3.124
  442SOL     OW 2224   4.325   4.472   5.807
  442SOL    HW1 2225   4.314   4.374   5.796
  442SOL    HW2 2226   4.422   4.496   5.803
  443SOL     OW 2227   5.456   4.620   3.813
  443SOL    HW1 2228   5.410   4.681   3.878
  443SOL    HW2 2229   5.486   4.673   3.734
  444SOL     OW 2230   4.052   1.432   6.316
  444SOL    HW1 2231   3.984   1.441   6.389
  444SOL    HW2 2232   4.038   1.345   6.269
  445SOL     OW 2233   2.409   5.701   3.396
  445SOL    HW1 2234   2.458   5.674   3.479
  445SOL    HW2 2235   2.441   5.791   3.366
  446SOL     OW 2236   4.066   5.514   3.130
  446SOL    HW1 2237   4.126   5.496   3.052
  446SOL    HW2 2238   3.975   5.476   3.112
  447SOL     OW 2239   6.428   3.207   5.108
  447SOL    HW1 2240   6.345   3.261   5.097
  447SOL    HW2 2241   6.416   3.141   5.182
  448SOL     OW 2242   1.967   1.259   3.013
  448SOL    HW1 2243   1.942   1.163   3.000
  448SOL    HW2 2244   2.039   1.283   2.948
  449SOL     OW 2245   2.676   2.150   3.330
  449SOL    HW1 2246   2.706   2.239   3.365
  449SOL    HW2 2247   2.580   2.137   3.353
  450SOL     OW 2248   1.468   4.780   3.322
  450SOL    HW1 2249   1.439   4.857   3.379
  450SOL    HW2 2250   1.419   4.698   3.350
  451SOL     OW 2251   1.088   2.654   3.958
  451SOL    HW1 2252   1.081   2.569   3.907
  451SOL    HW2 2253   1.179   2.694   3.944
  452SOL     OW 2254   3.873   0.630   1.446
  452SOL    HW1 2255   3.907   0.661   1.357
  452SOL    HW2 2256   3.821   0.545   1.433
  453SOL     OW 2257   3.849   0.096   6.768
  453SOL    HW1 2258   3.871   0.012   6.819
  453SOL    HW2 2259   3.755   0.090   6.734
  454SOL     OW 2260   6.809   4.152   6.552
  454SOL    HW1 2261   6.907   4.140   6.535
  454SOL    HW2 2262   6.760   4.148   6.465
  455SOL     OW 2263   6.334   3.637   5.159
  455SOL    HW1 2264   6.289   3.571   5.219
  455SOL    HW2 2265   6.369   3.591   5.078
  456SOL     OW 2266   1.468   0.793   4.049
  456SOL    HW1 2267   1.488   0.891   4.043
  456SOL    HW2 2268   1.554   0.741   4.050
  457SOL     OW 2269   0.892   5.114   4.806
  457SOL    HW1 2270   0.799   5.149   4.818
  457SOL    HW2 2271   0.892   5.015   4.817
  458SOL     OW 2272   3.434   0.891   2.930
  458SOL    HW1 2273   3.496   0.961   2.965
  458SOL    HW2 2274   3.483   0.805   2.918
  459SOL     OW 2275   2.008   0.818   5.643
  459SOL    HW1 2276   2.099   0.835   5.680
  459SOL    HW2 2277   1.940   0.871   5.693
  460SOL     OW 2278   1.276   1.506   5.326
  460SOL    HW1 2279   1.369   1.472   5.315
  460SOL    HW2 2280   1.273   1.604   5.309
  461SOL     OW 2281   6.592   4.726   5.369
  461SOL    HW1 2282   6.668   4.745   5.307
  461SOL    HW2 2283   6.593   4.629   5.395
  462SOL     OW 2284   3.982   3.981   4.530
  462SOL    HW1 2285   3.894   4.023   4.555
  462SOL    HW2 2286   4.036   3.965   4.612
  463SOL     OW 2287   6.817   0.042   3.083
  463SOL    HW1 2288   6.755   7.002   3.044
  463SOL    HW2 2289   6.820   0.032   3.182
  464SOL     OW 2290   3.200   6.959   6.301
  464SOL    HW1 2291   3.300   6.968   6.302
  464SOL    HW2 2292   3.160   0.016   6.270
  465SOL     OW 2293   0.671   2.614   0.082
  465SOL    HW1 2294   0.587   2.616   0.027
  465SOL    HW2 2295   0.654   2.657   0.171
  466SOL     OW 2296   2.795   6.674   4.203
  466SOL    HW1 2297   2.849   6.652   4.283
  466SOL    HW2 2298   2.771   6.772   4.204
  467SOL     OW 2299   0.432   2.002   2.588
  467SOL    HW1 2300   0.524   1.990   2.550
  467SOL    HW2 2301   0.400   1.916   2.626
  468SOL     OW 2302   4.790   6.528   6.395
  468SOL    HW1 2303   4.815   6.621   6.368
  468SOL    HW2 2304   4.843   6.502   6.476
  469SOL     OW 2305   2.962   4.575   6.169
  469SOL    HW1 2306   2.964   4.534   6.078
  469SOL    HW2 2307   3.055   4.588   6.202
  470SOL     OW 2308   3.854   5.933   2.758
  470SOL    HW1 2309   3.870   5.935   2.659
  470SOL    HW2 2310   3.865   5.839   2.790
  471SOL     OW 2311   2.848   2.195   3.848
  471SOL    HW1 2312   2.936   2.150   3.861
  471SOL    HW2 2313   2.795   2.145   3.779
  472SOL     OW 2314   6.105   5.376   6.859
  472SOL    HW1 2315   6.203   5.367   6.877
  472SOL    HW2 2316   6.062   5.428   6.932
  473SOL     OW 2317   6.751   2.031   2.155
  473SOL    HW1 2318   6.664   1.992   2.185
  473SOL    HW2 2319   6.764   2.119   2.200
  474SOL     OW 2320   6.100   4.881   5.503
  474SOL    HW1 2321   6.055   4.817   5.565
  474SOL    HW2 2322   6.162   4.831   5.442
  475SOL     OW 2323   6.084   3.649   0.348
  475SOL    HW1 2324   6.176   3.652   0.386
  475SOL    HW2 2325   6.080   3.708   0.267
  476SOL     OW 2326   0.104   4.279   1.635
  476SOL    HW1 2327   0.094   4.248   1.540
  476SOL    HW2 2328   0.196   4.316   1.648
  477SOL     OW 2329   2.087   5.743   3.507
  477SOL    HW1 2330   2.050   5.725   3.598
  477SOL    HW2 2331   2.170   5.799   3.515
  478SOL     OW 2332   4.452   5.838   3.167
  478SOL    HW1 2333   4.490   5.746   3.171
  478SOL    HW2 2334   4.352   5.834   3.176
  479SOL     OW 2335   3.638   3.366   4.652
  479SOL    HW1 2336   3.589   3.280   4.670
  479SOL    HW2 2337   3.708   3.380   4.722
  480SOL     OW 2338   1.735   0.255   2.604
  480SOL    HW1 2339   1.698   0.211   2.522
  480SOL    HW2 2340   1.834   0.245   2.605
  481SOL     OW 2341   0.634   6.617   1.260
  481SOL    HW1 2342   0.577   6.697   1.276
  481SOL    HW2 2343   0.674   6.587   1.347
  482SOL     OW 2344   4.669   4.974   2.863
  482SOL    HW1 2345   4.693   5.030   2.784
  482SOL    HW2 2346   4.730   4.894   2.867
  483SOL     OW 2347   6.422   2.661   2.444
  483SOL    HW1 2348   6.481   2.706   2.377
  483SOL    HW2 2349   6.473   2.589   2.491
  484SOL     OW 2350   1.660   3.985   5.188
  484SOL    HW1 2351   1.749   3.984   5.144
  484SOL    HW2 2352   1.589   3.957   5.123
  485SOL     OW 2353   5.261   3.656   2.368
  485SOL    HW1 2354   5.284   3.752   2.353
  485SOL    HW2 2355   5.249   3.639   2.465
  486SOL     OW 2356   5.428   0.533   6.466
  486SOL    HW1 2357   5.517   0.489   6.460
  486SOL    HW2 2358   5.427   0.615   6.409
  487SOL     OW 2359   0.179   0.667   3.280
  487SOL    HW1 2360   0.251   0.673   3.211
  487SOL    HW2 2361   0.133   0.755   3.288
  488SOL     OW 2362   1.499   6.536   3.317
  488SOL    HW1 2363   1.457   6.450   3.346
  488SOL    HW2 2364   1.527   6.530   3.222
  489SOL     OW 2365   6.141   5.721   4.690
  489SOL    HW1 2366   6.145   5.812   4.730
  489SOL    HW2 2367   6.221   5.668   4.718
  490SOL     OW 2368   1.777   5.805   4.870
  490SOL    HW1 2369   1.695   5.782   4.817
  490SOL    HW2 2370   1.759   5.790   4.968
  491SOL     OW 2371   0.813   3.966   0.328
  491SOL    HW1 2372   0.730   3.962   0.384
  491SOL    HW2 2373   0.888   4.006   0.381
  492SOL     OW 2374   1.712   1.638   5.732
  492SOL    HW1 2375   1.730   1.590   5.818
  492SOL    HW2 2376   1.799   1.654   5.685
  493SOL     OW 2377   2.500   6.857   5.816
  493SOL    HW1 2378   2.520   6.805   5.732
  493SOL    HW2 2379   2.586   6.889   5.855
  494SOL     OW 2380   2.159   1.509   5.975
  494SOL    HW1 2381   2.204   1.549   6.055
  494SOL    HW2 2382   2.211   1.532   5.892
  495SOL     OW 2383   4.550   6.420   5.586
  495SOL    HW1 2384   4.597   6.361   5.521
  495SOL    HW2 2385   4.452   6.421   5.565
  496SOL     OW 2386   6.027   1.261   2.387
  496SOL    HW1 2387   5.965   1.239   2.462
  496SOL    HW2 2388   6.035   1.182   2.326
  497SOL     OW 2389   3.854   1.779   5.071
  497SOL    HW1 2390   3.756   1.791   5.089
  497SOL    HW2 2391   3.876   1.819   4.982
  498SOL     OW 2392   0.206   5.045   1.701
  498SOL    HW1 2393   0.273   4.989   1.653
  498SOL    HW2 2394   0.253   5.115   1.755
  499SOL     OW 2395   2.724   5.692   5.507
  499SOL    HW1 2396   2.788   5.761   5.541
  499SOL    HW2 2397   2.715   5.619   5.575
  500SOL     OW 2398   5.092   3.239   5.732
  500SOL    HW1 2399   5.179   3.280   5.757
  500SOL    HW2 2400   5.089   3.227   5.632
  501SOL     OW 2401   2.609   6.862   2.372
  501SOL    HW1 2402   2.570   6.800   2.304
  501SOL    HW2 2403   2.622   6.952   2.331
  502SOL     OW 2404   1.398   4.581   6.492
  502SOL    HW1 2405   1.355   4.504   6.446
  502SOL    HW2 2406   1.410   4.656   6.428
  503SOL     OW 2407   2.380   5.217   6.237
  503SOL    HW1 2408   2.381   5.118   6.253
  503SOL    HW2 2409   2.396   5.235   6.140
  504SOL     OW 2410   0.168   5.636   2.699
  504SOL    HW1 2411   0.225   5.649   2.617
  504SOL    HW2 2412   0.108   5.557   2.685
  505SOL     OW 2413   3.936   0.081   5.261
  505SOL    HW1 2414   4.009   0.016   5.282
  505SOL    HW2 2415   3.949   0.165   5.313
  506SOL     OW 2416   3.214   5.483   2.554
  506SOL    HW1 2417   3.165   5.542   2.491
  506SOL    HW2 2418   3.170   5.486   2.644
  507SOL     OW 2419   4.295   1.232   2.278
  507SOL    HW1 2420   4.361   1.274   2.215
  507SOL    HW2 2421   4.202   1.255   2.249
  508SOL     OW 2422   6.853   2.257   3.614
  508SOL    HW1 2423   6.947   2.225   3.627
  508SOL    HW2 2424   6.811   2.206   3.539
  509SOL     OW 2425   4.625   0.666   6.895
  509SOL    HW1 2426   4.596   0.762   6.897
  509SOL    HW2 2427   4.686   0.652   6.817
  510SOL     OW 2428   6.876   4.712   5.647
  510SOL    HW1 2429   6.953   4.721   5.710
  510SOL    HW2 2430   6.830   4.625   5.663
  511SOL     OW 2431   1.466   2.074   6.387
  511SOL    HW1 2432   1.446   1.977   6.404
  511SOL    HW2 2433   1.541   2.104   6.447
  512SOL     OW 2434   6.244   2.423   6.849
  512SOL    HW1 2435   6.168   2.360   6.863
  512SOL    HW2 2436   6.330   2.377   6.870
  513SOL     OW 2437   5.705   6.342   2.623
  513SOL    HW1 2438   5.686   6.394   2.540
  513SOL    HW2 2439   5.621   6.300   2.657
  514SOL     OW 2440   0.517   6.893   3.780
  514SOL    HW1 2441   0.446   6.823   3.778
  514SOL    HW2 2442   0.607   6.850   3.785
  515SOL     OW 2443   2.246   0.669   6.131
  515SOL    HW1 2444   2.270   0.585   6.180
  515SOL    HW2 2445   2.330   0.715   6.103
  516SOL     OW 2446   2.400   4.329   1.939
  516SOL    HW1 2447   2.451   4.415   1.936
  516SOL    HW2 2448   2.383   4.304   2.034
  517SOL     OW 2449   3.765   5.028   2.388
  517SOL    HW1 2450   3.678   5.013   2.435
  517SOL    HW2 2451   3.755   5.003   2.291
  518SOL     OW 2452   2.500   2.501   3.904
  518SOL    HW1 2453   2.557   2.451   3.969
  518SOL    HW2 2454   2.405   2.471   3.912
  519SOL     OW 2455   0.115   6.681   3.904
  519SOL    HW1 2456   0.100   6.779   3.920
  519SOL    HW2 2457   0.026   6.635   3.896
  520SOL     OW 2458   0.671   4.166   6.798
  520SOL    HW1 2459   0.765   4.134   6.807
  520SOL    HW2 2460   0.659   4.205   6.707
  521SOL     OW 2461   4.592   5.612   4.387
  521SOL    HW1 2462   4.518   5.570   4.438
  521SOL    HW2 2463   4.661   5.543   4.364
  522SOL     OW 2464   3.784   3.887   1.431
  522SOL    HW1 2465   3.725   3.900   1.351
  522SOL    HW2 2466   3.731   3.903   1.514
  523SOL     OW 2467   0.225   6.304   1.743
  523SOL    HW1 2468   0.136   6.261   1.729
  523SOL    HW2 2469   0.280   6.296   1.660
  524SOL     OW 2470   0.897   3.364   2.530
  524SOL    HW1 2471   0.862   3.457   2.531
  524SOL    HW2 2472   0.917   3.336   2.436
  525SOL     OW 2473   1.897   3.460   6.860
  525SOL    HW1 2474   1.952   3.425   6.935
  525SOL    HW2 2475   1.865   3.384   6.803
  526SOL     OW 2476   2.653   0.051   4.384
  526SOL    HW1 2477   2.556   0.057   4.358
  526SOL    HW2 2478   2.701   7.021   4.318
  527SOL     OW 2479   0.393   2.508   0.273
  527SOL    HW1 2480   0.424   2.602   0.264
  527SOL    HW2 2481   0.307   2.496   0.223
  528SOL     OW 2482   1.072   2.809   3.723
  528SOL    HW1 2483   1.043   2.749   3.797
  528SOL    HW2 2484   1.040   2.771   3.636
  529SOL     OW 2485   2.141   0.629   5.491
  529SOL    HW1 2486   2.120   0.533   5.512
  529SOL    HW2 2487   2.072   0.688   5.533
  530SOL     OW 2488   3.690   2.966   2.643
  530SOL    HW1 2489   3.780   2.978   2.685
  530SOL    HW2 2490   3.632   3.044   2.664
  531SOL     OW 2491   1.589   0.573   2.799
  531SOL    HW1 2492   1.665   0.617   2.750
  531SOL    HW2 2493   1.626   0.507   2.865
  532SOL     OW 2494   1.332   3.825   0.690
  532SOL    HW1 2495   1.378   3.745   0.728
  532SOL    HW2 2496   1.386   3.907   0.710
  533SOL     OW 2497   5.094   6.778   3.800
  533SOL    HW1 2498   5.075   6.832   3.883
  533SOL    HW2 2499   5.166   6.823   3.748
  534SOL     OW 2500   6.974   6.170   1.768
  534SOL    HW1 2501   7.013   6.145   1.856
  534SOL    HW2 2502   6.892   6.115   1.751
  535SOL     OW 2503   6.942   4.356   3.153
  535SOL    HW1 2504   6.885   4.412   3.093
  535SOL    HW2 2505   7.024   4.326   3.104
  536SOL     OW 2506   6.293   5.491   2.885
  536SOL    HW1 2507   6.217   5.556   2.898
  536SOL    HW2 2508   6.380   5.540   2.888
  537SOL     OW 2509   3.537   0.079   4.236
  537SOL    HW1 2510   3.518   0.006   4.171
  537SOL    HW2 2511   3.481   0.066   4.318
  538SOL     OW 2512   0.899   4.827   4.895
  538SOL    HW1 2513   0.819   4.767   4.884
  538SOL    HW2 2514   0.980   4.781   4.860
  539SOL     OW 2515   1.859   5.958   1.931
  539SOL    HW1 2516   1.780   5.913   1.890
  539SOL    HW2 2517   1.872   5.925   2.024
  540SOL     OW 2518   2.278   0.862   3.984
  540SOL    HW1 2519   2.182   0.835   3.976
  540SOL    HW2 2520   2.302   0.922   3.908
  541SOL     OW 2521   4.806   6.039   3.565
  541SOL    HW1 2522   4.734   6.012   3.500
  541SOL    HW2 2523   4.825   6.137   3.555
  542SOL     OW 2524   3.369   6.372   6.519
  542SOL    HW1 2525   3.360   6.310   6.597
  542SOL    HW2 2526   3.399   6.320   6.439
  543SOL     OW 2527   5.453   3.545   3.899
  543SOL    HW1 2528   5.440   3.465   3.842
  543SOL    HW2 2529   5.396   3.620   3.865
  544SOL     OW 2530   0.390   5.168   0.735
  544SOL    HW1 2531   0.374   5.253   0.785
  544SOL    HW2 2532   0.444   5.187   0.653
  545SOL     OW 2533   4.408   1.484   0.998
  545SOL    HW1 2534   4.359   1.519   0.919
  545SOL    HW2 2535   4.398   1.384   1.003
  546SOL     OW 2536   0.889   3.595   1.842
  546SOL    HW1 2537   0.935   3.681   1.820
  546SOL    HW2 2538   0.900   3.531   1.765
  547SOL     OW 2539   3.009   2.972   0.973
  547SOL    HW1 2540   3.004   2.948   1.070
  547SOL    HW2 2541   3.077   2.913   0.928
  548SOL     OW 2542   3.528   3.797   1.032
  548SOL    HW1 2543   3.505   3.710   0.989
  548SOL    HW2 2544   3.586   3.781   1.111
  549SOL     OW 2545   5.424   2.777   1.758
  549SOL    HW1 2546   5.517   2.812   1.747
  549SOL    HW2 2547   5.425   2.703   1.826
  550SOL     OW 2548   0.482   5.233   3.154
  550SOL    HW1 2549   0.566   5.280   3.130
  550SOL    HW2 2550   0.411   5.300   3.175
  551SOL     OW 2551   6.944   0.348   1.618
  551SOL    HW1 2552   6.900   0.437   1.631
  551SOL    HW2 2553   6.928   0.291   1.699
  552SOL     OW 2554   5.278   4.696   4.954
  552SOL    HW1 2555   5.207   4.628   4.971
  552SOL    HW2 2556   5.260   4.743   4.868
  553SOL     OW 2557   3.360   6.808   3.814
  553SOL    HW1 2558   3.378   6.904   3.796
  553SOL    HW2 2559   3.415   6.752   3.752
  554SOL     OW 2560   5.863   6.011   0.326
  554SOL    HW1 2561   5.947   5.986   0.279
  554SOL    HW2 2562   5.817   6.085   0.276
  555SOL     OW 2563   2.928   5.053   5.423
  555SOL    HW1 2564   2.917   4.956   5.444
  555SOL    HW2 2565   2.873   5.075   5.342
  556SOL     OW 2566   5.216   1.291   4.157
  556SOL    HW1 2567   5.286   1.318   4.091
  556SOL    HW2 2568   5.170   1.209   4.124
  557SOL     OW 2569   0.263   5.097   6.052
  557SOL    HW1 2570   0.339   5.061   5.997
  557SOL    HW2 2571   0.251   5.041   6.134
  558SOL     OW 2572   3.556   2.916   4.623
  558SOL    HW1 2573   3.461   2.937   4.597
  558SOL    HW2 2574   3.566   2.923   4.722
  559SOL     OW 2575   6.957   5.861   5.666
  559SOL    HW1 2576   6.886   5.931   5.675
  559SOL    HW2 2577   6.929   5.793   5.599
  560SOL     OW 2578   6.332   3.766   3.159
  560SOL    HW1 2579   6.390   3.833   3.206
  560SOL    HW2 2580   6.382   3.680   3.148
  561SOL     OW 2581   0.248   2.441   0.043
  561SOL    HW1 2582   0.178   2.510   0.058
  561SOL    HW2 2583   0.206   2.355   0.014
  562SOL     OW 2584   4.400   1.049   6.316
  562SOL    HW1 2585   4.318   1.070   6.263
  562SOL    HW2 2586   4.413   1.119   6.386
  563SOL     OW 2587   2.644   1.724   3.269
  563SOL    HW1 2588   2.722   1.669   3.239
  563SOL    HW2 2589   2.576   1.665   3.314
  564SOL     OW 2590   0.795   2.360   0.110
  564SOL    HW1 2591   0.738   2.442   0.104
  564SOL    HW2 2592   0.740   2.279   0.091
  565SOL     OW 2593   2.950   3.661   3.298
  565SOL    HW1 2594   2.996   3.573   3.291
  565SOL    HW2 2595   2.854   3.652   3.269
  566SOL     OW 2596   1.886   3.633   3.509
  566SOL    HW1 2597   1.833   3.626   3.424
  566SOL    HW2 2598   1.960   3.565   3.508
  567SOL     OW 2599   2.980   2.881   1.467
  567SOL    HW1 2600   2.988   2.808   1.534
  567SOL    HW2 2601   3.056   2.945   1.478
  568SOL     OW 2602   5.099   0.052   7.003
  568SOL    HW1 2603   5.157   7.000   6.999
  568SOL    HW2 2604   5.155   0.134   6.993
  569SOL     OW 2605   0.684   2.533   0.858
  569SOL    HW1 2606   0.642   2.613   0.815
  569SOL    HW2 2607   0.778   2.522   0.824
  570SOL     OW 2608   3.461   0.521   6.673
  570SOL    HW1 2609   3.481   0.557   6.582
  570SOL    HW2 2610   3.365   0.491   6.677
  571SOL     OW 2611   2.724   4.944   4.057
  571SOL    HW1 2612   2.777   4.945   3.972
  571SOL    HW2 2613   2.756   4.870   4.116
  572SOL     OW 2614   1.653   5.014   5.266
  572SOL    HW1 2615   1.571   5.041   5.317
  572SOL    HW2 2616   1.664   5.074   5.187
  573SOL     OW 2617   6.130   1.157   5.513
  573SOL    HW1 2618   6.168   1.134   5.423
  573SOL    HW2 2619   6.059   1.091   5.537
  574SOL     OW 2620   3.602   0.331   5.357
  574SOL    HW1 2621   3.622   0.423   5.391
  574SOL    HW2 2622   3.603   0.266   5.434
  575SOL     OW 2623   4.244   2.700   1.414
  575SOL    HW1 2624   4.241   2.605   1.445
  575SOL    HW2 2625   4.193   2.758   1.477
  576SOL     OW 2626   1.396   3.240   2.967
  576SOL    HW1 2627   1.298   3.226   2.982
  576SOL    HW2 2628   1.445   3.225   3.053
  577SOL     OW 2629   1.469   0.999   2.038
  577SOL    HW1 2630   1.483   0.943   1.957
  577SOL    HW2 2631   1.545   1.064   2.047
  578SOL     OW 2632   0.769   5.162   5.298
  578SOL    HW1 2633   0.829   5.120   5.230
  578SOL    HW2 2634   0.727   5.091   5.354
  579SOL     OW 2635   1.686   4.628   3.159
  579SOL    HW1 2636   1.690   4.531   3.135
  579SOL    HW2 2637   1.611   4.643   3.224
  580SOL     OW 2638   3.770   5.087   5.472
  580SOL    HW1 2639   3.767   5.022   5.397
  580SOL    HW2 2640   3.851   5.070   5.528
  581SOL     OW 2641   2.141   3.416   2.770
  581SOL    HW1 2642   2.176   3.345   2.832
  581SOL    HW2 2643   2.167   3.506   2.805
  582SOL     OW 2644   4.634   5.988   3.042
  582SOL    HW1 2645   4.574   6.035   2.978
  582SOL    HW2 2646   4.580   5.928   3.101
  583SOL     OW 2647   2.754   5.961   5.324
  583SOL    HW1 2648   2.823   5.910   5.376
  583SOL    HW2 2649   2.739   5.915   5.236
  584SOL     OW 2650   3.190   0.205   6.514
  584SOL    HW1 2651   3.160   0.193   6.419
  584SOL    HW2 2652   3.136   0.146   6.573
  585SOL     OW 2653   4.556   1.390   0.527
  585SOL    HW1 2654   4.475   1.418   0.579
  585SOL    HW2 2655   4.576   1.459   0.457
  586SOL     OW 2656   3.692   0.392   0.792
  586SOL    HW1 2657   3.641   0.330   0.731
  586SOL    HW2 2658   3.660   0.380   0.886
  587SOL     OW 2659   4.831   2.620   2.749
  587SOL    HW1 2660   4.843   2.550   2.819
  587SOL    HW2 2661   4.875   2.591   2.664
  588SOL     OW 2662   2.145   5.389   1.164
  588SOL    HW1 2663   2.195   5.319   1.216
  588SOL    HW2 2664   2.083   5.344   1.100
  589SOL     OW 2665   3.809   5.782   1.556
  589SOL    HW1 2666   3.892   5.838   1.552
  589SOL    HW2 2667   3.797   5.748   1.649
  590SOL     OW 2668   5.659   1.419   1.129
  590SOL    HW1 2669   5.699   1.452   1.214
  590SOL    HW2 2670   5.638   1.497   1.070
  591SOL     OW 2671   3.810   6.150   3.888
  591SOL    HW1 2672   3.740   6.170   3.820
  591SOL    HW2 2673   3.899   6.140   3.843
  592SOL     OW 2674   4.430   0.745   2.335
  592SOL    HW1 2675   4.502   0.766   2.269
  592SOL    HW2 2676   4.421   0.646   2.344
  593SOL     OW 2677   4.650   1.661   4.279
  593SOL    HW1 2678   4.732   1.604   4.266
  593SOL    HW2 2679   4.645   1.729   4.206
  594SOL     OW 2680   6.259   0.480   1.108
  594SOL    HW1 2681   6.216   0.413   1.047
  594SOL    HW2 2682   6.189   0.525   1.163
  595SOL     OW 2683   5.492   6.557   3.723
  595SOL    HW1 2684   5.394   6.542   3.739
  595SOL    HW2 2685   5.504   6.639   3.666
  596SOL     OW 2686   0.613   5.011   3.095
  596SOL    HW1 2687   0.555   4.950   3.042
  596SOL    HW2 2688   0.564   5.095   3.116
  597SOL     OW 2689   2.587   6.410   6.572
  597SOL    HW1 2690   2.510   6.384   6.513
  597SOL    HW2 2691   2.625   6.497   6.540
  598SOL     OW 2692   3.805   4.151   4.672
  598SOL    HW1 2693   3.737   4.203   4.621
  598SOL    HW2 2694   3.867   4.213   4.720
  599SOL     OW 2695   2.338   5.504   3.218
  599SOL    HW1 2696   2.351   5.588   3.271
  599SOL    HW2 2697   2.358   5.522   3.122
  600SOL     OW 2698   6.310   2.848   6.313
  600SOL    HW1 2699   6.279   2.922   6.373
  600SOL    HW2 2700   6.317   2.881   6.220
  601SOL     OW 2701   1.269   1.227   4.184
  601SOL    HW1 2702   1.200   1.254   4.251
  601SOL    HW2 2703   1.291   1.305   4.126
  602SOL     OW 2704   2.474   0.821   6.113
  602SOL    HW1 2705   2.553   0.763   6.134
  602SOL    HW2 2706   2.483   0.908   6.160
  603SOL     OW 2707   2.678   2.522   5.213
  603SOL    HW1 2708   2.685   2.620   5.236
  603SOL    HW2 2709   2.765   2.478   5.232
  604SOL     OW 2710   1.353   1.991   1.175
  604SOL    HW1 2711   1.403   1.947   1.249
  604SOL    HW2 2712   1.269   1.940   1.156
  605SOL     OW 2713   6.220   4.658   1.603
  605SOL    HW1 2714   6.293   4.685   1.540
  605SOL    HW2 2715   6.258   4.598   1.674
  606SOL     OW 2716   4.913   6.510   5.386
  606SOL    HW1 2717   4.968   6.578   5.336
  606SOL    HW2 2718   4.867   6.450   5.321
  607SOL     OW 2719   6.908   4.956   4.808
  607SOL    HW1 2720   6.910   4.887   4.735
  607SOL    HW2 2721   6.967   4.927   4.883
  608SOL     OW 2722   3.785   6.331   6.799
  608SOL    HW1 2723   3.742   6.415   6.833
  608SOL    HW2 2724   3.728   6.253   6.824
  609SOL     OW 2725   3.956   3.050   2.133
  609SOL    HW1 2726   3.996   3.130   2.087
  609SOL    HW2 2727   4.007   3.031   2.217
  610SOL     OW 2728   5.687   3.190   0.109
  610SOL    HW1 2729   5.608   3.219   0.054
  610SOL    HW2 2730   5.664   3.106   0.158
  611SOL     OW 2731   4.425   0.217   1.895
  611SOL    HW1 2732   4.343   0.266   1.923
  611SOL    HW2 2733   4.412   0.119   1.908
  612SOL     OW 2734   3.401   5.732   4.735
  612SOL    HW1 2735   3.307   5.699   4.726
  612SOL    HW2 2736   3.415   5.769   4.827
  613SOL     OW 2737   4.939   4.306   5.159
  613SOL    HW1 2738   4.926   4.319   5.257
  613SOL    HW2 2739   4.928   4.209   5.136
  614SOL     OW 2740   5.169   5.040   5.635
  614SOL    HW1 2741   5.093   5.102   5.657
  614SOL    HW2 2742   5.255   5.090   5.639
  615SOL     OW 2743   6.728   2.437   1.242
  615SOL    HW1 2744   6.638   2.431   1.199
  615SOL    HW2 2745   6.725   2.392   1.332
  616SOL     OW 2746   6.725   2.216   2.841
  616SOL    HW1 2747   6.807   2.236   2.895
  616SOL    HW2 2748   6.645   2.257   2.886
  617SOL     OW 2749   0.757   4.685   5.517
  617SOL    HW1 2750   0.831   4.674   5.584
  617SOL    HW2 2751   0.706   4.600   5.510
  618SOL     OW 2752   1.285   2.387   0.584
  618SOL    HW1 2753   1.234   2.412   0.502
  618SOL    HW2 2754   1.323   2.295   0.574
  619SOL     OW 2755   2.828   1.865   0.940
  619SOL    HW1 2756   2.779   1.780   0.961
  619SOL    HW2 2757   2.771   1.922   0.879
  620SOL     OW 2758   4.597   2.508   6.975
  620SOL    HW1 2759   4.624   2.593   7.019
  620SOL    HW2 2760   4.500   2.511   6.952
  621SOL     OW 2761   3.458   5.624   6.910
  621SOL    HW1 2762   3.546   5.670   6.912
  621SOL    HW2 2763   3.404   5.652   6.990
  622SOL     OW 2764   1.040   0.677   6.715
  622SOL    HW1 2765   1.105   0.616   6.759
  622SOL    HW2 2766   1.056   0.679   6.616
  623SOL     OW 2767   0.857   6.361   6.136
  623SOL    HW1 2768   0.917   6.341   6.058
  623SOL    HW2 2769   0.796   6.436   6.112
  624SOL     OW 2770   0.522   2.669   1.260
  624SOL    HW1 2771   0.487   2.737   1.324
  624SOL    HW2 2772   0.495   2.577   1.289
  625SOL     OW 2773   2.492   2.412   0.995
  625SOL    HW1 2774   2.459   2.468   1.071
  625SOL    HW2 2775   2.587   2.436   0.974
  626SOL     OW 2776   2.712   5.891   3.513
  626SOL    HW1 2777   2.687   5.801   3.551
  626SOL    HW2 2778   2.665   5.963   3.564
  627SOL     OW 2779   5.389   0.596   0.741
  627SOL    HW1 2780   5.451   0.560   0.672
  627SOL    HW2 2781   5.421   0.686   0.771
  628SOL     OW 2782   5.459   4.909   5.755
  628SOL    HW1 2783   5.443   4.997   5.711
  628SOL    HW2 2784   5.458   4.836   5.687
  629SOL     OW 2785   6.819   6.379   1.046
  629SOL    HW1 2786   6.795   6.439   1.122
  629SOL    HW2 2787   6.831   6.286   1.080
  630SOL     OW 2788   5.901   1.466   2.701
  630SOL    HW1 2789   5.842   1.440   2.624
  630SOL    HW2 2790   5.857   1.540   2.752
  631SOL     OW 2791   3.821   6.588   4.889
  631SOL    HW1 2792   3.851   6.683   4.899
  631SOL    HW2 2793   3.725   6.585   4.860
  632SOL     OW 2794   2.678   2.054   0.810
  632SOL    HW1 2795   2.580   2.040   0.822
  632SOL    HW2 2796   2.699   2.152   0.815
  633SOL     OW 2797   4.196   5.107   0.235
  633SOL    HW1 2798   4.151   5.182   0.283
  633SOL    HW2 2799   4.292   5.102   0.264
  634SOL     OW 2800   4.931   4.508   1.721
  634SOL    HW1 2801   5.003   4.437   1.719
  634SOL    HW2 2802   4.866   4.487   1.793
  635SOL     OW 2803   4.229   5.954   2.500
  635SOL    HW1 2804   4.279   6.039   2.509
  635SOL    HW2 2805   4.230   5.923   2.405
  636SOL     OW 2806   4.896   6.149   6.474
  636SOL    HW1 2807   4.824   6.131   6.407
  636SOL    HW2 2808   4.911   6.247   6.481
  637SOL     OW 2809   6.049   3.930   1.806
  637SOL    HW1 2810   6.077   3.989   1.731
  637SOL    HW2 2811   6.106   3.948   1.886
  638SOL     OW 2812   5.018   1.734   2.169
  638SOL    HW1 2813   4.932   1.683   2.160
  638SOL    HW2 2814   5.057   1.749   2.078
  639SOL     OW 2815   5.278   3.971   2.320
  639SOL    HW1 2816   5.298   4.028   2.400
  639SOL    HW2 2817   5.356   3.971   2.258
  640SOL     OW 2818   1.216   4.935   5.046
  640SOL    HW1 2819   1.206   4.907   5.141
  640SOL    HW2 2820   1.254   5.028   5.043
  641SOL     OW 2821   0.284   5.674   4.531
  641SOL    HW1 2822   0.302   5.696   4.626
  641SOL    HW2 2823   0.194   5.710   4.504
  642SOL     OW 2824   6.780   3.889   3.983
  642SOL    HW1 2825   6.737   3.945   3.913
  642SOL    HW2 2826   6.856   3.838   3.944
  643SOL     OW 2827   5.861   4.534   5.384
  643SOL    HW1 2828   5.784   4.568   5.439
  643SOL    HW2 2829   5.838   4.543   5.287
  644SOL     OW 2830   1.274   6.030   3.223
  644SOL    HW1 2831   1.281   6.053   3.126
  644SOL    HW2 2832   1.178   6.035   3.251
  645SOL     OW 2833   5.241   2.157   4.629
  645SOL    HW1 2834   5.241   2.240   4.573
  645SOL    HW2 2835   5.212   2.079   4.574
  646SOL     OW 2836   2.950   1.745   3.362
  646SOL    HW1 2837   2.893   1.812   3.409
  646SOL    HW2 2838   2.897   1.662   3.345
  647SOL     OW 2839   5.656   2.858   6.203
  647SOL    HW1 2840   5.563   2.876   6.169
  647SOL    HW2 2841   5.720   2.860   6.126
  648SOL     OW 2842   0.228   3.777   2.832
  648SOL    HW1 2843   0.158   3.813   2.894
  648SOL    HW2 2844   0.233   3.678   2.842
  649SOL     OW 2845   4.203   4.018   0.669
  649SOL    HW1 2846   4.197   4.099   0.611
  649SOL    HW2 2847   4.159   4.036   0.757
  650SOL     OW 2848   5.400   4.065   0.686
  650SOL    HW1 2849   5.391   3.988   0.749
  650SOL    HW2 2850   5.482   4.053   0.629
  651SOL     OW 2851   0.229   6.500   6.599
  651SOL    HW1 2852   0.177   6.533   6.678
  651SOL    HW2 2853   0.213   6.560   6.521
  652SOL     OW 2854   5.548   6.032   3.422
  652SOL    HW1 2855   5.538   6.108   3.487
  652SOL    HW2 2856   5.463   5.980   3.418
  653SOL     OW 2857   3.770   5.677   5.110
  653SOL    HW1 2858   3.711   5.746   5.068
  653SOL    HW2 2859   3.724   5.589   5.110
  654SOL     OW 2860   0.189   4.286   5.951
  654SOL    HW1 2861   0.107   4.300   6.007
  654SOL    HW2 2862   0.257   4.234   6.003
  655SOL     OW 2863   0.569   6.962   2.326
  655SOL    HW1 2864   0.597   0.009   2.385
  655SOL    HW2 2865   0.628   6.959   2.245
  656SOL     OW 2866   1.813   5.713   1.412
  656SOL    HW1 2867   1.751   5.788   1.435
  656SOL    HW2 2868   1.815   5.701   1.312
  657SOL     OW 2869   2.105   2.156   1.623
  657SOL    HW1 2870   2.105   2.247   1.666
  657SOL    HW2 2871   2.108   2.086   1.694
  658SOL     OW 2872   2.894   3.757   6.159
  658SOL    HW1 2873   2.891   3.723   6.253
  658SOL    HW2 2874   2.929   3.685   6.099
  659SOL     OW 2875   2.733   6.626   6.500
  659SOL    HW1 2876   2.745   6.717   6.539
  659SOL    HW2 2877   2.815   6.600   6.450
  660SOL     OW 2878   4.921   4.097   1.751
  660SOL    HW1 2879   4.975   4.013   1.757
  660SOL    HW2 2880   4.981   4.174   1.732
  661SOL     OW 2881   4.597   6.226   3.854
  661SOL    HW1 2882   4.696   6.222   3.860
  661SOL    HW2 2883   4.563   6.150   3.799
  662SOL     OW 2884   4.013   0.908   5.167
  662SOL    HW1 2885   4.043   0.996   5.129
  662SOL    HW2 2886   4.092   0.854   5.194
  663SOL     OW 2887   2.249   3.352   6.132
  663SOL    HW1 2888   2.153   3.324   6.126
  663SOL    HW2 2889   2.301   3.309   6.058
  664SOL     OW 2890   0.483   6.534   6.266
  664SOL    HW1 2891   0.415   6.466   6.295
  664SOL    HW2 2892   0.535   6.564   6.346
  665SOL     OW 2893   4.357   5.626   1.951
  665SOL    HW1 2894   4.263   5.614   1.922
  665SOL    HW2 2895   4.403   5.537   1.955
  666SOL     OW 2896   5.157   1.160   1.777
  666SOL    HW1 2897   5.248   1.131   1.805
  666SOL    HW2 2898   5.119   1.095   1.712
  667SOL     OW 2899   1.348   5.510   2.529
  667SOL    HW1 2900   1.369   5.413   2.535
  667SOL    HW2 2901   1.306   5.541   2.614
  668SOL     OW 2902   4.726   6.380   6.132
  668SOL    HW1 2903   4.815   6.350   6.097
  668SOL    HW2 2904   4.740   6.430   6.217
  669SOL     OW 2905   5.127   0.414   3.332
  669SOL    HW1 2906   5.108   0.383   3.425
  669SOL    HW2 2907   5.193   0.351   3.289
  670SOL     OW 2908   2.911   2.227   1.720
  670SOL    HW1 2909   2.871   2.267   1.637
  670SOL    HW2 2910   2.918   2.297   1.791
  671SOL     OW 2911   3.405   6.205   0.964
  671SOL    HW1 2912   3.343   6.127   0.956
  671SOL    HW2 2913   3.498   6.175   0.942
  672SOL     OW 2914   6.489   5.462   1.649
  672SOL    HW1 2915   6.436   5.405   1.586
  672SOL    HW2 2916   6.438   5.546   1.669
  673SOL     OW 2917   6.448   0.197   0.820
  673SOL    HW1 2918   6.355   0.166   0.841
  673SOL    HW2 2919   6.447   0.257   0.740
  674SOL     OW 2920   0.631   1.428   4.909
  674SOL    HW1 2921   0.622   1.331   4.883
  674SOL    HW2 2922   0.543   1.474   4.893
  675SOL     OW 2923   6.321   2.264   2.362
  675SOL    HW1 2924   6.374   2.206   2.424
  675SOL    HW2 2925   6.288   2.344   2.411
  676SOL     OW 2926   3.036   5.373   3.598
  676SOL    HW1 2927   3.034   5.274   3.584
  676SOL    HW2 2928   3.029   5.392   3.696
  677SOL     OW 2929   5.116   1.266   0.283
  677SOL    HW1 2930   5.033   1.304   0.325
  677SOL    HW2 2931   5.172   1.223   0.354
  678SOL     OW 2932   2.786   6.072   4.843
  678SOL    HW1 2933   2.807   6.153   4.897
  678SOL    HW2 2934   2.687   6.058   4.842
  679SOL     OW 2935   4.942   1.594   4.186
  679SOL    HW1 2936   4.879   1.585   4.108
  679SOL    HW2 2937   4.936   1.686   4.223
  680SOL     OW 2938   5.030   5.689   4.611
  680SOL    HW1 2939   5.042   5.780   4.652
  680SOL    HW2 2940   5.058   5.619   4.676
  681SOL     OW 2941   4.704   5.505   1.584
  681SOL    HW1 2942   4.733   5.463   1.670
  681SOL    HW2 2943   4.606   5.525   1.588
  682SOL     OW 2944   6.068   1.221   1.748
  682SOL    HW1 2945   6.149   1.163   1.750
  682SOL    HW2 2946   6.040   1.235   1.653
  683SOL     OW 2947   4.643   2.579   0.652
  683SOL    HW1 2948   4.727   2.574   0.706
  683SOL    HW2 2949   4.636   2.498   0.593
  684SOL     OW 2950   6.446   0.977   0.819
  684SOL    HW1 2951   6.412   0.990   0.726
  684SOL    HW2 2952   6.370   0.949   0.878
  685SOL     OW 2953   3.236   1.810   4.100
  685SOL    HW1 2954   3.233   1.722   4.148
  685SOL    HW2 2955   3.328   1.850   4.110
  686SOL     OW 2956   4.664   2.325   4.415
  686SOL    HW1 2957   4.617   2.406   4.379
  686SOL    HW2 2958   4.714   2.349   4.499
  687SOL     OW 2959   0.860   2.027   4.057
  687SOL    HW1 2960   0.804   1.999   3.978
  687SOL    HW2 2961   0.952   1.990   4.047
  688SOL     OW 2962   0.482   1.488   6.265
  688SOL    HW1 2963   0.507   1.517   6.357
  688SOL    HW2 2964   0.528   1.401   6.244
  689SOL     OW 2965   1.269   4.400   6.319
  689SOL    HW1 2966   1.173   4.420   6.301
  689SOL    HW2 2967   1.285   4.301   6.314
  690SOL     OW 2968   6.536   3.239   3.404
  690SOL    HW1 2969   6.516   3.337   3.402
  690SOL    HW2 2970   6.583   3.213   3.319
  691SOL     OW 2971   3.144   1.334   0.050
  691SOL    HW1 2972   3.240   1.335   0.079
  691SOL    HW2 2973   3.093   1.402   0.102
  692SOL     OW 2974   4.294   2.204   4.251
  692SOL    HW1 2975   4.300   2.291   4.301
  692SOL    HW2 2976   4.213   2.153   4.282
  693SOL     OW 2977   4.840   6.505   4.029
  693SOL    HW1 2978   4.883   6.492   3.939
  693SOL    HW2 2979   4.742   6.484   4.023
  694SOL     OW 2980   4.541   7.024   5.019
  694SOL    HW1 2981   4.555   0.092   4.996
  694SOL    HW2 2982   4.596   7.000   5.099
  695SOL     OW 2983   3.932   6.854   3.747
  695SOL    HW1 2984   3.982   6.901   3.820
  695SOL    HW2 2985   3.989   6.780   3.711
  696SOL     OW 2986   5.161   4.546   3.617
  696SOL    HW1 2987   5.233   4.577   3.555
  696SOL    HW2 2988   5.147   4.614   3.689
  697SOL     OW 2989   1.705   3.701   2.311
  697SOL    HW1 2990   1.741   3.763   2.242
  697SOL    HW2 2991   1.778   3.642   2.344
  698SOL     OW 2992   5.282   6.541   1.411
  698SOL    HW1 2993   5.226   6.531   1.328
  698SOL    HW2 2994   5.248   6.617   1.465
  699SOL     OW 2995   1.607   3.402   0.145
  699SOL    HW1 2996   1.515   3.380   0.112
  699SOL    HW2 2997   1.670   3.327   0.122
  700SOL     OW 2998   3.572   0.227   2.431
  700SOL    HW1 2999   3.578   0.323   2.458
  700SOL    HW2 3000   3.662   0.184   2.437
  701SOL     OW 3001   6.661   3.810   0.248
  701SOL    HW1 3002   6.679   3.847   0.339
  701SOL    HW2 3003   6.575   3.848   0.213
  702SOL     OW 3004   1.720   6.296   5.018
  702SOL    HW1 3005   1.668   6.221   4.977
  702SOL    HW2 3006   1.763   6.350   4.946
  703SOL     OW 3007   3.508   3.457   5.644
  703SOL    HW1 3008   3.500   3.401   5.562
  703SOL    HW2 3009   3.511   3.398   5.725
  704SOL     OW 3010   1.355   2.729   6.286
  704SOL    HW1 3011   1.369   2.828   6.287
  704SOL    HW2 3012   1.392   2.691   6.201
  705SOL     OW 3013   5.760   5.692   2.763
  705SOL    HW1 3014   5.859   5.702   2.763
  705SOL    HW2 3015   5.728   5.676   2.670
  706SOL     OW 3016   3.883   1.885   5.413
  706SOL    HW1 3017   3.928   1.800   5.385
  706SOL    HW2 3018   3.844   1.930   5.332
  707SOL     OW 3019   4.447   4.599   3.466
  707SOL    HW1 3020   4.439   4.592   3.367
  707SOL    HW2 3021   4.487   4.515   3.503
  708SOL     OW 3022   2.807   0.679   2.971
  708SOL    HW1 3023   2.731   0.704   2.911
  708SOL    HW2 3024   2.893   0.700   2.925
  709SOL     OW 3025   1.078   5.734   0.979
  709SOL    HW1 3026   1.135   5.762   0.902
  709SOL    HW2 3027   1.033   5.814   1.018
  710SOL     OW 3028   4.471   2.055   1.172
  710SOL    HW1 3029   4.451   2.130   1.236
  710SOL    HW2 3030   4.404   2.055   1.098
  711SOL     OW 3031   0.127   2.787   6.061
  711SOL    HW1 3032   0.032   2.758   6.046
  711SOL    HW2 3033   0.187   2.708   6.054
  712SOL     OW 3034   4.735   2.554   1.013
  712SOL    HW1 3035   4.754   2.598   1.101
  712SOL    HW2 3036   4.820   2.546   0.960
  713SOL     OW 3037   3.663   3.784   5.840
  713SOL    HW1 3038   3.716   3.783   5.755
  713SOL    HW2 3039   3.577   3.734   5.826
  714SOL     OW 3040   0.306   5.214   3.846
  714SOL    HW1 3041   0.285   5.118   3.825
  714SOL    HW2 3042   0.366   5.218   3.925
  715SOL     OW 3043   5.518   6.052   6.710
  715SOL    HW1 3044   5.434   6.102   6.688
  715SOL    HW2 3045   5.495   5.956   6.726
  716SOL     OW 3046   0.771   1.183   2.539
  716SOL    HW1 3047   0.758   1.084   2.539
  716SOL    HW2 3048   0.861   1.206   2.503
  717SOL     OW 3049   0.099   4.849   4.011
  717SOL    HW1 3050   0.161   4.877   3.937
  717SOL    HW2 3051   0.005   4.873   3.986
  718SOL     OW 3052   4.579   3.229   6.087
  718SOL    HW1 3053   4.599   3.205   5.992
  718SOL    HW2 3054   4.484   3.258   6.094
  719SOL     OW 3055   5.773   6.985   2.794
  719SOL    HW1 3056   5.779   6.928   2.712
  719SOL    HW2 3057   5.688   6.965   2.842
  720SOL     OW 3058   2.290   0.378   6.237
  720SOL    HW1 3059   2.387   0.354   6.225
  720SOL    HW2 3060   2.233   0.301   6.209
  721SOL     OW 3061   2.373   1.582   2.086
  721SOL    HW1 3062   2.284   1.609   2.123
  721SOL    HW2 3063   2.378   1.482   2.082
  722SOL     OW 3064   2.775   0.858   5.622
  722SOL    HW1 3065   2.874   0.853   5.632
  722SOL    HW2 3066   2.749   0.948   5.587
  723SOL     OW 3067   2.067   5.070   3.454
  723SOL    HW1 3068   2.065   5.031   3.546
  723SOL    HW2 3069   1.992   5.033   3.401
  724SOL     OW 3070   0.902   1.287   3.259
  724SOL    HW1 3071   0.996   1.282   3.292
  724SOL    HW2 3072   0.848   1.215   3.301
  725SOL     OW 3073   1.314   4.956   2.693
  725SOL    HW1 3074   1.378   4.908   2.753
  725SOL    HW2 3075   1.224   4.914   2.699
  726SOL     OW 3076   2.902   5.124   1.421
  726SOL    HW1 3077   2.939   5.141   1.512
  726SOL    HW2 3078   2.883   5.211   1.376
  727SOL     OW 3079   5.476   4.422   6.014
  727SOL    HW1 3080   5.518   4.501   5.969
  727SOL    HW2 3081   5.517   4.409   6.104
  728SOL     OW 3082   6.236   3.202   4.034
  728SOL    HW1 3083   6.244   3.103   4.037
  728SOL    HW2 3084   6.311   3.243   4.086
  729SOL     OW 3085   0.131   2.884   1.204
  729SOL    HW1 3086   0.190   2.827   1.146
  729SOL    HW2 3087   0.171   2.976   1.211
  730SOL     OW 3088   7.028   0.285   4.109
  730SOL    HW1 3089   0.038   0.370   4.072
  730SOL    HW2 3090   0.073   0.221   4.129
  731SOL     OW 3091   4.753   5.227   6.256
  731SOL    HW1 3092   4.761   5.321   6.290
  731SOL    HW2 3093   4.775   5.224   6.159
  732SOL     OW 3094   6.036   2.673   2.414
  732SOL    HW1 3095   5.961   2.720   2.368
  732SOL    HW2 3096   6.089   2.738   2.468
  733SOL     OW 3097   5.577   0.162   5.543
  733SOL    HW1 3098   5.492   0.206   5.573
  733SOL    HW2 3099   5.565   0.128   5.450
  734SOL     OW 3100   5.923   5.242   2.515
  734SOL    HW1 3101   5.921   5.142   2.520
  734SOL    HW2 3102   5.998   5.277   2.572
  735SOL     OW 3103   4.247   1.346   0.709
  735SOL    HW1 3104   4.302   1.429   0.704
  735SOL    HW2 3105   4.262   1.301   0.797
  736SOL     OW 3106   0.797   1.447   3.765
  736SOL    HW1 3107   0.849   1.449   3.850
  736SOL    HW2 3108   0.839   1.382   3.702
  737SOL     OW 3109   5.381   1.701   6.203
  737SOL    HW1 3110   5.414   1.794   6.187
  737SOL    HW2 3111   5.432   1.637   6.146
  738SOL     OW 3112   3.026   3.494   1.388
  738SOL    HW1 3113   3.069   3.436   1.457
  738SOL    HW2 3114   2.950   3.544   1.428
  739SOL     OW 3115   4.305   0.426   4.532
  739SOL    HW1 3116   4.287   0.331   4.559
  739SOL    HW2 3117   4.226   0.463   4.484
  740SOL     OW 3118   5.632   1.458   2.941
  740SOL    HW1 3119   5.646   1.432   3.037
  740SOL    HW2 3120   5.702   1.524   2.914
  741SOL     OW 3121   1.801   0.210   4.008
  741SOL    HW1 3122   1.729   0.167   3.955
  741SOL    HW2 3123   1.850   0.276   3.951
  742SOL     OW 3124   1.946   6.672   1.543
  742SOL    HW1 3125   2.040   6.686   1.574
  742SOL    HW2 3126   1.933   6.715   1.454
  743SOL     OW 3127   0.307   5.397   3.255
  743SOL    HW1 3128   0.350   5.421   3.343
  743SOL    HW2 3129   0.259   5.477   3.219
  744SOL     OW 3130   5.697   0.585   1.079
  744SOL    HW1 3131   5.621   0.529   1.044
  744SOL    HW2 3132   5.670   0.626   1.166
  745SOL     OW 3133   1.702   5.442   5.218
  745SOL    HW1 3134   1.664   5.413   5.130
  745SOL    HW2 3135   1.633   5.432   5.289
  746SOL     OW 3136   6.066   3.631   6.147
  746SOL    HW1 3137   6.138   3.661   6.085
  746SOL    HW2 3138   5.988   3.693   6.140
  747SOL     OW 3139   4.340   5.946   4.656
  747SOL    HW1 3140   4.423   5.902   4.619
  747SOL    HW2 3141   4.264   5.881   4.650
  748SOL     OW 3142   4.463   5.391   2.029
  748SOL    HW1 3143   4.387   5.392   2.094
  748SOL    HW2 3144   4.511   5.304   2.034
  749SOL     OW 3145   5.832   3.726   4.493
  749SOL    HW1 3146   5.792   3.638   4.514
  749SOL    HW2 3147   5.797   3.760   4.406
  750SOL     OW 3148   2.178   1.213   1.667
  750SOL    HW1 3149   2.093   1.206   1.615
  750SOL    HW2 3150   2.246   1.263   1.614
  751SOL     OW 3151   4.464   1.476   7.025
  751SOL    HW1 3152   4.366   1.493   0.010
  751SOL    HW2 3153   4.508   1.562   6.999
  752SOL     OW 3154   2.970   3.638   0.777
  752SOL    HW1 3155   2.960   3.738   0.780
  752SOL    HW2 3156   2.987   3.609   0.683
  753SOL     OW 3157   1.349   3.532   5.872
  753SOL    HW1 3158   1.374   3.454   5.814
  753SOL    HW2 3159   1.318   3.608   5.814
  754SOL     OW 3160   4.547   1.602   6.261
  754SOL    HW1 3161   4.453   1.578   6.283
  754SOL    HW2 3162   4.572   1.687   6.308
  755SOL     OW 3163   2.483   4.717   5.457
  755SOL    HW1 3164   2.579   4.701   5.431
  755SOL    HW2 3165   2.426   4.714   5.375
  756SOL     OW 3166   2.400   5.526   7.015
  756SOL    HW1 3167   2.326   5.495   0.046
  756SOL    HW2 3168   2.405   5.626   7.017
  757SOL     OW 3169   1.389   5.928   3.833
  757SOL    HW1 3170   1.411   5.978   3.750
  757SOL    HW2 3171   1.428   5.836   3.827
  758SOL     OW 3172   4.390   0.923   3.309
  758SOL    HW1 3173   4.294   0.950   3.296
  758SOL    HW2 3174   4.434   0.986   3.373
  759SOL     OW 3175   0.119   2.872   2.438
  759SOL    HW1 3176   0.192   2.933   2.407
  759SOL    HW2 3177   0.127   2.857   2.537
  760SOL     OW 3178   6.475   6.840   3.897
  760SOL    HW1 3179   6.536   6.763   3.913
  760SOL    HW2 3180   6.516   6.902   3.830
  761SOL     OW 3181   5.637   4.368   6.614
  761SOL    HW1 3182   5.712   4.418   6.570
  761SOL    HW2 3183   5.567   4.432   6.643
  762SOL     OW 3184   3.010   0.165   5.562
  762SOL    HW1 3185   2.916   0.199   5.568
  762SOL    HW2 3186   3.073   0.240   5.579
  763SOL     OW 3187   4.101   6.511   6.166
  763SOL    HW1 3188   4.033   6.495   6.095
  763SOL    HW2 3189   4.054   6.525   6.254
  764SOL     OW 3190   5.012   0.838   5.754
  764SOL    HW1 3191   5.025   0.747   5.715
  764SOL    HW2 3192   4.917   0.848   5.783
  765SOL     OW 3193   1.849   6.064   0.799
  765SOL    HW1 3194   1.798   5.991   0.754
  765SOL    HW2 3195   1.852   6.144   0.739
  766SOL     OW 3196   2.932   1.863   5.640
  766SOL    HW1 3197   2.908   1.936   5.576
  766SOL    HW2 3198   3.028   1.870   5.666
  767SOL     OW 3199   6.303   6.523   3.734
  767SOL    HW1 3200   6.341   6.452   3.675
  767SOL    HW2 3201   6.339   6.612   3.706
  768SOL     OW 3202   2.108   5.507   3.380
  768SOL    HW1 3203   2.116   5.592   3.432
  768SOL    HW2 3204   2.193   5.491   3.330
  769SOL     OW 3205   3.046   0.784   5.700
  769SOL    HW1 3206   3.121   0.836   5.659
  769SOL    HW2 3207   3.083   0.720   5.767
  770SOL     OW 3208   1.936   5.186   3.840
  770SOL    HW1 3209   1.956   5.278   3.808
  770SOL    HW2 3210   1.988   5.120   3.786
  771SOL     OW 3211   1.320   4.591   2.711
  771SOL    HW1 3212   1.317   4.604   2.612
  771SOL    HW2 3213   1.401   4.636   2.749
  772SOL     OW 3214   6.042   4.680   6.944
  772SOL    HW1 3215   6.051   4.627   6.860
  772SOL    HW2 3216   5.950   4.720   6.948
  773SOL     OW 3217   0.652   3.876   2.944
  773SOL    HW1 3218   0.617   3.804   3.003
  773SOL    HW2 3219   0.751   3.866   2.934
  774SOL     OW 3220   1.660   1.688   2.342
  774SOL    HW1 3221   1.749   1.686   2.388
  774SOL    HW2 3222   1.670   1.652   2.249
  775SOL     OW 3223   2.251   1.658   4.125
  775SOL    HW1 3224   2.317   1.657   4.200
  775SOL    HW2 3225   2.273   1.734   4.063
  776SOL     OW 3226   6.776   0.710   6.275
  776SOL    HW1 3227   6.788   0.623   6.226
  776SOL    HW2 3228   6.833   0.780   6.233
  777SOL     OW 3229   2.232   4.316   1.457
  777SOL    HW1 3230   2.157   4.356   1.406
  777SOL    HW2 3231   2.206   4.226   1.492
  778SOL     OW 3232   2.204   0.184   1.657
  778SOL    HW1 3233   2.303   0.181   1.642
  778SOL    HW2 3234   2.180   0.271   1.700
  779SOL     OW 3235   6.577   1.767   2.038
  779SOL    HW1 3236   6.528   1.839   2.086
  779SOL    HW2 3237   6.610   1.699   2.104
  780SOL     OW 3238   0.857   1.986   4.381
  780SOL    HW1 3239   0.951   1.960   4.405
  780SOL    HW2 3240   0.859   2.061   4.316
  781SOL     OW 3241   5.543   5.765   0.519
  781SOL    HW1 3242   5.537   5.666   0.536
  781SOL    HW2 3243   5.478   5.813   0.578
  782SOL     OW 3244   1.624   3.822   5.521
  782SOL    HW1 3245   1.594   3.869   5.439
  782SOL    HW2 3246   1.683   3.745   5.496
  783SOL     OW 3247   5.160   4.715   1.730
  783SOL    HW1 3248   5.092   4.683   1.665
  783SOL    HW2 3249   5.208   4.636   1.770
  784SOL     OW 3250   4.087   5.024   1.859
  784SOL    HW1 3251   4.025   4.951   1.889
  784SOL    HW2 3252   4.038   5.112   1.863
  785SOL     OW 3253   0.704   1.089   3.394
  785SOL    HW1 3254   0.673   1.124   3.482
  785SOL    HW2 3255   0.660   1.001   3.375
  786SOL     OW 3256   6.817   1.091   2.482
  786SOL    HW1 3257   6.848   1.184   2.462
  786SOL    HW2 3258   6.833   1.071   2.579
  787SOL     OW 3259   1.731   6.953   6.968
  787SOL    HW1 3260   1.657   6.893   6.936
  787SOL    HW2 3261   1.700   0.019   6.964
  788SOL     OW 3262   4.677   2.288   1.049
  788SOL    HW1 3263   4.727   2.372   1.071
  788SOL    HW2 3264   4.579   2.306   1.053
  789SOL     OW 3265   4.539   5.118   2.016
  789SOL    HW1 3266   4.583   5.065   2.088
  789SOL    HW2 3267   4.464   5.064   1.976
  790SOL     OW 3268   2.659   1.208   2.831
  790SOL    HW1 3269   2.737   1.180   2.775
  790SOL    HW2 3270   2.672   1.175   2.925
  791SOL     OW 3271   2.428   6.308   5.357
  791SOL    HW1 3272   2.519   6.337   5.387
  791SOL    HW2 3273   2.421   6.208   5.361
  792SOL     OW 3274   0.724   0.617   1.911
  792SOL    HW1 3275   0.712   0.536   1.853
  792SOL    HW2 3276   0.724   0.589   2.007
  793SOL     OW 3277   5.188   5.550   4.823
  793SOL    HW1 3278   5.238   5.486   4.881
  793SOL    HW2 3279   5.106   5.582   4.870
  794SOL     OW 3280   2.609   3.602   5.629
  794SOL    HW1 3281   2.549   3.536   5.675
  794SOL    HW2 3282   2.682   3.631   5.692
  795SOL     OW 3283   3.866   0.438   5.271
  795SOL    HW1 3284   3.921   0.512   5.233
  795SOL    HW2 3285   3.783   0.426   5.216
  796SOL     OW 3286   0.916   2.802   0.180
  796SOL    HW1 3287   0.865   2.834   0.100
  796SOL    HW2 3288   1.011   2.784   0.155
  797SOL     OW 3289   4.754   0.601   0.821
  797SOL    HW1 3290   4.821   0.566   0.755
  797SOL    HW2 3291   4.733   0.697   0.799
  798SOL     OW 3292   3.801   6.376   1.784
  798SOL    HW1 3293   3.720   6.317   1.779
  798SOL    HW2 3294   3.874   6.328   1.833
  799SOL     OW 3295   0.656   0.211   6.299
  799SOL    HW1 3296   0.620   0.304   6.302
  799SOL    HW2 3297   0.755   0.213   6.310
  800SOL     OW 3298   6.595   1.114   2.285
  800SOL    HW1 3299   6.564   1.020   2.267
  800SOL    HW2 3300   6.625   1.122   2.380
  801SOL     OW 3301   2.263   4.228   4.973
  801SOL    HW1 3302   2.259   4.295   5.047
  801SOL    HW2 3303   2.273   4.136   5.012
  802SOL     OW 3304   3.398   2.455   6.991
  802SOL    HW1 3305   3.355   2.546   6.985
  802SOL    HW2 3306   3.356   2.394   6.924
  803SOL     OW 3307   1.347   0.392   5.710
  803SOL    HW1 3308   1.274   0.334   5.676
  803SOL    HW2 3309   1.343   0.395   5.810
  804SOL     OW 3310   6.615   6.657   1.455
  804SOL    HW1 3311   6.691   6.718   1.431
  804SOL    HW2 3312   6.549   6.706   1.511
  805SOL     OW 3313   2.034   0.771   3.931
  805SOL    HW1 3314   2.023   0.732   3.839
  805SOL    HW2 3315   1.990   0.711   3.998
  806SOL     OW 3316   6.173   0.448   6.165
  806SOL    HW1 3317   6.205   0.353   6.169
  806SOL    HW2 3318   6.103   0.457   6.094
  807SOL     OW 3319   0.634   6.700   3.932
  807SOL    HW1 3320   0.706   6.753   3.976
  807SOL    HW2 3321   0.560   6.682   3.997
  808SOL     OW 3322   4.968   3.280   0.058
  808SOL    HW1 3323   4.943   3.290   0.155
  808SOL    HW2 3324   5.067   3.276   0.049
  809SOL     OW 3325   1.283   4.820   0.945
  809SOL    HW1 3326   1.240   4.908   0.964
  809SOL    HW2 3327   1.223   4.746   0.974
  810SOL     OW 3328   3.406   4.121   0.051
  810SOL    HW1 3329   3.356   4.179   0.115
  810SOL    HW2 3330   3.443   4.176   7.006
  811SOL     OW 3331   5.270   5.283   4.118
  811SOL    HW1 3332   5.322   5.363   4.089
  811SOL    HW2 3333   5.268   5.279   4.218
  812SOL     OW 3334   6.821   1.847   1.702
  812SOL    HW1 3335   6.723   1.857   1.720
  812SOL    HW2 3336   6.866   1.936   1.714
  813SOL     OW 3337   3.332   0.463   4.498
  813SOL    HW1 3338   3.367   0.433   4.409
  813SOL    HW2 3339   3.271   0.541   4.485
  814SOL     OW 3340   6.573   5.766   2.530
  814SOL    HW1 3341   6.516   5.744   2.451
  814SOL    HW2 3342   6.587   5.865   2.536
  815SOL     OW 3343   5.447   2.994   3.468
  815SOL    HW1 3344   5.477   3.090   3.468
  815SOL    HW2 3345   5.469   2.952   3.380
  816SOL     OW 3346   5.194   5.365   0.288
  816SOL    HW1 3347   5.233   5.427   0.221
  816SOL    HW2 3348   5.266   5.330   0.348
  817SOL     OW 3349   0.852   5.334   1.570
  817SOL    HW1 3350   0.924   5.321   1.639
  817SOL    HW2 3351   0.762   5.321   1.613
  818SOL     OW 3352   5.530   2.788   3.852
  818SOL    HW1 3353   5.629   2.786   3.840
  818SOL    HW2 3354   5.491   2.701   3.821
  819SOL     OW 3355   6.123   2.507   1.474
  819SOL    HW1 3356   6.098   2.514   1.571
  819SOL    HW2 3357   6.093   2.419   1.438
  820SOL     OW 3358   2.918   2.234   4.843
  820SOL    HW1 3359   3.012   2.255   4.871
  820SOL    HW2 3360   2.905   2.258   4.747
  821SOL     OW 3361   6.738   4.793   6.218
  821SOL    HW1 3362   6.762   4.720   6.283
  821SOL    HW2 3363   6.730   4.754   6.126
  822SOL     OW 3364   7.023   3.588   3.176
  822SOL    HW1 3365   7.005   3.556   3.269
  822SOL    HW2 3366   6.953   3.552   3.114
  823SOL     OW 3367   6.679   4.355   6.257
  823SOL    HW1 3368   6.629   4.361   6.170
  823SOL    HW2 3369   6.773   4.327   6.239
  824SOL     OW 3370   4.586   1.027   5.980
  824SOL    HW1 3371   4.486   1.025   5.983
  824SOL    HW2 3372   4.617   1.121   5.995
  825SOL     OW 3373   6.570   5.524   0.874
  825SOL    HW1 3374   6.519   5.591   0.929
  825SOL    HW2 3375   6.584   5.441   0.929
  826SOL     OW 3376   3.673   2.444   5.731
  826SOL    HW1 3377   3.682   2.473   5.636
  826SOL    HW2 3378   3.617   2.361   5.735
  827SOL     OW 3379   2.862   4.137   5.273
  827SOL    HW1 3380   2.788   4.071   5.283
  827SOL    HW2 3381   2.936   4.096   5.220
  828SOL     OW 3382   5.994   6.159   6.448
  828SOL    HW1 3383   6.045   6.242   6.428
  828SOL    HW2 3384   6.052   6.079   6.433
  829SOL     OW 3385   3.469   3.149   1.821
  829SOL    HW1 3386   3.479   3.120   1.916
  829SOL    HW2 3387   3.432   3.242   1.819
  830SOL     OW 3388   5.767   5.186   6.905
  830SOL    HW1 3389   5.858   5.160   6.872
  830SOL    HW2 3390   5.751   5.282   6.883
  831SOL     OW 3391   5.915   0.015   0.890
  831SOL    HW1 3392   5.931   0.085   0.960
  831SOL    HW2 3393   5.877   6.963   0.934
  832SOL     OW 3394   4.417   1.895   4.129
  832SOL    HW1 3395   4.396   1.911   4.033
  832SOL    HW2 3396   4.516   1.893   4.142
  833SOL     OW 3397   1.956   3.546   6.037
  833SOL    HW1 3398   1.934   3.628   5.984
  833SOL    HW2 3399   1.985   3.473   5.974
  834SOL     OW 3400   5.287   3.644   1.079
  834SOL    HW1 3401   5.302   3.566   1.018
  834SOL    HW2 3402   5.288   3.612   1.174
  835SOL     OW 3403   2.430   0.328   4.802
  835SOL    HW1 3404   2.457   0.232   4.808
  835SOL    HW2 3405   2.333   0.334   4.777
  836SOL     OW 3406   3.328   0.704   5.354
  836SOL    HW1 3407   3.340   0.677   5.450
  836SOL    HW2 3408   3.281   0.792   5.350
  837SOL     OW 3409   0.624   0.187   1.039
  837SOL    HW1 3410   0.626   0.205   0.941
  837SOL    HW2 3411   0.667   0.263   1.088
  838SOL     OW 3412   2.696   6.285   4.503
  838SOL    HW1 3413   2.654   6.334   4.426
  838SOL    HW2 3414   2.641   6.204   4.525
  839SOL     OW 3415   1.906   1.376   1.765
  839SOL    HW1 3416   1.850   1.442   1.814
  839SOL    HW2 3417   1.988   1.355   1.818
  840SOL     OW 3418   6.349   5.528   0.131
  840SOL    HW1 3419   6.383   5.558   0.220
  840SOL    HW2 3420   6.350   5.604   0.067
  841SOL     OW 3421   3.560   5.683   5.854
  841SOL    HW1 3422   3.569   5.592   5.895
  841SOL    HW2 3423   3.465   5.699   5.829
  842SOL     OW 3424   3.858   6.978   6.056
  842SOL    HW1 3425   3.917   6.899   6.045
  842SOL    HW2 3426   3.798   6.965   6.134
  843SOL     OW 3427   1.588   1.898   1.652
  843SOL    HW1 3428   1.593   1.985   1.603
  843SOL    HW2 3429   1.553   1.913   1.744
  844SOL     OW 3430   6.911   6.789   1.056
  844SOL    HW1 3431   6.950   6.871   1.098
  844SOL    HW2 3432   6.977   6.714   1.063
  845SOL     OW 3433   5.182   3.902   3.439
  845SOL    HW1 3434   5.241   3.862   3.368
  845SOL    HW2 3435   5.106   3.841   3.458
  846SOL     OW 3436   2.423   0.578   5.747
  846SOL    HW1 3437   2.456   0.647   5.682
  846SOL    HW2 3438   2.464   0.489   5.725
  847SOL     OW 3439   1.859   3.082   1.753
  847SOL    HW1 3440   1.900   3.170   1.778
  847SOL    HW2 3441   1.908   3.008   1.800
  848SOL     OW 3442   6.391   6.908   5.594
  848SOL    HW1 3443   6.420   6.818   5.628
  848SOL    HW2 3444   6.335   6.896   5.513
  849SOL     OW 3445   6.016   4.091   6.143
  849SOL    HW1 3446   6.044   4.178   6.182
  849SOL    HW2 3447   5.959   4.107   6.062
  850SOL     OW 3448   6.292   6.914   4.721
  850SOL    HW1 3449   6.312   6.946   4.813
  850SOL    HW2 3450   6.292   6.814   4.719
  851SOL     OW 3451   0.081   2.644   0.106
  851SOL    HW1 3452   0.094   2.731   0.058
  851SOL    HW2 3453   0.038   2.661   0.195
  852SOL     OW 3454   0.783   4.277   0.648
  852SOL    HW1 3455   0.719   4.340   0.604
  852SOL    HW2 3456   0.736   4.227   0.721
  853SOL     OW 3457   1.179   4.882   0.083
  853SOL    HW1 3458   1.079   4.877   0.084
  853SOL    HW2 3459   1.213   4.842   7.026
  854SOL     OW 3460   4.734   6.012   0.000
  854SOL    HW1 3461   4.744   6.038   0.096
  854SOL    HW2 3462   4.642   6.035   6.997
  855SOL     OW 3463   6.453   0.329   0.598
  855SOL    HW1 3464   6.532   0.292   0.548
  855SOL    HW2 3465   6.388   0.368   0.533
  856SOL     OW 3466   1.589   1.344   6.888
  856SOL    HW1 3467   1.628   1.255   6.866
  856SOL    HW2 3468   1.534   1.337   6.971
  857SOL     OW 3469   6.443   5.315   2.153
  857SOL    HW1 3470   6.424   5.232   2.100
  857SOL    HW2 3471   6.537   5.311   2.187
  858SOL     OW 3472   3.218   5.016   1.162
  858SOL    HW1 3473   3.267   5.061   1.236
  858SOL    HW2 3474   3.282   4.989   1.090
  859SOL     OW 3475   5.574   6.361   5.134
  859SOL    HW1 3476   5.637   6.356   5.212
  859SOL    HW2 3477   5.576   6.274   5.084
  860SOL     OW 3478   6.151   2.466   6.587
  860SOL    HW1 3479   6.198   2.443   6.672
  860SOL    HW2 3480   6.219   2.478   6.514
  861SOL     OW 3481   2.712   5.045   3.307
  861SOL    HW1 3482   2.714   4.996   3.220
  861SOL    HW2 3483   2.781   5.117   3.307
  862SOL     OW 3484   2.183   4.205   3.211
  862SOL    HW1 3485   2.183   4.225   3.113
  862SOL    HW2 3486   2.089   4.201   3.244
  863SOL     OW 3487   5.906   1.225   6.054
  863SOL    HW1 3488   5.845   1.262   5.984
  863SOL    HW2 3489   5.972   1.163   6.012
  864SOL     OW 3490   3.937   6.239   4.495
  864SOL    HW1 3491   3.904   6.279   4.580
  864SOL    HW2 3492   4.033   6.215   4.504
  865SOL     OW 3493   1.955   0.180   5.764
  865SOL    HW1 3494   1.860   0.160   5.788
  865SOL    HW2 3495   2.003   0.095   5.745
  866SOL     OW 3496   2.901   0.603   0.486
  866SOL    HW1 3497   2.945   0.643   0.566
  866SOL    HW2 3498   2.914   0.663   0.407
  867SOL     OW 3499   4.825   3.848   1.005
  867SOL    HW1 3500   4.749   3.831   1.067
  867SOL    HW2 3501   4.911   3.822   1.050
  868SOL     OW 3502   6.922   1.219   1.554
  868SOL    HW1 3503   6.854   1.281   1.592
  868SOL    HW2 3504   7.014   1.253   1.575
  869SOL     OW 3505   0.125   4.596   3.105
  869SOL    HW1 3506   0.076   4.653   3.171
  869SOL    HW2 3507   0.189   4.536   3.154
  870SOL     OW 3508   4.145   4.308   1.031
  870SOL    HW1 3509   4.108   4.400   1.048
  870SOL    HW2 3510   4.110   4.274   0.944
  871SOL     OW 3511   5.294   2.084   3.582
  871SOL    HW1 3512   5.225   2.132   3.527
  871SOL    HW2 3513   5.292   2.119   3.675
  872SOL     OW 3514   5.896   2.349   4.221
  872SOL    HW1 3515   5.851   2.301   4.146
  872SOL    HW2 3516   5.982   2.387   4.189
  873SOL     OW 3517   5.212   5.592   5.253
  873SOL    HW1 3518   5.130   5.647   5.239
  873SOL    HW2 3519   5.217   5.563   5.349
  874SOL     OW 3520   6.697   3.696   6.913
  874SOL    HW1 3521   6.767   3.668   6.979
  874SOL    HW2 3522   6.654   3.616   6.873
  875SOL     OW 3523   4.602   4.802   1.021
  875SOL    HW1 3524   4.553   4.828   1.104
  875SOL    HW2 3525   4.654   4.718   1.037
  876SOL     OW 3526   0.178   5.808   2.001
  876SOL    HW1 3527   0.189   5.836   2.096
  876SOL    HW2 3528   0.173   5.709   1.995
  877SOL     OW 3529   3.221   4.541   6.230
  877SOL    HW1 3530   3.279   4.528   6.149
  877SOL    HW2 3531   3.269   4.596   6.297
  878SOL     OW 3532   4.571   6.669   4.695
  878SOL    HW1 3533   4.492   6.667   4.634
  878SOL    HW2 3534   4.610   6.577   4.701
  879SOL     OW 3535   4.268   0.309   1.580
  879SOL    HW1 3536   4.285   0.289   1.483
  879SOL    HW2 3537   4.347   0.280   1.634
  880SOL     OW 3538   3.464   3.308   4.160
  880SOL    HW1 3539   3.413   3.392   4.174
  880SOL    HW2 3540   3.480   3.295   4.062
  881SOL     OW 3541   5.125   3.717   5.493
  881SOL    HW1 3542   5.175   3.655   5.553
  881SOL    HW2 3543   5.027   3.697   5.498
  882SOL     OW 3544   0.936   2.290   3.881
  882SOL    HW1 3545   0.872   2.327   3.947
  882SOL    HW2 3546   1.010   2.243   3.929
  883SOL     OW 3547   3.264   0.714   1.010
  883SOL    HW1 3548   3.277   0.648   1.084
  883SOL    HW2 3549   3.310   0.800   1.034
  884SOL     OW 3550   6.318   3.988   6.113
  884SOL    HW1 3551   6.242   4.050   6.132
  884SOL    HW2 3552   6.294   3.929   6.035
  885SOL     OW 3553   3.765   0.951   4.864
  885SOL    HW1 3554   3.771   0.876   4.929
  885SOL    HW2 3555   3.823   0.931   4.785
  886SOL     OW 3556   3.230   0.568   0.324
  886SOL    HW1 3557   3.141   0.582   0.281
  886SOL    HW2 3558   3.264   0.655   0.358
  887SOL     OW 3559   3.682   6.679   3.898
  887SOL    HW1 3560   3.781   6.668   3.902
  887SOL    HW2 3561   3.658   6.749   3.830
  888SOL     OW 3562   0.331   5.947   2.960
  888SOL    HW1 3563   0.254   5.907   2.910
  888SOL    HW2 3564   0.395   5.874   2.986
  889SOL     OW 3565   6.915   1.623   0.191
  889SOL    HW1 3566   6.986   1.623   0.120
  889SOL    HW2 3567   6.942   1.685   0.265
  890SOL     OW 3568   2.159   5.027   3.147
  890SOL    HW1 3569   2.187   5.123   3.151
  890SOL    HW2 3570   2.060   5.020   3.161
  891SOL     OW 3571   6.397   3.462   1.333
  891SOL    HW1 3572   6.318   3.442   1.391
  891SOL    HW2 3573   6.459   3.524   1.381
  892SOL     OW 3574   2.951   3.741   4.640
  892SOL    HW1 3575   2.938   3.654   4.592
  892SOL    HW2 3576   2.886   3.747   4.716
  893SOL     OW 3577   2.047   6.391   3.329
  893SOL    HW1 3578   2.120   6.450   3.364
  893SOL    HW2 3579   1.963   6.407   3.381
  894SOL     OW 3580   0.981   3.045   2.283
  894SOL    HW1 3581   0.888   3.036   2.248
  894SOL    HW2 3582   0.999   3.140   2.307
  895SOL     OW 3583   1.064   5.136   3.714
  895SOL    HW1 3584   0.988   5.196   3.687
  895SOL    HW2 3585   1.068   5.132   3.814
  896SOL     OW 3586   5.239   4.816   1.412
  896SOL    HW1 3587   5.265   4.906   1.444
  896SOL    HW2 3588   5.301   4.747   1.450
  897SOL     OW 3589   3.827   1.602   6.851
  897SOL    HW1 3590   3.736   1.579   6.815
  897SOL    HW2 3591   3.817   1.651   6.937
  898SOL     OW 3592   3.973   6.331   2.901
  898SOL    HW1 3593   3.956   6.374   2.990
  898SOL    HW2 3594   3.903   6.263   2.883
  899SOL     OW 3595   0.599   6.533   0.171
  899SOL    HW1 3596   0.672   6.539   0.102
  899SOL    HW2 3597   0.610   6.606   0.238
  900SOL     OW 3598   5.625   0.599   0.205
  900SOL    HW1 3599   5.584   0.514   0.238
  900SOL    HW2 3600   5.625   0.599   0.105
  901SOL     OW 3601   1.663   0.846   3.596
  901SOL    HW1 3602   1.704   0.912   3.533
  901SOL    HW2 3603   1.616   0.895   3.669
  902SOL     OW 3604   1.232   2.308   1.324
  902SOL    HW1 3605   1.151   2.292   1.268
  902SOL    HW2 3606   1.232   2.403   1.356
  903SOL     OW 3607   0.919   3.116   6.682
  903SOL    HW1 3608   0.840   3.153   6.632
  903SOL    HW2 3609   0.946   3.181   6.753
  904SOL     OW 3610   1.900   1.591   2.451
  904SOL    HW1 3611   1.860   1.516   2.398
  904SOL    HW2 3612   1.956   1.553   2.525
  905SOL     OW 3613   5.417   3.501   6.169
  905SOL    HW1 3614   5.334   3.544   6.134
  905SOL    HW2 3615   5.432   3.414   6.124
  906SOL     OW 3616   0.319   1.865   6.712
  906SOL    HW1 3617   0.299   1.869   6.810
  906SOL    HW2 3618   0.258   1.926   6.663
  907SOL     OW 3619   5.264   3.334   0.508
  907SOL    HW1 3620   5.190   3.392   0.544
  907SOL    HW2 3621   5.275   3.254   0.567
  908SOL     OW 3622   2.783   4.685   2.869
  908SOL    HW1 3623   2.837   4.683   2.953
  908SOL    HW2 3624   2.823   4.751   2.805
  909SOL     OW 3625   4.061   6.772   1.623
  909SOL    HW1 3626   4.064   6.858   1.572
  909SOL    HW2 3627   4.018   6.702   1.567
  910SOL     OW 3628   3.359   1.805   0.984
  910SOL    HW1 3629   3.276   1.859   0.965
  910SOL    HW2 3630   3.379   1.808   1.082
  911SOL     OW 3631   1.485   6.527   6.680
  911SOL    HW1 3632   1.577   6.546   6.647
  911SOL    HW2 3633   1.448   6.447   6.633
  912SOL     OW 3634   6.147   1.098   3.217
  912SOL    HW1 3635   6.170   1.083   3.313
  912SOL    HW2 3636   6.112   1.191   3.205
  913SOL     OW 3637   3.469   0.692   3.546
  913SOL    HW1 3638   3.439   0.724   3.457
  913SOL    HW2 3639   3.409   0.619   3.577
  914SOL     OW 3640   2.224   0.097   6.163
  914SOL    HW1 3641   2.316   0.065   6.183
  914SOL    HW2 3642   2.224   0.146   6.075
  915SOL     OW 3643   6.668   3.289   6.645
  915SOL    HW1 3644   6.604   3.223   6.682
  915SOL    HW2 3645   6.649   3.380   6.683
  916SOL     OW 3646   1.528   3.303   2.505
  916SOL    HW1 3647   1.485   3.383   2.464
  916SOL    HW2 3648   1.544   3.320   2.602
  917SOL     OW 3649   0.735   6.567   1.524
  917SOL    HW1 3650   0.807   6.623   1.564
  917SOL    HW2 3651   0.646   6.609   1.542
  918SOL     OW 3652   3.964   0.723   1.170
  918SOL    HW1 3653   3.973   0.819   1.142
  918SOL    HW2 3654   3.875   0.688   1.139
  919SOL     OW 3655   6.634   6.943   2.669
  919SOL    HW1 3656   6.732   6.958   2.651
  919SOL    HW2 3657   6.581   6.968   2.587
  920SOL     OW 3658   2.335   4.239   2.200
  920SOL    HW1 3659   2.316   4.227   2.297
  920SOL    HW2 3660   2.261   4.292   2.158
  921SOL     OW 3661   3.940   5.601   4.136
  921SOL    HW1 3662   3.955   5.527   4.201
  921SOL    HW2 3663   3.981   5.685   4.172
  922SOL     OW 3664   3.016   3.186   4.346
  922SOL    HW1 3665   3.114   3.198   4.330
  922SOL    HW2 3666   2.966   3.263   4.306
  923SOL     OW 3667   2.079   3.504   6.630
  923SOL    HW1 3668   2.079   3.603   6.615
  923SOL    HW2 3669   2.004   3.480   6.692
  924SOL     OW 3670   6.090   3.742   2.182
  924SOL    HW1 3671   6.093   3.839   2.160
  924SOL    HW2 3672   6.170   3.718   2.237
  925SOL     OW 3673   7.027   1.882   6.791
  925SOL    HW1 3674   0.071   1.864   6.857
  925SOL    HW2 3675   6.968   1.802   6.784
  926SOL     OW 3676   6.813   0.978   1.485
  926SOL    HW1 3677   6.742   0.954   1.552
  926SOL    HW2 3678   6.855   1.065   1.511
  927SOL     OW 3679   5.550   3.618   3.434
  927SOL    HW1 3680   5.502   3.706   3.429
  927SOL    HW2 3681   5.645   3.634   3.460
  928SOL     OW 3682   2.492   6.043   0.618
  928SOL    HW1 3683   2.512   6.127   0.568
  928SOL    HW2 3684   2.578   6.001   0.647
  929SOL     OW 3685   0.672   0.935   6.707
  929SOL    HW1 3686   0.765   0.925   6.673
  929SOL    HW2 3687   0.647   1.032   6.710
  930SOL     OW 3688   5.534   6.842   6.243
  930SOL    HW1 3689   5.468   6.767   6.257
  930SOL    HW2 3690   5.617   6.805   6.201
  931SOL     OW 3691   0.095   0.946   4.929
  931SOL    HW1 3692   0.010   0.893   4.928
  931SOL    HW2 3693   0.139   0.937   5.018
  932SOL     OW 3694   3.264   0.920   3.501
  932SOL    HW1 3695   3.170   0.890   3.516
  932SOL    HW2 3696   3.317   0.905   3.585
  933SOL     OW 3697   1.818   5.671   3.294
  933SOL    HW1 3698   1.864   5.592   3.254
  933SOL    HW2 3699   1.861   5.755   3.262
  934SOL     OW 3700   2.514   5.909   6.669
  934SOL    HW1 3701   2.603   5.945   6.638
  934SOL    HW2 3702   2.456   5.985   6.697
  935SOL     OW 3703   4.869   4.011   4.464
  935SOL    HW1 3704   4.911   3.922   4.450
  935SOL    HW2 3705   4.876   4.038   4.560
  936SOL     OW 3706   6.730   0.445   5.811
  936SOL    HW1 3707   6.744   0.361   5.759
  936SOL    HW2 3708   6.738   0.524   5.750
  937SOL     OW 3709   5.643   1.765   6.383
  937SOL    HW1 3710   5.633   1.855   6.339
  937SOL    HW2 3711   5.585   1.762   6.464
  938SOL     OW 3712   5.879   4.377   6.288
  938SOL    HW1 3713   5.861   4.414   6.379
  938SOL    HW2 3714   5.976   4.356   6.278
  939SOL     OW 3715   0.756   6.465   3.894
  939SOL    HW1 3716   0.714   6.555   3.883
  939SOL    HW2 3717   0.853   6.470   3.868
  940SOL     OW 3718   0.380   4.292   0.921
  940SOL    HW1 3719   0.420   4.320   0.834
  940SOL    HW2 3720   0.317   4.364   0.953
  941SOL     OW 3721   5.865   2.182   0.044
  941SOL    HW1 3722   5.863   2.282   0.047
  941SOL    HW2 3723   5.934   2.152   7.006
  942SOL     OW 3724   6.041   6.821   2.872
  942SOL    HW1 3725   5.950   6.844   2.836
  942SOL    HW2 3726   6.109   6.882   2.831
  943SOL     OW 3727   1.545   4.370   2.967
  943SOL    HW1 3728   1.476   4.441   2.973
  943SOL    HW2 3729   1.501   4.282   2.948
  944SOL     OW 3730   0.117   5.386   5.467
  944SOL    HW1 3731   0.078   5.318   5.529
  944SOL    HW2 3732   0.168   5.454   5.519
  945SOL     OW 3733   0.831   4.744   6.076
  945SOL    HW1 3734   0.931   4.735   6.074
  945SOL    HW2 3735   0.791   4.654   6.095
  946SOL     OW 3736   5.000   4.313   5.550
  946SOL    HW1 3737   4.971   4.350   5.638
  946SOL    HW2 3738   4.924   4.264   5.508
  947SOL     OW 3739   3.442   3.037   3.141
  947SOL    HW1 3740   3.442   2.995   3.050
  947SOL    HW2 3741   3.350   3.072   3.162
  948SOL     OW 3742   5.389   0.887   3.020
  948SOL    HW1 3743   5.355   0.928   3.105
  948SOL    HW2 3744   5.348   0.797   3.007
  949SOL     OW 3745   2.586   5.790   0.158
  949SOL    HW1 3746   2.491   5.799   0.129
  949SOL    HW2 3747   2.590   5.736   0.243
  950SOL     OW 3748   6.054   5.698   2.044
  950SOL    HW1 3749   5.978   5.635   2.061
  950SOL    HW2 3750   6.136   5.663   2.088
  951SOL     OW 3751   1.743   0.073   4.451
  951SOL    HW1 3752   1.663   0.027   4.490
  951SOL    HW2 3753   1.712   0.146   4.389
  952SOL     OW 3754   4.708   2.558   3.309
  952SOL    HW1 3755   4.699   2.620   3.232
  952SOL    HW2 3756   4.617   2.528   3.339
  953SOL     OW 3757   5.776   5.710   4.669
  953SOL    HW1 3758   5.830   5.661   4.737
  953SOL    HW2 3759   5.679   5.710   4.697
  954SOL     OW 3760   3.521   6.038   2.433
  954SOL    HW1 3761   3.492   6.112   2.371
  954SOL    HW2 3762   3.480   5.952   2.404
  955SOL     OW 3763   1.208   4.273   1.210
  955SOL    HW1 3764   1.217   4.371   1.192
  955SOL    HW2 3765   1.247   4.222   1.134
  956SOL     OW 3766   6.186   0.462   1.404
  956SOL    HW1 3767   6.260   0.478   1.338
  956SOL    HW2 3768   6.196   0.370   1.444
  957SOL     OW 3769   5.364   2.693   2.467
  957SOL    HW1 3770   5.305   2.771   2.447
  957SOL    HW2 3771   5.382   2.689   2.565
  958SOL     OW 3772   4.187   0.578   1.403
  958SOL    HW1 3773   4.157   0.639   1.476
  958SOL    HW2 3774   4.216   0.632   1.324
  959SOL     OW 3775   3.489   6.473   4.472
  959SOL    HW1 3776   3.529   6.450   4.383
  959SOL    HW2 3777   3.521   6.408   4.541
  960SOL     OW 3778   0.828   0.589   1.558
  960SOL    HW1 3779   0.763   0.587   1.633
  960SOL    HW2 3780   0.849   0.496   1.529
  961SOL     OW 3781   4.266   6.465   3.687
  961SOL    HW1 3782   4.340   6.398   3.678
  961SOL    HW2 3783   4.300   6.556   3.661
  962SOL     OW 3784   6.905   0.425   5.050
  962SOL    HW1 3785   7.000   0.455   5.045
  962SOL    HW2 3786   6.846   0.504   5.063
  963SOL     OW 3787   5.407   0.807   6.712
  963SOL    HW1 3788   5.388   0.882   6.775
  963SOL    HW2 3789   5.359   0.823   6.625
  964SOL     OW 3790   5.138   5.079   6.734
  964SOL    HW1 3791   5.221   5.135   6.736
  964SOL    HW2 3792   5.059   5.137   6.715
  965SOL     OW 3793   5.882   1.427   2.161
  965SOL    HW1 3794   5.958   1.394   2.217
  965SOL    HW2 3795   5.810   1.462   2.221
  966SOL     OW 3796   5.706   2.369   2.593
  966SOL    HW1 3797   5.790   2.370   2.539
  966SOL    HW2 3798   5.726   2.332   2.684
  967SOL     OW 3799   3.103   4.772   0.905
  967SOL    HW1 3800   3.089   4.854   0.850
  967SOL    HW2 3801   3.200   4.748   0.906
  968SOL     OW 3802   4.509   0.664   2.061
  968SOL    HW1 3803   4.432   0.699   2.007
  968SOL    HW2 3804   4.565   0.741   2.092
  969SOL     OW 3805   2.413   4.154   5.560
  969SOL    HW1 3806   2.321   4.179   5.592
  969SOL    HW2 3807   2.410   4.134   5.462
  970SOL     OW 3808   5.073   0.801   6.400
  970SOL    HW1 3809   5.112   0.711   6.383
  970SOL    HW2 3810   4.991   0.813   6.343
  971SOL     OW 3811   0.003   2.951   3.102
  971SOL    HW1 3812   0.002   2.855   3.128
  971SOL    HW2 3813   0.092   2.974   3.063
  972SOL     OW 3814   5.939   1.499   1.765
  972SOL    HW1 3815   6.026   1.548   1.763
  972SOL    HW2 3816   5.956   1.401   1.760
  973SOL     OW 3817   1.031   5.400   6.796
  973SOL    HW1 3818   0.950   5.459   6.793
  973SOL    HW2 3819   1.105   5.447   6.844
  974SOL     OW 3820   6.098   5.799   1.557
  974SOL    HW1 3821   6.058   5.753   1.478
  974SOL    HW2 3822   6.185   5.840   1.532
  975SOL     OW 3823   2.545   0.421   0.439
  975SOL    HW1 3824   2.511   0.462   0.523
  975SOL    HW2 3825   2.637   0.383   0.455
  976SOL     OW 3826   0.149   3.604   1.369
  976SOL    HW1 3827   0.143   3.540   1.292
  976SOL    HW2 3828   0.222   3.671   1.350
  977SOL     OW 3829   0.358   0.443   2.025
  977SOL    HW1 3830   0.415   0.370   2.062
  977SOL    HW2 3831   0.270   0.445   2.071
  978SOL     OW 3832   5.432   2.227   0.273
  978SOL    HW1 3833   5.431   2.185   0.182
  978SOL    HW2 3834   5.487   2.310   0.271
  979SOL     OW 3835   1.075   3.518   0.038
  979SOL    HW1 3836   1.043   3.513   0.132
  979SOL    HW2 3837   1.076   3.613   0.008
  980SOL     OW 3838   5.288   2.046   4.016
  980SOL    HW1 3839   5.373   1.999   4.038
  980SOL    HW2 3840   5.300   2.102   3.934
  981SOL     OW 3841   0.143   1.131   4.689
  981SOL    HW1 3842   0.062   1.131   4.630
  981SOL    HW2 3843   0.145   1.048   4.745
  982SOL     OW 3844   0.630   1.081   4.854
  982SOL    HW1 3845   0.652   1.003   4.913
  982SOL    HW2 3846   0.660   1.062   4.761
  983SOL     OW 3847   6.571   2.945   3.490
  983SOL    HW1 3848   6.643   2.929   3.558
  983SOL    HW2 3849   6.554   3.044   3.484
  984SOL     OW 3850   2.696   2.435   3.690
  984SOL    HW1 3851   2.629   2.482   3.747
  984SOL    HW2 3852   2.739   2.361   3.742
  985SOL     OW 3853   6.633   3.749   4.681
  985SOL    HW1 3854   6.712   3.758   4.621
  985SOL    HW2 3855   6.589   3.660   4.667
  986SOL     OW 3856   4.578   4.377   1.135
  986SOL    HW1 3857   4.576   4.380   1.235
  986SOL    HW2 3858   4.530   4.457   1.099
  987SOL     OW 3859   4.602   6.687   2.410
  987SOL    HW1 3860   4.565   6.623   2.342
  987SOL    HW2 3861   4.573   6.780   2.387
  988SOL     OW 3862   3.245   4.186   1.178
  988SOL    HW1 3863   3.225   4.230   1.091
  988SOL    HW2 3864   3.159   4.175   1.229
  989SOL     OW 3865   6.769   1.921   6.351
  989SOL    HW1 3866   6.739   1.969   6.269
  989SOL    HW2 3867   6.718   1.956   6.430
  990SOL     OW 3868   3.420   0.528   2.233
  990SOL    HW1 3869   3.492   0.597   2.239
  990SOL    HW2 3870   3.368   0.526   2.319
  991SOL     OW 3871   0.362   3.807   3.536
  991SOL    HW1 3872   0.411   3.775   3.455
  991SOL    HW2 3873   0.426   3.819   3.612
  992SOL     OW 3874   0.403   3.433   2.064
  992SOL    HW1 3875   0.429   3.528   2.047
  992SOL    HW2 3876   0.483   3.374   2.053
  993SOL     OW 3877   6.999   4.673   0.653
  993SOL    HW1 3878   6.999   4.661   0.554
  993SOL    HW2 3879   6.909   4.650   0.690
  994SOL     OW 3880   4.365   5.107   2.293
  994SOL    HW1 3881   4.386   5.146   2.383
  994SOL    HW2 3882   4.358   5.008   2.301
  995SOL     OW 3883   3.705   2.982   6.022
  995SOL    HW1 3884   3.642   2.943   6.088
  995SOL    HW2 3885   3.786   3.018   6.069
  996SOL     OW 3886   3.604   4.987   4.616
  996SOL    HW1 3887   3.678   5.006   4.680
  996SOL    HW2 3888   3.523   4.956   4.666
  997SOL     OW 3889   1.057   6.764   2.983
  997SOL    HW1 3890   0.977   6.717   3.020
  997SOL    HW2 3891   1.031   6.811   2.898
  998SOL     OW 3892   6.187   0.222   5.862
  998SOL    HW1 3893   6.112   0.287   5.852
  998SOL    HW2 3894   6.171   0.143   5.802
  999SOL     OW 3895   5.035   3.884   2.268
  999SOL    HW1 3896   4.995   3.926   2.349
  999SOL    HW2 3897   5.132   3.905   2.263
 1000SOL     OW 3898   4.292   1.637   1.343
 1000SOL    HW1 3899   4.315   1.734   1.354
 1000SOL    HW2 3900   4.195   1.624   1.361
 1001SOL     OW 3901   4.276   5.959   2.205
 1001SOL    HW1 3902   4.364   5.995   2.176
 1001SOL    HW2 3903   4.211   6.034   2.214
 1002SOL     OW 3904   5.355   1.976   1.293
 1002SOL    HW1 3905   5.389   2.063   1.327
 1002SOL    HW2 3906   5.348   1.911   1.368
 1003SOL     OW 3907   2.476   5.382   3.406
 1003SOL    HW1 3908   2.409   5.405   3.335
 1003SOL    HW2 3909   2.457   5.291   3.442
 1004SOL     OW 3910   0.772   1.267   2.174
 1004SOL    HW1 3911   0.795   1.172   2.152
 1004SOL    HW2 3912   0.683   1.270   2.220
 1005SOL     OW 3913   1.669   2.673   4.142
 1005SOL    HW1 3914   1.637   2.768   4.148
 1005SOL    HW2 3915   1.717   2.660   4.055
 1006SOL     OW 3916   1.415   4.280   0.589
 1006SOL    HW1 3917   1.431   4.309   0.495
 1006SOL    HW2 3918   1.498   4.297   0.643
 1007SOL     OW 3919   4.288   0.788   5.828
 1007SOL    HW1 3920   4.341   0.872   5.841
 1007SOL    HW2 3921   4.197   0.800   5.867
 1008SOL     OW 3922   0.424   2.193   5.570
 1008SOL    HW1 3923   0.356   2.198   5.497
 1008SOL    HW2 3924   0.383   2.224   5.656
 1009SOL     OW 3925   6.766   5.404   5.483
 1009SOL    HW1 3926   6.701   5.328   5.478
 1009SOL    HW2 3927   6.842   5.386   5.420
 1010SOL     OW 3928   2.548   2.863   1.339
 1010SOL    HW1 3929   2.495   2.940   1.303
 1010SOL    HW2 3930   2.580   2.885   1.432
 1011SOL     OW 3931   1.381   5.492   3.468
 1011SOL    HW1 3932   1.409   5.410   3.516
 1011SOL    HW2 3933   1.401   5.482   3.370
 1012SOL     OW 3934   6.721   6.506   2.252
 1012SOL    HW1 3935   6.716   6.526   2.154
 1012SOL    HW2 3936   6.807   6.541   2.289
 1013SOL     OW 3937   0.390   0.766   6.324
 1013SOL    HW1 3938   0.375   0.768   6.423
 1013SOL    HW2 3939   0.304   0.745   6.278
 1014SOL     OW 3940   0.459   4.175   4.888
 1014SOL    HW1 3941   0.363   4.154   4.907
 1014SOL    HW2 3942   0.503   4.096   4.845
 1015SOL     OW 3943   1.963   0.173   6.048
 1015SOL    HW1 3944   1.881   0.116   6.054
 1015SOL    HW2 3945   1.995   0.175   5.953
 1016SOL     OW 3946   4.165   4.253   0.522
 1016SOL    HW1 3947   4.199   4.334   0.474
 1016SOL    HW2 3948   4.077   4.226   0.484
 1017SOL     OW 3949   4.092   2.424   0.884
 1017SOL    HW1 3950   3.995   2.441   0.905
 1017SOL    HW2 3951   4.105   2.327   0.865
 1018SOL     OW 3952   0.879   4.538   4.279
 1018SOL    HW1 3953   0.818   4.459   4.267
 1018SOL    HW2 3954   0.971   4.514   4.249
 1019SOL     OW 3955   0.092   5.823   1.413
 1019SOL    HW1 3956   0.052   5.746   1.363
 1019SOL    HW2 3957   0.181   5.846   1.373
 1020SOL     OW 3958   6.542   1.183   1.842
 1020SOL    HW1 3959   6.548   1.268   1.790
 1020SOL    HW2 3960   6.537   1.203   1.940
 1021SOL     OW 3961   5.444   6.804   2.115
 1021SOL    HW1 3962   5.381   6.845   2.181
 1021SOL    HW2 3963   5.446   6.860   2.033
 1022SOL     OW 3964   3.091   5.130   5.808
 1022SOL    HW1 3965   3.003   5.175   5.791
 1022SOL    HW2 3966   3.120   5.082   5.725
 1023SOL     OW 3967   0.246   1.193   2.990
 1023SOL    HW1 3968   0.305   1.189   3.070
 1023SOL    HW2 3969   0.301   1.187   2.907
 1024SOL     OW 3970   0.366   1.924   3.969
 1024SOL    HW1 3971   0.312   1.872   3.903
 1024SOL    HW2 3972   0.322   1.921   4.059
 1025SOL     OW 3973   3.843   3.441   0.528
 1025SOL    HW1 3974   3.817   3.345   0.517
 1025SOL    HW2 3975   3.806   3.476   0.613
 1026SOL     OW 3976   2.403   2.997   1.708
 1026SOL    HW1 3977   2.499   3.004   1.683
 1026SOL    HW2 3978   2.368   3.088   1.731
 1027SOL     OW 3979   2.870   6.802   2.271
 1027SOL    HW1 3980   2.802   6.830   2.339
 1027SOL    HW2 3981   2.824   6.766   2.190
 1028SOL     OW 3982   1.569   6.780   2.689
 1028SOL    HW1 3983   1.621   6.694   2.691
 1028SOL    HW2 3984   1.476   6.763   2.722
 1029SOL     OW 3985   1.196   1.744   6.059
 1029SOL    HW1 3986   1.157   1.667   6.110
 1029SOL    HW2 3987   1.255   1.797   6.120
 1030SOL     OW 3988   3.308   3.437   1.628
 1030SOL    HW1 3989   3.405   3.419   1.608
 1030SOL    HW2 3990   3.263   3.351   1.651
 1031SOL     OW 3991   4.945   3.413   1.735
 1031SOL    HW1 3992   4.932   3.318   1.765
 1031SOL    HW2 3993   4.924   3.475   1.811
 1032SOL     OW 3994   1.153   1.028   5.073
 1032SOL    HW1 3995   1.196   0.998   5.158
 1032SOL    HW2 3996   1.055   1.012   5.077
 1033SOL     OW 3997   1.507   5.428   1.821
 1033SOL    HW1 3998   1.577   5.361   1.848
 1033SOL    HW2 3999   1.540   5.479   1.741
 1034SOL     OW 4000   1.794   5.420   4.317
 1034SOL    HW1 4001   1.715   5.477   4.294
 1034SOL    HW2 4002   1.853   5.412   4.236
 1035SOL     OW 4003   6.863   2.091   6.871
 1035SOL    HW1 4004   6.946   2.046   6.836
 1035SOL    HW2 4005   6.825   2.037   6.947
 1036SOL     OW 4006   4.223   1.112   1.840
 1036SOL    HW1 4007   4.301   1.084   1.895
 1036SOL    HW2 4008   4.138   1.089   1.888
 1037SOL     OW 4009   1.595   1.413   2.722
 1037SOL    HW1 4010   1.511   1.360   2.711
 1037SOL    HW2 4011   1.663   1.383   2.655
 1038SOL     OW 4012   1.896   1.338   5.345
 1038SOL    HW1 4013   1.882   1.330   5.246
 1038SOL    HW2 4014   1.870   1.430   5.375
 1039SOL     OW 4015   3.570   4.063   3.970
 1039SOL    HW1 4016   3.602   4.090   4.061
 1039SOL    HW2 4017   3.642   4.080   3.903
 1040SOL     OW 4018   5.034   1.003   2.120
 1040SOL    HW1 4019   5.017   1.098   2.096
 1040SOL    HW2 4020   4.970   0.944   2.071
 1041SOL     OW 4021   6.770   6.202   3.219
 1041SOL    HW1 4022   6.752   6.249   3.133
 1041SOL    HW2 4023   6.865   6.170   3.220
 1042SOL     OW 4024   4.231   5.466   2.906
 1042SOL    HW1 4025   4.198   5.528   2.835
 1042SOL    HW2 4026   4.322   5.433   2.882
 1043SOL     OW 4027   3.643   2.104   3.352
 1043SOL    HW1 4028   3.566   2.110   3.289
 1043SOL    HW2 4029   3.608   2.092   3.445
 1044SOL     OW 4030   6.307   5.205   2.385
 1044SOL    HW1 4031   6.357   5.239   2.305
 1044SOL    HW2 4032   6.252   5.279   2.423
 1045SOL     OW 4033   4.310   0.584   2.644
 1045SOL    HW1 4034   4.261   0.638   2.712
 1045SOL    HW2 4035   4.251   0.567   2.565
 1046SOL     OW 4036   1.735   1.394   0.195
 1046SOL    HW1 4037   1.725   1.490   0.170
 1046SOL    HW2 4038   1.828   1.363   0.174
 1047SOL     OW 4039   2.507   0.139   4.095
 1047SOL    HW1 4040   2.600   0.149   4.059
 1047SOL    HW2 4041   2.441   0.166   4.025
 1048SOL     OW 4042   3.423   6.549   1.974
 1048SOL    HW1 4043   3.493   6.567   2.043
 1048SOL    HW2 4044   3.435   6.611   1.896
 1049SOL     OW 4045   6.213   6.819   3.788
 1049SOL    HW1 4046   6.305   6.844   3.816
 1049SOL    HW2 4047   6.194   6.725   3.816
 1050SOL     OW 4048   3.952   5.313   2.644
 1050SOL    HW1 4049   3.912   5.261   2.569
 1050SOL    HW2 4050   3.946   5.260   2.729
 1051SOL     OW 4051   0.473   5.472   0.608
 1051SOL    HW1 4052   0.385   5.479   0.655
 1051SOL    HW2 4053   0.486   5.378   0.576
 1052SOL     OW 4054   4.499   0.920   5.673
 1052SOL    HW1 4055   4.583   0.907   5.727
 1052SOL    HW2 4056   4.475   0.834   5.628
 1053SOL     OW 4057   5.781   3.522   2.288
 1053SOL    HW1 4058   5.777   3.531   2.388
 1053SOL    HW2 4059   5.734   3.439   2.260
 1054SOL     OW 4060   3.212   3.612   0.988
 1054SOL    HW1 4061   3.213   3.632   1.086
 1054SOL    HW2 4062   3.152   3.535   0.969
 1055SOL     OW 4063   4.261   6.464   5.611
 1055SOL    HW1 4064   4.218   6.477   5.523
 1055SOL    HW2 4065   4.312   6.546   5.637
 1056SOL     OW 4066   1.233   3.413   0.437
 1056SOL    HW1 4067   1.156   3.349   0.440
 1056SOL    HW2 4068   1.312   3.368   0.395
 1057SOL     OW 4069   3.439   3.123   0.935
 1057SOL    HW1 4070   3.510   3.061   0.969
 1057SOL    HW2 4071   3.356   3.110   0.989
 1058SOL     OW 4072   5.066   2.085   4.181
 1058SOL    HW1 4073   5.124   2.093   4.100
 1058SOL    HW2 4074   4.980   2.134   4.164
 1059SOL     OW 4075   2.067   0.456   2.311
 1059SOL    HW1 4076   2.144   0.392   2.314
 1059SOL    HW2 4077   2.094   0.538   2.260
 1060SOL     OW 4078   0.268   4.545   4.161
 1060SOL    HW1 4079   0.325   4.532   4.080
 1060SOL    HW2 4080   0.259   4.643   4.179
 1061SOL     OW 4081   6.664   3.283   6.098
 1061SOL    HW1 4082   6.722   3.353   6.056
 1061SOL    HW2 4083   6.705   3.253   6.184
 1062SOL     OW 4084   5.016   5.368   5.913
 1062SOL    HW1 4085   4.928   5.321   5.905
 1062SOL    HW2 4086   5.075   5.317   5.974
 1063SOL     OW 4087   0.491   6.164   0.472
 1063SOL    HW1 4088   0.519   6.085   0.417
 1063SOL    HW2 4089   0.412   6.140   0.528
 1064SOL     OW 4090   1.616   4.242   2.382
 1064SOL    HW1 4091   1.590   4.259   2.477
 1064SOL    HW2 4092   1.702   4.288   2.362
 1065SOL     OW 4093   4.452   0.876   2.635
 1065SOL    HW1 4094   4.432   0.812   2.560
 1065SOL    HW2 4095   4.447   0.970   2.600
 1066SOL     OW 4096   4.498   6.566   2.648
 1066SOL    HW1 4097   4.431   6.494   2.629
 1066SOL    HW2 4098   4.550   6.586   2.565
 1067SOL     OW 4099   1.651   2.260   0.046
 1067SOL    HW1 4100   1.595   2.338   0.018
 1067SOL    HW2 4101   1.704   2.285   0.127
 1068SOL     OW 4102   6.788   4.401   1.228
 1068SOL    HW1 4103   6.762   4.313   1.266
 1068SOL    HW2 4104   6.754   4.408   1.134
 1069SOL     OW 4105   5.095   5.942   0.856
 1069SOL    HW1 4106   5.039   5.976   0.932
 1069SOL    HW2 4107   5.182   5.991   0.854
 1070SOL     OW 4108   1.535   0.557   1.831
 1070SOL    HW1 4109   1.577   0.571   1.742
 1070SOL    HW2 4110   1.605   0.534   1.898
 1071SOL     OW 4111   2.499   1.864   3.790
 1071SOL    HW1 4112   2.509   1.767   3.808
 1071SOL    HW2 4113   2.492   1.881   3.692
 1072SOL     OW 4114   2.737   1.200   1.171
 1072SOL    HW1 4115   2.746   1.144   1.089
 1072SOL    HW2 4116   2.759   1.295   1.149
 1073SOL     OW 4117   4.732   0.931   3.373
 1073SOL    HW1 4118   4.828   0.949   3.351
 1073SOL    HW2 4119   4.726   0.857   3.440
 1074SOL     OW 4120   2.661   5.371   1.958
 1074SOL    HW1 4121   2.623   5.418   1.878
 1074SOL    HW2 4122   2.666   5.435   2.034
 1075SOL     OW 4123   6.178   0.457   3.170
 1075SOL    HW1 4124   6.222   0.390   3.231
 1075SOL    HW2 4125   6.203   0.437   3.075
 1076SOL     OW 4126   0.675   2.119   5.499
 1076SOL    HW1 4127   0.592   2.176   5.498
 1076SOL    HW2 4128   0.717   2.122   5.589
 1077SOL     OW 4129   6.634   6.769   1.121
 1077SOL    HW1 4130   6.727   6.736   1.105
 1077SOL    HW2 4131   6.637   6.849   1.181
 1078SOL     OW 4132   0.060   0.298   2.959
 1078SOL    HW1 4133   0.115   0.223   2.996
 1078SOL    HW2 4134   0.109   0.384   2.971
 1079SOL     OW 4135   1.584   5.875   2.340
 1079SOL    HW1 4136   1.590   5.869   2.240
 1079SOL    HW2 4137   1.489   5.895   2.366
 1080SOL     OW 4138   2.387   5.590   3.728
 1080SOL    HW1 4139   2.466   5.578   3.668
 1080SOL    HW2 4140   2.309   5.539   3.690
 1081SOL     OW 4141   6.617   5.534   5.733
 1081SOL    HW1 4142   6.675   5.508   5.656
 1081SOL    HW2 4143   6.665   5.514   5.819
 1082SOL     OW 4144   5.748   2.072   6.019
 1082SOL    HW1 4145   5.819   2.069   6.089
 1082SOL    HW2 4146   5.727   2.167   5.997
 1083SOL     OW 4147   4.956   3.969   0.464
 1083SOL    HW1 4148   4.972   3.884   0.414
 1083SOL    HW2 4149   4.884   3.955   0.532
 1084SOL     OW 4150   6.559   6.554   6.423
 1084SOL    HW1 4151   6.514   6.468   6.449
 1084SOL    HW2 4152   6.496   6.630   6.436
 1085SOL     OW 4153   1.762   3.977   4.522
 1085SOL    HW1 4154   1.760   3.883   4.488
 1085SOL    HW2 4155   1.700   3.986   4.600
 1086SOL     OW 4156   6.697   4.681   0.463
 1086SOL    HW1 4157   6.604   4.702   0.494
 1086SOL    HW2 4158   6.713   4.582   0.473
 1087SOL     OW 4159   7.017   1.876   5.025
 1087SOL    HW1 4160   7.024   1.801   5.090
 1087SOL    HW2 4161   6.976   1.956   5.070
 1088SOL     OW 4162   0.208   4.176   2.784
 1088SOL    HW1 4163   0.248   4.211   2.699
 1088SOL    HW2 4164   0.248   4.086   2.804
 1089SOL     OW 4165   6.562   5.676   4.658
 1089SOL    HW1 4166   6.632   5.660   4.589
 1089SOL    HW2 4167   6.472   5.658   4.618
 1090SOL     OW 4168   3.724   1.892   2.945
 1090SOL    HW1 4169   3.790   1.825   2.979
 1090SOL    HW2 4170   3.705   1.960   3.015
 1091SOL     OW 4171   2.293   2.906   4.138
 1091SOL    HW1 4172   2.329   2.820   4.174
 1091SOL    HW2 4173   2.297   2.905   4.038
 1092SOL     OW 4174   1.401   4.817   0.702
 1092SOL    HW1 4175   1.476   4.752   0.691
 1092SOL    HW2 4176   1.362   4.807   0.794
 1093SOL     OW 4177   2.812   6.829   1.486
 1093SOL    HW1 4178   2.803   6.782   1.398
 1093SOL    HW2 4179   2.790   6.926   1.474
 1094SOL     OW 4180   0.758   6.351   2.932
 1094SOL    HW1 4181   0.838   6.393   2.976
 1094SOL    HW2 4182   0.744   6.393   2.842
 1095SOL     OW 4183   0.309   2.967   6.157
 1095SOL    HW1 4184   0.239   2.901   6.129
 1095SOL    HW2 4185   0.383   2.967   6.091
 1096SOL     OW 4186   3.526   4.469   1.384
 1096SOL    HW1 4187   3.430   4.486   1.409
 1096SOL    HW2 4188   3.544   4.371   1.390
 1097SOL     OW 4189   2.083   4.574   3.872
 1097SOL    HW1 4190   2.058   4.647   3.936
 1097SOL    HW2 4191   2.035   4.588   3.785
 1098SOL     OW 4192   5.548   3.590   6.400
 1098SOL    HW1 4193   5.492   3.572   6.319
 1098SOL    HW2 4194   5.541   3.686   6.425
 1099SOL     OW 4195   4.019   1.269   6.642
 1099SOL    HW1 4196   3.957   1.337   6.603
 1099SOL    HW2 4197   3.989   1.177   6.615
 1100SOL     OW 4198   4.360   1.271   4.680
 1100SOL    HW1 4199   4.443   1.252   4.627
 1100SOL    HW2 4200   4.385   1.315   4.766
 1101SOL     OW 4201   5.507   4.139   5.533
 1101SOL    HW1 4202   5.414   4.159   5.502
 1101SOL    HW2 4203   5.570   4.145   5.455
 1102SOL     OW 4204   1.727   0.857   4.876
 1102SOL    HW1 4205   1.781   0.774   4.869
 1102SOL    HW2 4206   1.705   0.892   4.785
 1103SOL     OW 4207   3.246   1.239   0.658
 1103SOL    HW1 4208   3.311   1.237   0.582
 1103SOL    HW2 4209   3.199   1.327   0.659
 1104SOL     OW 4210   1.813   3.394   3.842
 1104SOL    HW1 4211   1.877   3.391   3.919
 1104SOL    HW2 4212   1.848   3.336   3.768
 1105SOL     OW 4213   5.684   2.990   4.788
 1105SOL    HW1 4214   5.723   3.072   4.745
 1105SOL    HW2 4215   5.633   3.017   4.870
 1106SOL     OW 4216   0.854   2.266   1.708
 1106SOL    HW1 4217   0.929   2.306   1.760
 1106SOL    HW2 4218   0.890   2.197   1.645
 1107SOL     OW 4219   1.350   0.244   7.006
 1107SOL    HW1 4220   1.367   0.318   0.042
 1107SOL    HW2 4221   1.267   0.195   0.004
 1108SOL     OW 4222   3.347   6.831   5.429
 1108SOL    HW1 4223   3.426   6.880   5.392
 1108SOL    HW2 4224   3.274   6.896   5.450
 1109SOL     OW 4225   5.826   1.028   4.584
 1109SOL    HW1 4226   5.898   0.959   4.579
 1109SOL    HW2 4227   5.844   1.100   4.517
 1110SOL     OW 4228   4.489   2.194   2.807
 1110SOL    HW1 4229   4.446   2.136   2.877
 1110SOL    HW2 4230   4.429   2.271   2.785
 1111SOL     OW 4231   5.773   5.884   6.516
 1111SOL    HW1 4232   5.753   5.943   6.438
 1111SOL    HW2 4233   5.840   5.928   6.575
 1112SOL     OW 4234   5.795   0.829   2.484
 1112SOL    HW1 4235   5.816   0.888   2.562
 1112SOL    HW2 4236   5.880   0.803   2.438
 1113SOL     OW 4237   5.830   4.617   1.443
 1113SOL    HW1 4238   5.805   4.673   1.522
 1113SOL    HW2 4239   5.891   4.543   1.474
 1114SOL     OW 4240   2.296   1.048   6.347
 1114SOL    HW1 4241   2.259   1.140   6.346
 1114SOL    HW2 4242   2.396   1.052   6.349
 1115SOL     OW 4243   3.715   3.568   5.455
 1115SOL    HW1 4244   3.687   3.661   5.480
 1115SOL    HW2 4245   3.728   3.513   5.538
 1116SOL     OW 4246   5.053   6.633   6.638
 1116SOL    HW1 4247   5.145   6.595   6.649
 1116SOL    HW2 4248   5.058   6.717   6.584
 1117SOL     OW 4249   0.882   1.987   2.066
 1117SOL    HW1 4250   0.848   1.978   1.973
 1117SOL    HW2 4251   0.950   2.060   2.070
 1118SOL     OW 4252   2.222   5.234   0.453
 1118SOL    HW1 4253   2.194   5.329   0.444
 1118SOL    HW2 4254   2.150   5.174   0.420
 1119SOL     OW 4255   4.174   4.483   1.677
 1119SOL    HW1 4256   4.242   4.493   1.750
 1119SOL    HW2 4257   4.209   4.524   1.593
 1120SOL     OW 4258   5.820   5.608   0.695
 1120SOL    HW1 4259   5.851   5.553   0.773
 1120SOL    HW2 4260   5.720   5.607   0.692
 1121SOL     OW 4261   0.076   4.189   4.516
 1121SOL    HW1 4262   0.144   4.248   4.471
 1121SOL    HW2 4263   0.023   4.142   4.446
 1122SOL     OW 4264   5.583   3.056   2.439
 1122SOL    HW1 4265   5.571   2.998   2.359
 1122SOL    HW2 4266   5.494   3.069   2.484
 1123SOL     OW 4267   5.056   2.226   3.403
 1123SOL    HW1 4268   5.145   2.209   3.360
 1123SOL    HW2 4269   5.036   2.324   3.400
 1124SOL     OW 4270   0.139   3.859   5.066
 1124SOL    HW1 4271   0.072   3.842   5.139
 1124SOL    HW2 4272   0.144   3.779   5.006
 1125SOL     OW 4273   1.574   2.282   3.913
 1125SOL    HW1 4274   1.666   2.319   3.918
 1125SOL    HW2 4275   1.508   2.356   3.899
 1126SOL     OW 4276   6.503   5.407   6.158
 1126SOL    HW1 4277   6.572   5.451   6.101
 1126SOL    HW2 4278   6.545   5.334   6.212
 1127SOL     OW 4279   5.668   5.961   4.669
 1127SOL    HW1 4280   5.734   5.889   4.644
 1127SOL    HW2 4281   5.673   5.977   4.768
 1128SOL     OW 4282   5.859   1.310   4.185
 1128SOL    HW1 4283   5.804   1.234   4.217
 1128SOL    HW2 4284   5.858   1.313   4.085
 1129SOL     OW 4285   2.144   6.842   0.977
 1129SOL    HW1 4286   2.232   6.887   0.992
 1129SOL    HW2 4287   2.115   6.797   1.062
 1130SOL     OW 4288   2.373   4.899   0.860
 1130SOL    HW1 4289   2.321   4.822   0.897
 1130SOL    HW2 4290   2.316   4.952   0.797
 1131SOL     OW 4291   1.682   0.068   5.246
 1131SOL    HW1 4292   1.745   0.087   5.321
 1131SOL    HW2 4293   1.698   7.003   5.213
 1132SOL     OW 4294   4.419   7.011   2.837
 1132SOL    HW1 4295   4.352   0.056   2.837
 1132SOL    HW2 4296   4.491   0.001   2.903
 1133SOL     OW 4297   1.829   1.132   0.328
 1133SOL    HW1 4298   1.899   1.091   0.269
 1133SOL    HW2 4299   1.782   1.205   0.278
 1134SOL     OW 4300   4.729   0.283   2.699
 1134SOL    HW1 4301   4.791   0.282   2.777
 1134SOL    HW2 4302   4.752   0.207   2.638
 1135SOL     OW 4303   2.094   6.378   4.124
 1135SOL    HW1 4304   2.174   6.399   4.181
 1135SOL    HW2 4305   2.111   6.295   4.071
 1136SOL     OW 4306   4.209   4.663   3.061
 1136SOL    HW1 4307   4.201   4.754   3.102
 1136SOL    HW2 4308   4.153   4.658   2.978
 1137SOL     OW 4309   1.346   6.621   0.218
 1137SOL    HW1 4310   1.343   6.651   0.314
 1137SOL    HW2 4311   1.296   6.687   0.161
 1138SOL     OW 4312   0.125   1.190   5.813
 1138SOL    HW1 4313   0.178   1.260   5.765
 1138SOL    HW2 4314   0.032   1.224   5.831
 1139SOL     OW 4315   2.517   4.903   3.449
 1139SOL    HW1 4316   2.572   4.833   3.495
 1139SOL    HW2 4317   2.577   4.963   3.397
 1140SOL     OW 4318   2.634   0.641   1.967
 1140SOL    HW1 4319   2.570   0.687   1.906
 1140SOL    HW2 4320   2.720   0.692   1.969
 1141SOL     OW 4321   0.509   6.281   0.236
 1141SOL    HW1 4322   0.527   6.379   0.227
 1141SOL    HW2 4323   0.489   6.259   0.331
 1142SOL     OW 4324   3.335   0.291   4.202
 1142SOL    HW1 4325   3.416   0.232   4.197
 1142SOL    HW2 4326   3.254   0.236   4.221
 1143SOL     OW 4327   1.895   2.895   2.547
 1143SOL    HW1 4328   1.994   2.882   2.536
 1143SOL    HW2 4329   1.847   2.816   2.509
 1144SOL     OW 4330   5.816   4.641   3.603
 1144SOL    HW1 4331   5.859   4.680   3.685
 1144SOL    HW2 4332   5.773   4.713   3.550
 1145SOL     OW 4333   7.001   3.183   0.692
 1145SOL    HW1 4334   7.005   3.103   0.632
 1145SOL    HW2 4335   0.061   3.227   0.695
 1146SOL     OW 4336   0.227   1.900   2.325
 1146SOL    HW1 4337   0.164   1.936   2.257
 1146SOL    HW2 4338   0.280   1.976   2.364
 1147SOL     OW 4339   3.245   5.755   1.728
 1147SOL    HW1 4340   3.210   5.762   1.822
 1147SOL    HW2 4341   3.269   5.660   1.709
 1148SOL     OW 4342   4.434   6.376   0.614
 1148SOL    HW1 4343   4.483   6.420   0.539
 1148SOL    HW2 4344   4.497   6.357   0.689
 1149SOL     OW 4345   5.239   2.484   2.335
 1149SOL    HW1 4346   5.291   2.561   2.372
 1149SOL    HW2 4347   5.152   2.475   2.384
 1150SOL     OW 4348   0.912   4.476   6.930
 1150SOL    HW1 4349   0.849   4.406   6.963
 1150SOL    HW2 4350   0.877   4.567   6.956
 1151SOL     OW 4351   5.542   4.391   4.723
 1151SOL    HW1 4352   5.586   4.325   4.783
 1151SOL    HW2 4353   5.444   4.371   4.717
 1152SOL     OW 4354   4.710   5.838   6.192
 1152SOL    HW1 4355   4.748   5.882   6.111
 1152SOL    HW2 4356   4.627   5.788   6.167
 1153SOL     OW 4357   6.419   6.897   1.596
 1153SOL    HW1 4358   6.346   6.854   1.543
 1153SOL    HW2 4359   6.405   6.879   1.693
 1154SOL     OW 4360   0.445   4.869   0.674
 1154SOL    HW1 4361   0.463   4.854   0.577
 1154SOL    HW2 4362   0.430   4.967   0.690
 1155SOL     OW 4363   3.305   4.817   5.558
 1155SOL    HW1 4364   3.369   4.812   5.635
 1155SOL    HW2 4365   3.279   4.912   5.542
 1156SOL     OW 4366   4.360   1.876   5.237
 1156SOL    HW1 4367   4.455   1.906   5.241
 1156SOL    HW2 4368   4.357   1.777   5.224
 1157SOL     OW 4369   5.218   1.222   6.223
 1157SOL    HW1 4370   5.280   1.185   6.154
 1157SOL    HW2 4371   5.269   1.282   6.284
 1158SOL     OW 4372   6.800   5.183   4.892
 1158SOL    HW1 4373   6.779   5.153   4.985
 1158SOL    HW2 4374   6.843   5.107   4.842
 1159SOL     OW 4375   6.541   6.860   3.583
 1159SOL    HW1 4376   6.558   6.821   3.492
 1159SOL    HW2 4377   6.508   6.954   3.573
 1160SOL     OW 4378   4.276   4.874   1.447
 1160SOL    HW1 4379   4.311   4.953   1.498
 1160SOL    HW2 4380   4.176   4.875   1.448
 1161SOL     OW 4381   0.170   5.798   6.099
 1161SOL    HW1 4382   0.162   5.705   6.137
 1161SOL    HW2 4383   0.137   5.798   6.005
 1162SOL     OW 4384   2.048   2.359   6.358
 1162SOL    HW1 4385   1.997   2.303   6.293
 1162SOL    HW2 4386   2.078   2.302   6.435
 1163SOL     OW 4387   6.528   4.047   1.685
 1163SOL    HW1 4388   6.494   3.953   1.676
 1163SOL    HW2 4389   6.624   4.045   1.711
 1164SOL     OW 4390   4.703   2.017   4.481
 1164SOL    HW1 4391   4.705   2.113   4.453
 1164SOL    HW2 4392   4.779   1.999   4.545
 1165SOL     OW 4393   4.552   5.720   3.593
 1165SOL    HW1 4394   4.601   5.746   3.676
 1165SOL    HW2 4395   4.471   5.666   3.617
 1166SOL     OW 4396   2.630   6.640   0.092
 1166SOL    HW1 4397   2.693   6.584   0.039
 1166SOL    HW2 4398   2.536   6.610   0.076
 1167SOL     OW 4399   4.542   6.208   0.299
 1167SOL    HW1 4400   4.572   6.303   0.295
 1167SOL    HW2 4401   4.510   6.186   0.391
 1168SOL     OW 4402   5.766   2.721   1.438
 1168SOL    HW1 4403   5.813   2.710   1.525
 1168SOL    HW2 4404   5.826   2.692   1.363
 1169SOL     OW 4405   4.512   2.032   6.024
 1169SOL    HW1 4406   4.600   2.071   6.050
 1169SOL    HW2 4407   4.512   1.934   6.046
 1170SOL     OW 4408   5.264   0.186   3.242
 1170SOL    HW1 4409   5.231   0.136   3.322
 1170SOL    HW2 4410   5.350   0.232   3.264
 1171SOL     OW 4411   3.040   6.124   6.545
 1171SOL    HW1 4412   3.015   6.163   6.456
 1171SOL    HW2 4413   3.041   6.196   6.614
 1172SOL     OW 4414   4.966   4.427   0.989
 1172SOL    HW1 4415   5.003   4.491   0.921
 1172SOL    HW2 4416   4.981   4.333   0.959
 1173SOL     OW 4417   3.513   1.133   0.955
 1173SOL    HW1 4418   3.514   1.227   0.988
 1173SOL    HW2 4419   3.418   1.105   0.937
 1174SOL     OW 4420   3.275   3.917   1.862
 1174SOL    HW1 4421   3.180   3.927   1.890
 1174SOL    HW2 4422   3.303   3.821   1.873
 1175SOL     OW 4423   4.380   3.796   6.138
 1175SOL    HW1 4424   4.411   3.857   6.212
 1175SOL    HW2 4425   4.289   3.761   6.159
 1176SOL     OW 4426   5.245   3.673   0.262
 1176SOL    HW1 4427   5.321   3.624   0.303
 1176SOL    HW2 4428   5.241   3.766   0.299
 1177SOL     OW 4429   6.075   4.069   4.833
 1177SOL    HW1 4430   6.157   4.077   4.777
 1177SOL    HW2 4431   5.995   4.094   4.779
 1178SOL     OW 4432   3.225   4.291   0.288
 1178SOL    HW1 4433   3.166   4.249   0.357
 1178SOL    HW2 4434   3.171   4.315   0.208
 1179SOL     OW 4435   2.592   5.860   0.931
 1179SOL    HW1 4436   2.578   5.789   0.863
 1179SOL    HW2 4437   2.518   5.927   0.925
 1180SOL     OW 4438   2.648   6.665   3.744
 1180SOL    HW1 4439   2.688   6.689   3.656
 1180SOL    HW2 4440   2.716   6.619   3.801
 1181SOL     OW 4441   0.321   5.386   4.984
 1181SOL    HW1 4442   0.241   5.407   5.039
 1181SOL    HW2 4443   0.296   5.386   4.887
 1182SOL     OW 4444   5.143   5.604   3.669
 1182SOL    HW1 4445   5.230   5.611   3.619
 1182SOL    HW2 4446   5.128   5.509   3.696
 1183SOL     OW 4447   2.387   4.815   0.384
 1183SOL    HW1 4448   2.476   4.847   0.418
 1183SOL    HW2 4449   2.392   4.801   0.285
 1184SOL     OW 4450   6.696   1.063   4.486
 1184SOL    HW1 4451   6.790   1.031   4.474
 1184SOL    HW2 4452   6.643   1.042   4.403
 1185SOL     OW 4453   0.645   0.828   1.006
 1185SOL    HW1 4454   0.688   0.910   0.969
 1185SOL    HW2 4455   0.571   0.854   1.069
 1186SOL     OW 4456   5.432   6.083   5.657
 1186SOL    HW1 4457   5.415   6.099   5.754
 1186SOL    HW2 4458   5.406   6.164   5.605
 1187SOL     OW 4459   4.985   0.070   5.926
 1187SOL    HW1 4460   4.893   0.033   5.941
 1187SOL    HW2 4461   5.048   7.024   5.904
 1188SOL     OW 4462   3.550   6.478   5.764
 1188SOL    HW1 4463   3.528   6.381   5.775
 1188SOL    HW2 4464   3.484   6.521   5.703
 1189SOL     OW 4465   6.232   1.965   1.571
 1189SOL    HW1 4466   6.185   1.884   1.538
 1189SOL    HW2 4467   6.244   2.030   1.496
 1190SOL     OW 4468   3.366   5.758   3.716
 1190SOL    HW1 4469   3.458   5.772   3.680
 1190SOL    HW2 4470   3.323   5.846   3.735
 1191SOL     OW 4471   4.275   5.932   4.347
 1191SOL    HW1 4472   4.244   6.027   4.339
 1191SOL    HW2 4473   4.372   5.931   4.370
 1192SOL     OW 4474   4.966   4.580   2.032
 1192SOL    HW1 4475   4.997   4.617   1.944
 1192SOL    HW2 4476   4.961   4.480   2.026
 1193SOL     OW 4477   6.305   2.222   4.759
 1193SOL    HW1 4478   6.313   2.188   4.853
 1193SOL    HW2 4479   6.209   2.234   4.736
 1194SOL     OW 4480   5.742   6.893   1.651
 1194SOL    HW1 4481   5.800   6.833   1.595
 1194SOL    HW2 4482   5.703   6.841   1.726
 1195SOL     OW 4483   0.492   4.450   0.701
 1195SOL    HW1 4484   0.421   4.518   0.684
 1195SOL    HW2 4485   0.558   4.452   0.626
 1196SOL     OW 4486   6.880   4.828   3.628
 1196SOL    HW1 4487   6.915   4.890   3.557
 1196SOL    HW2 4488   6.784   4.848   3.645
 1197SOL     OW 4489   4.801   0.240   5.113
 1197SOL    HW1 4490   4.790   0.145   5.083
 1197SOL    HW2 4491   4.767   0.301   5.042
 1198SOL     OW 4492   1.723   2.762   3.235
 1198SOL    HW1 4493   1.673   2.771   3.149
 1198SOL    HW2 4494   1.800   2.827   3.236
 1199SOL     OW 4495   3.259   3.916   1.038
 1199SOL    HW1 4496   3.308   3.985   1.092
 1199SOL    HW2 4497   3.325   3.855   0.994
 1200SOL     OW 4498   3.311   4.117   3.899
 1200SOL    HW1 4499   3.402   4.091   3.932
 1200SOL    HW2 4500   3.242   4.090   3.966
 1201SOL     OW 4501   0.991   1.282   4.298
 1201SOL    HW1 4502   0.993   1.220   4.376
 1201SOL    HW2 4503   0.998   1.376   4.330
 1202SOL     OW 4504   0.362   5.918   5.486
 1202SOL    HW1 4505   0.451   5.917   5.531
 1202SOL    HW2 4506   0.290   5.921   5.555
 1203SOL     OW 4507   6.882   6.373   6.682
 1203SOL    HW1 4508   6.952   6.432   6.723
 1203SOL    HW2 4509   6.924   6.287   6.654
 1204SOL     OW 4510   4.453   1.085   1.526
 1204SOL    HW1 4511   4.480   1.046   1.614
 1204SOL    HW2 4512   4.398   1.019   1.475
 1205SOL     OW 4513   4.113   3.209   0.582
 1205SOL    HW1 4514   4.184   3.278   0.568
 1205SOL    HW2 4515   4.058   3.202   0.499
 1206SOL     OW 4516   2.621   2.785   5.313
 1206SOL    HW1 4517   2.670   2.848   5.374
 1206SOL    HW2 4518   2.544   2.833   5.271
 1207SOL     OW 4519   2.281   6.570   0.870
 1207SOL    HW1 4520   2.244   6.661   0.888
 1207SOL    HW2 4521   2.226   6.501   0.916
 1208SOL     OW 4522   3.104   3.370   1.157
 1208SOL    HW1 4523   3.037   3.375   1.083
 1208SOL    HW2 4524   3.058   3.385   1.245
 1209SOL     OW 4525   4.006   1.283   4.402
 1209SOL    HW1 4526   3.940   1.209   4.414
 1209SOL    HW2 4527   4.077   1.277   4.472
 1210SOL     OW 4528   3.445   0.313   3.835
 1210SOL    HW1 4529   3.395   0.389   3.877
 1210SOL    HW2 4530   3.543   0.326   3.850
 1211SOL     OW 4531   0.334   3.639   2.456
 1211SOL    HW1 4532   0.283   3.710   2.504
 1211SOL    HW2 4533   0.381   3.581   2.523
 1212SOL     OW 4534   6.155   0.514   0.243
 1212SOL    HW1 4535   6.193   0.484   0.156
 1212SOL    HW2 4536   6.058   0.491   0.248
 1213SOL     OW 4537   6.379   2.532   1.134
 1213SOL    HW1 4538   6.349   2.438   1.118
 1213SOL    HW2 4539   6.340   2.592   1.064
 1214SOL     OW 4540   1.182   2.841   0.005
 1214SOL    HW1 4541   1.242   2.817   6.958
 1214SOL    HW2 4542   1.233   2.837   0.091
 1215SOL     OW 4543   0.995   4.884   2.997
 1215SOL    HW1 4544   1.086   4.883   3.041
 1215SOL    HW2 4545   0.925   4.868   3.067
 1216SOL     OW 4546   5.004   0.341   1.131
 1216SOL    HW1 4547   4.929   0.400   1.163
 1216SOL    HW2 4548   5.076   0.398   1.091
 1217SOL     OW 4549   2.118   4.656   0.786
 1217SOL    HW1 4550   2.143   4.725   0.855
 1217SOL    HW2 4551   2.165   4.570   0.807
 1218SOL     OW 4552   1.570   4.050   4.701
 1218SOL    HW1 4553   1.626   4.125   4.736
 1218SOL    HW2 4554   1.498   4.028   4.767
 1219SOL     OW 4555   5.283   6.146   1.963
 1219SOL    HW1 4556   5.309   6.185   2.051
 1219SOL    HW2 4557   5.361   6.148   1.901
 1220SOL     OW 4558   0.621   4.628   3.185
 1220SOL    HW1 4559   0.711   4.654   3.150
 1220SOL    HW2 4560   0.607   4.530   3.171
 1221SOL     OW 4561   5.237   4.281   6.482
 1221SOL    HW1 4562   5.310   4.230   6.528
 1221SOL    HW2 4563   5.240   4.262   6.384
 1222SOL     OW 4564   6.917   0.573   6.936
 1222SOL    HW1 4565   6.936   0.672   6.931
 1222SOL    HW2 4566   6.928   0.533   6.845
 1223SOL     OW 4567   4.003   1.621   0.301
 1223SOL    HW1 4568   3.920   1.612   0.356
 1223SOL    HW2 4569   4.058   1.697   0.337
 1224SOL     OW 4570   3.481   5.770   0.921
 1224SOL    HW1 4571   3.523   5.741   1.006
 1224SOL    HW2 4572   3.441   5.692   0.874
 1225SOL     OW 4573   2.939   3.167   5.952
 1225SOL    HW1 4574   2.935   3.241   5.885
 1225SOL    HW2 4575   3.023   3.114   5.940
 1226SOL     OW 4576   2.839   5.768   1.953
 1226SOL    HW1 4577   2.786   5.690   1.986
 1226SOL    HW2 4578   2.808   5.851   2.001
 1227SOL     OW 4579   7.020   3.908   6.235
 1227SOL    HW1 4580   7.024   3.811   6.258
 1227SOL    HW2 4581   7.005   3.962   6.318
 1228SOL     OW 4582   3.253   2.232   6.423
 1228SOL    HW1 4583   3.300   2.180   6.494
 1228SOL    HW2 4584   3.297   2.216   6.335
 1229SOL     OW 4585   3.307   5.236   5.361
 1229SOL    HW1 4586   3.354   5.253   5.275
 1229SOL    HW2 4587   3.355   5.283   5.435
 1230SOL     OW 4588   4.552   6.908   2.635
 1230SOL    HW1 4589   4.599   6.827   2.671
 1230SOL    HW2 4590   4.520   6.964   2.712
 1231SOL     OW 4591   1.909   3.182   4.851
 1231SOL    HW1 4592   1.904   3.085   4.829
 1231SOL    HW2 4593   1.825   3.227   4.821
 1232SOL     OW 4594   0.843   1.602   4.885
 1232SOL    HW1 4595   0.828   1.700   4.871
 1232SOL    HW2 4596   0.757   1.553   4.872
 1233SOL     OW 4597   0.842   4.413   4.758
 1233SOL    HW1 4598   0.770   4.482   4.752
 1233SOL    HW2 4599   0.861   4.376   4.667
 1234SOL     OW 4600   6.461   3.597   4.921
 1234SOL    HW1 4601   6.536   3.572   4.982
 1234SOL    HW2 4602   6.459   3.697   4.910
 1235SOL     OW 4603   0.009   5.923   2.421
 1235SOL    HW1 4604   0.087   5.877   2.378
 1235SOL    HW2 4605   0.042   5.985   2.491
 1236SOL     OW 4606   4.863   1.805   6.992
 1236SOL    HW1 4607   4.895   1.854   0.045
 1236SOL    HW2 4608   4.835   1.871   6.923
 1237SOL     OW 4609   1.851   5.410   5.817
 1237SOL    HW1 4610   1.920   5.452   5.876
 1237SOL    HW2 4611   1.896   5.361   5.742
 1238SOL     OW 4612   2.768   1.419   0.217
 1238SOL    HW1 4613   2.845   1.368   0.255
 1238SOL    HW2 4614   2.752   1.391   0.123
 1239SOL     OW 4615   0.195   6.930   5.634
 1239SOL    HW1 4616   0.244   6.854   5.677
 1239SOL    HW2 4617   0.139   6.896   5.559
 1240SOL     OW 4618   5.333   6.300   2.194
 1240SOL    HW1 4619   5.316   6.286   2.291
 1240SOL    HW2 4620   5.393   6.379   2.181
 1241SOL     OW 4621   5.769   3.962   3.925
 1241SOL    HW1 4622   5.806   3.984   4.016
 1241SOL    HW2 4623   5.783   3.865   3.906
 1242SOL     OW 4624   0.280   3.404   1.627
 1242SOL    HW1 4625   0.184   3.412   1.650
 1242SOL    HW2 4626   0.325   3.493   1.637
 1243SOL     OW 4627   6.901   6.756   4.687
 1243SOL    HW1 4628   6.823   6.708   4.728
 1243SOL    HW2 4629   6.986   6.722   4.725
 1244SOL     OW 4630   6.578   0.036   4.399
 1244SOL    HW1 4631   6.570   7.022   4.489
 1244SOL    HW2 4632   6.666   0.084   4.393
 1245SOL     OW 4633   4.732   4.840   0.294
 1245SOL    HW1 4634   4.651   4.850   0.237
 1245SOL    HW2 4635   4.804   4.795   0.242
 1246SOL     OW 4636   2.423   6.210   1.468
 1246SOL    HW1 4637   2.361   6.200   1.546
 1246SOL    HW2 4638   2.509   6.164   1.488
 1247SOL     OW 4639   2.255   0.517   6.752
 1247SOL    HW1 4640   2.217   0.605   6.723
 1247SOL    HW2 4641   2.265   0.516   6.851
 1248SOL     OW 4642   2.132   0.311   4.950
 1248SOL    HW1 4643   2.072   0.349   5.020
 1248SOL    HW2 4644   2.093   0.328   4.860
 1249SOL     OW 4645   5.761   2.301   2.228
 1249SOL    HW1 4646   5.702   2.236   2.180
 1249SOL    HW2 4647   5.783   2.377   2.168
 1250SOL     OW 4648   6.345   4.755   4.331
 1250SOL    HW1 4649   6.368   4.660   4.312
 1250SOL    HW2 4650   6.325   4.767   4.428
 1251SOL     OW 4651   3.458   0.317   4.704
 1251SOL    HW1 4652   3.387   0.258   4.742
 1251SOL    HW2 4653   3.438   0.335   4.608
 1252SOL     OW 4654   3.658   3.332   5.049
 1252SOL    HW1 4655   3.577   3.317   4.993
 1252SOL    HW2 4656   3.733   3.367   4.992
 1253SOL     OW 4657   3.515   5.615   1.826
 1253SOL    HW1 4658   3.510   5.533   1.769
 1253SOL    HW2 4659   3.462   5.601   1.910
 1254SOL     OW 4660   0.741   2.645   2.690
 1254SOL    HW1 4661   0.720   2.585   2.613
 1254SOL    HW2 4662   0.657   2.691   2.721
 1255SOL     OW 4663   6.403   2.088   4.534
 1255SOL    HW1 4664   6.373   2.119   4.625
 1255SOL    HW2 4665   6.475   2.018   4.545
 1256SOL     OW 4666   6.701   6.593   3.453
 1256SOL    HW1 4667   6.726   6.497   3.465
 1256SOL    HW2 4668   6.781   6.645   3.424
 1257SOL     OW 4669   0.043   6.478   4.313
 1257SOL    HW1 4670   0.111   6.470   4.386
 1257SOL    HW2 4671   0.086   6.462   4.225
 1258SOL     OW 4672   1.689   5.397   3.829
 1258SOL    HW1 4673   1.770   5.439   3.789
 1258SOL    HW2 4674   1.654   5.327   3.767
 1259SOL     OW 4675   3.856   1.688   4.189
 1259SOL    HW1 4676   3.836   1.733   4.276
 1259SOL    HW2 4677   3.903   1.601   4.207
 1260SOL     OW 4678   1.357   1.584   0.060
 1260SOL    HW1 4679   1.259   1.563   0.050
 1260SOL    HW2 4680   1.408   1.499   0.075
 1261SOL     OW 4681   0.540   5.732   6.792
 1261SOL    HW1 4682   0.578   5.655   6.842
 1261SOL    HW2 4683   0.470   5.777   6.848
 1262SOL     OW 4684   4.983   4.094   1.419
 1262SOL    HW1 4685   4.885   4.084   1.438
 1262SOL    HW2 4686   4.996   4.155   1.341
 1263SOL     OW 4687   0.886   1.715   2.436
 1263SOL    HW1 4688   0.914   1.693   2.342
 1263SOL    HW2 4689   0.950   1.781   2.475
 1264SOL     OW 4690   0.040   4.199   0.008
 1264SOL    HW1 4691   6.976   4.201   0.047
 1264SOL    HW2 4692   0.070   4.104   0.001
 1265SOL     OW 4693   6.040   4.877   4.748
 1265SOL    HW1 4694   5.940   4.881   4.746
 1265SOL    HW2 4695   6.070   4.833   4.833
 1266SOL     OW 4696   0.160   0.939   4.290
 1266SOL    HW1 4697   0.224   1.014   4.302
 1266SOL    HW2 4698   0.199   0.855   4.327
 1267SOL     OW 4699   5.651   1.278   0.863
 1267SOL    HW1 4700   5.576   1.341   0.841
 1267SOL    HW2 4701   5.654   1.265   0.962
 1268SOL     OW 4702   2.816   3.141   6.478
 1268SOL    HW1 4703   2.844   3.067   6.540
 1268SOL    HW2 4704   2.797   3.223   6.531
 1269SOL     OW 4705   5.796   3.095   4.460
 1269SOL    HW1 4706   5.854   3.129   4.534
 1269SOL    HW2 4707   5.830   3.128   4.372
 1270SOL     OW 4708   1.981   4.532   2.674
 1270SOL    HW1 4709   2.049   4.562   2.741
 1270SOL    HW2 4710   2.027   4.483   2.600
 1271SOL     OW 4711   3.605   1.755   2.537
 1271SOL    HW1 4712   3.606   1.725   2.442
 1271SOL    HW2 4713   3.634   1.850   2.542
 1272SOL     OW 4714   5.538   5.018   6.758
 1272SOL    HW1 4715   5.632   4.988   6.741
 1272SOL    HW2 4716   5.503   4.974   6.841
 1273SOL     OW 4717   1.196   4.098   6.064
 1273SOL    HW1 4718   1.107   4.101   6.108
 1273SOL    HW2 4719   1.229   4.192   6.050
 1274SOL     OW 4720   0.248   4.729   0.997
 1274SOL    HW1 4721   0.168   4.786   0.981
 1274SOL    HW2 4722   0.316   4.781   1.049
 1275SOL     OW 4723   3.699   1.789   3.365
 1275SOL    HW1 4724   3.776   1.733   3.396
 1275SOL    HW2 4725   3.732   1.875   3.327
 1276SOL     OW 4726   5.624   4.860   5.026
 1276SOL    HW1 4727   5.612   4.773   5.072
 1276SOL    HW2 4728   5.629   4.846   4.927
 1277SOL     OW 4729   1.943   5.195   6.207
 1277SOL    HW1 4730   2.027   5.209   6.155
 1277SOL    HW2 4731   1.955   5.227   6.301
 1278SOL     OW 4732   1.057   0.431   4.714
 1278SOL    HW1 4733   1.048   0.408   4.811
 1278SOL    HW2 4734   1.011   0.361   4.659
 1279SOL     OW 4735   1.881   4.752   6.614
 1279SOL    HW1 4736   1.975   4.717   6.612
 1279SOL    HW2 4737   1.843   4.750   6.522
 1280SOL     OW 4738   4.578   6.464   4.016
 1280SOL    HW1 4739   4.573   6.446   4.115
 1280SOL    HW2 4740   4.547   6.383   3.966
 1281SOL     OW 4741   2.677   6.270   3.097
 1281SOL    HW1 4742   2.627   6.315   3.022
 1281SOL    HW2 4743   2.695   6.175   3.072
 1282SOL     OW 4744   6.514   1.748   6.869
 1282SOL    HW1 4745   6.499   1.653   6.842
 1282SOL    HW2 4746   6.605   1.757   6.910
 1283SOL     OW 4747   6.652   2.916   5.294
 1283SOL    HW1 4748   6.719   2.937   5.223
 1283SOL    HW2 4749   6.594   2.840   5.264
 1284SOL     OW 4750   4.435   1.376   1.479
 1284SOL    HW1 4751   4.418   1.294   1.426
 1284SOL    HW2 4752   4.428   1.456   1.419
 1285SOL     OW 4753   4.938   1.351   5.400
 1285SOL    HW1 4754   4.949   1.451   5.401
 1285SOL    HW2 4755   4.891   1.322   5.483
 1286SOL     OW 4756   4.453   2.743   0.782
 1286SOL    HW1 4757   4.519   2.682   0.737
 1286SOL    HW2 4758   4.371   2.751   0.725
 1287SOL     OW 4759   5.419   4.370   5.378
 1287SOL    HW1 4760   5.337   4.418   5.409
 1287SOL    HW2 4761   5.472   4.340   5.457
 1288SOL     OW 4762   3.801   4.049   6.289
 1288SOL    HW1 4763   3.709   4.083   6.271
 1288SOL    HW2 4764   3.853   4.118   6.340
 1289SOL     OW 4765   0.580   0.481   1.318
 1289SOL    HW1 4766   0.512   0.431   1.372
 1289SOL    HW2 4767   0.642   0.530   1.379
 1290SOL     OW 4768   1.504   6.915   0.438
 1290SOL    HW1 4769   1.416   6.868   0.432
 1290SOL    HW2 4770   1.568   6.859   0.491
 1291SOL     OW 4771   0.312   4.174   3.766
 1291SOL    HW1 4772   0.402   4.187   3.806
 1291SOL    HW2 4773   0.260   4.260   3.771
 1292SOL     OW 4774   0.368   5.751   2.565
 1292SOL    HW1 4775   0.334   5.836   2.524
 1292SOL    HW2 4776   0.446   5.772   2.624
 1293SOL     OW 4777   2.200   2.270   6.579
 1293SOL    HW1 4778   2.278   2.241   6.524
 1293SOL    HW2 4779   2.224   2.353   6.630
 1294SOL     OW 4780   0.325   3.590   5.714
 1294SOL    HW1 4781   0.238   3.637   5.699
 1294SOL    HW2 4782   0.401   3.654   5.703
 1295SOL     OW 4783   0.216   3.438   1.159
 1295SOL    HW1 4784   0.197   3.471   1.067
 1295SOL    HW2 4785   0.306   3.394   1.161
 1296SOL     OW 4786   4.690   7.006   5.248
 1296SOL    HW1 4787   4.776   7.024   5.294
 1296SOL    HW2 4788   4.614   7.026   5.310
 1297SOL     OW 4789   1.049   6.500   1.474
 1297SOL    HW1 4790   1.109   6.565   1.521
 1297SOL    HW2 4791   0.992   6.549   1.409
 1298SOL     OW 4792   5.119   6.366   3.634
 1298SOL    HW1 4793   5.174   6.286   3.610
 1298SOL    HW2 4794   5.050   6.382   3.563
 1299SOL     OW 4795   2.544   2.485   3.462
 1299SOL    HW1 4796   2.604   2.428   3.519
 1299SOL    HW2 4797   2.455   2.493   3.506
 1300SOL     OW 4798   2.175   3.135   0.850
 1300SOL    HW1 4799   2.254   3.128   0.911
 1300SOL    HW2 4800   2.112   3.204   0.886
 1301SOL     OW 4801   0.498   6.647   1.941
 1301SOL    HW1 4802   0.469   6.590   1.864
 1301SOL    HW2 4803   0.575   6.704   1.913
 1302SOL     OW 4804   5.160   0.058   5.390
 1302SOL    HW1 4805   5.220   0.069   5.311
 1302SOL    HW2 4806   5.146   0.146   5.434
 1303SOL     OW 4807   4.267   0.937   1.365
 1303SOL    HW1 4808   4.318   0.863   1.320
 1303SOL    HW2 4809   4.194   0.969   1.304
 1304SOL     OW 4810   1.709   7.015   1.078
 1304SOL    HW1 4811   1.614   6.991   1.056
 1304SOL    HW2 4812   1.764   7.013   0.994
 1305SOL     OW 4813   5.830   4.351   0.377
 1305SOL    HW1 4814   5.831   4.252   0.387
 1305SOL    HW2 4815   5.878   4.393   0.454
 1306SOL     OW 4816   1.579   5.597   4.243
 1306SOL    HW1 4817   1.597   5.695   4.233
 1306SOL    HW2 4818   1.490   5.576   4.201
 1307SOL     OW 4819   1.852   4.105   4.186
 1307SOL    HW1 4820   1.815   4.029   4.133
 1307SOL    HW2 4821   1.937   4.137   4.144
 1308SOL     OW 4822   6.717   6.737   5.942
 1308SOL    HW1 4823   6.724   6.796   5.861
 1308SOL    HW2 4824   6.760   6.649   5.923
 1309SOL     OW 4825   5.985   4.636   5.858
 1309SOL    HW1 4826   5.936   4.570   5.916
 1309SOL    HW2 4827   5.928   4.659   5.780
 1310SOL     OW 4828   0.330   3.337   2.969
 1310SOL    HW1 4829   0.278   3.422   2.964
 1310SOL    HW2 4830   0.426   3.356   2.952
 1311SOL     OW 4831   0.168   6.057   6.138
 1311SOL    HW1 4832   0.085   6.094   6.180
 1311SOL    HW2 4833   0.161   5.957   6.133
 1312SOL     OW 4834   1.732   6.613   0.300
 1312SOL    HW1 4835   1.672   6.680   0.256
 1312SOL    HW2 4836   1.722   6.525   0.254
 1313SOL     OW 4837   0.145   5.215   2.727
 1313SOL    HW1 4838   0.216   5.219   2.798
 1313SOL    HW2 4839   0.132   5.306   2.688
 1314SOL     OW 4840   3.633   1.480   4.732
 1314SOL    HW1 4841   3.703   1.409   4.721
 1314SOL    HW2 4842   3.550   1.454   4.683
 1315SOL     OW 4843   6.601   1.301   3.199
 1315SOL    HW1 4844   6.527   1.265   3.257
 1315SOL    HW2 4845   6.635   1.387   3.237
 1316SOL     OW 4846   3.387   0.018   6.026
 1316SOL    HW1 4847   3.330   0.095   5.997
 1316SOL    HW2 4848   3.404   0.026   6.125
 1317SOL     OW 4849   1.575   4.077   5.964
 1317SOL    HW1 4850   1.577   4.029   6.052
 1317SOL    HW2 4851   1.557   4.174   5.980
 1318SOL     OW 4852   1.073   2.715   0.480
 1318SOL    HW1 4853   1.167   2.736   0.453
 1318SOL    HW2 4854   1.054   2.619   0.463
 1319SOL     OW 4855   0.259   5.918   0.883
 1319SOL    HW1 4856   0.357   5.905   0.867
 1319SOL    HW2 4857   0.217   5.956   0.801
 1320SOL     OW 4858   3.594   3.910   7.002
 1320SOL    HW1 4859   3.685   3.924   0.013
 1320SOL    HW2 4860   3.537   3.989   7.024
 1321SOL     OW 4861   5.032   3.128   6.305
 1321SOL    HW1 4862   5.016   3.030   6.317
 1321SOL    HW2 4863   4.955   3.169   6.256
 1322SOL     OW 4864   3.650   1.764   4.692
 1322SOL    HW1 4865   3.681   1.684   4.743
 1322SOL    HW2 4866   3.610   1.735   4.605
 1323SOL     OW 4867   3.435   0.070   6.582
 1323SOL    HW1 4868   3.360   0.131   6.554
 1323SOL    HW2 4869   3.480   0.107   6.663
 1324SOL     OW 4870   0.161   3.023   6.742
 1324SOL    HW1 4871   0.195   3.110   6.778
 1324SOL    HW2 4872   0.149   3.029   6.643
 1325SOL     OW 4873   3.745   6.120   5.173
 1325SOL    HW1 4874   3.776   6.213   5.151
 1325SOL    HW2 4875   3.812   6.076   5.233
 1326SOL     OW 4876   4.696   3.846   5.340
 1326SOL    HW1 4877   4.788   3.836   5.302
 1326SOL    HW2 4878   4.661   3.756   5.366
 1327SOL     OW 4879   1.487   6.123   0.865
 1327SOL    HW1 4880   1.564   6.186   0.859
 1327SOL    HW2 4881   1.415   6.152   0.802
 1328SOL     OW 4882   2.202   3.183   0.175
 1328SOL    HW1 4883   2.215   3.256   0.107
 1328SOL    HW2 4884   2.277   3.117   0.168
 1329SOL     OW 4885   0.583   2.486   2.501
 1329SOL    HW1 4886   0.549   2.407   2.552
 1329SOL    HW2 4887   0.507   2.535   2.460
 1330SOL     OW 4888   1.847   1.847   1.192
 1330SOL    HW1 4889   1.855   1.826   1.290
 1330SOL    HW2 4890   1.755   1.883   1.173
 1331SOL     OW 4891   4.798   2.794   3.506
 1331SOL    HW1 4892   4.769   2.699   3.498
 1331SOL    HW2 4893   4.793   2.838   3.417
 1332SOL     OW 4894   2.884   6.988   0.616
 1332SOL    HW1 4895   2.923   6.930   0.688
 1332SOL    HW2 4896   2.949   0.031   0.593
 1333SOL     OW 4897   2.996   3.768   2.989
 1333SOL    HW1 4898   2.966   3.782   2.895
 1333SOL    HW2 4899   3.050   3.847   3.019
 1334SOL     OW 4900   6.843   1.305   3.920
 1334SOL    HW1 4901   6.889   1.256   3.994
 1334SOL    HW2 4902   6.884   1.279   3.832
 1335SOL     OW 4903   2.263   1.871   2.130
 1335SOL    HW1 4904   2.234   1.960   2.166
 1335SOL    HW2 4905   2.280   1.808   2.206
 1336SOL     OW 4906   2.694   1.856   4.801
 1336SOL    HW1 4907   2.784   1.894   4.825
 1336SOL    HW2 4908   2.705   1.762   4.770
 1337SOL     OW 4909   1.085   1.628   2.683
 1337SOL    HW1 4910   1.091   1.705   2.747
 1337SOL    HW2 4911   1.039   1.551   2.727
 1338SOL     OW 4912   6.759   2.940   4.502
 1338SOL    HW1 4913   6.747   2.922   4.600
 1338SOL    HW2 4914   6.678   2.989   4.467
 1339SOL     OW 4915   6.160   2.087   0.044
 1339SOL    HW1 4916   6.257   2.081   0.068
 1339SOL    HW2 4917   6.114   2.002   0.072
 1340SOL     OW 4918   5.234   1.225   2.669
 1340SOL    HW1 4919   5.183   1.292   2.615
 1340SOL    HW2 4920   5.273   1.270   2.749
 1341SOL     OW 4921   4.448   6.777   6.741
 1341SOL    HW1 4922   4.385   6.733   6.678
 1341SOL    HW2 4923   4.529   6.719   6.754
 1342SOL     OW 4924   2.833   5.270   6.523
 1342SOL    HW1 4925   2.747   5.271   6.474
 1342SOL    HW2 4926   2.907   5.301   6.463
 1343SOL     OW 4927   5.448   5.477   2.607
 1343SOL    HW1 4928   5.482   5.487   2.701
 1343SOL    HW2 4929   5.350   5.462   2.609
 1344SOL     OW 4930   0.656   6.054   4.283
 1344SOL    HW1 4931   0.654   6.022   4.378
 1344SOL    HW2 4932   0.745   6.032   4.243
 1345SOL     OW 4933   0.667   5.488   2.776
 1345SOL    HW1 4934   0.609   5.550   2.829
 1345SOL    HW2 4935   0.719   5.541   2.709
 1346SOL     OW 4936   1.936   5.299   5.220
 1346SOL    HW1 4937   1.854   5.354   5.204
 1346SOL    HW2 4938   1.953   5.241   5.141
 1347SOL     OW 4939   6.775   6.930   5.767
 1347SOL    HW1 4940   6.836   6.983   5.826
 1347SOL    HW2 4941   6.762   6.978   5.680
 1348SOL     OW 4942   7.003   5.985   4.358
 1348SOL    HW1 4943   0.070   6.003   4.336
 1348SOL    HW2 4944   6.945   6.011   4.282
 1349SOL     OW 4945   5.530   2.834   5.178
 1349SOL    HW1 4946   5.438   2.869   5.194
 1349SOL    HW2 4947   5.530   2.735   5.188
 1350SOL     OW 4948   5.463   4.966   5.231
 1350SOL    HW1 4949   5.562   4.967   5.244
 1350SOL    HW2 4950   5.441   4.968   5.134
 1351SOL     OW 4951   5.568   2.048   3.471
 1351SOL    HW1 4952   5.606   2.115   3.535
 1351SOL    HW2 4953   5.471   2.033   3.491
 1352SOL     OW 4954   6.189   5.729   4.374
 1352SOL    HW1 4955   6.250   5.682   4.438
 1352SOL    HW2 4956   6.103   5.751   4.420
 1353SOL     OW 4957   0.543   2.743   0.289
 1353SOL    HW1 4958   0.505   2.818   0.235
 1353SOL    HW2 4959   0.618   2.778   0.346
 1354SOL     OW 4960   0.120   4.564   1.756
 1354SOL    HW1 4961   0.182   4.489   1.735
 1354SOL    HW2 4962   0.045   4.531   1.813
 1355SOL     OW 4963   6.033   3.865   4.358
 1355SOL    HW1 4964   5.971   3.790   4.381
 1355SOL    HW2 4965   6.119   3.854   4.407
 1356SOL     OW 4966   3.716   2.941   2.113
 1356SOL    HW1 4967   3.693   2.908   2.204
 1356SOL    HW2 4968   3.808   2.980   2.114
 1357SOL     OW 4969   0.287   4.207   6.371
 1357SOL    HW1 4970   0.347   4.146   6.423
 1357SOL    HW2 4971   0.336   4.291   6.349
 1358SOL     OW 4972   6.045   6.349   6.773
 1358SOL    HW1 4973   5.974   6.400   6.725
 1358SOL    HW2 4974   6.096   6.411   6.833
 1359SOL     OW 4975   5.776   4.765   2.503
 1359SOL    HW1 4976   5.748   4.696   2.570
 1359SOL    HW2 4977   5.723   4.848   2.517
 1360SOL     OW 4978   2.589   3.864   0.505
 1360SOL    HW1 4979   2.587   3.769   0.534
 1360SOL    HW2 4980   2.580   3.870   0.406
 1361SOL     OW 4981   6.218   4.561   5.080
 1361SOL    HW1 4982   6.239   4.464   5.068
 1361SOL    HW2 4983   6.192   4.578   5.175
 1362SOL     OW 4984   4.093   3.640   3.418
 1362SOL    HW1 4985   4.119   3.571   3.486
 1362SOL    HW2 4986   4.100   3.601   3.326
 1363SOL     OW 4987   0.121   5.186   4.550
 1363SOL    HW1 4988   0.164   5.109   4.503
 1363SOL    HW2 4989   0.096   5.256   4.484
 1364SOL     OW 4990   5.317   4.505   0.489
 1364SOL    HW1 4991   5.346   4.601   0.488
 1364SOL    HW2 4992   5.378   4.451   0.432
 1365SOL     OW 4993   0.500   4.459   6.174
 1365SOL    HW1 4994   0.436   4.406   6.118
 1365SOL    HW2 4995   0.477   4.556   6.168
 1366SOL     OW 4996   1.728   6.248   6.312
 1366SOL    HW1 4997   1.779   6.192   6.247
 1366SOL    HW2 4998   1.761   6.342   6.308
 1367SOL     OW 4999   2.489   6.780   2.780
 1367SOL    HW1 5000   2.451   6.702   2.831
 1367SOL    HW2 5001   2.457   6.865   2.820
 1368SOL     OW 5002   5.340   6.959   3.949
 1368SOL    HW1 5003   5.299   6.882   3.998
 1368SOL    HW2 5004   5.435   6.935   3.925
 1369SOL     OW 5005   1.837   6.602   2.964
 1369SOL    HW1 5006   1.883   6.690   2.952
 1369SOL    HW2 5007   1.905   6.528   2.962
 1370SOL     OW 5008   3.436   1.158   1.704
 1370SOL    HW1 5009   3.368   1.126   1.770
 1370SOL    HW2 5010   3.446   1.257   1.711
 1371SOL     OW 5011   5.204   1.491   4.367
 1371SOL    HW1 5012   5.195   1.427   4.290
 1371SOL    HW2 5013   5.211   1.584   4.331
 1372SOL     OW 5014   1.312   2.854   0.251
 1372SOL    HW1 5015   1.305   2.895   0.342
 1372SOL    HW2 5016   1.392   2.891   0.204
 1373SOL     OW 5017   6.162   4.542   0.356
 1373SOL    HW1 5018   6.222   4.503   0.287
 1373SOL    HW2 5019   6.187   4.637   0.373
 1374SOL     OW 5020   3.905   2.139   0.461
 1374SOL    HW1 5021   3.823   2.182   0.422
 1374SOL    HW2 5022   3.878   2.070   0.528
 1375SOL     OW 5023   0.024   4.671   6.011
 1375SOL    HW1 5024   0.002   4.574   6.012
 1375SOL    HW2 5025   0.046   4.700   5.918
 1376SOL     OW 5026   4.876   3.387   4.018
 1376SOL    HW1 5027   4.968   3.350   4.004
 1376SOL    HW2 5028   4.826   3.383   3.931
 1377SOL     OW 5029   6.684   3.610   5.094
 1377SOL    HW1 5030   6.683   3.650   5.185
 1377SOL    HW2 5031   6.765   3.642   5.044
 1378SOL     OW 5032   5.926   2.160   5.069
 1378SOL    HW1 5033   6.004   2.105   5.099
 1378SOL    HW2 5034   5.889   2.122   4.984
 1379SOL     OW 5035   3.471   6.843   2.193
 1379SOL    HW1 5036   3.473   6.932   2.147
 1379SOL    HW2 5037   3.376   6.819   2.216
 1380SOL     OW 5038   7.011   0.050   2.183
 1380SOL    HW1 5039   0.063   0.108   2.196
 1380SOL    HW2 5040   6.940   0.077   2.248
 1381SOL     OW 5041   5.195   3.090   0.245
 1381SOL    HW1 5042   5.217   3.014   0.305
 1381SOL    HW2 5043   5.122   3.145   0.287
 1382SOL     OW 5044   5.697   4.609   6.768
 1382SOL    HW1 5045   5.621   4.557   6.729
 1382SOL    HW2 5046   5.736   4.558   6.845
 1383SOL     OW 5047   1.825   1.191   0.593
 1383SOL    HW1 5048   1.781   1.279   0.611
 1383SOL    HW2 5049   1.821   1.172   0.494
 1384SOL     OW 5050   4.048   1.303   2.789
 1384SOL    HW1 5051   4.011   1.230   2.847
 1384SOL    HW2 5052   4.148   1.299   2.792
 1385SOL     OW 5053   0.509   2.799   2.671
 1385SOL    HW1 5054   0.459   2.762   2.593
 1385SOL    HW2 5055   0.560   2.880   2.643
 1386SOL     OW 5056   2.052   1.853   4.375
 1386SOL    HW1 5057   2.042   1.938   4.428
 1386SOL    HW2 5058   2.076   1.778   4.437
 1387SOL     OW 5059   3.794   0.649   3.585
 1387SOL    HW1 5060   3.800   0.653   3.684
 1387SOL    HW2 5061   3.701   0.623   3.558
 1388SOL     OW 5062   6.718   6.376   4.129
 1388SOL    HW1 5063   6.624   6.410   4.130
 1388SOL    HW2 5064   6.732   6.320   4.048
 1389SOL     OW 5065   0.408   1.119   3.761
 1389SOL    HW1 5066   0.411   1.020   3.761
 1389SOL    HW2 5067   0.316   1.150   3.788
 1390SOL     OW 5068   4.657   1.825   6.418
 1390SOL    HW1 5069   4.692   1.768   6.493
 1390SOL    HW2 5070   4.602   1.899   6.456
 1391SOL     OW 5071   6.216   1.596   5.824
 1391SOL    HW1 5072   6.196   1.559   5.733
 1391SOL    HW2 5073   6.233   1.520   5.888
 1392SOL     OW 5074   4.853   6.088   6.026
 1392SOL    HW1 5075   4.916   6.166   6.031
 1392SOL    HW2 5076   4.904   6.007   5.998
 1393SOL     OW 5077   6.142   2.883   6.653
 1393SOL    HW1 5078   6.233   2.895   6.693
 1393SOL    HW2 5079   6.110   2.790   6.670
 1394SOL     OW 5080   3.971   6.625   4.016
 1394SOL    HW1 5081   4.068   6.604   4.011
 1394SOL    HW2 5082   3.958   6.724   4.017
 1395SOL     OW 5083   0.489   4.228   2.688
 1395SOL    HW1 5084   0.503   4.131   2.708
 1395SOL    HW2 5085   0.552   4.257   2.616
 1396SOL     OW 5086   2.092   6.960   4.428
 1396SOL    HW1 5087   2.035   6.985   4.350
 1396SOL    HW2 5088   2.159   6.891   4.400
 1397SOL     OW 5089   0.638   5.719   5.187
 1397SOL    HW1 5090   0.579   5.639   5.191
 1397SOL    HW2 5091   0.734   5.689   5.180
 1398SOL     OW 5092   1.903   1.177   1.222
 1398SOL    HW1 5093   1.827   1.113   1.238
 1398SOL    HW2 5094   1.962   1.141   1.150
 1399SOL     OW 5095   4.362   0.417   1.009
 1399SOL    HW1 5096   4.407   0.417   0.919
 1399SOL    HW2 5097   4.264   0.433   0.998
 1400SOL     OW 5098   6.517   0.790   4.511
 1400SOL    HW1 5099   6.555   0.711   4.463
 1400SOL    HW2 5100   6.526   0.871   4.453
 1401SOL     OW 5101   5.933   0.119   3.966
 1401SOL    HW1 5102   5.968   0.029   3.994
 1401SOL    HW2 5103   5.847   0.137   4.013
 1402SOL     OW 5104   6.093   4.208   0.191
 1402SOL    HW1 5105   6.046   4.173   0.110
 1402SOL    HW2 5106   6.135   4.296   0.170
 1403SOL     OW 5107   3.130   3.325   0.388
 1403SOL    HW1 5108   3.046   3.341   0.439
 1403SOL    HW2 5109   3.144   3.227   0.376
 1404SOL     OW 5110   4.770   0.457   1.058
 1404SOL    HW1 5111   4.740   0.363   1.038
 1404SOL    HW2 5112   4.754   0.514   0.978
 1405SOL     OW 5113   1.510   3.946   1.214
 1405SOL    HW1 5114   1.587   4.008   1.199
 1405SOL    HW2 5115   1.523   3.864   1.158
 1406SOL     OW 5116   2.268   4.074   1.849
 1406SOL    HW1 5117   2.304   4.165   1.871
 1406SOL    HW2 5118   2.220   4.038   1.929
 1407SOL     OW 5119   0.657   3.231   2.006
 1407SOL    HW1 5120   0.733   3.169   1.989
 1407SOL    HW2 5121   0.604   3.243   1.922
 1408SOL     OW 5122   6.450   6.183   0.125
 1408SOL    HW1 5123   6.392   6.248   0.173
 1408SOL    HW2 5124   6.534   6.168   0.177
 1409SOL     OW 5125   6.825   1.270   5.557
 1409SOL    HW1 5126   6.736   1.242   5.520
 1409SOL    HW2 5127   6.898   1.224   5.507
 1410SOL     OW 5128   2.194   3.271   6.558
 1410SOL    HW1 5129   2.146   3.357   6.574
 1410SOL    HW2 5130   2.143   3.195   6.599
 1411SOL     OW 5131   3.453   6.459   6.879
 1411SOL    HW1 5132   3.449   6.365   6.915
 1411SOL    HW2 5133   3.369   6.479   6.829
 1412SOL     OW 5134   0.650   3.504   1.088
 1412SOL    HW1 5135   0.726   3.513   1.024
 1412SOL    HW2 5136   0.680   3.532   1.179
 1413SOL     OW 5137   1.709   2.168   4.784
 1413SOL    HW1 5138   1.799   2.203   4.809
 1413SOL    HW2 5139   1.721   2.091   4.721
 1414SOL     OW 5140   1.120   3.068   1.964
 1414SOL    HW1 5141   1.196   3.124   1.996
 1414SOL    HW2 5142   1.152   3.005   1.893
 1415SOL     OW 5143   2.328   1.633   4.590
 1415SOL    HW1 5144   2.374   1.590   4.512
 1415SOL    HW2 5145   2.349   1.731   4.591
 1416SOL     OW 5146   3.773   0.771   5.071
 1416SOL    HW1 5147   3.817   0.838   5.130
 1416SOL    HW2 5148   3.700   0.725   5.121
 1417SOL     OW 5149   2.796   3.465   6.140
 1417SOL    HW1 5150   2.842   3.461   6.229
 1417SOL    HW2 5151   2.859   3.502   6.072
 1418SOL     OW 5152   3.567   4.036   0.333
 1418SOL    HW1 5153   3.534   3.958   0.279
 1418SOL    HW2 5154   3.518   4.038   0.421
 1419SOL     OW 5155   1.562   4.599   3.981
 1419SOL    HW1 5156   1.531   4.656   3.906
 1419SOL    HW2 5157   1.524   4.633   4.067
 1420SOL     OW 5158   4.125   5.201   2.975
 1420SOL    HW1 5159   4.188   5.177   3.049
 1420SOL    HW2 5160   4.149   5.291   2.938
 1421SOL     OW 5161   0.561   4.932   4.507
 1421SOL    HW1 5162   0.639   4.891   4.459
 1421SOL    HW2 5163   0.559   4.899   4.602
 1422SOL     OW 5164   2.684   4.105   5.544
 1422SOL    HW1 5165   2.586   4.126   5.549
 1422SOL    HW2 5166   2.736   4.188   5.559
 1423SOL     OW 5167   4.252   1.805   4.779
 1423SOL    HW1 5168   4.230   1.902   4.785
 1423SOL    HW2 5169   4.263   1.780   4.682
 1424SOL     OW 5170   6.356   3.771   6.306
 1424SOL    HW1 5171   6.367   3.841   6.236
 1424SOL    HW2 5172   6.262   3.772   6.339
 1425SOL     OW 5173   3.305   6.418   5.087
 1425SOL    HW1 5174   3.207   6.403   5.072
 1425SOL    HW2 5175   3.319   6.507   5.129
 1426SOL     OW 5176   2.407   1.511   6.847
 1426SOL    HW1 5177   2.397   1.413   6.831
 1426SOL    HW2 5178   2.504   1.535   6.850
 1427SOL     OW 5179   1.313   0.308   3.410
 1427SOL    HW1 5180   1.408   0.326   3.434
 1427SOL    HW2 5181   1.283   0.372   3.339
 1428SOL     OW 5182   7.017   2.718   1.754
 1428SOL    HW1 5183   6.986   2.713   1.849
 1428SOL    HW2 5184   0.065   2.657   1.740
 1429SOL     OW 5185   6.143   0.897   6.536
 1429SOL    HW1 5186   6.127   0.811   6.487
 1429SOL    HW2 5187   6.073   0.906   6.608
 1430SOL     OW 5188   2.829   4.740   4.241
 1430SOL    HW1 5189   2.795   4.656   4.199
 1430SOL    HW2 5190   2.807   4.740   4.339
 1431SOL     OW 5191   2.701   1.618   5.652
 1431SOL    HW1 5192   2.734   1.712   5.666
 1431SOL    HW2 5193   2.618   1.619   5.597
 1432SOL     OW 5194   2.430   1.367   0.716
 1432SOL    HW1 5195   2.439   1.303   0.640
 1432SOL    HW2 5196   2.521   1.398   0.744
 1433SOL     OW 5197   3.411   0.443   3.102
 1433SOL    HW1 5198   3.434   0.391   3.185
 1433SOL    HW2 5199   3.333   0.502   3.120
 1434SOL     OW 5200   0.307   2.157   0.078
 1434SOL    HW1 5201   0.378   2.106   0.028
 1434SOL    HW2 5202   0.348   2.201   0.158
 1435SOL     OW 5203   1.098   0.250   3.841
 1435SOL    HW1 5204   1.034   0.173   3.837
 1435SOL    HW2 5205   1.081   0.302   3.924
 1436SOL     OW 5206   5.850   3.730   0.673
 1436SOL    HW1 5207   5.750   3.727   0.681
 1436SOL    HW2 5208   5.884   3.640   0.645
 1437SOL     OW 5209   4.388   1.303   6.111
 1437SOL    HW1 5210   4.338   1.384   6.143
 1437SOL    HW2 5211   4.464   1.283   6.173
 1438SOL     OW 5212   3.002   0.996   1.428
 1438SOL    HW1 5213   2.941   0.946   1.490
 1438SOL    HW2 5214   2.974   1.092   1.424
 1439SOL     OW 5215   0.349   5.858   7.001
 1439SOL    HW1 5216   0.368   5.817   0.061
 1439SOL    HW2 5217   0.379   5.954   7.001
 1440SOL     OW 5218   3.194   3.542   3.731
 1440SOL    HW1 5219   3.118   3.570   3.672
 1440SOL    HW2 5220   3.237   3.624   3.770
 1441SOL     OW 5221   6.561   3.499   3.526
 1441SOL    HW1 5222   6.657   3.474   3.539
 1441SOL    HW2 5223   6.548   3.536   3.434
 1442SOL     OW 5224   5.454   4.624   1.223
 1442SOL    HW1 5225   5.484   4.717   1.247
 1442SOL    HW2 5226   5.398   4.628   1.141
 1443SOL     OW 5227   1.102   0.400   3.558
 1443SOL    HW1 5228   1.185   0.364   3.514
 1443SOL    HW2 5229   1.065   0.331   3.620
 1444SOL     OW 5230   4.379   6.312   3.410
 1444SOL    HW1 5231   4.379   6.389   3.345
 1444SOL    HW2 5232   4.438   6.334   3.488
 1445SOL     OW 5233   0.105   2.996   1.726
 1445SOL    HW1 5234   0.019   3.044   1.707
 1445SOL    HW2 5235   0.086   2.899   1.742
 1446SOL     OW 5236   4.763   2.756   0.012
 1446SOL    HW1 5237   4.802   2.754   6.949
 1446SOL    HW2 5238   4.834   2.732   0.078
 1447SOL     OW 5239   6.365   1.329   5.311
 1447SOL    HW1 5240   6.388   1.352   5.217
 1447SOL    HW2 5241   6.440   1.356   5.371
 1448SOL     OW 5242   6.187   1.540   0.864
 1448SOL    HW1 5243   6.215   1.606   0.935
 1448SOL    HW2 5244   6.262   1.475   0.848
 1449SOL     OW 5245   6.348   6.507   0.896
 1449SOL    HW1 5246   6.355   6.445   0.818
 1449SOL    HW2 5247   6.271   6.480   0.954
 1450SOL     OW 5248   6.206   2.450   2.579
 1450SOL    HW1 5249   6.292   2.480   2.620
 1450SOL    HW2 5250   6.161   2.528   2.537
 1451SOL     OW 5251   2.959   6.946   2.871
 1451SOL    HW1 5252   2.875   6.920   2.823
 1451SOL    HW2 5253   3.038   6.922   2.815
 1452SOL     OW 5254   5.269   0.663   4.726
 1452SOL    HW1 5255   5.172   0.645   4.742
 1452SOL    HW2 5256   5.279   0.731   4.654
 1453SOL     OW 5257   5.488   3.352   4.909
 1453SOL    HW1 5258   5.448   3.329   4.821
 1453SOL    HW2 5259   5.497   3.269   4.964
 1454SOL     OW 5260   5.432   2.445   1.869
 1454SOL    HW1 5261   5.416   2.458   1.967
 1454SOL    HW2 5262   5.372   2.373   1.835
 1455SOL     OW 5263   1.135   0.680   1.861
 1455SOL    HW1 5264   1.127   0.580   1.856
 1455SOL    HW2 5265   1.092   0.714   1.944
 1456SOL     OW 5266   0.191   6.365   5.117
 1456SOL    HW1 5267   0.188   6.394   5.213
 1456SOL    HW2 5268   0.097   6.355   5.082
 1457SOL     OW 5269   1.478   6.837   3.113
 1457SOL    HW1 5270   1.573   6.820   3.087
 1457SOL    HW2 5271   1.452   6.930   3.087
 1458SOL     OW 5272   5.254   6.530   5.092
 1458SOL    HW1 5273   5.271   6.434   5.067
 1458SOL    HW2 5274   5.286   6.546   5.185
 1459SOL     OW 5275   2.890   5.423   6.735
 1459SOL    HW1 5276   2.804   5.472   6.744
 1459SOL    HW2 5277   2.883   5.356   6.661
 1460SOL     OW 5278   0.075   6.269   6.341
 1460SOL    HW1 5279   0.169   6.252   6.369
 1460SOL    HW2 5280   0.014   6.256   6.420
 1461SOL     OW 5281   6.448   4.079   3.792
 1461SOL    HW1 5282   6.408   4.152   3.738
 1461SOL    HW2 5283   6.375   4.022   3.831
 1462SOL     OW 5284   6.704   1.896   0.189
 1462SOL    HW1 5285   6.796   1.894   0.228
 1462SOL    HW2 5286   6.702   1.842   0.105
 1463SOL     OW 5287   0.559   0.364   5.574
 1463SOL    HW1 5288   0.521   0.455   5.593
 1463SOL    HW2 5289   0.595   0.325   5.659
 1464SOL     OW 5290   0.624   6.660   0.459
 1464SOL    HW1 5291   0.538   6.701   0.428
 1464SOL    HW2 5292   0.608   6.609   0.543
 1465SOL     OW 5293   0.913   1.223   2.997
 1465SOL    HW1 5294   0.831   1.180   2.960
 1465SOL    HW2 5295   0.897   1.249   3.093
 1466SOL     OW 5296   6.774   6.258   2.348
 1466SOL    HW1 5297   6.758   6.339   2.292
 1466SOL    HW2 5298   6.820   6.284   2.432
 1467SOL     OW 5299   1.324   0.518   2.712
 1467SOL    HW1 5300   1.306   0.616   2.699
 1467SOL    HW2 5301   1.421   0.504   2.732
 1468SOL     OW 5302   5.514   5.619   3.101
 1468SOL    HW1 5303   5.558   5.595   3.014
 1468SOL    HW2 5304   5.543   5.554   3.171
 1469SOL     OW 5305   0.420   0.676   3.098
 1469SOL    HW1 5306   0.476   0.690   3.017
 1469SOL    HW2 5307   0.414   0.578   3.119
 1470SOL     OW 5308   0.955   1.051   2.365
 1470SOL    HW1 5309   0.986   1.145   2.349
 1470SOL    HW2 5310   1.034   0.994   2.388
 1471SOL     OW 5311   6.729   0.743   6.555
 1471SOL    HW1 5312   6.745   0.732   6.457
 1471SOL    HW2 5313   6.785   0.678   6.606
 1472SOL     OW 5314   4.782   6.104   4.711
 1472SOL    HW1 5315   4.831   6.093   4.797
 1472SOL    HW2 5316   4.684   6.106   4.728
 1473SOL     OW 5317   5.889   5.135   3.121
 1473SOL    HW1 5318   5.987   5.153   3.127
 1473SOL    HW2 5319   5.857   5.151   3.028
 1474SOL     OW 5320   6.112   5.950   3.710
 1474SOL    HW1 5321   6.058   5.892   3.648
 1474SOL    HW2 5322   6.064   6.035   3.726
 1475SOL     OW 5323   0.147   0.253   1.823
 1475SOL    HW1 5324   0.091   0.169   1.829
 1475SOL    HW2 5325   0.091   0.331   1.850
 1476SOL     OW 5326   1.184   1.177   1.500
 1476SOL    HW1 5327   1.279   1.193   1.476
 1476SOL    HW2 5328   1.157   1.084   1.473
 1477SOL     OW 5329   2.548   0.127   6.003
 1477SOL    HW1 5330   2.555   0.045   6.060
 1477SOL    HW2 5331   2.474   0.116   5.937
 1478SOL     OW 5332   5.808   4.913   0.996
 1478SOL    HW1 5333   5.819   4.892   1.093
 1478SOL    HW2 5334   5.722   4.873   0.964
 1479SOL     OW 5335   1.281   4.528   0.327
 1479SOL    HW1 5336   1.206   4.487   0.275
 1479SOL    HW2 5337   1.361   4.535   0.268
 1480SOL     OW 5338   2.451   0.773   0.029
 1480SOL    HW1 5339   2.531   0.815   7.015
 1480SOL    HW2 5340   2.402   0.841   0.083
 1481SOL     OW 5341   5.496   1.812   5.590
 1481SOL    HW1 5342   5.398   1.813   5.568
 1481SOL    HW2 5343   5.517   1.887   5.652
 1482SOL     OW 5344   5.852   1.582   0.921
 1482SOL    HW1 5345   5.911   1.570   0.841
 1482SOL    HW2 5346   5.901   1.553   1.003
 1483SOL     OW 5347   6.718   3.304   0.042
 1483SOL    HW1 5348   6.781   3.248   7.017
 1483SOL    HW2 5349   6.764   3.389   0.069
 1484SOL     OW 5350   6.071   4.250   3.844
 1484SOL    HW1 5351   6.044   4.225   3.751
 1484SOL    HW2 5352   6.100   4.346   3.846
 1485SOL     OW 5353   4.528   2.535   2.135
 1485SOL    HW1 5354   4.543   2.499   2.227
 1485SOL    HW2 5355   4.497   2.631   2.142
 1486SOL     OW 5356   4.483   2.178   3.621
 1486SOL    HW1 5357   4.553   2.110   3.599
 1486SOL    HW2 5358   4.511   2.229   3.702
 1487SOL     OW 5359   6.676   1.577   6.530
 1487SOL    HW1 5360   6.743   1.581   6.456
 1487SOL    HW2 5361   6.584   1.590   6.494
 1488SOL     OW 5362   5.159   2.061   2.799
 1488SOL    HW1 5363   5.068   2.057   2.841
 1488SOL    HW2 5364   5.220   2.000   2.848
 1489SOL     OW 5365   3.658   5.219   4.414
 1489SOL    HW1 5366   3.718   5.283   4.462
 1489SOL    HW2 5367   3.581   5.194   4.474
 1490SOL     OW 5368   1.300   2.117   0.506
 1490SOL    HW1 5369   1.349   2.116   0.419
 1490SOL    HW2 5370   1.227   2.048   0.505
 1491SOL     OW 5371   6.261   3.408   3.352
 1491SOL    HW1 5372   6.294   3.400   3.446
 1491SOL    HW2 5373   6.285   3.326   3.301
 1492SOL     OW 5374   4.963   1.944   1.987
 1492SOL    HW1 5375   4.966   2.034   1.943
 1492SOL    HW2 5376   4.914   1.880   1.928
 1493SOL     OW 5377   4.801   0.276   4.537
 1493SOL    HW1 5378   4.836   0.204   4.597
 1493SOL    HW2 5379   4.833   0.365   4.570
 1494SOL     OW 5380   4.062   2.692   5.603
 1494SOL    HW1 5381   4.034   2.679   5.508
 1494SOL    HW2 5382   4.021   2.621   5.661
 1495SOL     OW 5383   0.270   3.447   3.359
 1495SOL    HW1 5384   0.309   3.417   3.272
 1495SOL    HW2 5385   0.316   3.531   3.389
 1496SOL     OW 5386   0.249   0.412   1.596
 1496SOL    HW1 5387   0.192   0.335   1.622
 1496SOL    HW2 5388   0.215   0.451   1.510
 1497SOL     OW 5389   0.453   4.707   3.729
 1497SOL    HW1 5390   0.409   4.674   3.646
 1497SOL    HW2 5391   0.495   4.796   3.711
 1498SOL     OW 5392   2.029   4.832   6.345
 1498SOL    HW1 5393   2.112   4.811   6.398
 1498SOL    HW2 5394   2.024   4.770   6.266
 1499SOL     OW 5395   1.051   4.246   5.134
 1499SOL    HW1 5396   1.080   4.337   5.103
 1499SOL    HW2 5397   1.131   4.186   5.139
 1500SOL     OW 5398   5.858   0.066   0.640
 1500SOL    HW1 5399   5.899   0.034   0.726
 1500SOL    HW2 5400   5.759   0.070   0.650
 1501SOL     OW 5401   3.966   0.510   6.717
 1501SOL    HW1 5402   3.996   0.489   6.624
 1501SOL    HW2 5403   4.021   0.585   6.753
 1502SOL     OW 5404   6.603   6.915   0.104
 1502SOL    HW1 5405   6.636   6.931   0.011
 1502SOL    HW2 5406   6.537   6.840   0.104
 1503SOL     OW 5407   2.084   2.781   1.232
 1503SOL    HW1 5408   2.043   2.801   1.321
 1503SOL    HW2 5409   2.038   2.701   1.192
 1504SOL     OW 5410   2.692   0.059   4.963
 1504SOL    HW1 5411   2.662   0.138   5.017
 1504SOL    HW2 5412   2.644   0.057   4.876
 1505SOL     OW 5413   5.467   0.180   6.124
 1505SOL    HW1 5414   5.507   0.162   6.214
 1505SOL    HW2 5415   5.427   0.096   6.088
 1506SOL     OW 5416   1.152   5.154   3.371
 1506SOL    HW1 5417   1.214   5.114   3.437
 1506SOL    HW2 5418   1.123   5.245   3.402
 1507SOL     OW 5419   1.690   1.531   4.739
 1507SOL    HW1 5420   1.637   1.578   4.668
 1507SOL    HW2 5421   1.732   1.599   4.799
 1508SOL     OW 5422   4.695   6.980   0.859
 1508SOL    HW1 5423   4.643   6.909   0.906
 1508SOL    HW2 5424   4.663   0.042   0.889
 1509SOL     OW 5425   4.472   3.096   6.341
 1509SOL    HW1 5426   4.493   3.107   6.244
 1509SOL    HW2 5427   4.390   3.149   6.364
 1510SOL     OW 5428   5.511   2.381   3.979
 1510SOL    HW1 5429   5.578   2.453   4.000
 1510SOL    HW2 5430   5.470   2.349   4.065
 1511SOL     OW 5431   2.158   1.674   6.802
 1511SOL    HW1 5432   2.252   1.641   6.798
 1511SOL    HW2 5433   2.113   1.656   6.715
 1512SOL     OW 5434   6.405   6.508   1.608
 1512SOL    HW1 5435   6.349   6.591   1.615
 1512SOL    HW2 5436   6.392   6.452   1.690
 1513SOL     OW 5437   4.114   0.858   3.896
 1513SOL    HW1 5438   4.125   0.957   3.886
 1513SOL    HW2 5439   4.029   0.838   3.944
 1514SOL     OW 5440   5.436   1.602   4.888
 1514SOL    HW1 5441   5.512   1.635   4.833
 1514SOL    HW2 5442   5.349   1.635   4.850
 1515SOL     OW 5443   0.335   3.286   5.468
 1515SOL    HW1 5444   0.295   3.373   5.499
 1515SOL    HW2 5445   0.261   3.224   5.441
 1516SOL     OW 5446   0.788   1.060   0.957
 1516SOL    HW1 5447   0.881   1.093   0.971
 1516SOL    HW2 5448   0.737   1.124   0.899
 1517SOL     OW 5449   4.196   5.051   4.039
 1517SOL    HW1 5450   4.150   4.994   4.107
 1517SOL    HW2 5451   4.130   5.080   3.970
 1518SOL     OW 5452   6.858   3.892   6.796
 1518SOL    HW1 5453   6.801   3.817   6.829
 1518SOL    HW2 5454   6.800   3.971   6.776
 1519SOL     OW 5455   0.095   4.284   1.149
 1519SOL    HW1 5456   0.174   4.340   1.123
 1519SOL    HW2 5457   0.110   4.246   1.240
 1520SOL     OW 5458   1.894   3.437   2.382
 1520SOL    HW1 5459   1.879   3.420   2.285
 1520SOL    HW2 5460   1.827   3.384   2.435
 1521SOL     OW 5461   1.665   3.128   0.352
 1521SOL    HW1 5462   1.764   3.141   0.348
 1521SOL    HW2 5463   1.644   3.042   0.399
 1522SOL     OW 5464   0.114   1.825   6.018
 1522SOL    HW1 5465   0.169   1.770   6.080
 1522SOL    HW2 5466   0.134   1.798   5.924
 1523SOL     OW 5467   5.136   3.641   6.373
 1523SOL    HW1 5468   5.161   3.715   6.435
 1523SOL    HW2 5469   5.167   3.554   6.411
 1524SOL     OW 5470   0.896   1.758   1.792
 1524SOL    HW1 5471   0.978   1.764   1.849
 1524SOL    HW2 5472   0.922   1.734   1.698
 1525SOL     OW 5473   4.787   1.923   5.477
 1525SOL    HW1 5474   4.781   1.901   5.574
 1525SOL    HW2 5475   4.872   1.973   5.459
 1526SOL     OW 5476   0.303   0.700   1.177
 1526SOL    HW1 5477   0.376   0.668   1.116
 1526SOL    HW2 5478   0.232   0.745   1.123
 1527SOL     OW 5479   3.356   1.663   4.861
 1527SOL    HW1 5480   3.393   1.651   4.769
 1527SOL    HW2 5481   3.285   1.733   4.859
 1528SOL     OW 5482   5.223   5.981   2.770
 1528SOL    HW1 5483   5.295   5.970   2.701
 1528SOL    HW2 5484   5.142   6.021   2.727
 1529SOL     OW 5485   4.706   1.281   5.938
 1529SOL    HW1 5486   4.796   1.278   5.981
 1529SOL    HW2 5487   4.710   1.337   5.856
 1530SOL     OW 5488   3.035   0.143   1.201
 1530SOL    HW1 5489   2.990   0.116   1.116
 1530SOL    HW2 5490   3.039   0.064   1.263
 1531SOL     OW 5491   5.944   0.933   5.331
 1531SOL    HW1 5492   5.860   0.884   5.354
 1531SOL    HW2 5493   5.921   1.022   5.293
 1532SOL     OW 5494   2.656   2.317   4.958
 1532SOL    HW1 5495   2.741   2.285   4.915
 1532SOL    HW2 5496   2.676   2.350   5.050
 1533SOL     OW 5497   0.076   3.539   6.815
 1533SOL    HW1 5498   0.067   3.462   6.752
 1533SOL    HW2 5499   0.166   3.536   6.859
 1534SOL     OW 5500   1.737   5.132   0.452
 1534SOL    HW1 5501   1.711   5.210   0.508
 1534SOL    HW2 5502   1.693   5.139   0.363
 1535SOL     OW 5503   5.541   5.226   4.448
 1535SOL    HW1 5504   5.559   5.305   4.507
 1535SOL    HW2 5505   5.554   5.251   4.353
 1536SOL     OW 5506   3.374   5.512   4.165
 1536SOL    HW1 5507   3.438   5.436   4.156
 1536SOL    HW2 5508   3.291   5.480   4.212
 1537SOL     OW 5509   3.584   5.353   3.758
 1537SOL    HW1 5510   3.640   5.321   3.835
 1537SOL    HW2 5511   3.522   5.424   3.790
 1538SOL     OW 5512   3.310   4.928   6.250
 1538SOL    HW1 5513   3.349   4.902   6.161
 1538SOL    HW2 5514   3.362   4.882   6.323
 1539SOL     OW 5515   4.173   4.407   1.331
 1539SOL    HW1 5516   4.249   4.462   1.365
 1539SOL    HW2 5517   4.162   4.422   1.233
 1540SOL     OW 5518   1.051   0.181   4.581
 1540SOL    HW1 5519   1.016   0.162   4.672
 1540SOL    HW2 5520   1.141   0.138   4.570
 1541SOL     OW 5521   3.809   2.667   1.279
 1541SOL    HW1 5522   3.759   2.709   1.355
 1541SOL    HW2 5523   3.886   2.615   1.315
 1542SOL     OW 5524   6.695   5.986   1.768
 1542SOL    HW1 5525   6.716   6.029   1.680
 1542SOL    HW2 5526   6.597   5.993   1.787
 1543SOL     OW 5527   3.055   3.414   3.240
 1543SOL    HW1 5528   3.154   3.408   3.225
 1543SOL    HW2 5529   3.024   3.334   3.291
 1544SOL     OW 5530   3.016   3.905   2.225
 1544SOL    HW1 5531   2.988   3.991   2.268
 1544SOL    HW2 5532   3.092   3.866   2.276
 1545SOL     OW 5533   5.250   0.407   5.320
 1545SOL    HW1 5534   5.270   0.335   5.386
 1545SOL    HW2 5535   5.306   0.488   5.340
 1546SOL     OW 5536   5.280   0.402   6.058
 1546SOL    HW1 5537   5.245   0.443   6.142
 1546SOL    HW2 5538   5.325   0.315   6.080
 1547SOL     OW 5539   2.258   4.218   2.465
 1547SOL    HW1 5540   2.223   4.311   2.455
 1547SOL    HW2 5541   2.250   4.189   2.560
 1548SOL     OW 5542   4.275   4.209   5.769
 1548SOL    HW1 5543   4.207   4.162   5.826
 1548SOL    HW2 5544   4.356   4.151   5.760
 1549SOL     OW 5545   6.304   1.179   2.084
 1549SOL    HW1 5546   6.362   1.240   2.137
 1549SOL    HW2 5547   6.238   1.233   2.031
 1550SOL     OW 5548   3.272   6.738   5.838
 1550SOL    HW1 5549   3.309   6.674   5.906
 1550SOL    HW2 5550   3.253   6.688   5.753
 1551SOL     OW 5551   1.738   3.013   1.255
 1551SOL    HW1 5552   1.677   3.091   1.272
 1551SOL    HW2 5553   1.726   2.981   1.161
 1552SOL     OW 5554   1.100   0.107   1.279
 1552SOL    HW1 5555   1.063   0.163   1.204
 1552SOL    HW2 5556   1.134   0.167   1.351
 1553SOL     OW 5557   6.035   1.774   6.516
 1553SOL    HW1 5558   5.978   1.856   6.510
 1553SOL    HW2 5559   6.111   1.780   6.452
 1554SOL     OW 5560   4.241   2.351   3.210
 1554SOL    HW1 5561   4.311   2.378   3.144
 1554SOL    HW2 5562   4.173   2.293   3.164
 1555SOL     OW 5563   4.660   2.361   5.468
 1555SOL    HW1 5564   4.743   2.364   5.414
 1555SOL    HW2 5565   4.681   2.326   5.560
 1556SOL     OW 5566   3.310   0.393   0.541
 1556SOL    HW1 5567   3.307   0.477   0.488
 1556SOL    HW2 5568   3.275   0.410   0.633
 1557SOL     OW 5569   2.311   2.797   1.119
 1557SOL    HW1 5570   2.302   2.816   1.021
 1557SOL    HW2 5571   2.220   2.787   1.160
 1558SOL     OW 5572   5.776   2.070   5.320
 1558SOL    HW1 5573   5.821   2.110   5.240
 1558SOL    HW2 5574   5.828   2.091   5.402
 1559SOL     OW 5575   0.183   3.775   1.807
 1559SOL    HW1 5576   0.113   3.836   1.769
 1559SOL    HW2 5577   0.142   3.688   1.832
 1560SOL     OW 5578   3.201   1.383   6.798
 1560SOL    HW1 5579   3.176   1.356   6.892
 1560SOL    HW2 5580   3.269   1.318   6.762
 1561SOL     OW 5581   5.420   5.876   2.606
 1561SOL    HW1 5582   5.488   5.924   2.662
 1561SOL    HW2 5583   5.463   5.841   2.523
 1562SOL     OW 5584   2.960   6.506   2.078
 1562SOL    HW1 5585   3.008   6.422   2.103
 1562SOL    HW2 5586   3.005   6.548   2.000
 1563SOL     OW 5587   2.995   2.109   5.167
 1563SOL    HW1 5588   2.926   2.062   5.111
 1563SOL    HW2 5589   3.050   2.168   5.108
 1564SOL     OW 5590   0.991   1.328   2.373
 1564SOL    HW1 5591   1.022   1.422   2.370
 1564SOL    HW2 5592   0.939   1.307   2.290
 1565SOL     OW 5593   4.388   5.538   5.032
 1565SOL    HW1 5594   4.317   5.488   4.982
 1565SOL    HW2 5595   4.353   5.563   5.122
 1566SOL     OW 5596   5.833   4.884   3.912
 1566SOL    HW1 5597   5.873   4.976   3.923
 1566SOL    HW2 5598   5.807   4.849   4.002
 1567SOL     OW 5599   6.080   5.457   6.459
 1567SOL    HW1 5600   6.122   5.541   6.495
 1567SOL    HW2 5601   6.004   5.430   6.518
 1568SOL     OW 5602   2.098   6.143   3.227
 1568SOL    HW1 5603   2.197   6.154   3.212
 1568SOL    HW2 5604   2.057   6.233   3.244
 1569SOL     OW 5605   4.025   0.488   3.115
 1569SOL    HW1 5606   4.117   0.511   3.082
 1569SOL    HW2 5607   3.959   0.554   3.078
 1570SOL     OW 5608   2.716   6.869   6.628
 1570SOL    HW1 5609   2.716   6.953   6.574
 1570SOL    HW2 5610   2.635   6.868   6.687
 1571SOL     OW 5611   1.037   2.895   3.344
 1571SOL    HW1 5612   1.040   2.822   3.413
 1571SOL    HW2 5613   0.988   2.863   3.263
 1572SOL     OW 5614   1.706   5.557   1.630
 1572SOL    HW1 5615   1.745   5.602   1.549
 1572SOL    HW2 5616   1.780   5.516   1.683
 1573SOL     OW 5617   4.973   5.468   2.040
 1573SOL    HW1 5618   5.048   5.500   2.099
 1573SOL    HW2 5619   5.010   5.416   1.964
 1574SOL     OW 5620   6.152   3.000   2.289
 1574SOL    HW1 5621   6.124   2.940   2.214
 1574SOL    HW2 5622   6.197   2.946   2.360
 1575SOL     OW 5623   2.211   0.743   1.798
 1575SOL    HW1 5624   2.198   0.644   1.795
 1575SOL    HW2 5625   2.151   0.787   1.732
 1576SOL     OW 5626   0.927   6.432   2.259
 1576SOL    HW1 5627   0.862   6.473   2.196
 1576SOL    HW2 5628   0.884   6.354   2.305
 1577SOL     OW 5629   2.616   0.702   6.394
 1577SOL    HW1 5630   2.592   0.607   6.410
 1577SOL    HW2 5631   2.695   0.707   6.333
 1578SOL     OW 5632   4.669   1.216   6.573
 1578SOL    HW1 5633   4.674   1.116   6.583
 1578SOL    HW2 5634   4.573   1.243   6.562
 1579SOL     OW 5635   0.296   2.775   1.405
 1579SOL    HW1 5636   0.216   2.792   1.348
 1579SOL    HW2 5637   0.323   2.860   1.450
 1580SOL     OW 5638   3.524   4.078   3.257
 1580SOL    HW1 5639   3.620   4.074   3.285
 1580SOL    HW2 5640   3.518   4.079   3.157
 1581SOL     OW 5641   6.928   4.495   5.274
 1581SOL    HW1 5642   7.004   4.431   5.289
 1581SOL    HW2 5643   6.944   4.578   5.326
 1582SOL     OW 5644   3.938   5.674   5.305
 1582SOL    HW1 5645   3.858   5.674   5.245
 1582SOL    HW2 5646   3.948   5.585   5.348
 1583SOL     OW 5647   0.679   6.136   4.651
 1583SOL    HW1 5648   0.654   6.041   4.670
 1583SOL    HW2 5649   0.778   6.148   4.665
 1584SOL     OW 5650   1.961   4.481   6.933
 1584SOL    HW1 5651   1.939   4.414   6.862
 1584SOL    HW2 5652   2.025   4.549   6.896
 1585SOL     OW 5653   4.235   1.578   2.786
 1585SOL    HW1 5654   4.202   1.668   2.816
 1585SOL    HW2 5655   4.282   1.534   2.862
 1586SOL     OW 5656   3.111   4.875   3.121
 1586SOL    HW1 5657   3.172   4.882   3.200
 1586SOL    HW2 5658   3.165   4.875   3.037
 1587SOL     OW 5659   1.558   5.388   5.434
 1587SOL    HW1 5660   1.588   5.425   5.521
 1587SOL    HW2 5661   1.522   5.296   5.447
 1588SOL     OW 5662   4.605   0.317   2.178
 1588SOL    HW1 5663   4.663   0.330   2.259
 1588SOL    HW2 5664   4.601   0.402   2.126
 1589SOL     OW 5665   6.822   3.152   3.097
 1589SOL    HW1 5666   6.895   3.087   3.075
 1589SOL    HW2 5667   6.738   3.102   3.118
 1590SOL     OW 5668   5.577   1.439   3.467
 1590SOL    HW1 5669   5.626   1.519   3.502
 1590SOL    HW2 5670   5.612   1.357   3.511
 1591SOL     OW 5671   6.547   5.781   1.476
 1591SOL    HW1 5672   6.503   5.842   1.542
 1591SOL    HW2 5673   6.637   5.817   1.453
 1592SOL     OW 5674   1.758   4.210   0.006
 1592SOL    HW1 5675   1.666   4.170   7.029
 1592SOL    HW2 5676   1.771   4.274   6.959
 1593SOL     OW 5677   0.967   6.855   6.248
 1593SOL    HW1 5678   0.937   6.807   6.165
 1593SOL    HW2 5679   0.919   6.817   6.327
 1594SOL     OW 5680   6.850   6.765   1.398
 1594SOL    HW1 5681   6.849   6.679   1.347
 1594SOL    HW2 5682   6.945   6.794   1.413
 1595SOL     OW 5683   1.241   4.347   0.819
 1595SOL    HW1 5684   1.290   4.363   0.734
 1595SOL    HW2 5685   1.283   4.270   0.867
 1596SOL     OW 5686   6.435   3.361   2.809
 1596SOL    HW1 5687   6.495   3.281   2.809
 1596SOL    HW2 5688   6.386   3.367   2.723
 1597SOL     OW 5689   2.951   5.985   1.565
 1597SOL    HW1 5690   2.883   6.057   1.551
 1597SOL    HW2 5691   2.972   5.940   1.478
 1598SOL     OW 5692   0.998   5.386   6.417
 1598SOL    HW1 5693   1.066   5.364   6.487
 1598SOL    HW2 5694   0.955   5.473   6.438
 1599SOL     OW 5695   4.475   4.722   5.182
 1599SOL    HW1 5696   4.574   4.712   5.171
 1599SOL    HW2 5697   4.428   4.666   5.113
 1600SOL     OW 5698   2.800   0.459   1.877
 1600SOL    HW1 5699   2.741   0.534   1.907
 1600SOL    HW2 5700   2.880   0.495   1.830
 1601SOL     OW 5701   0.195   6.514   4.096
 1601SOL    HW1 5702   0.249   6.434   4.071
 1601SOL    HW2 5703   0.197   6.580   4.020
 1602SOL     OW 5704   4.890   5.812   3.963
 1602SOL    HW1 5705   4.903   5.781   4.057
 1602SOL    HW2 5706   4.926   5.904   3.953
 1603SOL     OW 5707   2.878   5.351   4.315
 1603SOL    HW1 5708   2.791   5.303   4.327
 1603SOL    HW2 5709   2.863   5.433   4.259
 1604SOL     OW 5710   3.848   5.137   1.622
 1604SOL    HW1 5711   3.778   5.072   1.652
 1604SOL    HW2 5712   3.818   5.181   1.537
 1605SOL     OW 5713   6.169   5.642   1.032
 1605SOL    HW1 5714   6.206   5.700   0.960
 1605SOL    HW2 5715   6.232   5.566   1.050
 1606SOL     OW 5716   4.080   5.456   5.540
 1606SOL    HW1 5717   4.163   5.505   5.568
 1606SOL    HW2 5718   4.093   5.417   5.449
 1607SOL     OW 5719   4.276   0.191   1.306
 1607SOL    HW1 5720   4.252   0.094   1.293
 1607SOL    HW2 5721   4.371   0.205   1.281
 1608SOL     OW 5722   0.055   0.717   2.925
 1608SOL    HW1 5723   0.045   0.650   2.998
 1608SOL    HW2 5724   6.993   0.743   2.892
 1609SOL     OW 5725   3.261   6.890   0.795
 1609SOL    HW1 5726   3.231   6.840   0.714
 1609SOL    HW2 5727   3.353   6.927   0.779
 1610SOL     OW 5728   4.838   6.671   0.775
 1610SOL    HW1 5729   4.853   6.648   0.871
 1610SOL    HW2 5730   4.754   6.627   0.743
 1611SOL     OW 5731   1.897   3.323   1.152
 1611SOL    HW1 5732   1.975   3.363   1.103
 1611SOL    HW2 5733   1.828   3.392   1.168
 1612SOL     OW 5734   3.297   6.580   1.357
 1612SOL    HW1 5735   3.318   6.546   1.265
 1612SOL    HW2 5736   3.207   6.623   1.356
 1613SOL     OW 5737   0.481   5.674   2.145
 1613SOL    HW1 5738   0.491   5.612   2.068
 1613SOL    HW2 5739   0.406   5.643   2.204
 1614SOL     OW 5740   5.484   1.930   6.069
 1614SOL    HW1 5741   5.486   2.021   6.110
 1614SOL    HW2 5742   5.572   1.910   6.026
 1615SOL     OW 5743   6.894   5.389   6.127
 1615SOL    HW1 5744   6.840   5.359   6.205
 1615SOL    HW2 5745   6.946   5.312   6.090
 1616SOL     OW 5746   3.761   0.806   4.283
 1616SOL    HW1 5747   3.814   0.841   4.360
 1616SOL    HW2 5748   3.667   0.789   4.311
 1617SOL     OW 5749   5.009   6.733   2.881
 1617SOL    HW1 5750   4.966   6.801   2.940
 1617SOL    HW2 5751   4.980   6.641   2.909
 1618SOL     OW 5752   1.149   6.048   2.349
 1618SOL    HW1 5753   1.141   6.015   2.255
 1618SOL    HW2 5754   1.234   6.013   2.389
 1619SOL     OW 5755   0.586   5.286   0.207
 1619SOL    HW1 5756   0.489   5.296   0.228
 1619SOL    HW2 5757   0.598   5.264   0.110
 1620SOL     OW 5758   3.061   4.874   1.542
 1620SOL    HW1 5759   3.138   4.931   1.569
 1620SOL    HW2 5760   3.051   4.798   1.606
 1621SOL     OW 5761   6.074   0.272   1.003
 1621SOL    HW1 5762   6.114   0.201   0.945
 1621SOL    HW2 5763   6.008   0.231   1.066
 1622SOL     OW 5764   0.268   3.910   5.557
 1622SOL    HW1 5765   0.361   3.910   5.523
 1622SOL    HW2 5766   0.258   3.979   5.629
 1623SOL     OW 5767   0.041   1.879   4.485
 1623SOL    HW1 5768   0.009   1.840   4.572
 1623SOL    HW2 5769   0.124   1.933   4.502
 1624SOL     OW 5770   4.429   1.773   6.769
 1624SOL    HW1 5771   4.458   1.867   6.752
 1624SOL    HW2 5772   4.497   1.727   6.825
 1625SOL     OW 5773   1.408   5.127   6.550
 1625SOL    HW1 5774   1.355   5.159   6.628
 1625SOL    HW2 5775   1.373   5.168   6.466
 1626SOL     OW 5776   3.114   1.729   1.953
 1626SOL    HW1 5777   3.017   1.736   1.930
 1626SOL    HW2 5778   3.165   1.693   1.874
 1627SOL     OW 5779   5.977   2.508   3.465
 1627SOL    HW1 5780   6.008   2.547   3.378
 1627SOL    HW2 5781   5.877   2.500   3.463
 1628SOL     OW 5782   4.313   5.464   6.441
 1628SOL    HW1 5783   4.286   5.560   6.441
 1628SOL    HW2 5784   4.369   5.445   6.522
 1629SOL     OW 5785   2.789   1.375   3.599
 1629SOL    HW1 5786   2.693   1.352   3.607
 1629SOL    HW2 5787   2.830   1.386   3.690
 1630SOL     OW 5788   0.022   4.427   5.673
 1630SOL    HW1 5789   6.967   4.433   5.620
 1630SOL    HW2 5790   0.098   4.405   5.613
 1631SOL     OW 5791   0.232   3.272   0.688
 1631SOL    HW1 5792   0.291   3.307   0.616
 1631SOL    HW2 5793   0.288   3.235   0.762
 1632SOL     OW 5794   4.730   4.246   2.517
 1632SOL    HW1 5795   4.751   4.207   2.428
 1632SOL    HW2 5796   4.642   4.295   2.512
 1633SOL     OW 5797   5.268   4.318   4.765
 1633SOL    HW1 5798   5.238   4.390   4.702
 1633SOL    HW2 5799   5.261   4.350   4.859
 1634SOL     OW 5800   4.527   1.068   4.527
 1634SOL    HW1 5801   4.577   1.110   4.602
 1634SOL    HW2 5802   4.576   1.082   4.441
 1635SOL     OW 5803   1.921   5.446   6.553
 1635SOL    HW1 5804   1.883   5.509   6.621
 1635SOL    HW2 5805   1.920   5.353   6.589
 1636SOL     OW 5806   3.598   5.482   1.296
 1636SOL    HW1 5807   3.542   5.492   1.378
 1636SOL    HW2 5808   3.695   5.481   1.322
 1637SOL     OW 5809   6.640   0.025   3.785
 1637SOL    HW1 5810   6.699   0.078   3.845
 1637SOL    HW2 5811   6.682   6.966   3.766
 1638SOL     OW 5812   0.269   3.134   1.909
 1638SOL    HW1 5813   0.210   3.111   1.832
 1638SOL    HW2 5814   0.325   3.213   1.886
 1639SOL     OW 5815   6.520   4.649   2.170
 1639SOL    HW1 5816   6.438   4.625   2.222
 1639SOL    HW2 5817   6.529   4.748   2.166
 1640SOL     OW 5818   6.697   0.280   0.458
 1640SOL    HW1 5819   6.785   0.234   0.465
 1640SOL    HW2 5820   6.706   0.362   0.402
 1641SOL     OW 5821   6.867   2.544   4.220
 1641SOL    HW1 5822   6.833   2.513   4.131
 1641SOL    HW2 5823   6.963   2.573   4.211
 1642SOL     OW 5824   6.973   2.886   6.643
 1642SOL    HW1 5825   7.019   2.809   6.599
 1642SOL    HW2 5826   0.013   2.945   6.685
 1643SOL     OW 5827   2.962   4.838   2.729
 1643SOL    HW1 5828   2.894   4.905   2.758
 1643SOL    HW2 5829   2.949   4.816   2.632
 1644SOL     OW 5830   5.750   3.014   6.910
 1644SOL    HW1 5831   5.680   2.943   6.918
 1644SOL    HW2 5832   5.724   3.093   6.966
 1645SOL     OW 5833   2.991   6.563   6.357
 1645SOL    HW1 5834   3.083   6.575   6.396
 1645SOL    HW2 5835   2.987   6.609   6.268
 1646SOL     OW 5836   1.926   6.119   0.418
 1646SOL    HW1 5837   2.021   6.091   0.403
 1646SOL    HW2 5838   1.920   6.219   0.412
 1647SOL     OW 5839   5.434   2.356   4.332
 1647SOL    HW1 5840   5.518   2.366   4.384
 1647SOL    HW2 5841   5.400   2.262   4.342
 1648SOL     OW 5842   5.335   6.197   0.106
 1648SOL    HW1 5843   5.406   6.222   0.041
 1648SOL    HW2 5844   5.266   6.270   0.110
 1649SOL     OW 5845   3.604   1.551   4.045
 1649SOL    HW1 5846   3.692   1.528   4.086
 1649SOL    HW2 5847   3.548   1.601   4.111
 1650SOL     OW 5848   1.029   5.307   5.402
 1650SOL    HW1 5849   0.942   5.261   5.387
 1650SOL    HW2 5850   1.082   5.256   5.470
 1651SOL     OW 5851   0.188   2.126   2.558
 1651SOL    HW1 5852   0.130   2.077   2.624
 1651SOL    HW2 5853   0.283   2.098   2.570
 1652SOL     OW 5854   0.977   3.748   2.391
 1652SOL    HW1 5855   1.067   3.704   2.395
 1652SOL    HW2 5856   0.988   3.847   2.403
 1653SOL     OW 5857   6.760   5.452   1.552
 1653SOL    HW1 5858   6.807   5.531   1.590
 1653SOL    HW2 5859   6.669   5.444   1.594
 1654SOL     OW 5860   6.963   3.358   1.195
 1654SOL    HW1 5861   6.954   3.280   1.133
 1654SOL    HW2 5862   0.027   3.394   1.189
 1655SOL     OW 5863   6.378   1.306   4.496
 1655SOL    HW1 5864   6.432   1.282   4.415
 1655SOL    HW2 5865   6.426   1.276   4.578
 1656SOL     OW 5866   2.728   5.620   3.096
 1656SOL    HW1 5867   2.712   5.594   3.001
 1656SOL    HW2 5868   2.711   5.542   3.156
 1657SOL     OW 5869   6.617   0.194   4.921
 1657SOL    HW1 5870   6.570   0.273   4.960
 1657SOL    HW2 5871   6.708   0.222   4.889
 1658SOL     OW 5872   6.795   0.458   0.671
 1658SOL    HW1 5873   6.881   0.486   0.628
 1658SOL    HW2 5874   6.751   0.389   0.615
 1659SOL     OW 5875   3.505   0.390   6.903
 1659SOL    HW1 5876   3.496   0.433   6.813
 1659SOL    HW2 5877   3.415   0.387   6.947
 1660SOL     OW 5878   1.708   6.940   2.881
 1660SOL    HW1 5879   1.661   7.027   2.896
 1660SOL    HW2 5880   1.661   6.888   2.809
 1661SOL     OW 5881   2.982   5.917   2.237
 1661SOL    HW1 5882   2.920   5.947   2.165
 1661SOL    HW2 5883   2.977   5.980   2.315
 1662SOL     OW 5884   6.218   0.086   5.118
 1662SOL    HW1 5885   6.152   0.127   5.055
 1662SOL    HW2 5886   6.176   0.007   5.163
 1663SOL     OW 5887   5.044   4.981   2.822
 1663SOL    HW1 5888   4.982   4.986   2.743
 1663SOL    HW2 5889   5.071   5.074   2.849
 1664SOL     OW 5890   2.159   6.228   5.623
 1664SOL    HW1 5891   2.219   6.186   5.691
 1664SOL    HW2 5892   2.156   6.171   5.541
 1665SOL     OW 5893   6.807   3.714   1.759
 1665SOL    HW1 5894   6.778   3.731   1.853
 1665SOL    HW2 5895   6.736   3.662   1.712
 1666SOL     OW 5896   5.874   0.462   0.266
 1666SOL    HW1 5897   5.847   0.385   0.324
 1666SOL    HW2 5898   5.792   0.507   0.231
 1667SOL     OW 5899   6.752   6.097   1.514
 1667SOL    HW1 5900   6.668   6.151   1.517
 1667SOL    HW2 5901   6.732   6.008   1.473
 1668SOL     OW 5902   4.910   4.403   3.286
 1668SOL    HW1 5903   4.994   4.426   3.237
 1668SOL    HW2 5904   4.834   4.459   3.252
 1669SOL     OW 5905   6.998   4.166   5.313
 1669SOL    HW1 5906   6.995   4.150   5.215
 1669SOL    HW2 5907   7.023   4.081   5.360
 1670SOL     OW 5908   0.442   4.433   4.828
 1670SOL    HW1 5909   0.350   4.451   4.863
 1670SOL    HW2 5910   0.469   4.340   4.854
 1671SOL     OW 5911   5.843   1.121   3.300
 1671SOL    HW1 5912   5.795   1.044   3.341
 1671SOL    HW2 5913   5.922   1.088   3.248
 1672SOL     OW 5914   1.980   4.309   6.211
 1672SOL    HW1 5915   2.066   4.269   6.177
 1672SOL    HW2 5916   1.916   4.235   6.231
 1673SOL     OW 5917   1.588   1.233   5.222
 1673SOL    HW1 5918   1.587   1.325   5.262
 1673SOL    HW2 5919   1.510   1.222   5.161
 1674SOL     OW 5920   6.791   2.559   2.227
 1674SOL    HW1 5921   6.882   2.600   2.235
 1674SOL    HW2 5922   6.722   2.632   2.226
 1675SOL     OW 5923   4.975   0.627   0.222
 1675SOL    HW1 5924   5.065   0.613   0.179
 1675SOL    HW2 5925   4.913   0.669   0.156
 1676SOL     OW 5926   2.634   2.452   2.454
 1676SOL    HW1 5927   2.690   2.399   2.389
 1676SOL    HW2 5928   2.654   2.421   2.547
 1677SOL     OW 5929   3.938   3.824   3.571
 1677SOL    HW1 5930   3.848   3.833   3.528
 1677SOL    HW2 5931   3.986   3.746   3.532
 1678SOL     OW 5932   0.278   6.019   1.565
 1678SOL    HW1 5933   0.301   5.957   1.489
 1678SOL    HW2 5934   0.285   5.969   1.652
 1679SOL     OW 5935   1.746   1.284   4.684
 1679SOL    HW1 5936   1.729   1.377   4.715
 1679SOL    HW2 5937   1.815   1.285   4.612
 1680SOL     OW 5938   6.033   3.759   5.740
 1680SOL    HW1 5939   6.035   3.753   5.641
 1680SOL    HW2 5940   5.963   3.698   5.776
 1681SOL     OW 5941   1.836   6.243   5.449
 1681SOL    HW1 5942   1.802   6.297   5.373
 1681SOL    HW2 5943   1.928   6.210   5.429
 1682SOL     OW 5944   2.096   1.050   6.123
 1682SOL    HW1 5945   2.060   1.132   6.079
 1682SOL    HW2 5946   2.171   1.075   6.184
 1683SOL     OW 5947   6.039   5.771   2.846
 1683SOL    HW1 5948   6.049   5.753   2.943
 1683SOL    HW2 5949   6.111   5.725   2.795
 1684SOL     OW 5950   0.291   5.525   2.269
 1684SOL    HW1 5951   0.281   5.447   2.207
 1684SOL    HW2 5952   0.303   5.491   2.362
 1685SOL     OW 5953   1.971   1.766   5.668
 1685SOL    HW1 5954   2.036   1.818   5.723
 1685SOL    HW2 5955   2.012   1.680   5.639
 1686SOL     OW 5956   3.479   6.185   3.982
 1686SOL    HW1 5957   3.388   6.173   4.021
 1686SOL    HW2 5958   3.515   6.274   4.009
 1687SOL     OW 5959   0.053   4.029   1.763
 1687SOL    HW1 5960   6.989   4.011   1.733
 1687SOL    HW2 5961   0.083   4.118   1.729
 1688SOL     OW 5962   1.835   1.798   3.811
 1688SOL    HW1 5963   1.759   1.743   3.845
 1688SOL    HW2 5964   1.807   1.850   3.730
 1689SOL     OW 5965   6.040   0.771   2.388
 1689SOL    HW1 5966   6.097   0.785   2.469
 1689SOL    HW2 5967   6.089   0.716   2.321
 1690SOL     OW 5968   0.515   3.435   4.425
 1690SOL    HW1 5969   0.485   3.471   4.336
 1690SOL    HW2 5970   0.585   3.365   4.410
 1691SOL     OW 5971   5.091   2.860   3.987
 1691SOL    HW1 5972   5.018   2.799   4.017
 1691SOL    HW2 5973   5.106   2.931   4.055
 1692SOL     OW 5974   5.145   5.812   1.554
 1692SOL    HW1 5975   5.156   5.889   1.617
 1692SOL    HW2 5976   5.227   5.755   1.556
 1693SOL     OW 5977   6.980   2.015   4.257
 1693SOL    HW1 5978   0.014   1.975   4.324
 1693SOL    HW2 5979   6.942   2.100   4.293
 1694SOL     OW 5980   6.319   0.678   4.211
 1694SOL    HW1 5981   6.292   0.596   4.263
 1694SOL    HW2 5982   6.418   0.691   4.220
 1695SOL     OW 5983   3.577   0.745   6.958
 1695SOL    HW1 5984   3.626   0.748   0.016
 1695SOL    HW2 5985   3.498   0.684   6.966
 1696SOL     OW 5986   3.753   6.258   0.813
 1696SOL    HW1 5987   3.771   6.285   0.908
 1696SOL    HW2 5988   3.772   6.335   0.752
 1697SOL     OW 5989   6.065   2.290   1.330
 1697SOL    HW1 5990   6.138   2.226   1.306
 1697SOL    HW2 5991   6.030   2.334   1.248
 1698SOL     OW 5992   3.697   0.881   1.452
 1698SOL    HW1 5993   3.641   0.855   1.531
 1698SOL    HW2 5994   3.762   0.952   1.479
 1699SOL     OW 5995   2.086   1.919   5.864
 1699SOL    HW1 5996   2.166   1.908   5.923
 1699SOL    HW2 5997   2.088   2.011   5.824
 1700SOL     OW 5998   6.072   3.632   3.573
 1700SOL    HW1 5999   6.061   3.595   3.481
 1700SOL    HW2 6000   6.167   3.625   3.601
 1701SOL     OW 6001   6.171   5.130   5.332
 1701SOL    HW1 6002   6.130   5.098   5.418
 1701SOL    HW2 6003   6.187   5.229   5.338
 1702SOL     OW 6004   1.020   1.331   0.610
 1702SOL    HW1 6005   1.008   1.232   0.602
 1702SOL    HW2 6006   0.965   1.377   0.540
 1703SOL     OW 6007   4.123   1.746   6.520
 1703SOL    HW1 6008   4.084   1.780   6.606
 1703SOL    HW2 6009   4.155   1.652   6.532
 1704SOL     OW 6010   1.605   1.994   6.799
 1704SOL    HW1 6011   1.663   2.033   6.871
 1704SOL    HW2 6012   1.560   1.912   6.835
 1705SOL     OW 6013   3.522   2.404   1.408
 1705SOL    HW1 6014   3.590   2.375   1.475
 1705SOL    HW2 6015   3.440   2.348   1.417
 1706SOL     OW 6016   4.281   2.018   1.406
 1706SOL    HW1 6017   4.372   2.003   1.444
 1706SOL    HW2 6018   4.213   1.966   1.459
 1707SOL     OW 6019   4.743   2.836   2.540
 1707SOL    HW1 6020   4.780   2.778   2.467
 1707SOL    HW2 6021   4.646   2.816   2.552
 1708SOL     OW 6022   4.118   5.242   1.602
 1708SOL    HW1 6023   4.167   5.162   1.638
 1708SOL    HW2 6024   4.020   5.231   1.619
 1709SOL     OW 6025   3.820   7.008   1.075
 1709SOL    HW1 6026   3.738   7.015   1.131
 1709SOL    HW2 6027   3.827   0.059   1.015
 1710SOL     OW 6028   3.837   4.922   3.773
 1710SOL    HW1 6029   3.838   4.953   3.678
 1710SOL    HW2 6030   3.910   4.855   3.787
 1711SOL     OW 6031   2.191   5.161   5.575
 1711SOL    HW1 6032   2.271   5.147   5.633
 1711SOL    HW2 6033   2.188   5.092   5.503
 1712SOL     OW 6034   0.027   1.800   4.752
 1712SOL    HW1 6035   0.055   1.822   4.846
 1712SOL    HW2 6036   0.040   1.702   4.736
 1713SOL     OW 6037   4.033   1.476   3.019
 1713SOL    HW1 6038   3.996   1.399   2.967
 1713SOL    HW2 6039   4.043   1.556   2.959
 1714SOL     OW 6040   4.188   1.571   0.012
 1714SOL    HW1 6041   4.121   1.529   0.073
 1714SOL    HW2 6042   4.177   1.532   6.949
 1715SOL     OW 6043   2.679   5.892   3.049
 1715SOL    HW1 6044   2.766   5.938   3.072
 1715SOL    HW2 6045   2.693   5.793   3.047
 1716SOL     OW 6046   4.546   0.337   3.535
 1716SOL    HW1 6047   4.498   0.299   3.456
 1716SOL    HW2 6048   4.479   0.368   3.603
 1717SOL     OW 6049   3.663   5.429   5.178
 1717SOL    HW1 6050   3.571   5.390   5.186
 1717SOL    HW2 6051   3.696   5.455   5.269
 1718SOL     OW 6052   2.850   1.982   2.523
 1718SOL    HW1 6053   2.913   2.059   2.525
 1718SOL    HW2 6054   2.899   1.899   2.495
 1719SOL     OW 6055   2.386   4.047   1.054
 1719SOL    HW1 6056   2.394   4.052   0.955
 1719SOL    HW2 6057   2.397   4.138   1.093
 1720SOL     OW 6058   6.896   2.552   5.285
 1720SOL    HW1 6059   6.962   2.613   5.330
 1720SOL    HW2 6060   6.934   2.460   5.280
 1721SOL     OW 6061   1.288   0.491   1.622
 1721SOL    HW1 6062   1.387   0.485   1.632
 1721SOL    HW2 6063   1.254   0.570   1.674
 1722SOL     OW 6064   4.112   1.395   3.273
 1722SOL    HW1 6065   4.069   1.431   3.356
 1722SOL    HW2 6066   4.071   1.438   3.193
 1723SOL     OW 6067   4.425   2.095   6.812
 1723SOL    HW1 6068   4.482   2.174   6.789
 1723SOL    HW2 6069   4.445   2.066   6.906
 1724SOL     OW 6070   6.457   2.284   2.132
 1724SOL    HW1 6071   6.408   2.275   2.218
 1724SOL    HW2 6072   6.405   2.341   2.069
 1725SOL     OW 6073   2.085   4.946   6.760
 1725SOL    HW1 6074   2.032   4.891   6.695
 1725SOL    HW2 6075   2.100   4.893   6.843
 1726SOL     OW 6076   5.443   4.214   4.368
 1726SOL    HW1 6077   5.431   4.313   4.371
 1726SOL    HW2 6078   5.389   4.172   4.442
 1727SOL     OW 6079   4.080   3.545   3.146
 1727SOL    HW1 6080   4.010   3.588   3.088
 1727SOL    HW2 6081   4.068   3.446   3.145
 1728SOL     OW 6082   5.184   4.773   5.506
 1728SOL    HW1 6083   5.122   4.800   5.581
 1728SOL    HW2 6084   5.175   4.839   5.431
 1729SOL     OW 6085   1.332   4.220   2.844
 1729SOL    HW1 6086   1.253   4.281   2.834
 1729SOL    HW2 6087   1.329   4.176   2.933
 1730SOL     OW 6088   2.881   6.872   5.354
 1730SOL    HW1 6089   2.833   6.822   5.282
 1730SOL    HW2 6090   2.928   6.951   5.315
 1731SOL     OW 6091   6.215   4.927   3.649
 1731SOL    HW1 6092   6.303   4.966   3.676
 1731SOL    HW2 6093   6.168   4.989   3.587
 1732SOL     OW 6094   1.779   4.019   6.572
 1732SOL    HW1 6095   1.831   3.944   6.613
 1732SOL    HW2 6096   1.818   4.041   6.482
 1733SOL     OW 6097   2.459   3.925   1.673
 1733SOL    HW1 6098   2.388   3.920   1.743
 1733SOL    HW2 6099   2.493   4.019   1.666
 1734SOL     OW 6100   5.828   2.995   1.429
 1734SOL    HW1 6101   5.784   2.905   1.433
 1734SOL    HW2 6102   5.917   2.986   1.384
 1735SOL     OW 6103   4.395   5.410   5.697
 1735SOL    HW1 6104   4.368   5.507   5.697
 1735SOL    HW2 6105   4.489   5.402   5.666
 1736SOL     OW 6106   3.832   3.799   0.584
 1736SOL    HW1 6107   3.816   3.894   0.557
 1736SOL    HW2 6108   3.772   3.775   0.660
 1737SOL     OW 6109   5.180   0.001   4.784
 1737SOL    HW1 6110   5.169   6.944   4.734
 1737SOL    HW2 6111   5.267   7.028   4.834
 1738SOL     OW 6112   1.560   3.698   4.207
 1738SOL    HW1 6113   1.523   3.615   4.165
 1738SOL    HW2 6114   1.658   3.704   4.186
 1739SOL     OW 6115   6.404   0.190   4.251
 1739SOL    HW1 6116   6.452   0.135   4.319
 1739SOL    HW2 6117   6.348   0.131   4.193
 1740SOL     OW 6118   6.718   1.655   5.210
 1740SOL    HW1 6119   6.752   1.658   5.304
 1740SOL    HW2 6120   6.630   1.704   5.205
 1741SOL     OW 6121   2.710   1.554   4.461
 1741SOL    HW1 6122   2.731   1.491   4.535
 1741SOL    HW2 6123   2.717   1.506   4.373
 1742SOL     OW 6124   5.727   1.094   6.186
 1742SOL    HW1 6125   5.755   1.076   6.280
 1742SOL    HW2 6126   5.804   1.134   6.135
 1743SOL     OW 6127   1.160   1.199   2.541
 1743SOL    HW1 6128   1.109   1.259   2.480
 1743SOL    HW2 6129   1.256   1.227   2.544
 1744SOL     OW 6130   5.323   2.473   2.766
 1744SOL    HW1 6131   5.232   2.447   2.800
 1744SOL    HW2 6132   5.337   2.571   2.780
 1745SOL     OW 6133   5.828   6.343   1.749
 1745SOL    HW1 6134   5.876   6.282   1.812
 1745SOL    HW2 6135   5.815   6.297   1.661
 1746SOL     OW 6136   2.153   3.896   4.099
 1746SOL    HW1 6137   2.211   3.817   4.120
 1746SOL    HW2 6138   2.116   3.934   4.183
 1747SOL     OW 6139   3.904   1.597   1.963
 1747SOL    HW1 6140   3.993   1.562   1.934
 1747SOL    HW2 6141   3.905   1.614   2.061
 1748SOL     OW 6142   6.185   1.660   4.115
 1748SOL    HW1 6143   6.190   1.593   4.041
 1748SOL    HW2 6144   6.226   1.622   4.198
 1749SOL     OW 6145   3.232   6.638   6.809
 1749SOL    HW1 6146   3.132   6.636   6.802
 1749SOL    HW2 6147   3.258   6.679   6.895
 1750SOL     OW 6148   4.521   0.655   4.160
 1750SOL    HW1 6149   4.439   0.692   4.116
 1750SOL    HW2 6150   4.514   0.666   4.259
 1751SOL     OW 6151   5.630   2.277   4.884
 1751SOL    HW1 6152   5.674   2.321   4.806
 1751SOL    HW2 6153   5.597   2.186   4.857
 1752SOL     OW 6154   5.910   0.402   1.303
 1752SOL    HW1 6155   5.854   0.391   1.385
 1752SOL    HW2 6156   6.007   0.398   1.328
 1753SOL     OW 6157   6.861   1.438   1.710
 1753SOL    HW1 6158   6.892   1.530   1.685
 1753SOL    HW2 6159   6.762   1.440   1.725
 1754SOL     OW 6160   1.704   5.836   6.294
 1754SOL    HW1 6161   1.764   5.772   6.342
 1754SOL    HW2 6162   1.614   5.835   6.337
 1755SOL     OW 6163   6.954   6.305   6.123
 1755SOL    HW1 6164   6.988   6.283   6.214
 1755SOL    HW2 6165   7.027   6.348   6.069
 1756SOL     OW 6166   3.735   6.446   6.384
 1756SOL    HW1 6167   3.790   6.529   6.396
 1756SOL    HW2 6168   3.767   6.375   6.448
 1757SOL     OW 6169   3.358   4.931   4.727
 1757SOL    HW1 6170   3.299   4.925   4.807
 1757SOL    HW2 6171   3.305   4.912   4.644
 1758SOL     OW 6172   1.669   6.910   4.857
 1758SOL    HW1 6173   1.719   6.990   4.824
 1758SOL    HW2 6174   1.659   6.844   4.783
 1759SOL     OW 6175   1.125   6.772   5.364
 1759SOL    HW1 6176   1.209   6.718   5.365
 1759SOL    HW2 6177   1.124   6.831   5.283
 1760SOL     OW 6178   6.295   0.749   4.668
 1760SOL    HW1 6179   6.310   0.765   4.766
 1760SOL    HW2 6180   6.381   0.762   4.618
 1761SOL     OW 6181   6.872   0.700   0.814
 1761SOL    HW1 6182   6.809   0.767   0.853
 1761SOL    HW2 6183   6.821   0.621   0.780
 1762SOL     OW 6184   0.251   1.336   5.249
 1762SOL    HW1 6185   0.274   1.428   5.218
 1762SOL    HW2 6186   0.203   1.287   5.176
 1763SOL     OW 6187   1.104   4.503   5.047
 1763SOL    HW1 6188   1.178   4.492   5.113
 1763SOL    HW2 6189   1.123   4.581   4.988
 1764SOL     OW 6190   0.842   3.434   2.088
 1764SOL    HW1 6191   0.875   3.478   2.004
 1764SOL    HW2 6192   0.769   3.370   2.065
 1765SOL     OW 6193   3.990   2.492   1.692
 1765SOL    HW1 6194   4.057   2.566   1.694
 1765SOL    HW2 6195   3.901   2.528   1.664
 1766SOL     OW 6196   5.251   4.727   4.301
 1766SOL    HW1 6197   5.271   4.736   4.204
 1766SOL    HW2 6198   5.293   4.802   4.352
 1767SOL     OW 6199   0.955   4.599   2.725
 1767SOL    HW1 6200   0.985   4.511   2.762
 1767SOL    HW2 6201   0.921   4.586   2.632
 1768SOL     OW 6202   4.420   0.557   0.354
 1768SOL    HW1 6203   4.445   0.650   0.328
 1768SOL    HW2 6204   4.415   0.499   0.273
 1769SOL     OW 6205   6.004   1.206   0.289
 1769SOL    HW1 6206   5.970   1.190   0.196
 1769SOL    HW2 6207   6.086   1.263   0.285
 1770SOL     OW 6208   0.390   3.772   5.224
 1770SOL    HW1 6209   0.448   3.829   5.282
 1770SOL    HW2 6210   0.327   3.830   5.172
 1771SOL     OW 6211   1.658   4.707   6.770
 1771SOL    HW1 6212   1.729   4.723   6.701
 1771SOL    HW2 6213   1.578   4.763   6.750
 1772SOL     OW 6214   4.004   5.386   4.284
 1772SOL    HW1 6215   4.096   5.353   4.302
 1772SOL    HW2 6216   3.966   5.339   4.205
 1773SOL     OW 6217   0.585   1.395   5.182
 1773SOL    HW1 6218   0.528   1.320   5.147
 1773SOL    HW2 6219   0.648   1.425   5.110
 1774SOL     OW 6220   5.614   6.722   2.326
 1774SOL    HW1 6221   5.560   6.749   2.247
 1774SOL    HW2 6222   5.568   6.750   2.410
 1775SOL     OW 6223   1.874   5.632   6.362
 1775SOL    HW1 6224   1.971   5.631   6.338
 1775SOL    HW2 6225   1.860   5.573   6.442
 1776SOL     OW 6226   5.095   0.609   5.614
 1776SOL    HW1 6227   5.191   0.607   5.588
 1776SOL    HW2 6228   5.053   0.521   5.595
 1777SOL     OW 6229   4.021   6.816   6.548
 1777SOL    HW1 6230   4.042   6.797   6.643
 1777SOL    HW2 6231   3.957   6.893   6.542
 1778SOL     OW 6232   4.868   1.225   4.509
 1778SOL    HW1 6233   4.951   1.202   4.559
 1778SOL    HW2 6234   4.858   1.164   4.430
 1779SOL     OW 6235   5.182   6.704   5.508
 1779SOL    HW1 6236   5.219   6.786   5.553
 1779SOL    HW2 6237   5.257   6.656   5.463
 1780SOL     OW 6238   1.425   4.633   4.793
 1780SOL    HW1 6239   1.417   4.556   4.856
 1780SOL    HW2 6240   1.446   4.598   4.701
 1781SOL     OW 6241   5.256   6.782   4.700
 1781SOL    HW1 6242   5.223   6.692   4.729
 1781SOL    HW2 6243   5.341   6.803   4.748
 1782SOL     OW 6244   2.059   1.536   2.685
 1782SOL    HW1 6245   2.021   1.595   2.756
 1782SOL    HW2 6246   2.156   1.556   2.673
 1783SOL     OW 6247   2.025   3.322   5.912
 1783SOL    HW1 6248   2.066   3.299   5.824
 1783SOL    HW2 6249   1.948   3.261   5.931
 1784SOL     OW 6250   2.464   1.059   1.705
 1784SOL    HW1 6251   2.376   1.098   1.679
 1784SOL    HW2 6252   2.514   1.033   1.622
 1785SOL     OW 6253   6.810   6.364   4.373
 1785SOL    HW1 6254   6.905   6.397   4.369
 1785SOL    HW2 6255   6.770   6.366   4.282
 1786SOL     OW 6256   1.970   5.375   0.593
 1786SOL    HW1 6257   2.042   5.399   0.659
 1786SOL    HW2 6258   1.915   5.457   0.573
 1787SOL     OW 6259   1.297   2.612   5.152
 1787SOL    HW1 6260   1.360   2.556   5.205
 1787SOL    HW2 6261   1.204   2.602   5.189
 1788SOL     OW 6262   4.859   3.881   0.163
 1788SOL    HW1 6263   4.902   3.863   0.252
 1788SOL    HW2 6264   4.795   3.807   0.142
 1789SOL     OW 6265   6.311   3.230   2.287
 1789SOL    HW1 6266   6.268   3.141   2.274
 1789SOL    HW2 6267   6.249   3.302   2.255
 1790SOL     OW 6268   3.196   1.425   4.662
 1790SOL    HW1 6269   3.261   1.356   4.629
 1790SOL    HW2 6270   3.172   1.406   4.757
 1791SOL     OW 6271   6.137   0.611   3.603
 1791SOL    HW1 6272   6.192   0.664   3.539
 1791SOL    HW2 6273   6.087   0.673   3.664
 1792SOL     OW 6274   6.383   1.552   4.752
 1792SOL    HW1 6275   6.446   1.504   4.691
 1792SOL    HW2 6276   6.433   1.621   4.804
 1793SOL     OW 6277   6.318   1.401   5.022
 1793SOL    HW1 6278   6.254   1.389   4.946
 1793SOL    HW2 6279   6.277   1.458   5.093
 1794SOL     OW 6280   6.332   0.046   6.488
 1794SOL    HW1 6281   6.243   0.016   6.454
 1794SOL    HW2 6282   6.402   7.010   6.460
 1795SOL     OW 6283   5.593   4.762   0.865
 1795SOL    HW1 6284   5.567   4.666   0.872
 1795SOL    HW2 6285   5.520   4.813   0.820
 1796SOL     OW 6286   1.839   0.887   5.845
 1796SOL    HW1 6287   1.827   0.982   5.873
 1796SOL    HW2 6288   1.895   0.839   5.913
 1797SOL     OW 6289   1.662   6.828   5.143
 1797SOL    HW1 6290   1.618   6.840   5.054
 1797SOL    HW2 6291   1.737   6.762   5.135
 1798SOL     OW 6292   3.792   2.945   4.457
 1798SOL    HW1 6293   3.706   2.931   4.506
 1798SOL    HW2 6294   3.779   2.921   4.361
 1799SOL     OW 6295   3.984   1.839   6.757
 1799SOL    HW1 6296   3.907   1.902   6.767
 1799SOL    HW2 6297   3.963   1.753   6.803
 1800SOL     OW 6298   5.244   4.331   3.746
 1800SOL    HW1 6299   5.341   4.346   3.765
 1800SOL    HW2 6300   5.211   4.402   3.684
 1801SOL     OW 6301   0.720   1.977   1.838
 1801SOL    HW1 6302   0.725   2.024   1.750
 1801SOL    HW2 6303   0.766   1.888   1.832
 1802SOL     OW 6304   6.120   5.500   3.678
 1802SOL    HW1 6305   6.180   5.426   3.708
 1802SOL    HW2 6306   6.107   5.494   3.579
 1803SOL     OW 6307   6.988   6.364   2.582
 1803SOL    HW1 6308   0.028   6.429   2.549
 1803SOL    HW2 6309   7.019   6.271   2.562
 1804SOL     OW 6310   3.408   3.660   5.803
 1804SOL    HW1 6311   3.324   3.708   5.777
 1804SOL    HW2 6312   3.428   3.589   5.736
 1805SOL     OW 6313   1.049   6.279   5.889
 1805SOL    HW1 6314   1.104   6.219   5.946
 1805SOL    HW2 6315   1.046   6.243   5.796
 1806SOL     OW 6316   6.472   1.991   2.136
 1806SOL    HW1 6317   6.503   2.082   2.109
 1806SOL    HW2 6318   6.385   1.999   2.186
 1807SOL     OW 6319   6.285   3.708   0.670
 1807SOL    HW1 6320   6.235   3.622   0.676
 1807SOL    HW2 6321   6.333   3.713   0.583
 1808SOL     OW 6322   5.244   2.847   5.187
 1808SOL    HW1 6323   5.238   2.853   5.088
 1808SOL    HW2 6324   5.205   2.930   5.228
 1809SOL     OW 6325   2.648   1.961   5.244
 1809SOL    HW1 6326   2.562   1.983   5.290
 1809SOL    HW2 6327   2.725   1.988   5.301
 1810SOL     OW 6328   0.312   0.432   4.597
 1810SOL    HW1 6329   0.409   0.408   4.593
 1810SOL    HW2 6330   0.257   0.358   4.559
 1811SOL     OW 6331   4.693   4.696   1.409
 1811SOL    HW1 6332   4.685   4.609   1.459
 1811SOL    HW2 6333   4.758   4.755   1.456
 1812SOL     OW 6334   4.572   0.167   5.910
 1812SOL    HW1 6335   4.605   0.237   5.846
 1812SOL    HW2 6336   4.482   0.136   5.880
 1813SOL     OW 6337   4.647   4.338   2.218
 1813SOL    HW1 6338   4.605   4.318   2.129
 1813SOL    HW2 6339   4.709   4.264   2.243
 1814SOL     OW 6340   6.761   6.966   0.538
 1814SOL    HW1 6341   6.822   6.958   0.617
 1814SOL    HW2 6342   6.678   7.015   0.566
 1815SOL     OW 6343   5.683   5.593   2.495
 1815SOL    HW1 6344   5.644   5.676   2.456
 1815SOL    HW2 6345   5.611   5.537   2.534
 1816SOL     OW 6346   4.057   5.984   5.580
 1816SOL    HW1 6347   4.136   6.037   5.550
 1816SOL    HW2 6348   4.086   5.920   5.652
 1817SOL     OW 6349   2.845   1.684   2.817
 1817SOL    HW1 6350   2.890   1.772   2.831
 1817SOL    HW2 6351   2.889   1.614   2.874
 1818SOL     OW 6352   2.088   6.608   0.284
 1818SOL    HW1 6353   2.165   6.650   0.236
 1818SOL    HW2 6354   2.094   6.629   0.382
 1819SOL     OW 6355   1.141   5.137   2.257
 1819SOL    HW1 6356   1.101   5.199   2.189
 1819SOL    HW2 6357   1.071   5.110   2.323
 1820SOL     OW 6358   4.070   0.184   2.449
 1820SOL    HW1 6359   4.031   0.255   2.390
 1820SOL    HW2 6360   4.105   0.225   2.533
 1821SOL     OW 6361   3.194   1.178   1.857
 1821SOL    HW1 6362   3.168   1.266   1.817
 1821SOL    HW2 6363   3.232   1.193   1.948
 1822SOL     OW 6364   0.778   3.271   1.694
 1822SOL    HW1 6365   0.844   3.341   1.666
 1822SOL    HW2 6366   0.809   3.228   1.779
 1823SOL     OW 6367   3.773   6.183   2.781
 1823SOL    HW1 6368   3.730   6.224   2.700
 1823SOL    HW2 6369   3.766   6.083   2.775
 1824SOL     OW 6370   4.041   4.279   0.786
 1824SOL    HW1 6371   4.077   4.290   0.694
 1824SOL    HW2 6372   3.960   4.220   0.784
 1825SOL     OW 6373   0.563   2.824   5.154
 1825SOL    HW1 6374   0.578   2.775   5.068
 1825SOL    HW2 6375   0.574   2.761   5.231
 1826SOL     OW 6376   3.775   1.879   0.848
 1826SOL    HW1 6377   3.769   1.951   0.917
 1826SOL    HW2 6378   3.870   1.849   0.839
 1827SOL     OW 6379   5.093   5.170   1.016
 1827SOL    HW1 6380   5.152   5.189   1.095
 1827SOL    HW2 6381   5.065   5.074   1.018
 1828SOL     OW 6382   1.236   3.433   6.378
 1828SOL    HW1 6383   1.325   3.409   6.340
 1828SOL    HW2 6384   1.207   3.362   6.442
 1829SOL     OW 6385   3.711   0.838   3.316
 1829SOL    HW1 6386   3.657   0.763   3.353
 1829SOL    HW2 6387   3.802   0.804   3.291
 1830SOL     OW 6388   6.148   6.569   5.128
 1830SOL    HW1 6389   6.133   6.552   5.225
 1830SOL    HW2 6390   6.196   6.491   5.087
 1831SOL     OW 6391   5.129   5.717   2.863
 1831SOL    HW1 6392   5.169   5.808   2.849
 1831SOL    HW2 6393   5.168   5.676   2.945
 1832SOL     OW 6394   2.798   4.072   0.527
 1832SOL    HW1 6395   2.741   3.990   0.536
 1832SOL    HW2 6396   2.739   4.153   0.528
 1833SOL     OW 6397   4.751   6.804   1.291
 1833SOL    HW1 6398   4.761   6.903   1.277
 1833SOL    HW2 6399   4.696   6.765   1.218
 1834SOL     OW 6400   2.989   2.785   1.211
 1834SOL    HW1 6401   2.904   2.738   1.186
 1834SOL    HW2 6402   2.981   2.819   1.305
 1835SOL     OW 6403   1.222   5.463   1.008
 1835SOL    HW1 6404   1.186   5.552   0.981
 1835SOL    HW2 6405   1.318   5.457   0.982
 1836SOL     OW 6406   5.095   1.406   2.433
 1836SOL    HW1 6407   5.099   1.457   2.347
 1836SOL    HW2 6408   5.004   1.365   2.443
 1837SOL     OW 6409   1.871   1.145   5.582
 1837SOL    HW1 6410   1.890   1.215   5.513
 1837SOL    HW2 6411   1.772   1.133   5.591
 1838SOL     OW 6412   6.504   0.683   6.737
 1838SOL    HW1 6413   6.439   0.613   6.707
 1838SOL    HW2 6414   6.570   0.700   6.664
 1839SOL     OW 6415   6.310   1.338   6.521
 1839SOL    HW1 6416   6.374   1.368   6.592
 1839SOL    HW2 6417   6.216   1.351   6.552
 1840SOL     OW 6418   4.065   0.035   3.214
 1840SOL    HW1 6419   4.046   0.054   3.118
 1840SOL    HW2 6420   4.077   0.121   3.264
 1841SOL     OW 6421   2.583   0.291   2.225
 1841SOL    HW1 6422   2.637   0.223   2.275
 1841SOL    HW2 6423   2.618   0.301   2.132
 1842SOL     OW 6424   1.765   5.220   0.749
 1842SOL    HW1 6425   1.772   5.307   0.700
 1842SOL    HW2 6426   1.832   5.156   0.712
 1843SOL     OW 6427   3.794   1.124   4.477
 1843SOL    HW1 6428   3.703   1.102   4.444
 1843SOL    HW2 6429   3.787   1.184   4.557
 1844SOL     OW 6430   4.752   1.851   5.748
 1844SOL    HW1 6431   4.779   1.854   5.844
 1844SOL    HW2 6432   4.653   1.843   5.742
 1845SOL     OW 6433   3.068   0.893   3.738
 1845SOL    HW1 6434   2.998   0.848   3.793
 1845SOL    HW2 6435   3.031   0.977   3.698
 1846SOL     OW 6436   4.399   0.829   2.912
 1846SOL    HW1 6437   4.454   0.890   2.969
 1846SOL    HW2 6438   4.401   0.861   2.817
 1847SOL     OW 6439   1.956   0.721   4.795
 1847SOL    HW1 6440   1.969   0.820   4.787
 1847SOL    HW2 6441   1.973   0.678   4.706
 1848SOL     OW 6442   2.654   5.914   4.066
 1848SOL    HW1 6443   2.616   5.828   4.031
 1848SOL    HW2 6444   2.738   5.936   4.017
 1849SOL     OW 6445   4.981   3.173   2.403
 1849SOL    HW1 6446   5.040   3.252   2.389
 1849SOL    HW2 6447   4.943   3.144   2.314
 1850SOL     OW 6448   4.945   1.831   2.412
 1850SOL    HW1 6449   4.979   1.802   2.322
 1850SOL    HW2 6450   5.019   1.876   2.462
 1851SOL     OW 6451   0.136   3.033   6.455
 1851SOL    HW1 6452   0.181   2.961   6.401
 1851SOL    HW2 6453   0.090   3.096   6.393
 1852SOL     OW 6454   0.524   4.638   1.671
 1852SOL    HW1 6455   0.554   4.565   1.733
 1852SOL    HW2 6456   0.603   4.685   1.634
 1853SOL     OW 6457   0.012   2.193   4.479
 1853SOL    HW1 6458   0.100   2.168   4.439
 1853SOL    HW2 6459   0.013   2.289   4.506
 1854SOL     OW 6460   1.012   5.827   3.222
 1854SOL    HW1 6461   1.101   5.792   3.194
 1854SOL    HW2 6462   0.944   5.808   3.151
 1855SOL     OW 6463   5.560   2.936   4.554
 1855SOL    HW1 6464   5.618   2.987   4.490
 1855SOL    HW2 6465   5.593   2.951   4.647
 1856SOL     OW 6466   4.065   2.848   6.716
 1856SOL    HW1 6467   3.981   2.858   6.768
 1856SOL    HW2 6468   4.102   2.939   6.694
 1857SOL     OW 6469   5.602   1.099   0.319
 1857SOL    HW1 6470   5.593   1.134   0.412
 1857SOL    HW2 6471   5.648   1.010   0.321
 1858SOL     OW 6472   4.825   2.234   4.109
 1858SOL    HW1 6473   4.735   2.223   4.153
 1858SOL    HW2 6474   4.832   2.326   4.071
 1859SOL     OW 6475   5.262   1.857   4.802
 1859SOL    HW1 6476   5.266   1.873   4.704
 1859SOL    HW2 6477   5.351   1.878   4.843
 1860SOL     OW 6478   0.807   1.863   4.856
 1860SOL    HW1 6479   0.774   1.834   4.766
 1860SOL    HW2 6480   0.790   1.961   4.868
 1861SOL     OW 6481   5.479   0.129   3.048
 1861SOL    HW1 6482   5.464   0.222   3.014
 1861SOL    HW2 6483   5.423   0.113   3.130
 1862SOL     OW 6484   1.961   6.956   6.812
 1862SOL    HW1 6485   2.043   6.971   6.868
 1862SOL    HW2 6486   1.884   6.933   6.872
 1863SOL     OW 6487   0.305   3.110   1.267
 1863SOL    HW1 6488   0.314   3.105   1.366
 1863SOL    HW2 6489   0.353   3.191   1.233
 1864SOL     OW 6490   3.047   5.870   4.394
 1864SOL    HW1 6491   3.072   5.929   4.472
 1864SOL    HW2 6492   3.065   5.775   4.418
 1865SOL     OW 6493   4.163   1.262   1.146
 1865SOL    HW1 6494   4.262   1.259   1.151
 1865SOL    HW2 6495   4.132   1.357   1.145
 1866SOL     OW 6496   6.396   3.930   4.615
 1866SOL    HW1 6497   6.487   3.895   4.638
 1866SOL    HW2 6498   6.354   3.870   4.546
 1867SOL     OW 6499   2.568   2.661   1.780
 1867SOL    HW1 6500   2.595   2.566   1.765
 1867SOL    HW2 6501   2.532   2.671   1.873
 1868SOL     OW 6502   4.871   4.051   5.099
 1868SOL    HW1 6503   4.908   3.962   5.128
 1868SOL    HW2 6504   4.920   4.083   5.019
 1869SOL     OW 6505   4.806   2.508   4.017
 1869SOL    HW1 6506   4.818   2.589   4.074
 1869SOL    HW2 6507   4.888   2.496   3.959
 1870SOL     OW 6508   0.885   3.345   4.162
 1870SOL    HW1 6509   0.878   3.248   4.140
 1870SOL    HW2 6510   0.816   3.396   4.110
 1871SOL     OW 6511   6.768   6.523   6.979
 1871SOL    HW1 6512   6.718   6.523   6.892
 1871SOL    HW2 6513   6.703   6.519   0.025
 1872SOL     OW 6514   3.124   2.631   0.674
 1872SOL    HW1 6515   3.175   2.554   0.637
 1872SOL    HW2 6516   3.042   2.598   0.721
 1873SOL     OW 6517   5.939   0.930   6.700
 1873SOL    HW1 6518   5.845   0.964   6.691
 1873SOL    HW2 6519   5.949   0.882   6.787
 1874SOL     OW 6520   0.756   0.545   6.528
 1874SOL    HW1 6521   0.667   0.501   6.515
 1874SOL    HW2 6522   0.745   0.644   6.532
 1875SOL     OW 6523   6.072   6.328   0.585
 1875SOL    HW1 6524   6.119   6.369   0.664
 1875SOL    HW2 6525   6.097   6.379   0.502
 1876SOL     OW 6526   5.577   6.320   5.998
 1876SOL    HW1 6527   5.585   6.419   5.997
 1876SOL    HW2 6528   5.616   6.282   5.914
 1877SOL     OW 6529   0.043   0.951   2.375
 1877SOL    HW1 6530   0.139   0.928   2.394
 1877SOL    HW2 6531   7.028   0.983   2.459
 1878SOL     OW 6532   6.993   4.020   3.397
 1878SOL    HW1 6533   0.045   4.042   3.452
 1878SOL    HW2 6534   7.019   4.008   3.301
 1879SOL     OW 6535   2.526   5.093   4.987
 1879SOL    HW1 6536   2.477   5.179   5.000
 1879SOL    HW2 6537   2.495   5.026   5.054
 1880SOL     OW 6538   6.848   2.116   3.139
 1880SOL    HW1 6539   6.908   2.132   3.061
 1880SOL    HW2 6540   6.903   2.107   3.222
 1881SOL     OW 6541   0.875   2.077   3.146
 1881SOL    HW1 6542   0.960   2.077   3.091
 1881SOL    HW2 6543   0.824   1.993   3.128
 1882SOL     OW 6544   1.427   5.949   0.216
 1882SOL    HW1 6545   1.410   5.864   0.265
 1882SOL    HW2 6546   1.356   5.963   0.147
 1883SOL     OW 6547   1.561   3.671   2.889
 1883SOL    HW1 6548   1.567   3.764   2.925
 1883SOL    HW2 6549   1.562   3.606   2.964
 1884SOL     OW 6550   4.376   1.202   0.903
 1884SOL    HW1 6551   4.476   1.203   0.897
 1884SOL    HW2 6552   4.346   1.111   0.931
 1885SOL     OW 6553   6.565   2.151   0.862
 1885SOL    HW1 6554   6.553   2.056   0.831
 1885SOL    HW2 6555   6.492   2.175   0.925
 1886SOL     OW 6556   1.495   1.726   6.912
 1886SOL    HW1 6557   1.433   1.675   6.972
 1886SOL    HW2 6558   1.588   1.720   6.948
 1887SOL     OW 6559   0.420   4.707   5.744
 1887SOL    HW1 6560   0.393   4.695   5.649
 1887SOL    HW2 6561   0.489   4.639   5.768
 1888SOL     OW 6562   1.639   1.701   5.319
 1888SOL    HW1 6563   1.732   1.678   5.347
 1888SOL    HW2 6564   1.634   1.798   5.296
 1889SOL     OW 6565   4.503   3.571   0.198
 1889SOL    HW1 6566   4.417   3.559   0.247
 1889SOL    HW2 6567   4.565   3.496   0.221
 1890SOL     OW 6568   1.199   5.851   6.295
 1890SOL    HW1 6569   1.168   5.770   6.246
 1890SOL    HW2 6570   1.292   5.837   6.327
 1891SOL     OW 6571   5.963   3.492   5.815
 1891SOL    HW1 6572   5.947   3.495   5.914
 1891SOL    HW2 6573   6.055   3.457   5.798
 1892SOL     OW 6574   4.068   6.328   1.539
 1892SOL    HW1 6575   4.042   6.420   1.569
 1892SOL    HW2 6576   4.156   6.332   1.491
 1893SOL     OW 6577   3.204   2.109   4.782
 1893SOL    HW1 6578   3.304   2.106   4.784
 1893SOL    HW2 6579   3.171   2.153   4.865
 1894SOL     OW 6580   4.019   3.796   1.568
 1894SOL    HW1 6581   3.920   3.806   1.562
 1894SOL    HW2 6582   4.054   3.856   1.641
 1895SOL     OW 6583   6.057   0.963   1.957
 1895SOL    HW1 6584   6.151   0.977   1.928
 1895SOL    HW2 6585   6.005   0.919   1.883
 1896SOL     OW 6586   6.528   1.276   4.256
 1896SOL    HW1 6587   6.500   1.189   4.216
 1896SOL    HW2 6588   6.584   1.327   4.190
 1897SOL     OW 6589   6.539   5.698   3.169
 1897SOL    HW1 6590   6.483   5.687   3.088
 1897SOL    HW2 6591   6.482   5.689   3.251
 1898SOL     OW 6592   4.740   6.037   1.522
 1898SOL    HW1 6593   4.823   6.092   1.526
 1898SOL    HW2 6594   4.761   5.949   1.479
 1899SOL     OW 6595   0.225   3.847   2.562
 1899SOL    HW1 6596   0.294   3.918   2.554
 1899SOL    HW2 6597   0.224   3.812   2.655
 1900SOL     OW 6598   1.077   0.010   6.484
 1900SOL    HW1 6599   1.024   6.990   6.416
 1900SOL    HW2 6600   1.124   0.087   6.441
 1901SOL     OW 6601   2.530   1.473   0.359
 1901SOL    HW1 6602   2.442   1.472   0.311
 1901SOL    HW2 6603   2.604   1.475   0.292
 1902SOL     OW 6604   1.133   2.352   4.967
 1902SOL    HW1 6605   1.173   2.443   4.958
 1902SOL    HW2 6606   1.148   2.301   4.882
 1903SOL     OW 6607   6.606   4.350   3.093
 1903SOL    HW1 6608   6.616   4.427   3.031
 1903SOL    HW2 6609   6.578   4.382   3.183
 1904SOL     OW 6610   0.435   6.667   4.449
 1904SOL    HW1 6611   0.490   6.745   4.417
 1904SOL    HW2 6612   0.434   6.666   4.549
 1905SOL     OW 6613   0.088   2.617   4.127
 1905SOL    HW1 6614   0.090   2.694   4.064
 1905SOL    HW2 6615   0.110   2.533   4.078
 1906SOL     OW 6616   2.731   0.240   5.835
 1906SOL    HW1 6617   2.681   0.184   5.901
 1906SOL    HW2 6618   2.694   0.225   5.743
 1907SOL     OW 6619   3.058   0.093   3.444
 1907SOL    HW1 6620   2.963   0.127   3.443
 1907SOL    HW2 6621   3.075   0.046   3.531
 1908SOL     OW 6622   4.425   1.553   5.873
 1908SOL    HW1 6623   4.516   1.519   5.898
 1908SOL    HW2 6624   4.420   1.564   5.773
 1909SOL     OW 6625   2.236   4.547   4.664
 1909SOL    HW1 6626   2.195   4.528   4.753
 1909SOL    HW2 6627   2.172   4.519   4.592
 1910SOL     OW 6628   5.399   2.719   6.726
 1910SOL    HW1 6629   5.438   2.627   6.725
 1910SOL    HW2 6630   5.299   2.713   6.716
 1911SOL     OW 6631   6.666   2.138   5.340
 1911SOL    HW1 6632   6.661   2.061   5.404
 1911SOL    HW2 6633   6.581   2.144   5.288
 1912SOL     OW 6634   3.525   6.510   2.680
 1912SOL    HW1 6635   3.481   6.537   2.595
 1912SOL    HW2 6636   3.545   6.591   2.735
 1913SOL     OW 6637   1.954   6.621   5.273
 1913SOL    HW1 6638   1.922   6.667   5.356
 1913SOL    HW2 6639   2.052   6.637   5.261
 1914SOL     OW 6640   2.212   2.778   6.593
 1914SOL    HW1 6641   2.220   2.818   6.502
 1914SOL    HW2 6642   2.132   2.719   6.597
 1915SOL     OW 6643   3.983   1.192   5.949
 1915SOL    HW1 6644   4.017   1.280   5.915
 1915SOL    HW2 6645   4.042   1.118   5.915
 1916SOL     OW 6646   4.382   5.644   0.939
 1916SOL    HW1 6647   4.460   5.701   0.911
 1916SOL    HW2 6648   4.416   5.561   0.983
 1917SOL     OW 6649   3.805   3.396   4.443
 1917SOL    HW1 6650   3.775   3.479   4.395
 1917SOL    HW2 6651   3.741   3.376   4.517
 1918SOL     OW 6652   6.290   6.672   5.775
 1918SOL    HW1 6653   6.222   6.679   5.701
 1918SOL    HW2 6654   6.266   6.735   5.848
 1919SOL     OW 6655   1.398   6.104   1.971
 1919SOL    HW1 6656   1.318   6.103   1.912
 1919SOL    HW2 6657   1.397   6.185   2.028
 1920SOL     OW 6658   0.601   4.326   3.807
 1920SOL    HW1 6659   0.633   4.254   3.745
 1920SOL    HW2 6660   0.659   4.328   3.888
 1921SOL     OW 6661   0.485   5.539   7.028
 1921SOL    HW1 6662   0.416   5.537   6.956
 1921SOL    HW2 6663   0.498   5.447   0.036
 1922SOL     OW 6664   4.333   3.288   1.377
 1922SOL    HW1 6665   4.242   3.256   1.402
 1922SOL    HW2 6666   4.370   3.346   1.450
 1923SOL     OW 6667   3.428   1.230   0.444
 1923SOL    HW1 6668   3.393   1.286   0.369
 1923SOL    HW2 6669   3.394   1.137   0.434
 1924SOL     OW 6670   6.251   4.433   1.977
 1924SOL    HW1 6671   6.344   4.420   1.942
 1924SOL    HW2 6672   6.225   4.353   2.031
 1925SOL     OW 6673   3.075   3.590   1.965
 1925SOL    HW1 6674   3.048   3.685   1.986
 1925SOL    HW2 6675   3.035   3.529   2.033
 1926SOL     OW 6676   1.522   0.464   4.685
 1926SOL    HW1 6677   1.521   0.477   4.586
 1926SOL    HW2 6678   1.433   0.489   4.723
 1927SOL     OW 6679   3.302   4.166   6.432
 1927SOL    HW1 6680   3.233   4.212   6.376
 1927SOL    HW2 6681   3.356   4.235   6.482
 1928SOL     OW 6682   6.345   3.250   6.187
 1928SOL    HW1 6683   6.421   3.283   6.130
 1928SOL    HW2 6684   6.350   3.150   6.194
 1929SOL     OW 6685   1.260   5.684   1.713
 1929SOL    HW1 6686   1.257   5.597   1.761
 1929SOL    HW2 6687   1.214   5.754   1.768
 1930SOL     OW 6688   5.935   4.501   0.178
 1930SOL    HW1 6689   5.875   4.452   0.242
 1930SOL    HW2 6690   6.023   4.518   0.222
 1931SOL     OW 6691   0.140   3.541   2.960
 1931SOL    HW1 6692   0.118   3.577   3.050
 1931SOL    HW2 6693   0.055   3.525   2.909
 1932SOL     OW 6694   5.335   3.767   2.637
 1932SOL    HW1 6695   5.301   3.673   2.639
 1932SOL    HW2 6696   5.258   3.830   2.650
 1933SOL     OW 6697   2.461   5.483   1.040
 1933SOL    HW1 6698   2.433   5.396   1.001
 1933SOL    HW2 6699   2.534   5.467   1.107
 1934SOL     OW 6700   1.165   0.183   5.358
 1934SOL    HW1 6701   1.250   0.155   5.315
 1934SOL    HW2 6702   1.152   0.130   5.442
 1935SOL     OW 6703   2.953   0.055   4.962
 1935SOL    HW1 6704   2.995   0.131   4.913
 1935SOL    HW2 6705   2.857   0.049   4.939
 1936SOL     OW 6706   5.953   5.532   4.804
 1936SOL    HW1 6707   6.002   5.589   4.737
 1936SOL    HW2 6708   6.018   5.498   4.872
 1937SOL     OW 6709   4.094   6.731   2.170
 1937SOL    HW1 6710   4.071   6.780   2.086
 1937SOL    HW2 6711   4.193   6.731   2.184
 1938SOL     OW 6712   4.217   1.704   3.561
 1938SOL    HW1 6713   4.302   1.745   3.594
 1938SOL    HW2 6714   4.217   1.702   3.461
 1939SOL     OW 6715   1.453   0.471   4.019
 1939SOL    HW1 6716   1.541   0.514   4.041
 1939SOL    HW2 6717   1.441   0.469   3.920
 1940SOL     OW 6718   5.191   5.477   6.591
 1940SOL    HW1 6719   5.216   5.568   6.559
 1940SOL    HW2 6720   5.265   5.413   6.572
 1941SOL     OW 6721   6.676   4.038   2.818
 1941SOL    HW1 6722   6.602   4.059   2.881
 1941SOL    HW2 6723   6.739   4.115   2.813
 1942SOL     OW 6724   6.312   6.468   2.874
 1942SOL    HW1 6725   6.264   6.520   2.945
 1942SOL    HW2 6726   6.371   6.530   2.823
 1943SOL     OW 6727   3.224   6.114   1.986
 1943SOL    HW1 6728   3.291   6.051   1.946
 1943SOL    HW2 6729   3.237   6.205   1.947
 1944SOL     OW 6730   5.283   2.070   6.427
 1944SOL    HW1 6731   5.327   2.059   6.517
 1944SOL    HW2 6732   5.188   2.039   6.432
 1945SOL     OW 6733   4.586   5.558   3.235
 1945SOL    HW1 6734   4.634   5.482   3.191
 1945SOL    HW2 6735   4.652   5.615   3.284
 1946SOL     OW 6736   0.461   0.934   0.674
 1946SOL    HW1 6737   0.402   0.887   0.740
 1946SOL    HW2 6738   0.471   1.030   0.702
 1947SOL     OW 6739   5.404   6.454   4.274
 1947SOL    HW1 6740   5.338   6.449   4.348
 1947SOL    HW2 6741   5.363   6.419   4.190
 1948SOL     OW 6742   6.505   5.441   3.729
 1948SOL    HW1 6743   6.411   5.409   3.718
 1948SOL    HW2 6744   6.537   5.419   3.821
 1949SOL     OW 6745   3.795   4.238   5.926
 1949SOL    HW1 6746   3.762   4.328   5.955
 1949SOL    HW2 6747   3.733   4.168   5.959
 1950SOL     OW 6748   4.007   3.640   0.853
 1950SOL    HW1 6749   4.090   3.586   0.869
 1950SOL    HW2 6750   3.952   3.643   0.937
 1951SOL     OW 6751   6.624   2.912   0.392
 1951SOL    HW1 6752   6.617   2.925   0.293
 1951SOL    HW2 6753   6.687   2.980   0.430
 1952SOL     OW 6754   3.702   2.562   0.187
 1952SOL    HW1 6755   3.729   2.482   0.134
 1952SOL    HW2 6756   3.635   2.616   0.135
 1953SOL     OW 6757   6.366   2.058   6.578
 1953SOL    HW1 6758   6.331   2.029   6.489
 1953SOL    HW2 6759   6.347   2.155   6.592
 1954SOL     OW 6760   5.622   1.189   4.279
 1954SOL    HW1 6761   5.600   1.169   4.183
 1954SOL    HW2 6762   5.539   1.182   4.334
 1955SOL     OW 6763   1.488   0.167   2.179
 1955SOL    HW1 6764   1.520   0.124   2.094
 1955SOL    HW2 6765   1.412   0.113   2.217
 1956SOL     OW 6766   5.915   6.514   2.776
 1956SOL    HW1 6767   5.872   6.427   2.752
 1956SOL    HW2 6768   5.967   6.547   2.697
 1957SOL     OW 6769   6.477   5.231   5.013
 1957SOL    HW1 6770   6.501   5.201   4.921
 1957SOL    HW2 6771   6.560   5.257   5.063
 1958SOL     OW 6772   5.921   2.966   3.862
 1958SOL    HW1 6773   5.938   2.933   3.770
 1958SOL    HW2 6774   5.993   2.935   3.923
 1959SOL     OW 6775   0.591   2.276   6.302
 1959SOL    HW1 6776   0.580   2.304   6.397
 1959SOL    HW2 6777   0.575   2.355   6.242
 1960SOL     OW 6778   6.600   4.725   1.165
 1960SOL    HW1 6779   6.568   4.655   1.230
 1960SOL    HW2 6780   6.644   4.799   1.215
 1961SOL     OW 6781   5.703   4.396   4.504
 1961SOL    HW1 6782   5.624   4.399   4.566
 1961SOL    HW2 6783   5.724   4.301   4.481
 1962SOL     OW 6784   1.486   5.928   3.406
 1962SOL    HW1 6785   1.498   5.981   3.491
 1962SOL    HW2 6786   1.403   5.959   3.360
 1963SOL     OW 6787   0.305   0.573   1.804
 1963SOL    HW1 6788   0.315   0.506   1.731
 1963SOL    HW2 6789   0.327   0.531   1.892
 1964SOL     OW 6790   4.380   2.825   1.223
 1964SOL    HW1 6791   4.420   2.761   1.157
 1964SOL    HW2 6792   4.337   2.773   1.297
 1965SOL     OW 6793   0.780   3.292   2.751
 1965SOL    HW1 6794   0.835   3.324   2.674
 1965SOL    HW2 6795   0.835   3.231   2.808
 1966SOL     OW 6796   0.048   5.206   5.020
 1966SOL    HW1 6797   6.993   5.221   4.967
 1966SOL    HW2 6798   0.117   5.273   4.993
 1967SOL     OW 6799   4.459   1.917   5.766
 1967SOL    HW1 6800   4.381   1.973   5.737
 1967SOL    HW2 6801   4.479   1.935   5.863
 1968SOL     OW 6802   3.138   6.260   0.019
 1968SOL    HW1 6803   3.099   6.297   0.104
 1968SOL    HW2 6804   3.236   6.281   0.016
 1969SOL     OW 6805   0.376   1.171   1.484
 1969SOL    HW1 6806   0.352   1.243   1.549
 1969SOL    HW2 6807   0.466   1.189   1.445
 1970SOL     OW 6808   2.489   1.249   5.984
 1970SOL    HW1 6809   2.498   1.331   6.041
 1970SOL    HW2 6810   2.475   1.276   5.889
 1971SOL     OW 6811   6.332   6.753   6.036
 1971SOL    HW1 6812   6.413   6.694   6.036
 1971SOL    HW2 6813   6.256   6.705   6.081
 1972SOL     OW 6814   7.012   2.587   3.078
 1972SOL    HW1 6815   6.921   2.580   3.120
 1972SOL    HW2 6816   0.052   2.567   3.147
 1973SOL     OW 6817   2.823   3.649   1.408
 1973SOL    HW1 6818   2.855   3.741   1.384
 1973SOL    HW2 6819   2.749   3.656   1.475
 1974SOL     OW 6820   6.090   6.080   3.980
 1974SOL    HW1 6821   6.003   6.090   4.027
 1974SOL    HW2 6822   6.129   5.991   4.000
 1975SOL     OW 6823   2.815   1.505   3.358
 1975SOL    HW1 6824   2.828   1.480   3.454
 1975SOL    HW2 6825   2.763   1.434   3.311
 1976SOL     OW 6826   0.921   5.618   0.059
 1976SOL    HW1 6827   0.877   5.533   0.090
 1976SOL    HW2 6828   0.855   5.673   0.008
 1977SOL     OW 6829   1.181   2.386   3.360
 1977SOL    HW1 6830   1.233   2.306   3.329
 1977SOL    HW2 6831   1.237   2.468   3.348
 1978SOL     OW 6832   1.708   0.649   4.037
 1978SOL    HW1 6833   1.715   0.634   3.939
 1978SOL    HW2 6834   1.798   0.637   4.079
 1979SOL     OW 6835   6.345   3.868   4.878
 1979SOL    HW1 6836   6.369   3.945   4.936
 1979SOL    HW2 6837   6.349   3.896   4.782
 1980SOL     OW 6838   3.274   1.006   0.386
 1980SOL    HW1 6839   3.250   1.018   0.289
 1980SOL    HW2 6840   3.313   0.916   0.401
 1981SOL     OW 6841   5.400   2.079   2.298
 1981SOL    HW1 6842   5.382   2.092   2.395
 1981SOL    HW2 6843   5.322   2.033   2.255
 1982SOL     OW 6844   6.260   4.155   5.764
 1982SOL    HW1 6845   6.175   4.103   5.757
 1982SOL    HW2 6846   6.250   4.227   5.833
 1983SOL     OW 6847   1.020   2.585   2.432
 1983SOL    HW1 6848   1.032   2.677   2.470
 1983SOL    HW2 6849   0.969   2.592   2.345
 1984SOL     OW 6850   5.677   0.895   5.470
 1984SOL    HW1 6851   5.651   0.905   5.566
 1984SOL    HW2 6852   5.595   0.882   5.415
 1985SOL     OW 6853   1.466   0.893   2.303
 1985SOL    HW1 6854   1.481   0.931   2.211
 1985SOL    HW2 6855   1.473   0.793   2.299
 1986SOL     OW 6856   1.136   0.981   0.279
 1986SOL    HW1 6857   1.040   1.009   0.288
 1986SOL    HW2 6858   1.195   1.059   0.301
 1987SOL     OW 6859   1.781   3.368   2.120
 1987SOL    HW1 6860   1.842   3.308   2.069
 1987SOL    HW2 6861   1.765   3.452   2.068
 1988SOL     OW 6862   4.741   4.308   0.376
 1988SOL    HW1 6863   4.831   4.302   0.419
 1988SOL    HW2 6864   4.672   4.332   0.444
 1989SOL     OW 6865   2.646   0.307   5.086
 1989SOL    HW1 6866   2.560   0.312   5.136
 1989SOL    HW2 6867   2.659   0.390   5.032
 1990SOL     OW 6868   3.439   0.002   1.002
 1990SOL    HW1 6869   3.364   6.966   1.010
 1990SOL    HW2 6870   3.494   0.000   1.086
 1991SOL     OW 6871   3.915   5.013   6.263
 1991SOL    HW1 6872   3.945   4.937   6.205
 1991SOL    HW2 6873   3.938   5.099   6.219
 1992SOL     OW 6874   2.175   6.750   6.881
 1992SOL    HW1 6875   2.121   6.667   6.897
 1992SOL    HW2 6876   2.238   6.764   6.958
 1993SOL     OW 6877   4.044   3.411   5.337
 1993SOL    HW1 6878   4.094   3.425   5.422
 1993SOL    HW2 6879   3.993   3.494   5.314
 1994SOL     OW 6880   1.633   2.426   1.458
 1994SOL    HW1 6881   1.671   2.514   1.484
 1994SOL    HW2 6882   1.642   2.414   1.359
 1995SOL     OW 6883   6.375   2.477   1.956
 1995SOL    HW1 6884   6.414   2.478   1.864
 1995SOL    HW2 6885   6.382   2.569   1.996
 1996SOL     OW 6886   2.756   3.869   0.775
 1996SOL    HW1 6887   2.716   3.949   0.820
 1996SOL    HW2 6888   2.749   3.789   0.836
 1997SOL     OW 6889   4.937   0.318   5.820
 1997SOL    HW1 6890   4.943   0.226   5.859
 1997SOL    HW2 6891   4.842   0.338   5.797
 1998SOL     OW 6892   3.164   3.803   5.721
 1998SOL    HW1 6893   3.146   3.768   5.628
 1998SOL    HW2 6894   3.126   3.895   5.730
 1999SOL     OW 6895   2.930   7.008   2.079
 1999SOL    HW1 6896   2.922   6.927   2.137
 1999SOL    HW2 6897   2.883   0.056   2.123
 2000SOL     OW 6898   3.926   1.875   5.712
 2000SOL    HW1 6899   3.907   1.861   5.614
 2000SOL    HW2 6900   4.024   1.873   5.727
 2001SOL     OW 6901   3.380   2.358   1.729
 2001SOL    HW1 6902   3.468   2.353   1.776
 2001SOL    HW2 6903   3.354   2.454   1.718
 2002SOL     OW 6904   0.806   5.528   6.103
 2002SOL    HW1 6905   0.736   5.595   6.079
 2002SOL    HW2 6906   0.837   5.543   6.197
 2003SOL     OW 6907   4.835   6.850   3.272
 2003SOL    HW1 6908   4.888   6.893   3.198
 2003SOL    HW2 6909   4.864   6.888   3.360
 2004SOL     OW 6910   4.943   0.869   4.974
 2004SOL    HW1 6911   4.914   0.775   4.955
 2004SOL    HW2 6912   4.992   0.872   5.061
 2005SOL     OW 6913   1.247   5.287   0.129
 2005SOL    HW1 6914   1.150   5.276   0.108
 2005SOL    HW2 6915   1.279   5.376   0.098
 2006SOL     OW 6916   5.123   3.830   3.852
 2006SOL    HW1 6917   5.163   3.828   3.944
 2006SOL    HW2 6918   5.025   3.816   3.859
 2007SOL     OW 6919   4.751   6.007   0.653
 2007SOL    HW1 6920   4.811   6.086   0.658
 2007SOL    HW2 6921   4.804   5.925   0.629
 2008SOL     OW 6922   0.873   5.326   3.670
 2008SOL    HW1 6923   0.816   5.290   3.597
 2008SOL    HW2 6924   0.935   5.396   3.633
 2009SOL     OW 6925   6.793   0.191   1.248
 2009SOL    HW1 6926   6.764   0.191   1.153
 2009SOL    HW2 6927   6.731   0.248   1.302
 2010SOL     OW 6928   1.473   1.651   0.984
 2010SOL    HW1 6929   1.522   1.620   0.903
 2010SOL    HW2 6930   1.391   1.595   0.998
 2011SOL     OW 6931   6.523   1.790   4.897
 2011SOL    HW1 6932   6.504   1.806   4.994
 2011SOL    HW2 6933   6.620   1.770   4.885
 2012SOL     OW 6934   0.954   3.553   1.362
 2012SOL    HW1 6935   1.012   3.489   1.310
 2012SOL    HW2 6936   0.942   3.637   1.310
 2013SOL     OW 6937   5.520   0.388   3.238
 2013SOL    HW1 6938   5.601   0.388   3.296
 2013SOL    HW2 6939   5.470   0.474   3.249
 2014SOL     OW 6940   1.396   5.172   3.079
 2014SOL    HW1 6941   1.299   5.148   3.071
 2014SOL    HW2 6942   1.446   5.097   3.123
 2015SOL     OW 6943   2.637   1.534   6.619
 2015SOL    HW1 6944   2.590   1.619   6.643
 2015SOL    HW2 6945   2.716   1.554   6.563
 2016SOL     OW 6946   0.577   5.882   5.660
 2016SOL    HW1 6947   0.540   5.917   5.746
 2016SOL    HW2 6948   0.677   5.889   5.661
 2017SOL     OW 6949   3.616   6.403   4.235
 2017SOL    HW1 6950   3.705   6.363   4.256
 2017SOL    HW2 6951   3.607   6.415   4.136
 2018SOL     OW 6952   6.128   5.920   6.401
 2018SOL    HW1 6953   6.150   5.908   6.305
 2018SOL    HW2 6954   6.192   5.868   6.457
 2019SOL     OW 6955   4.923   2.921   2.186
 2019SOL    HW1 6956   4.854   2.960   2.124
 2019SOL    HW2 6957   4.879   2.855   2.247
 2020SOL     OW 6958   1.174   4.713   4.899
 2020SOL    HW1 6959   1.251   4.692   4.838
 2020SOL    HW2 6960   1.186   4.803   4.939
 2021SOL     OW 6961   2.506   6.706   3.188
 2021SOL    HW1 6962   2.518   6.619   3.236
 2021SOL    HW2 6963   2.573   6.713   3.114
 2022SOL     OW 6964   2.150   3.634   2.539
 2022SOL    HW1 6965   2.074   3.693   2.511
 2022SOL    HW2 6966   2.163   3.562   2.471
 2023SOL     OW 6967   0.225   1.343   0.517
 2023SOL    HW1 6968   0.140   1.396   0.510
 2023SOL    HW2 6969   0.247   1.302   0.428
 2024SOL     OW 6970   0.221   0.685   2.665
 2024SOL    HW1 6971   0.217   0.712   2.761
 2024SOL    HW2 6972   0.128   0.677   2.629
 2025SOL     OW 6973   1.464   2.480   2.185
 2025SOL    HW1 6974   1.456   2.461   2.088
 2025SOL    HW2 6975   1.558   2.506   2.207
 2026SOL     OW 6976   1.480   2.165   5.967
 2026SOL    HW1 6977   1.412   2.091   5.975
 2026SOL    HW2 6978   1.477   2.222   6.049
 2027SOL     OW 6979   1.639   1.453   1.399
 2027SOL    HW1 6980   1.721   1.489   1.442
 2027SOL    HW2 6981   1.629   1.356   1.422
 2028SOL     OW 6982   3.330   1.226   6.196
 2028SOL    HW1 6983   3.407   1.259   6.142
 2028SOL    HW2 6984   3.362   1.200   6.287
 2029SOL     OW 6985   0.265   0.491   0.449
 2029SOL    HW1 6986   0.309   0.416   0.399
 2029SOL    HW2 6987   0.301   0.495   0.542
 2030SOL     OW 6988   2.191   1.269   3.697
 2030SOL    HW1 6989   2.166   1.344   3.760
 2030SOL    HW2 6990   2.109   1.217   3.675
 2031SOL     OW 6991   5.002   6.208   2.135
 2031SOL    HW1 6992   4.990   6.285   2.072
 2031SOL    HW2 6993   5.072   6.231   2.202
 2032SOL     OW 6994   4.860   6.269   1.314
 2032SOL    HW1 6995   4.956   6.276   1.289
 2032SOL    HW2 6996   4.808   6.339   1.265
 2033SOL     OW 6997   3.500   4.850   6.730
 2033SOL    HW1 6998   3.515   4.897   6.817
 2033SOL    HW2 6999   3.490   4.918   6.657
 2034SOL     OW 7000   2.856   6.918   4.503
 2034SOL    HW1 7001   2.829   6.851   4.573
 2034SOL    HW2 7002   2.818   7.007   4.526
 2035SOL     OW 7003   0.381   0.687   2.286
 2035SOL    HW1 7004   0.375   0.780   2.321
 2035SOL    HW2 7005   0.346   0.684   2.192
 2036SOL     OW 7006   0.783   6.095   3.169
 2036SOL    HW1 7007   0.685   6.089   3.188
 2036SOL    HW2 7008   0.819   6.179   3.210
 2037SOL     OW 7009   0.239   2.317   6.098
 2037SOL    HW1 7010   0.277   2.238   6.050
 2037SOL    HW2 7011   0.245   2.303   6.197
 2038SOL     OW 7012   1.195   1.314   6.757
 2038SOL    HW1 7013   1.281   1.359   6.732
 2038SOL    HW2 7014   1.160   1.263   6.679
 2039SOL     OW 7015   0.417   4.870   2.572
 2039SOL    HW1 7016   0.489   4.932   2.604
 2039SOL    HW2 7017   0.350   4.921   2.519
 2040SOL     OW 7018   3.080   3.050   5.192
 2040SOL    HW1 7019   3.166   3.066   5.240
 2040SOL    HW2 7020   3.099   3.004   5.105
 2041SOL     OW 7021   6.436   5.922   6.206
 2041SOL    HW1 7022   6.496   5.991   6.247
 2041SOL    HW2 7023   6.439   5.930   6.106
 2042SOL     OW 7024   6.005   5.556   0.028
 2042SOL    HW1 7025   5.974   5.651   0.025
 2042SOL    HW2 7026   5.997   5.521   0.122
 2043SOL     OW 7027   6.738   4.024   2.274
 2043SOL    HW1 7028   6.673   4.026   2.350
 2043SOL    HW2 7029   6.765   3.929   2.255
 2044SOL     OW 7030   4.913   0.352   2.064
 2044SOL    HW1 7031   4.869   0.414   2.128
 2044SOL    HW2 7032   4.893   0.257   2.091
 2045SOL     OW 7033   2.065   4.439   4.877
 2045SOL    HW1 7034   1.975   4.423   4.836
 2045SOL    HW2 7035   2.119   4.355   4.872
 2046SOL     OW 7036   6.731   0.373   4.555
 2046SOL    HW1 7037   6.767   0.319   4.479
 2046SOL    HW2 7038   6.803   0.385   4.624
 2047SOL     OW 7039   4.316   2.058   0.043
 2047SOL    HW1 7040   4.253   2.132   0.067
 2047SOL    HW2 7041   4.265   1.973   0.035
 2048SOL     OW 7042   3.086   6.033   6.888
 2048SOL    HW1 7043   3.163   5.970   6.894
 2048SOL    HW2 7044   3.105   6.115   6.943
 2049SOL     OW 7045   4.201   1.987   6.364
 2049SOL    HW1 7046   4.197   1.896   6.404
 2049SOL    HW2 7047   4.138   2.048   6.412
 2050SOL     OW 7048   6.184   2.411   3.875
 2050SOL    HW1 7049   6.142   2.329   3.913
 2050SOL    HW2 7050   6.273   2.426   3.919
 2051SOL     OW 7051   7.025   5.030   0.019
 2051SOL    HW1 7052   7.028   5.116   0.069
 2051SOL    HW2 7053   0.044   4.960   0.071
 2052SOL     OW 7054   0.491   4.291   0.276
 2052SOL    HW1 7055   0.401   4.328   0.255
 2052SOL    HW2 7056   0.481   4.212   0.337
 2053SOL     OW 7057   6.320   0.617   0.447
 2053SOL    HW1 7058   6.255   0.577   0.383
 2053SOL    HW2 7059   6.411   0.617   0.406
 2054SOL     OW 7060   4.405   2.506   1.902
 2054SOL    HW1 7061   4.467   2.508   1.980
 2054SOL    HW2 7062   4.434   2.572   1.833
 2055SOL     OW 7063   6.027   2.913   2.732
 2055SOL    HW1 7064   5.982   2.957   2.809
 2055SOL    HW2 7065   5.974   2.833   2.702
 2056SOL     OW 7066   2.780   1.302   3.177
 2056SOL    HW1 7067   2.738   1.222   3.135
 2056SOL    HW2 7068   2.844   1.344   3.113
 2057SOL     OW 7069   5.604   2.360   3.709
 2057SOL    HW1 7070   5.668   2.284   3.716
 2057SOL    HW2 7071   5.569   2.383   3.800
 2058SOL     OW 7072   1.346   1.862   3.290
 2058SOL    HW1 7073   1.401   1.781   3.311
 2058SOL    HW2 7074   1.250   1.845   3.312
 2059SOL     OW 7075   2.938   6.256   6.335
 2059SOL    HW1 7076   2.847   6.222   6.313
 2059SOL    HW2 7077   2.936   6.355   6.341
 2060SOL     OW 7078   7.016   4.062   1.043
 2060SOL    HW1 7079   0.061   4.042   0.978
 2060SOL    HW2 7080   7.025   4.156   1.075
 2061SOL     OW 7081   0.860   1.760   3.054
 2061SOL    HW1 7082   0.819   1.683   3.101
 2061SOL    HW2 7083   0.823   1.766   2.961
 2062SOL     OW 7084   5.430   0.233   3.500
 2062SOL    HW1 7085   5.469   0.144   3.478
 2062SOL    HW2 7086   5.504   0.296   3.527
 2063SOL     OW 7087   1.088   0.835   6.298
 2063SOL    HW1 7088   1.138   0.805   6.379
 2063SOL    HW2 7089   1.150   0.843   6.221
 2064SOL     OW 7090   0.938   1.321   5.443
 2064SOL    HW1 7091   0.974   1.305   5.351
 2064SOL    HW2 7092   0.924   1.419   5.457
 2065SOL     OW 7093   6.663   3.754   3.020
 2065SOL    HW1 7094   6.634   3.797   3.106
 2065SOL    HW2 7095   6.649   3.819   2.945
 2066SOL     OW 7096   0.520   6.082   4.038
 2066SOL    HW1 7097   0.580   6.148   3.993
 2066SOL    HW2 7098   0.552   6.067   4.132
 2067SOL     OW 7099   6.874   6.412   0.405
 2067SOL    HW1 7100   6.823   6.390   0.488
 2067SOL    HW2 7101   6.950   6.349   0.394
 2068SOL     OW 7102   0.902   1.182   5.668
 2068SOL    HW1 7103   0.915   1.219   5.576
 2068SOL    HW2 7104   0.984   1.198   5.723
 2069SOL     OW 7105   0.734   2.684   3.365
 2069SOL    HW1 7106   0.737   2.769   3.418
 2069SOL    HW2 7107   0.671   2.695   3.288
 2070SOL     OW 7108   1.831   0.674   2.681
 2070SOL    HW1 7109   1.921   0.636   2.662
 2070SOL    HW2 7110   1.782   0.690   2.595
 2071SOL     OW 7111   6.678   5.685   5.421
 2071SOL    HW1 7112   6.664   5.715   5.326
 2071SOL    HW2 7113   6.590   5.661   5.461
 2072SOL     OW 7114   4.589   6.417   1.429
 2072SOL    HW1 7115   4.578   6.515   1.445
 2072SOL    HW2 7116   4.658   6.380   1.491
 2073SOL     OW 7117   3.702   0.248   4.821
 2073SOL    HW1 7118   3.609   0.250   4.787
 2073SOL    HW2 7119   3.711   0.310   4.899
 2074SOL     OW 7120   0.677   3.471   0.501
 2074SOL    HW1 7121   0.615   3.410   0.550
 2074SOL    HW2 7122   0.637   3.497   0.414
 2075SOL     OW 7123   5.359   3.019   1.666
 2075SOL    HW1 7124   5.378   2.925   1.695
 2075SOL    HW2 7125   5.368   3.025   1.567
 2076SOL     OW 7126   5.173   6.904   6.654
 2076SOL    HW1 7127   5.087   6.949   6.628
 2076SOL    HW2 7128   5.235   6.971   6.693
 2077SOL     OW 7129   4.537   2.415   2.379
 2077SOL    HW1 7130   4.608   2.367   2.431
 2077SOL    HW2 7131   4.484   2.348   2.326
 2078SOL     OW 7132   1.664   6.686   6.474
 2078SOL    HW1 7133   1.574   6.729   6.481
 2078SOL    HW2 7134   1.735   6.757   6.480
 2079SOL     OW 7135   5.813   1.053   3.737
 2079SOL    HW1 7136   5.906   1.050   3.774
 2079SOL    HW2 7137   5.801   0.978   3.672
 2080SOL     OW 7138   1.445   0.823   4.741
 2080SOL    HW1 7139   1.381   0.747   4.752
 2080SOL    HW2 7140   1.434   0.864   4.651
 2081SOL     OW 7141   1.869   5.335   4.857
 2081SOL    HW1 7142   1.941   5.404   4.850
 2081SOL    HW2 7143   1.909   5.249   4.888
 2082SOL     OW 7144   6.866   0.742   2.745
 2082SOL    HW1 7145   6.918   0.699   2.671
 2082SOL    HW2 7146   6.786   0.788   2.708
 2083SOL     OW 7147   4.599   4.627   6.709
 2083SOL    HW1 7148   4.604   4.531   6.681
 2083SOL    HW2 7149   4.509   4.646   6.748
 2084SOL     OW 7150   6.668   4.173   3.295
 2084SOL    HW1 7151   6.654   4.222   3.209
 2084SOL    HW2 7152   6.766   4.152   3.305
 2085SOL     OW 7153   4.769   1.154   6.907
 2085SOL    HW1 7154   4.828   1.173   6.829
 2085SOL    HW2 7155   4.797   1.210   6.985
 2086SOL     OW 7156   3.088   6.941   5.518
 2086SOL    HW1 7157   3.023   6.902   5.453
 2086SOL    HW2 7158   3.059   0.004   5.544
 2087SOL     OW 7159   5.137   0.017   2.228
 2087SOL    HW1 7160   5.203   7.007   2.292
 2087SOL    HW2 7161   5.128   6.986   2.149
 2088SOL     OW 7162   2.825   6.458   0.438
 2088SOL    HW1 7163   2.736   6.480   0.478
 2088SOL    HW2 7164   2.883   6.415   0.507
 2089SOL     OW 7165   5.082   2.049   6.712
 2089SOL    HW1 7166   5.048   1.958   6.690
 2089SOL    HW2 7167   5.182   2.050   6.706
 2090SOL     OW 7168   3.700   3.968   5.386
 2090SOL    HW1 7169   3.773   3.974   5.318
 2090SOL    HW2 7170   3.627   3.909   5.352
 2091SOL     OW 7171   6.653   5.735   6.931
 2091SOL    HW1 7172   6.630   5.671   6.858
 2091SOL    HW2 7173   6.734   5.788   6.904
 2092SOL     OW 7174   4.123   5.240   6.905
 2092SOL    HW1 7175   4.156   5.208   6.817
 2092SOL    HW2 7176   4.191   5.220   6.976
 2093SOL     OW 7177   2.185   2.576   1.503
 2093SOL    HW1 7178   2.271   2.539   1.468
 2093SOL    HW2 7179   2.196   2.673   1.523
 2094SOL     OW 7180   5.843   1.805   1.225
 2094SOL    HW1 7181   5.915   1.874   1.236
 2094SOL    HW2 7182   5.879   1.715   1.250
 2095SOL     OW 7183   5.406   7.014   4.939
 2095SOL    HW1 7184   5.441   0.072   4.904
 2095SOL    HW2 7185   5.482   6.956   4.967
 2096SOL     OW 7186   4.384   4.647   2.500
 2096SOL    HW1 7187   4.300   4.667   2.450
 2096SOL    HW2 7188   4.365   4.650   2.598
 2097SOL     OW 7189   1.520   3.005   0.098
 2097SOL    HW1 7190   1.566   3.030   0.012
 2097SOL    HW2 7191   1.549   3.067   0.170
 2098SOL     OW 7192   4.367   5.144   3.486
 2098SOL    HW1 7193   4.444   5.081   3.498
 2098SOL    HW2 7194   4.397   5.237   3.508
 2099SOL     OW 7195   2.587   3.157   5.362
 2099SOL    HW1 7196   2.644   3.233   5.329
 2099SOL    HW2 7197   2.539   3.116   5.285
 2100SOL     OW 7198   3.906   3.642   5.270
 2100SOL    HW1 7199   3.837   3.640   5.197
 2100SOL    HW2 7200   3.861   3.628   5.358
 2101SOL     OW 7201   1.593   6.489   3.055
 2101SOL    HW1 7202   1.560   6.509   2.963
 2101SOL    HW2 7203   1.687   6.521   3.064
 2102SOL     OW 7204   6.620   4.928   2.448
 2102SOL    HW1 7205   6.673   4.955   2.367
 2102SOL    HW2 7206   6.522   4.933   2.426
 2103SOL     OW 7207   2.860   3.478   6.392
 2103SOL    HW1 7208   2.959   3.468   6.400
 2103SOL    HW2 7209   2.815   3.429   6.466
 2104SOL     OW 7210   0.998   3.295   6.910
 2104SOL    HW1 7211   1.008   3.211   6.962
 2104SOL    HW2 7212   1.036   3.372   6.962
 2105SOL     OW 7213   5.110   5.655   4.333
 2105SOL    HW1 7214   5.104   5.668   4.432
 2105SOL    HW2 7215   5.206   5.644   4.307
 2106SOL     OW 7216   5.149   4.117   0.622
 2106SOL    HW1 7217   5.245   4.107   0.646
 2106SOL    HW2 7218   5.124   4.048   0.555
 2107SOL     OW 7219   4.687   3.001   5.589
 2107SOL    HW1 7220   4.778   2.996   5.548
 2107SOL    HW2 7221   4.634   2.921   5.561
 2108SOL     OW 7222   6.756   6.325   5.740
 2108SOL    HW1 7223   6.735   6.414   5.700
 2108SOL    HW2 7224   6.797   6.266   5.671
 2109SOL     OW 7225   4.768   6.389   3.138
 2109SOL    HW1 7226   4.778   6.465   3.203
 2109SOL    HW2 7227   4.671   6.380   3.113
 2110SOL     OW 7228   2.428   2.470   6.082
 2110SOL    HW1 7229   2.353   2.524   6.044
 2110SOL    HW2 7230   2.514   2.497   6.039
 2111SOL     OW 7231   1.432   2.195   6.743
 2111SOL    HW1 7232   1.493   2.118   6.758
 2111SOL    HW2 7233   1.353   2.165   6.689
 2112SOL     OW 7234   5.333   2.476   0.826
 2112SOL    HW1 7235   5.373   2.414   0.893
 2112SOL    HW2 7236   5.251   2.519   0.866
 2113SOL     OW 7237   0.991   0.398   5.000
 2113SOL    HW1 7238   0.909   0.452   4.987
 2113SOL    HW2 7239   0.983   0.344   5.083
 2114SOL     OW 7240   1.729   2.909   0.990
 2114SOL    HW1 7241   1.829   2.917   0.995
 2114SOL    HW2 7242   1.705   2.846   0.916
 2115SOL     OW 7243   2.065   3.692   3.078
 2115SOL    HW1 7244   2.133   3.751   3.122
 2115SOL    HW2 7245   2.103   3.655   2.993
 2116SOL     OW 7246   0.526   5.063   3.463
 2116SOL    HW1 7247   0.452   5.117   3.504
 2116SOL    HW2 7248   0.505   5.045   3.367
 2117SOL     OW 7249   0.104   4.132   1.377
 2117SOL    HW1 7250   0.014   4.093   1.357
 2117SOL    HW2 7251   0.164   4.061   1.414
 2118SOL     OW 7252   6.616   3.501   1.729
 2118SOL    HW1 7253   6.680   3.443   1.780
 2118SOL    HW2 7254   6.522   3.471   1.748
 2119SOL     OW 7255   2.604   5.653   1.327
 2119SOL    HW1 7256   2.522   5.599   1.308
 2119SOL    HW2 7257   2.650   5.618   1.408
 2120SOL     OW 7258   0.278   4.970   4.471
 2120SOL    HW1 7259   0.372   4.937   4.475
 2120SOL    HW2 7260   0.229   4.918   4.401
 2121SOL     OW 7261   0.600   4.084   5.120
 2121SOL    HW1 7262   0.518   4.096   5.175
 2121SOL    HW2 7263   0.587   4.129   5.031
 2122SOL     OW 7264   5.588   4.156   6.259
 2122SOL    HW1 7265   5.604   4.254   6.247
 2122SOL    HW2 7266   5.504   4.141   6.310
 2123SOL     OW 7267   6.714   5.256   1.808
 2123SOL    HW1 7268   6.638   5.322   1.804
 2123SOL    HW2 7269   6.731   5.220   1.716
 2124SOL     OW 7270   2.846   1.790   1.881
 2124SOL    HW1 7271   2.749   1.809   1.897
 2124SOL    HW2 7272   2.874   1.833   1.795
 2125SOL     OW 7273   2.069   0.169   1.013
 2125SOL    HW1 7274   2.168   0.159   1.009
 2125SOL    HW2 7275   2.039   0.168   1.108
 2126SOL     OW 7276   3.954   0.997   0.211
 2126SOL    HW1 7277   3.871   1.051   0.199
 2126SOL    HW2 7278   3.984   1.003   0.306
 2127SOL     OW 7279   6.589   3.134   4.090
 2127SOL    HW1 7280   6.676   3.093   4.116
 2127SOL    HW2 7281   6.524   3.062   4.068
 2128SOL     OW 7282   6.319   3.497   3.919
 2128SOL    HW1 7283   6.337   3.585   3.964
 2128SOL    HW2 7284   6.333   3.423   3.984
 2129SOL     OW 7285   4.485   3.370   5.566
 2129SOL    HW1 7286   4.583   3.382   5.584
 2129SOL    HW2 7287   4.474   3.318   5.481
 2130SOL     OW 7288   3.355   0.674   2.005
 2130SOL    HW1 7289   3.356   0.581   2.042
 2130SOL    HW2 7290   3.260   0.706   1.998
 2131SOL     OW 7291   6.540   0.037   0.333
 2131SOL    HW1 7292   6.567   7.024   0.246
 2131SOL    HW2 7293   6.600   0.115   0.352
 2132SOL     OW 7294   4.050   2.215   1.299
 2132SOL    HW1 7295   4.130   2.178   1.345
 2132SOL    HW2 7296   4.051   2.189   1.203
 2133SOL     OW 7297   2.750   2.713   6.335
 2133SOL    HW1 7298   2.656   2.718   6.302
 2133SOL    HW2 7299   2.752   2.669   6.424
 2134SOL     OW 7300   0.626   3.015   6.838
 2134SOL    HW1 7301   0.581   3.100   6.868
 2134SOL    HW2 7302   0.641   3.018   6.739
 2135SOL     OW 7303   0.081   3.500   4.493
 2135SOL    HW1 7304   0.105   3.406   4.471
 2135SOL    HW2 7305   7.011   3.513   4.485
 2136SOL     OW 7306   1.823   4.242   2.841
 2136SOL    HW1 7307   1.775   4.317   2.796
 2136SOL    HW2 7308   1.840   4.169   2.775
 2137SOL     OW 7309   2.788   5.559   5.279
 2137SOL    HW1 7310   2.751   5.620   5.349
 2137SOL    HW2 7311   2.834   5.613   5.208
 2138SOL     OW 7312   6.433   6.372   3.236
 2138SOL    HW1 7313   6.379   6.290   3.221
 2138SOL    HW2 7314   6.524   6.360   3.195
 2139SOL     OW 7315   4.264   0.889   3.667
 2139SOL    HW1 7316   4.325   0.811   3.683
 2139SOL    HW2 7317   4.189   0.886   3.734
 2140SOL     OW 7318   3.036   0.376   4.019
 2140SOL    HW1 7319   2.949   0.351   4.063
 2140SOL    HW2 7320   3.045   0.325   3.933
 2141SOL     OW 7321   6.582   3.113   2.273
 2141SOL    HW1 7322   6.634   3.192   2.241
 2141SOL    HW2 7323   6.487   3.140   2.291
 2142SOL     OW 7324   1.565   1.328   3.199
 2142SOL    HW1 7325   1.598   1.309   3.292
 2142SOL    HW2 7326   1.643   1.348   3.139
 2143SOL     OW 7327   2.964   4.976   1.146
 2143SOL    HW1 7328   3.061   4.994   1.161
 2143SOL    HW2 7329   2.922   5.053   1.097
 2144SOL     OW 7330   0.498   5.623   4.387
 2144SOL    HW1 7331   0.582   5.645   4.437
 2144SOL    HW2 7332   0.419   5.633   4.447
 2145SOL     OW 7333   3.942   6.430   4.311
 2145SOL    HW1 7334   3.919   6.346   4.359
 2145SOL    HW2 7335   3.902   6.429   4.219
 2146SOL     OW 7336   2.411   3.107   0.985
 2146SOL    HW1 7337   2.472   3.185   1.002
 2146SOL    HW2 7338   2.455   3.023   1.015
 2147SOL     OW 7339   5.806   1.591   6.605
 2147SOL    HW1 7340   5.843   1.576   6.696
 2147SOL    HW2 7341   5.848   1.671   6.564
 2148SOL     OW 7342   6.059   3.282   6.026
 2148SOL    HW1 7343   6.044   3.242   6.116
 2148SOL    HW2 7344   6.156   3.278   6.003
 2149SOL     OW 7345   2.574   1.702   0.973
 2149SOL    HW1 7346   2.527   1.774   1.024
 2149SOL    HW2 7347   2.508   1.640   0.934
 2150SOL     OW 7348   2.367   2.467   2.405
 2150SOL    HW1 7349   2.466   2.475   2.397
 2150SOL    HW2 7350   2.338   2.505   2.493
 2151SOL     OW 7351   1.993   6.518   6.585
 2151SOL    HW1 7352   1.954   6.481   6.500
 2151SOL    HW2 7353   1.978   6.617   6.588
 2152SOL     OW 7354   3.932   4.789   2.358
 2152SOL    HW1 7355   3.868   4.865   2.375
 2152SOL    HW2 7356   3.916   4.751   2.267
 2153SOL     OW 7357   4.404   1.592   2.547
 2153SOL    HW1 7358   4.326   1.600   2.609
 2153SOL    HW2 7359   4.372   1.601   2.453
 2154SOL     OW 7360   4.495   0.094   4.660
 2154SOL    HW1 7361   4.424   0.100   4.730
 2154SOL    HW2 7362   4.564   0.165   4.675
 2155SOL     OW 7363   4.175   0.180   0.679
 2155SOL    HW1 7364   4.170   0.080   0.685
 2155SOL    HW2 7365   4.083   0.219   0.683
 2156SOL     OW 7366   0.108   0.548   5.019
 2156SOL    HW1 7367   0.139   0.585   4.931
 2156SOL    HW2 7368   0.186   0.511   5.069
 2157SOL     OW 7369   5.732   6.350   3.139
 2157SOL    HW1 7370   5.650   6.373   3.191
 2157SOL    HW2 7371   5.813   6.369   3.194
 2158SOL     OW 7372   3.681   5.994   0.961
 2158SOL    HW1 7373   3.609   5.927   0.978
 2158SOL    HW2 7374   3.713   6.031   1.048
 2159SOL     OW 7375   1.547   1.129   4.755
 2159SOL    HW1 7376   1.527   1.048   4.699
 2159SOL    HW2 7377   1.615   1.185   4.708
 2160SOL     OW 7378   4.888   4.383   6.940
 2160SOL    HW1 7379   4.911   4.452   6.870
 2160SOL    HW2 7380   4.906   4.292   6.903
 2161SOL     OW 7381   6.057   4.921   2.012
 2161SOL    HW1 7382   6.012   4.966   2.089
 2161SOL    HW2 7383   6.081   4.827   2.038
 2162SOL     OW 7384   3.435   0.052   2.032
 2162SOL    HW1 7385   3.450   0.129   2.094
 2162SOL    HW2 7386   3.337   0.031   2.030
 2163SOL     OW 7387   1.572   4.595   0.657
 2163SOL    HW1 7388   1.646   4.631   0.600
 2163SOL    HW2 7389   1.590   4.498   0.676
 2164SOL     OW 7390   2.247   1.998   6.336
 2164SOL    HW1 7391   2.211   1.951   6.417
 2164SOL    HW2 7392   2.188   1.979   6.257
 2165SOL     OW 7393   7.019   2.112   3.360
 2165SOL    HW1 7394   0.073   2.142   3.312
 2165SOL    HW2 7395   0.007   2.109   3.458
 2166SOL     OW 7396   1.192   3.311   4.127
 2166SOL    HW1 7397   1.159   3.220   4.153
 2166SOL    HW2 7398   1.159   3.379   4.192
 2167SOL     OW 7399   1.431   2.505   3.832
 2167SOL    HW1 7400   1.499   2.529   3.762
 2167SOL    HW2 7401   1.383   2.587   3.862
 2168SOL     OW 7402   1.105   1.843   2.902
 2168SOL    HW1 7403   1.024   1.812   2.952
 2168SOL    HW2 7404   1.138   1.928   2.943
 2169SOL     OW 7405   5.650   1.477   0.246
 2169SOL    HW1 7406   5.665   1.560   0.193
 2169SOL    HW2 7407   5.560   1.440   0.225
 2170SOL     OW 7408   6.877   4.021   5.070
 2170SOL    HW1 7409   6.854   4.008   4.974
 2170SOL    HW2 7410   6.892   3.932   5.114
 2171SOL     OW 7411   0.632   5.780   1.441
 2171SOL    HW1 7412   0.690   5.856   1.411
 2171SOL    HW2 7413   0.683   5.694   1.434
 2172SOL     OW 7414   2.019   1.842   6.492
 2172SOL    HW1 7415   1.948   1.844   6.422
 2172SOL    HW2 7416   2.058   1.750   6.496
 2173SOL     OW 7417   4.551   0.518   5.203
 2173SOL    HW1 7418   4.567   0.613   5.227
 2173SOL    HW2 7419   4.592   0.499   5.113
 2174SOL     OW 7420   6.700   5.709   4.894
 2174SOL    HW1 7421   6.666   5.679   4.983
 2174SOL    HW2 7422   6.630   5.691   4.824
 2175SOL     OW 7423   1.884   3.221   3.642
 2175SOL    HW1 7424   1.944   3.192   3.716
 2175SOL    HW2 7425   1.890   3.156   3.566
 2176SOL     OW 7426   5.849   2.076   0.834
 2176SOL    HW1 7427   5.813   1.983   0.840
 2176SOL    HW2 7428   5.925   2.078   0.769
 2177SOL     OW 7429   0.166   0.998   2.691
 2177SOL    HW1 7430   0.247   1.018   2.747
 2177SOL    HW2 7431   0.084   1.007   2.747
 2178SOL     OW 7432   1.430   1.616   2.486
 2178SOL    HW1 7433   1.414   1.702   2.535
 2178SOL    HW2 7434   1.510   1.626   2.426
 2179SOL     OW 7435   1.793   4.820   5.929
 2179SOL    HW1 7436   1.819   4.741   5.985
 2179SOL    HW2 7437   1.751   4.890   5.987
 2180SOL     OW 7438   1.491   3.038   2.470
 2180SOL    HW1 7439   1.494   3.136   2.491
 2180SOL    HW2 7440   1.423   3.022   2.398
 2181SOL     OW 7441   4.525   4.958   4.415
 2181SOL    HW1 7442   4.545   5.044   4.370
 2181SOL    HW2 7443   4.606   4.928   4.467
 2182SOL     OW 7444   1.916   4.522   3.359
 2182SOL    HW1 7445   1.854   4.519   3.280
 2182SOL    HW2 7446   1.883   4.459   3.429
 2183SOL     OW 7447   2.385   4.185   0.181
 2183SOL    HW1 7448   2.477   4.145   0.183
 2183SOL    HW2 7449   2.359   4.206   0.087
 2184SOL     OW 7450   4.385   0.532   5.851
 2184SOL    HW1 7451   4.333   0.614   5.829
 2184SOL    HW2 7452   4.377   0.466   5.776
 2185SOL     OW 7453   0.846   0.572   0.491
 2185SOL    HW1 7454   0.927   0.534   0.536
 2185SOL    HW2 7455   0.870   0.655   0.441
 2186SOL     OW 7456   6.592   5.354   0.046
 2186SOL    HW1 7457   6.651   5.416   0.098
 2186SOL    HW2 7458   6.497   5.382   0.057
 2187SOL     OW 7459   6.965   6.111   2.241
 2187SOL    HW1 7460   6.896   6.164   2.290
 2187SOL    HW2 7461   6.990   6.030   2.295
 2188SOL     OW 7462   0.913   5.683   5.165
 2188SOL    HW1 7463   0.995   5.729   5.200
 2188SOL    HW2 7464   0.894   5.602   5.220
 2189SOL     OW 7465   2.032   6.967   1.718
 2189SOL    HW1 7466   2.096   6.890   1.710
 2189SOL    HW2 7467   2.083   0.020   1.744
 2190SOL     OW 7468   6.402   3.388   1.883
 2190SOL    HW1 7469   6.453   3.370   1.967
 2190SOL    HW2 7470   6.317   3.336   1.883
 2191SOL     OW 7471   2.092   2.159   5.746
 2191SOL    HW1 7472   2.124   2.241   5.698
 2191SOL    HW2 7473   1.992   2.152   5.738
 2192SOL     OW 7474   5.193   0.941   2.642
 2192SOL    HW1 7475   5.196   1.036   2.674
 2192SOL    HW2 7476   5.286   0.905   2.638
 2193SOL     OW 7477   6.249   6.944   6.896
 2193SOL    HW1 7478   6.275   0.012   6.888
 2193SOL    HW2 7479   6.306   6.889   6.835
 2194SOL     OW 7480   1.872   3.825   6.710
 2194SOL    HW1 7481   1.964   3.795   6.683
 2194SOL    HW2 7482   1.877   3.875   6.796
 2195SOL     OW 7483   6.636   6.665   5.399
 2195SOL    HW1 7484   6.602   6.739   5.341
 2195SOL    HW2 7485   6.716   6.623   5.356
 2196SOL     OW 7486   3.085   0.271   4.857
 2196SOL    HW1 7487   3.063   0.347   4.919
 2196SOL    HW2 7488   3.169   0.226   4.889
 2197SOL     OW 7489   2.346   3.457   6.793
 2197SOL    HW1 7490   2.355   3.557   6.796
 2197SOL    HW2 7491   2.294   3.430   6.713
 2198SOL     OW 7492   5.364   0.367   1.444
 2198SOL    HW1 7493   5.348   0.453   1.492
 2198SOL    HW2 7494   5.391   0.297   1.509
 2199SOL     OW 7495   5.226   6.529   3.815
 2199SOL    HW1 7496   5.172   6.612   3.804
 2199SOL    HW2 7497   5.190   6.458   3.754
 2200SOL     OW 7498   1.795   1.747   4.193
 2200SOL    HW1 7499   1.762   1.689   4.267
 2200SOL    HW2 7500   1.777   1.843   4.215
 2201SOL     OW 7501   6.107   2.845   3.382
 2201SOL    HW1 7502   6.205   2.830   3.396
 2201SOL    HW2 7503   6.063   2.757   3.360
 2202SOL     OW 7504   3.845   5.832   2.184
 2202SOL    HW1 7505   3.820   5.919   2.142
 2202SOL    HW2 7506   3.945   5.827   2.191
 2203SOL     OW 7507   2.264   3.505   1.306
 2203SOL    HW1 7508   2.230   3.419   1.343
 2203SOL    HW2 7509   2.279   3.495   1.207
 2204SOL     OW 7510   4.981   1.898   1.008
 2204SOL    HW1 7511   4.913   1.938   1.070
 2204SOL    HW2 7512   4.999   1.962   0.933
 2205SOL     OW 7513   0.651   6.575   6.533
 2205SOL    HW1 7514   0.704   6.659   6.546
 2205SOL    HW2 7515   0.572   6.576   6.594
 2206SOL     OW 7516   3.331   5.113   5.919
 2206SOL    HW1 7517   3.353   5.188   5.981
 2206SOL    HW2 7518   3.255   5.140   5.860
 2207SOL     OW 7519   2.469   4.937   6.407
 2207SOL    HW1 7520   2.434   4.946   6.313
 2207SOL    HW2 7521   2.568   4.944   6.406
 2208SOL     OW 7522   1.653   5.348   3.234
 2208SOL    HW1 7523   1.639   5.259   3.277
 2208SOL    HW2 7524   1.564   5.390   3.216
 2209SOL     OW 7525   1.548   0.223   5.464
 2209SOL    HW1 7526   1.645   0.223   5.489
 2209SOL    HW2 7527   1.536   0.177   5.376
 2210SOL     OW 7528   0.232   4.002   4.145
 2210SOL    HW1 7529   0.220   4.092   4.103
 2210SOL    HW2 7530   0.244   3.934   4.073
 2211SOL     OW 7531   6.598   0.618   0.385
 2211SOL    HW1 7532   6.600   0.710   0.424
 2211SOL    HW2 7533   6.688   0.575   0.395
 2212SOL     OW 7534   2.860   5.902   0.814
 2212SOL    HW1 7535   2.817   5.903   0.723
 2212SOL    HW2 7536   2.792   5.876   0.882
 2213SOL     OW 7537   3.395   1.451   5.060
 2213SOL    HW1 7538   3.381   1.534   5.006
 2213SOL    HW2 7539   3.376   1.371   5.004
 2214SOL     OW 7540   3.114   3.933   4.742
 2214SOL    HW1 7541   3.132   3.882   4.826
 2214SOL    HW2 7542   3.052   3.881   4.684
 2215SOL     OW 7543   5.500   1.206   0.051
 2215SOL    HW1 7544   5.548   1.277   7.028
 2215SOL    HW2 7545   5.547   1.192   0.139
 2216SOL     OW 7546   1.538   0.985   6.928
 2216SOL    HW1 7547   1.451   0.997   6.977
 2216SOL    HW2 7548   1.582   0.901   6.960
 2217SOL     OW 7549   3.697   6.606   2.433
 2217SOL    HW1 7550   3.769   6.663   2.392
 2217SOL    HW2 7551   3.693   6.518   2.387
 2218SOL     OW 7552   0.095   5.353   6.941
 2218SOL    HW1 7553   0.060   5.340   0.005
 2218SOL    HW2 7554   0.022   5.336   6.875
 2219SOL     OW 7555   5.634   1.539   0.664
 2219SOL    HW1 7556   5.607   1.630   0.632
 2219SOL    HW2 7557   5.699   1.549   0.740
 2220SOL     OW 7558   2.354   5.995   5.341
 2220SOL    HW1 7559   2.340   5.979   5.243
 2220SOL    HW2 7560   2.377   5.908   5.386
 2221SOL     OW 7561   6.083   1.598   5.574
 2221SOL    HW1 7562   6.064   1.696   5.585
 2221SOL    HW2 7563   6.003   1.554   5.534
 2222SOL     OW 7564   5.583   0.277   1.142
 2222SOL    HW1 7565   5.640   0.308   1.218
 2222SOL    HW2 7566   5.519   0.350   1.117
 2223SOL     OW 7567   5.669   1.319   5.878
 2223SOL    HW1 7568   5.756   1.364   5.855
 2223SOL    HW2 7569   5.642   1.258   5.804
 2224SOL     OW 7570   6.386   4.029   0.630
 2224SOL    HW1 7571   6.350   3.940   0.660
 2224SOL    HW2 7572   6.406   4.085   0.711
 2225SOL     OW 7573   6.043   6.917   4.047
 2225SOL    HW1 7574   6.024   6.838   3.988
 2225SOL    HW2 7575   6.131   6.957   4.021
 2226SOL     OW 7576   3.714   5.699   0.691
 2226SOL    HW1 7577   3.779   5.764   0.651
 2226SOL    HW2 7578   3.661   5.744   0.763
 2227SOL     OW 7579   5.783   2.634   0.272
 2227SOL    HW1 7580   5.851   2.705   0.292
 2227SOL    HW2 7581   5.703   2.647   0.331
 2228SOL     OW 7582   4.542   5.344   1.292
 2228SOL    HW1 7583   4.459   5.340   1.348
 2228SOL    HW2 7584   4.519   5.385   1.204
 2229SOL     OW 7585   4.349   2.648   5.638
 2229SOL    HW1 7586   4.367   2.644   5.737
 2229SOL    HW2 7587   4.266   2.701   5.622
 2230SOL     OW 7588   6.077   6.013   0.516
 2230SOL    HW1 7589   6.101   6.098   0.563
 2230SOL    HW2 7590   5.991   6.026   0.466
 2231SOL     OW 7591   0.213   0.765   1.418
 2231SOL    HW1 7592   0.294   0.785   1.473
 2231SOL    HW2 7593   0.241   0.726   1.330
 2232SOL     OW 7594   0.658   1.702   4.671
 2232SOL    HW1 7595   0.658   1.616   4.620
 2232SOL    HW2 7596   0.568   1.716   4.712
 2233SOL     OW 7597   2.267   3.055   0.588
 2233SOL    HW1 7598   2.261   3.095   0.680
 2233SOL    HW2 7599   2.175   3.049   0.549
 2234SOL     OW 7600   4.088   1.524   1.158
 2234SOL    HW1 7601   4.051   1.555   1.246
 2234SOL    HW2 7602   4.149   1.594   1.121
 2235SOL     OW 7603   3.092   0.419   1.635
 2235SOL    HW1 7604   3.126   0.507   1.600
 2235SOL    HW2 7605   3.150   0.389   1.710
 2236SOL     OW 7606   2.105   3.740   6.262
 2236SOL    HW1 7607   2.054   3.823   6.240
 2236SOL    HW2 7608   2.071   3.664   6.207
 2237SOL     OW 7609   5.775   4.529   3.999
 2237SOL    HW1 7610   5.773   4.610   4.058
 2237SOL    HW2 7611   5.839   4.546   3.923
 2238SOL     OW 7612   4.434   5.510   1.622
 2238SOL    HW1 7613   4.463   5.593   1.669
 2238SOL    HW2 7614   4.429   5.434   1.687
 2239SOL     OW 7615   3.814   5.006   4.235
 2239SOL    HW1 7616   3.750   4.944   4.190
 2239SOL    HW2 7617   3.767   5.058   4.306
 2240SOL     OW 7618   3.403   5.683   3.396
 2240SOL    HW1 7619   3.365   5.692   3.304
 2240SOL    HW2 7620   3.344   5.624   3.451
 2241SOL     OW 7621   0.365   5.671   3.199
 2241SOL    HW1 7622   0.406   5.725   3.272
 2241SOL    HW2 7623   0.273   5.706   3.178
 2242SOL     OW 7624   5.326   3.525   2.935
 2242SOL    HW1 7625   5.300   3.461   2.863
 2242SOL    HW2 7626   5.426   3.531   2.941
 2243SOL     OW 7627   1.778   6.744   5.745
 2243SOL    HW1 7628   1.718   6.673   5.707
 2243SOL    HW2 7629   1.870   6.707   5.755
 2244SOL     OW 7630   2.515   6.559   1.489
 2244SOL    HW1 7631   2.585   6.493   1.514
 2244SOL    HW2 7632   2.494   6.551   1.391
 2245SOL     OW 7633   0.363   1.665   1.735
 2245SOL    HW1 7634   0.270   1.658   1.772
 2245SOL    HW2 7635   0.429   1.660   1.810
 2246SOL     OW 7636   1.926   0.996   4.010
 2246SOL    HW1 7637   1.987   1.052   4.067
 2246SOL    HW2 7638   1.981   0.939   3.949
 2247SOL     OW 7639   3.468   2.938   3.470
 2247SOL    HW1 7640   3.536   2.980   3.530
 2247SOL    HW2 7641   3.499   2.943   3.375
 2248SOL     OW 7642   6.439   3.814   5.332
 2248SOL    HW1 7643   6.412   3.751   5.259
 2248SOL    HW2 7644   6.401   3.783   5.419
 2249SOL     OW 7645   5.646   6.339   3.741
 2249SOL    HW1 7646   5.619   6.290   3.824
 2249SOL    HW2 7647   5.603   6.429   3.740
 2250SOL     OW 7648   3.291   3.529   5.423
 2250SOL    HW1 7649   3.379   3.500   5.386
 2250SOL    HW2 7650   3.251   3.456   5.478
 2251SOL     OW 7651   5.129   0.335   6.647
 2251SOL    HW1 7652   5.180   0.403   6.699
 2251SOL    HW2 7653   5.034   0.333   6.678
 2252SOL     OW 7654   4.154   2.290   2.646
 2252SOL    HW1 7655   4.077   2.269   2.707
 2252SOL    HW2 7656   4.145   2.238   2.561
 2253SOL     OW 7657   0.063   3.927   7.007
 2253SOL    HW1 7658   7.000   3.915   6.967
 2253SOL    HW2 7659   0.130   3.880   6.950
 2254SOL     OW 7660   3.489   2.821   4.901
 2254SOL    HW1 7661   3.566   2.834   4.963
 2254SOL    HW2 7662   3.481   2.724   4.877
 2255SOL     OW 7663   4.069   3.324   5.742
 2255SOL    HW1 7664   3.975   3.341   5.714
 2255SOL    HW2 7665   4.090   3.227   5.732
 2256SOL     OW 7666   4.629   6.230   2.379
 2256SOL    HW1 7667   4.693   6.296   2.340
 2256SOL    HW2 7668   4.624   6.243   2.478
 2257SOL     OW 7669   0.150   1.805   4.115
 2257SOL    HW1 7670   0.220   1.757   4.168
 2257SOL    HW2 7671   0.065   1.810   4.168
 2258SOL     OW 7672   1.598   5.160   4.331
 2258SOL    HW1 7673   1.582   5.180   4.428
 2258SOL    HW2 7674   1.668   5.222   4.296
 2259SOL     OW 7675   4.997   3.675   5.820
 2259SOL    HW1 7676   5.035   3.747   5.878
 2259SOL    HW2 7677   5.070   3.630   5.769
 2260SOL     OW 7678   0.590   4.654   1.321
 2260SOL    HW1 7679   0.510   4.599   1.347
 2260SOL    HW2 7680   0.668   4.628   1.377
 2261SOL     OW 7681   5.206   4.979   0.128
 2261SOL    HW1 7682   5.156   5.056   0.090
 2261SOL    HW2 7683   5.149   4.933   0.196
 2262SOL     OW 7684   6.010   0.794   3.771
 2262SOL    HW1 7685   6.000   0.753   3.862
 2262SOL    HW2 7686   6.070   0.873   3.777
 2263SOL     OW 7687   3.345   5.938   6.887
 2263SOL    HW1 7688   3.443   5.921   6.870
 2263SOL    HW2 7689   3.327   5.933   6.985
 2264SOL     OW 7690   2.894   5.261   6.955
 2264SOL    HW1 7691   2.803   5.282   6.992
 2264SOL    HW2 7692   2.921   5.333   6.891
 2265SOL     OW 7693   1.520   1.001   3.782
 2265SOL    HW1 7694   1.424   0.978   3.802
 2265SOL    HW2 7695   1.560   1.045   3.862
 2266SOL     OW 7696   5.134   1.995   7.025
 2266SOL    HW1 7697   5.151   1.912   6.972
 2266SOL    HW2 7698   5.089   1.971   0.082
 2267SOL     OW 7699   4.667   2.630   4.729
 2267SOL    HW1 7700   4.576   2.589   4.742
 2267SOL    HW2 7701   4.676   2.711   4.787
 2268SOL     OW 7702   6.147   4.394   6.981
 2268SOL    HW1 7703   6.099   4.476   7.014
 2268SOL    HW2 7704   6.202   4.417   6.900
 2269SOL     OW 7705   7.001   4.755   5.406
 2269SOL    HW1 7706   0.051   4.816   5.419
 2269SOL    HW2 7707   6.959   4.738   5.495
 2270SOL     OW 7708   2.932   2.827   5.580
 2270SOL    HW1 7709   2.836   2.834   5.555
 2270SOL    HW2 7710   2.945   2.862   5.673
 2271SOL     OW 7711   5.382   4.293   0.196
 2271SOL    HW1 7712   5.447   4.305   0.121
 2271SOL    HW2 7713   5.431   4.274   0.281
 2272SOL     OW 7714   6.352   2.322   6.441
 2272SOL    HW1 7715   6.308   2.368   6.364
 2272SOL    HW2 7716   6.438   2.281   6.410
 2273SOL     OW 7717   1.437   1.712   2.064
 2273SOL    HW1 7718   1.530   1.750   2.072
 2273SOL    HW2 7719   1.440   1.613   2.075
 2274SOL     OW 7720   0.934   2.030   6.105
 2274SOL    HW1 7721   0.873   1.957   6.136
 2274SOL    HW2 7722   1.019   2.026   6.157
 2275SOL     OW 7723   6.394   6.287   4.549
 2275SOL    HW1 7724   6.478   6.232   4.545
 2275SOL    HW2 7725   6.396   6.345   4.630
 2276SOL     OW 7726   2.542   5.645   1.926
 2276SOL    HW1 7727   2.475   5.719   1.915
 2276SOL    HW2 7728   2.536   5.583   1.848
 2277SOL     OW 7729   4.058   3.808   4.314
 2277SOL    HW1 7730   4.065   3.888   4.374
 2277SOL    HW2 7731   4.058   3.725   4.369
 2278SOL     OW 7732   6.401   4.633   4.581
 2278SOL    HW1 7733   6.425   4.668   4.672
 2278SOL    HW2 7734   6.414   4.534   4.579
 2279SOL     OW 7735   5.667   6.612   5.860
 2279SOL    HW1 7736   5.580   6.604   5.908
 2279SOL    HW2 7737   5.660   6.683   5.790
 2280SOL     OW 7738   0.019   0.032   4.383
 2280SOL    HW1 7739   0.040   6.973   4.340
 2280SOL    HW2 7740   6.990   0.016   4.464
 2281SOL     OW 7741   3.286   1.384   2.037
 2281SOL    HW1 7742   3.353   1.445   1.995
 2281SOL    HW2 7743   3.194   1.414   2.014
 2282SOL     OW 7744   5.868   0.025   5.418
 2282SOL    HW1 7745   5.914   0.104   5.457
 2282SOL    HW2 7746   5.807   0.055   5.344
 2283SOL     OW 7747   1.182   5.416   1.281
 2283SOL    HW1 7748   1.204   5.493   1.341
 2283SOL    HW2 7749   1.205   5.441   1.187
 2284SOL     OW 7750   1.547   2.721   0.122
 2284SOL    HW1 7751   1.570   2.740   0.218
 2284SOL    HW2 7752   1.576   2.799   0.066
 2285SOL     OW 7753   1.984   2.579   1.091
 2285SOL    HW1 7754   1.891   2.543   1.104
 2285SOL    HW2 7755   2.035   2.518   1.031
 2286SOL     OW 7756   6.046   7.017   3.672
 2286SOL    HW1 7757   6.107   6.953   3.718
 2286SOL    HW2 7758   6.036   6.989   3.576
 2287SOL     OW 7759   2.403   0.011   3.420
 2287SOL    HW1 7760   2.352   6.960   3.390
 2287SOL    HW2 7761   2.490   0.015   3.370
 2288SOL     OW 7762   6.023   4.908   4.208
 2288SOL    HW1 7763   6.092   4.941   4.272
 2288SOL    HW2 7764   6.062   4.835   4.151
 2289SOL     OW 7765   0.926   4.729   1.194
 2289SOL    HW1 7766   0.924   4.719   1.294
 2289SOL    HW2 7767   0.833   4.738   1.159
 2290SOL     OW 7768   0.923   3.922   0.731
 2290SOL    HW1 7769   0.944   3.915   0.634
 2290SOL    HW2 7770   0.858   3.997   0.746
 2291SOL     OW 7771   2.075   2.515   5.601
 2291SOL    HW1 7772   1.979   2.518   5.628
 2291SOL    HW2 7773   2.083   2.536   5.503
 2292SOL     OW 7774   0.322   2.149   4.761
 2292SOL    HW1 7775   0.411   2.105   4.752
 2292SOL    HW2 7776   0.267   2.099   4.828
 2293SOL     OW 7777   4.755   6.019   1.789
 2293SOL    HW1 7778   4.668   6.009   1.838
 2293SOL    HW2 7779   4.739   6.015   1.691
 2294SOL     OW 7780   3.244   0.312   6.982
 2294SOL    HW1 7781   3.152   0.312   6.941
 2294SOL    HW2 7782   3.275   0.217   6.993
 2295SOL     OW 7783   0.535   1.984   3.257
 2295SOL    HW1 7784   0.570   1.890   3.249
 2295SOL    HW2 7785   0.437   1.984   3.239
 2296SOL     OW 7786   4.797   5.127   0.916
 2296SOL    HW1 7787   4.884   5.078   0.925
 2296SOL    HW2 7788   4.740   5.080   0.850
 2297SOL     OW 7789   4.079   4.325   5.323
 2297SOL    HW1 7790   4.124   4.281   5.401
 2297SOL    HW2 7791   4.145   4.335   5.248
 2298SOL     OW 7792   3.940   2.963   1.421
 2298SOL    HW1 7793   3.975   2.909   1.344
 2298SOL    HW2 7794   3.858   3.013   1.392
 2299SOL     OW 7795   4.989   6.218   5.441
 2299SOL    HW1 7796   5.007   6.310   5.476
 2299SOL    HW2 7797   4.895   6.192   5.461
 2300SOL     OW 7798   2.427   5.663   2.504
 2300SOL    HW1 7799   2.465   5.585   2.454
 2300SOL    HW2 7800   2.334   5.681   2.473
 2301SOL     OW 7801   3.156   3.035   3.095
 2301SOL    HW1 7802   3.135   3.062   3.001
 2301SOL    HW2 7803   3.134   2.938   3.108
 2302SOL     OW 7804   3.619   0.303   0.505
 2302SOL    HW1 7805   3.684   0.374   0.480
 2302SOL    HW2 7806   3.532   0.345   0.531
 2303SOL     OW 7807   2.187   3.068   6.051
 2303SOL    HW1 7808   2.107   3.081   6.110
 2303SOL    HW2 7809   2.199   2.970   6.034
 2304SOL     OW 7810   4.689   6.973   3.932
 2304SOL    HW1 7811   4.653   6.975   3.839
 2304SOL    HW2 7812   4.654   6.892   3.979
 2305SOL     OW 7813   2.921   6.572   3.243
 2305SOL    HW1 7814   3.008   6.561   3.291
 2305SOL    HW2 7815   2.933   6.550   3.146
 2306SOL     OW 7816   3.025   5.026   2.495
 2306SOL    HW1 7817   2.942   4.994   2.451
 2306SOL    HW2 7818   3.005   5.053   2.589
 2307SOL     OW 7819   0.042   4.332   2.503
 2307SOL    HW1 7820   6.991   4.392   2.509
 2307SOL    HW2 7821   0.012   4.236   2.505
 2308SOL     OW 7822   1.306   6.113   0.554
 2308SOL    HW1 7823   1.224   6.057   0.561
 2308SOL    HW2 7824   1.381   6.057   0.519
 2309SOL     OW 7825   1.650   0.112   6.516
 2309SOL    HW1 7826   1.699   0.076   6.436
 2309SOL    HW2 7827   1.595   0.191   6.488
 2310SOL     OW 7828   5.144   6.512   1.178
 2310SOL    HW1 7829   5.138   6.537   1.082
 2310SOL    HW2 7830   5.060   6.541   1.225
 2311SOL     OW 7831   2.127   5.955   1.865
 2311SOL    HW1 7832   2.150   6.047   1.895
 2311SOL    HW2 7833   2.030   5.937   1.884
 2312SOL     OW 7834   3.811   6.857   4.082
 2312SOL    HW1 7835   3.809   6.827   4.178
 2312SOL    HW2 7836   3.739   6.809   4.031
 2313SOL     OW 7837   5.088   5.535   1.651
 2313SOL    HW1 7838   5.087   5.534   1.551
 2313SOL    HW2 7839   5.134   5.452   1.684
 2314SOL     OW 7840   5.534   0.063   5.304
 2314SOL    HW1 7841   5.614   0.069   5.244
 2314SOL    HW2 7842   5.453   0.093   5.254
 2315SOL     OW 7843   4.471   3.171   5.389
 2315SOL    HW1 7844   4.392   3.121   5.425
 2315SOL    HW2 7845   4.555   3.124   5.415
 2316SOL     OW 7846   3.188   0.682   4.571
 2316SOL    HW1 7847   3.117   0.682   4.641
 2316SOL    HW2 7848   3.160   0.739   4.495
 2317SOL     OW 7849   0.240   6.345   3.303
 2317SOL    HW1 7850   0.209   6.440   3.295
 2317SOL    HW2 7851   0.257   6.308   3.212
 2318SOL     OW 7852   2.287   2.892   4.548
 2318SOL    HW1 7853   2.318   2.818   4.489
 2318SOL    HW2 7854   2.359   2.914   4.615
 2319SOL     OW 7855   2.348   5.290   4.088
 2319SOL    HW1 7856   2.266   5.321   4.135
 2319SOL    HW2 7857   2.334   5.197   4.054
 2320SOL     OW 7858   0.557   2.869   4.858
 2320SOL    HW1 7859   0.490   2.796   4.848
 2320SOL    HW2 7860   0.540   2.940   4.790
 2321SOL     OW 7861   2.098   6.503   6.921
 2321SOL    HW1 7862   2.080   6.448   6.839
 2321SOL    HW2 7863   2.066   6.454   7.002
 2322SOL     OW 7864   1.350   2.969   4.060
 2322SOL    HW1 7865   1.318   2.988   3.967
 2322SOL    HW2 7866   1.271   2.958   4.121
 2323SOL     OW 7867   3.476   5.403   1.674
 2323SOL    HW1 7868   3.528   5.345   1.737
 2323SOL    HW2 7869   3.491   5.371   1.580
 2324SOL     OW 7870   6.984   5.975   0.877
 2324SOL    HW1 7871   6.997   5.889   0.827
 2324SOL    HW2 7872   6.902   6.021   0.843
 2325SOL     OW 7873   0.981   4.899   1.605
 2325SOL    HW1 7874   0.918   4.830   1.641
 2325SOL    HW2 7875   0.933   4.956   1.539
 2326SOL     OW 7876   4.011   5.251   6.122
 2326SOL    HW1 7877   4.065   5.265   6.205
 2326SOL    HW2 7878   3.943   5.324   6.114
 2327SOL     OW 7879   6.599   2.048   4.098
 2327SOL    HW1 7880   6.544   2.101   4.162
 2327SOL    HW2 7881   6.688   2.091   4.085
 2328SOL     OW 7882   2.111   1.815   3.066
 2328SOL    HW1 7883   2.042   1.887   3.065
 2328SOL    HW2 7884   2.066   1.726   3.072
 2329SOL     OW 7885   1.221   4.502   4.541
 2329SOL    HW1 7886   1.249   4.570   4.473
 2329SOL    HW2 7887   1.290   4.431   4.548
 2330SOL     OW 7888   1.355   3.683   1.532
 2330SOL    HW1 7889   1.348   3.732   1.445
 2330SOL    HW2 7890   1.436   3.714   1.581
 2331SOL     OW 7891   3.957   5.611   6.563
 2331SOL    HW1 7892   4.039   5.644   6.517
 2331SOL    HW2 7893   3.983   5.557   6.644
 2332SOL     OW 7894   5.359   1.446   5.785
 2332SOL    HW1 7895   5.397   1.487   5.867
 2332SOL    HW2 7896   5.268   1.485   5.767
 2333SOL     OW 7897   0.233   4.951   3.173
 2333SOL    HW1 7898   0.141   4.922   3.151
 2333SOL    HW2 7899   0.297   4.914   3.106
 2334SOL     OW 7900   2.118   0.413   0.366
 2334SOL    HW1 7901   2.148   0.375   0.279
 2334SOL    HW2 7902   2.175   0.492   0.390
 2335SOL     OW 7903   6.755   0.550   2.917
 2335SOL    HW1 7904   6.761   0.602   3.003
 2335SOL    HW2 7905   6.812   0.594   2.848
 2336SOL     OW 7906   4.543   2.593   5.144
 2336SOL    HW1 7907   4.480   2.658   5.102
 2336SOL    HW2 7908   4.531   2.594   5.244
 2337SOL     OW 7909   4.625   1.178   2.154
 2337SOL    HW1 7910   4.595   1.272   2.170
 2337SOL    HW2 7911   4.656   1.137   2.240
 2338SOL     OW 7912   1.011   2.379   5.742
 2338SOL    HW1 7913   1.047   2.393   5.650
 2338SOL    HW2 7914   1.040   2.290   5.776
 2339SOL     OW 7915   3.317   3.781   4.507
 2339SOL    HW1 7916   3.230   3.755   4.463
 2339SOL    HW2 7917   3.372   3.833   4.443
 2340SOL     OW 7918   6.173   4.374   0.579
 2340SOL    HW1 7919   6.146   4.421   0.495
 2340SOL    HW2 7920   6.143   4.279   0.574
 2341SOL     OW 7921   4.342   4.574   1.463
 2341SOL    HW1 7922   4.432   4.531   1.460
 2341SOL    HW2 7923   4.349   4.669   1.432
 2342SOL     OW 7924   0.226   0.100   5.449
 2342SOL    HW1 7925   0.157   0.119   5.379
 2342SOL    HW2 7926   0.186   0.042   5.520
 2343SOL     OW 7927   2.265   5.848   2.935
 2343SOL    HW1 7928   2.295   5.887   3.022
 2343SOL    HW2 7929   2.179   5.891   2.907
 2344SOL     OW 7930   1.992   6.385   0.142
 2344SOL    HW1 7931   1.893   6.376   0.140
 2344SOL    HW2 7932   2.016   6.470   0.189
 2345SOL     OW 7933   3.648   5.671   4.634
 2345SOL    HW1 7934   3.666   5.753   4.578
 2345SOL    HW2 7935   3.555   5.675   4.669
 2346SOL     OW 7936   4.237   3.022   5.490
 2346SOL    HW1 7937   4.286   2.934   5.493
 2346SOL    HW2 7938   4.196   3.039   5.579
 2347SOL     OW 7939   2.640   2.879   1.632
 2347SOL    HW1 7940   2.703   2.941   1.678
 2347SOL    HW2 7941   2.625   2.798   1.689
 2348SOL     OW 7942   2.727   0.111   3.868
 2348SOL    HW1 7943   2.805   0.052   3.849
 2348SOL    HW2 7944   2.651   0.088   3.807
 2349SOL     OW 7945   0.612   4.081   6.334
 2349SOL    HW1 7946   0.597   4.083   6.235
 2349SOL    HW2 7947   0.600   3.988   6.368
 2350SOL     OW 7948   4.454   6.843   6.308
 2350SOL    HW1 7949   4.535   6.793   6.278
 2350SOL    HW2 7950   4.372   6.795   6.278
 2351SOL     OW 7951   2.559   5.370   3.895
 2351SOL    HW1 7952   2.538   5.317   3.813
 2351SOL    HW2 7953   2.505   5.337   3.972
 2352SOL     OW 7954   0.776   5.489   2.265
 2352SOL    HW1 7955   0.865   5.482   2.219
 2352SOL    HW2 7956   0.747   5.584   2.268
 2353SOL     OW 7957   3.028   4.379   5.949
 2353SOL    HW1 7958   3.064   4.379   5.856
 2353SOL    HW2 7959   2.943   4.326   5.951
 2354SOL     OW 7960   3.095   1.470   5.685
 2354SOL    HW1 7961   3.015   1.517   5.648
 2354SOL    HW2 7962   3.114   1.388   5.631
 2355SOL     OW 7963   2.558   5.607   0.372
 2355SOL    HW1 7964   2.635   5.549   0.346
 2355SOL    HW2 7965   2.509   5.564   0.448
 2356SOL     OW 7966   1.535   3.663   7.001
 2356SOL    HW1 7967   1.468   3.592   7.026
 2356SOL    HW2 7968   1.589   3.633   6.923
 2357SOL     OW 7969   4.541   6.663   2.914
 2357SOL    HW1 7970   4.612   6.732   2.899
 2357SOL    HW2 7971   4.505   6.634   2.825
 2358SOL     OW 7972   4.073   5.123   5.194
 2358SOL    HW1 7973   4.064   5.029   5.162
 2358SOL    HW2 7974   4.077   5.184   5.115
 2359SOL     OW 7975   6.243   1.034   6.166
 2359SOL    HW1 7976   6.148   1.027   6.136
 2359SOL    HW2 7977   6.290   1.102   6.111
 2360SOL     OW 7978   5.721   4.715   0.150
 2360SOL    HW1 7979   5.736   4.787   0.083
 2360SOL    HW2 7980   5.794   4.646   0.142
 2361SOL     OW 7981   2.291   0.667   4.603
 2361SOL    HW1 7982   2.243   0.591   4.647
 2361SOL    HW2 7983   2.316   0.735   4.671
 2362SOL     OW 7984   2.350   0.320   5.147
 2362SOL    HW1 7985   2.298   0.302   5.064
 2362SOL    HW2 7986   2.326   0.410   5.183
 2363SOL     OW 7987   4.489   2.273   5.288
 2363SOL    HW1 7988   4.528   2.183   5.266
 2363SOL    HW2 7989   4.542   2.314   5.363
 2364SOL     OW 7990   0.918   1.682   2.140
 2364SOL    HW1 7991   1.011   1.702   2.109
 2364SOL    HW2 7992   0.862   1.764   2.134
 2365SOL     OW 7993   6.647   2.729   6.363
 2365SOL    HW1 7994   6.601   2.662   6.422
 2365SOL    HW2 7995   6.579   2.775   6.306
 2366SOL     OW 7996   1.114   5.301   6.179
 2366SOL    HW1 7997   1.203   5.280   6.219
 2366SOL    HW2 7998   1.053   5.339   6.249
 2367SOL     OW 7999   3.148   4.680   0.544
 2367SOL    HW1 8000   3.106   4.769   0.526
 2367SOL    HW2 8001   3.231   4.671   0.490
 2368SOL     OW 8002   4.618   0.071   3.011
 2368SOL    HW1 8003   4.557   0.051   3.087
 2368SOL    HW2 8004   4.641   0.168   3.011
 2369SOL     OW 8005   0.882   2.418   5.982
 2369SOL    HW1 8006   0.922   2.416   5.891
 2369SOL    HW2 8007   0.946   2.378   6.048
 2370SOL     OW 8008   5.108   3.594   0.037
 2370SOL    HW1 8009   5.142   3.637   0.121
 2370SOL    HW2 8010   5.014   3.624   0.021
 2371SOL     OW 8011   0.360   6.828   2.176
 2371SOL    HW1 8012   0.395   6.745   2.133
 2371SOL    HW2 8013   0.422   6.858   2.248
 2372SOL     OW 8014   6.665   2.347   1.974
 2372SOL    HW1 8015   6.724   2.266   1.971
 2372SOL    HW2 8016   6.599   2.337   2.048
 2373SOL     OW 8017   0.490   1.201   0.219
 2373SOL    HW1 8018   0.508   1.148   0.135
 2373SOL    HW2 8019   0.473   1.138   0.294
 2374SOL     OW 8020   6.361   1.107   3.700
 2374SOL    HW1 8021   6.388   1.203   3.705
 2374SOL    HW2 8022   6.442   1.049   3.698
 2375SOL     OW 8023   2.560   0.051   4.703
 2375SOL    HW1 8024   2.600   6.990   4.687
 2375SOL    HW2 8025   2.472   0.057   4.655
 2376SOL     OW 8026   6.302   2.289   4.132
 2376SOL    HW1 8027   6.347   2.291   4.221
 2376SOL    HW2 8028   6.281   2.194   4.108
 2377SOL     OW 8029   3.547   4.114   2.990
 2377SOL    HW1 8030   3.613   4.113   2.915
 2377SOL    HW2 8031   3.454   4.106   2.952
 2378SOL     OW 8032   5.140   2.777   0.005
 2378SOL    HW1 8033   5.122   2.838   6.957
 2378SOL    HW2 8034   5.228   2.800   0.046
 2379SOL     OW 8035   5.541   2.593   6.980
 2379SOL    HW1 8036   5.455   2.544   6.962
 2379SOL    HW2 8037   5.520   2.688   7.004
 2380SOL     OW 8038   0.602   0.361   5.182
 2380SOL    HW1 8039   0.553   0.342   5.267
 2380SOL    HW2 8040   0.537   0.364   5.106
 2381SOL     OW 8041   1.815   3.611   4.167
 2381SOL    HW1 8042   1.794   3.517   4.138
 2381SOL    HW2 8043   1.911   3.615   4.196
 2382SOL     OW 8044   2.418   4.466   3.591
 2382SOL    HW1 8045   2.498   4.409   3.610
 2382SOL    HW2 8046   2.355   4.416   3.531
 2383SOL     OW 8047   6.026   6.546   0.912
 2383SOL    HW1 8048   6.088   6.472   0.938
 2383SOL    HW2 8049   6.036   6.623   0.975
 2384SOL     OW 8050   6.347   6.814   2.371
 2384SOL    HW1 8051   6.355   6.836   2.274
 2384SOL    HW2 8052   6.344   6.715   2.383
 2385SOL     OW 8053   0.631   6.457   1.026
 2385SOL    HW1 8054   0.617   6.483   1.122
 2385SOL    HW2 8055   0.551   6.484   0.973
 2386SOL     OW 8056   5.105   5.333   3.880
 2386SOL    HW1 8057   5.176   5.342   3.950
 2386SOL    HW2 8058   5.035   5.403   3.896
 2387SOL     OW 8059   1.032   1.379   3.590
 2387SOL    HW1 8060   1.089   1.350   3.667
 2387SOL    HW2 8061   1.058   1.472   3.563
 2388SOL     OW 8062   1.467   2.239   3.600
 2388SOL    HW1 8063   1.510   2.304   3.663
 2388SOL    HW2 8064   1.520   2.236   3.515
 2389SOL     OW 8065   4.854   3.877   2.821
 2389SOL    HW1 8066   4.875   3.849   2.915
 2389SOL    HW2 8067   4.810   3.967   2.823
 2390SOL     OW 8068   4.020   3.857   3.253
 2390SOL    HW1 8069   4.016   3.763   3.289
 2390SOL    HW2 8070   4.107   3.899   3.280
 2391SOL     OW 8071   4.967   4.637   5.676
 2391SOL    HW1 8072   5.041   4.677   5.728
 2391SOL    HW2 8073   4.945   4.546   5.713
 2392SOL     OW 8074   3.592   6.974   5.411
 2392SOL    HW1 8075   3.652   6.899   5.440
 2392SOL    HW2 8076   3.631   7.018   5.330
 2393SOL     OW 8077   4.823   4.327   6.177
 2393SOL    HW1 8078   4.793   4.322   6.272
 2393SOL    HW2 8079   4.881   4.249   6.156
 2394SOL     OW 8080   1.859   2.971   4.483
 2394SOL    HW1 8081   1.774   2.919   4.469
 2394SOL    HW2 8082   1.920   2.957   4.405
 2395SOL     OW 8083   6.338   2.837   6.856
 2395SOL    HW1 8084   6.357   2.743   6.830
 2395SOL    HW2 8085   6.316   2.841   6.954
 2396SOL     OW 8086   4.177   5.178   1.292
 2396SOL    HW1 8087   4.242   5.239   1.338
 2396SOL    HW2 8088   4.111   5.144   1.358
 2397SOL     OW 8089   0.513   4.147   0.008
 2397SOL    HW1 8090   0.558   4.143   6.948
 2397SOL    HW2 8091   0.577   4.182   0.077
 2398SOL     OW 8092   3.133   3.785   6.448
 2398SOL    HW1 8093   3.202   3.773   6.519
 2398SOL    HW2 8094   3.069   3.857   6.475
 2399SOL     OW 8095   4.797   1.409   2.511
 2399SOL    HW1 8096   4.793   1.501   2.471
 2399SOL    HW2 8097   4.715   1.394   2.568
 2400SOL     OW 8098   3.646   4.804   0.184
 2400SOL    HW1 8099   3.740   4.825   0.212
 2400SOL    HW2 8100   3.627   4.707   0.199
 2401SOL     OW 8101   3.755   6.626   6.784
 2401SOL    HW1 8102   3.722   6.716   6.813
 2401SOL    HW2 8103   3.854   6.623   6.794
 2402SOL     OW 8104   0.288   0.693   3.955
 2402SOL    HW1 8105   0.303   0.693   3.856
 2402SOL    HW2 8106   0.276   0.787   3.986
 2403SOL     OW 8107   2.235   2.374   0.840
 2403SOL    HW1 8108   2.260   2.351   0.745
 2403SOL    HW2 8109   2.318   2.396   0.892
 2404SOL     OW 8110   4.932   1.326   1.128
 2404SOL    HW1 8111   5.012   1.377   1.159
 2404SOL    HW2 8112   4.942   1.229   1.152
 2405SOL     OW 8113   3.877   3.575   2.921
 2405SOL    HW1 8114   3.900   3.482   2.893
 2405SOL    HW2 8115   3.937   3.640   2.874
 2406SOL     OW 8116   2.669   6.378   3.350
 2406SOL    HW1 8117   2.570   6.375   3.363
 2406SOL    HW2 8118   2.692   6.343   3.259
 2407SOL     OW 8119   5.144   2.140   2.408
 2407SOL    HW1 8120   5.055   2.183   2.425
 2407SOL    HW2 8121   5.210   2.210   2.382
 2408SOL     OW 8122   4.366   4.766   3.751
 2408SOL    HW1 8123   4.378   4.819   3.835
 2408SOL    HW2 8124   4.443   4.704   3.739
 2409SOL     OW 8125   1.228   3.566   1.777
 2409SOL    HW1 8126   1.167   3.488   1.793
 2409SOL    HW2 8127   1.220   3.595   1.682
 2410SOL     OW 8128   5.213   2.597   6.274
 2410SOL    HW1 8129   5.270   2.634   6.201
 2410SOL    HW2 8130   5.271   2.564   6.348
 2411SOL     OW 8131   4.220   5.195   5.664
 2411SOL    HW1 8132   4.284   5.272   5.657
 2411SOL    HW2 8133   4.209   5.170   5.761
 2412SOL     OW 8134   4.206   4.763   0.990
 2412SOL    HW1 8135   4.271   4.727   0.923
 2412SOL    HW2 8136   4.246   4.842   1.036
 2413SOL     OW 8137   6.355   2.242   0.616
 2413SOL    HW1 8138   6.325   2.281   0.703
 2413SOL    HW2 8139   6.330   2.145   0.613
 2414SOL     OW 8140   4.783   4.124   2.264
 2414SOL    HW1 8141   4.777   4.038   2.316
 2414SOL    HW2 8142   4.787   4.104   2.167
 2415SOL     OW 8143   6.859   6.879   1.733
 2415SOL    HW1 8144   6.802   6.905   1.655
 2415SOL    HW2 8145   6.824   6.923   1.816
 2416SOL     OW 8146   4.141   2.179   5.243
 2416SOL    HW1 8147   4.055   2.224   5.266
 2416SOL    HW2 8148   4.123   2.099   5.186
 2417SOL     OW 8149   3.898   3.764   6.074
 2417SOL    HW1 8150   3.901   3.815   5.988
 2417SOL    HW2 8151   3.819   3.793   6.128
 2418SOL     OW 8152   3.303   4.160   3.637
 2418SOL    HW1 8153   3.277   4.257   3.642
 2418SOL    HW2 8154   3.304   4.121   3.729
 2419SOL     OW 8155   1.023   5.999   4.470
 2419SOL    HW1 8156   1.058   5.918   4.424
 2419SOL    HW2 8157   1.054   6.081   4.421
 2420SOL     OW 8158   3.197   1.567   1.722
 2420SOL    HW1 8159   3.294   1.556   1.702
 2420SOL    HW2 8160   3.155   1.478   1.733
 2421SOL     OW 8161   3.049   1.371   5.188
 2421SOL    HW1 8162   3.056   1.470   5.182
 2421SOL    HW2 8163   2.990   1.345   5.264
 2422SOL     OW 8164   5.696   0.141   1.639
 2422SOL    HW1 8165   5.711   0.042   1.628
 2422SOL    HW2 8166   5.758   0.176   1.709
 2423SOL     OW 8167   1.437   6.538   3.748
 2423SOL    HW1 8168   1.476   6.538   3.840
 2423SOL    HW2 8169   1.502   6.579   3.683
 2424SOL     OW 8170   6.092   6.413   6.430
 2424SOL    HW1 8171   6.030   6.479   6.387
 2424SOL    HW2 8172   6.133   6.454   6.512
 2425SOL     OW 8173   6.582   0.352   4.123
 2425SOL    HW1 8174   6.524   0.282   4.165
 2425SOL    HW2 8175   6.651   0.307   4.065
 2426SOL     OW 8176   1.393   5.558   4.455
 2426SOL    HW1 8177   1.470   5.538   4.394
 2426SOL    HW2 8178   1.340   5.475   4.469
 2427SOL     OW 8179   5.727   5.157   5.993
 2427SOL    HW1 8180   5.661   5.231   6.005
 2427SOL    HW2 8181   5.817   5.187   6.026
 2428SOL     OW 8182   6.326   0.227   3.404
 2428SOL    HW1 8183   6.291   0.171   3.329
 2428SOL    HW2 8184   6.387   0.171   3.460
 2429SOL     OW 8185   5.936   5.147   3.929
 2429SOL    HW1 8186   5.943   5.217   3.858
 2429SOL    HW2 8187   6.008   5.161   3.997
 2430SOL     OW 8188   6.184   1.779   1.310
 2430SOL    HW1 8189   6.110   1.713   1.323
 2430SOL    HW2 8190   6.252   1.742   1.247
 2431SOL     OW 8191   4.216   0.874   2.211
 2431SOL    HW1 8192   4.280   0.825   2.269
 2431SOL    HW2 8193   4.127   0.880   2.257
 2432SOL     OW 8194   3.500   6.761   3.250
 2432SOL    HW1 8195   3.599   6.754   3.261
 2432SOL    HW2 8196   3.456   6.767   3.339
 2433SOL     OW 8197   3.456   0.516   1.466
 2433SOL    HW1 8198   3.396   0.595   1.481
 2433SOL    HW2 8199   3.414   0.434   1.505
 2434SOL     OW 8200   4.265   0.784   5.139
 2434SOL    HW1 8201   4.248   0.739   5.227
 2434SOL    HW2 8202   4.206   0.745   5.069
 2435SOL     OW 8203   4.080   4.525   6.245
 2435SOL    HW1 8204   4.109   4.616   6.273
 2435SOL    HW2 8205   4.075   4.521   6.145
 2436SOL     OW 8206   1.876   6.179   1.424
 2436SOL    HW1 8207   1.970   6.202   1.398
 2436SOL    HW2 8208   1.876   6.146   1.519
 2437SOL     OW 8209   4.844   6.031   0.263
 2437SOL    HW1 8210   4.820   5.939   0.294
 2437SOL    HW2 8211   4.936   6.030   0.225
 2438SOL     OW 8212   3.722   1.156   5.929
 2438SOL    HW1 8213   3.817   1.187   5.938
 2438SOL    HW2 8214   3.721   1.060   5.903
 2439SOL     OW 8215   1.006   4.441   6.259
 2439SOL    HW1 8216   0.927   4.448   6.199
 2439SOL    HW2 8217   0.978   4.456   6.354
 2440SOL     OW 8218   5.651   5.755   5.973
 2440SOL    HW1 8219   5.716   5.794   5.908
 2440SOL    HW2 8220   5.648   5.812   6.055
 2441SOL     OW 8221   0.446   0.294   0.323
 2441SOL    HW1 8222   0.522   0.340   0.277
 2441SOL    HW2 8223   0.403   0.229   0.260
 2442SOL     OW 8224   6.626   4.722   4.458
 2442SOL    HW1 8225   6.528   4.744   4.462
 2442SOL    HW2 8226   6.638   4.626   4.436
 2443SOL     OW 8227   4.281   6.124   5.542
 2443SOL    HW1 8228   4.351   6.144   5.610
 2443SOL    HW2 8229   4.323   6.078   5.463
 2444SOL     OW 8230   3.106   4.119   6.087
 2444SOL    HW1 8231   3.197   4.117   6.044
 2444SOL    HW2 8232   3.036   4.118   6.016
 2445SOL     OW 8233   0.093   0.452   2.126
 2445SOL    HW1 8234   0.051   0.458   2.035
 2445SOL    HW2 8235   0.021   0.459   2.196
 2446SOL     OW 8236   0.470   4.528   3.953
 2446SOL    HW1 8237   0.474   4.597   3.881
 2446SOL    HW2 8238   0.480   4.437   3.913
 2447SOL     OW 8239   2.767   2.295   0.820
 2447SOL    HW1 8240   2.767   2.360   0.896
 2447SOL    HW2 8241   2.822   2.332   0.745
 2448SOL     OW 8242   0.450   0.349   4.953
 2448SOL    HW1 8243   0.430   0.430   4.898
 2448SOL    HW2 8244   0.427   0.266   4.901
 2449SOL     OW 8245   0.313   5.103   1.236
 2449SOL    HW1 8246   0.223   5.125   1.273
 2449SOL    HW2 8247   0.350   5.022   1.282
 2450SOL     OW 8248   2.664   4.625   3.330
 2450SOL    HW1 8249   2.612   4.541   3.315
 2450SOL    HW2 8250   2.732   4.636   3.257
 2451SOL     OW 8251   0.739   7.003   3.536
 2451SOL    HW1 8252   0.779   7.012   3.627
 2451SOL    HW2 8253   0.654   0.027   3.531
 2452SOL     OW 8254   1.556   3.323   2.757
 2452SOL    HW1 8255   1.652   3.339   2.782
 2452SOL    HW2 8256   1.504   3.301   2.839
 2453SOL     OW 8257   5.835   4.015   0.737
 2453SOL    HW1 8258   5.853   4.049   0.829
 2453SOL    HW2 8259   5.838   3.915   0.737
 2454SOL     OW 8260   3.231   1.082   0.888
 2454SOL    HW1 8261   3.238   1.156   0.822
 2454SOL    HW2 8262   3.142   1.087   0.934
 2455SOL     OW 8263   5.495   6.209   0.706
 2455SOL    HW1 8264   5.514   6.153   0.626
 2455SOL    HW2 8265   5.579   6.257   0.733
 2456SOL     OW 8266   5.676   6.756   0.776
 2456SOL    HW1 8267   5.604   6.808   0.730
 2456SOL    HW2 8268   5.700   6.800   0.863
 2457SOL     OW 8269   7.029   6.197   0.672
 2457SOL    HW1 8270   7.017   6.136   0.749
 2457SOL    HW2 8271   7.004   6.290   0.699
 2458SOL     OW 8272   2.925   6.035   3.477
 2458SOL    HW1 8273   3.002   5.971   3.477
 2458SOL    HW2 8274   2.840   5.986   3.499
 2459SOL     OW 8275   2.711   6.776   0.484
 2459SOL    HW1 8276   2.801   6.760   0.525
 2459SOL    HW2 8277   2.659   6.840   0.540
 2460SOL     OW 8278   1.950   0.514   1.281
 2460SOL    HW1 8279   2.028   0.455   1.259
 2460SOL    HW2 8280   1.906   0.480   1.365
 2461SOL     OW 8281   4.661   0.686   2.841
 2461SOL    HW1 8282   4.698   0.653   2.754
 2461SOL    HW2 8283   4.575   0.735   2.825
 2462SOL     OW 8284   2.274   5.341   6.860
 2462SOL    HW1 8285   2.338   5.400   6.910
 2462SOL    HW2 8286   2.240   5.390   6.779
 2463SOL     OW 8287   5.898   2.627   4.178
 2463SOL    HW1 8288   5.927   2.719   4.152
 2463SOL    HW2 8289   5.977   2.566   4.180
 2464SOL     OW 8290   1.243   5.022   1.650
 2464SOL    HW1 8291   1.145   5.022   1.669
 2464SOL    HW2 8292   1.258   5.018   1.552
 2465SOL     OW 8293   6.956   5.351   1.271
 2465SOL    HW1 8294   0.025   5.359   1.252
 2465SOL    HW2 8295   6.932   5.254   1.284
 2466SOL     OW 8296   3.413   0.730   1.742
 2466SOL    HW1 8297   3.367   0.808   1.699
 2466SOL    HW2 8298   3.380   0.720   1.836
 2467SOL     OW 8299   5.840   1.085   5.691
 2467SOL    HW1 8300   5.887   1.168   5.719
 2467SOL    HW2 8301   5.815   1.031   5.772
 2468SOL     OW 8302   6.428   6.085   1.834
 2468SOL    HW1 8303   6.407   6.181   1.816
 2468SOL    HW2 8304   6.353   6.043   1.884
 2469SOL     OW 8305   3.772   4.646   5.444
 2469SOL    HW1 8306   3.687   4.623   5.397
 2469SOL    HW2 8307   3.753   4.668   5.540
 2470SOL     OW 8308   2.970   3.978   6.516
 2470SOL    HW1 8309   2.984   4.052   6.451
 2470SOL    HW2 8310   2.948   4.015   6.606
 2471SOL     OW 8311   2.111   6.885   1.284
 2471SOL    HW1 8312   2.170   6.808   1.307
 2471SOL    HW2 8313   2.147   6.969   1.325
 2472SOL     OW 8314   5.782   1.622   4.760
 2472SOL    HW1 8315   5.725   1.698   4.730
 2472SOL    HW2 8316   5.743   1.535   4.728
 2473SOL     OW 8317   2.183   4.217   4.434
 2473SOL    HW1 8318   2.255   4.259   4.379
 2473SOL    HW2 8319   2.206   4.225   4.531
 2474SOL     OW 8320   7.020   5.299   0.152
 2474SOL    HW1 8321   0.043   5.272   0.233
 2474SOL    HW2 8322   6.959   5.375   0.175
 2475SOL     OW 8323   4.655   1.894   0.713
 2475SOL    HW1 8324   4.657   1.816   0.776
 2475SOL    HW2 8325   4.689   1.975   0.760
 2476SOL     OW 8326   0.219   2.544   3.219
 2476SOL    HW1 8327   0.275   2.584   3.146
 2476SOL    HW2 8328   0.240   2.591   3.305
 2477SOL     OW 8329   6.170   0.237   2.046
 2477SOL    HW1 8330   6.080   0.232   2.090
 2477SOL    HW2 8331   6.208   0.146   2.038
 2478SOL     OW 8332   5.243   6.580   2.845
 2478SOL    HW1 8333   5.162   6.638   2.843
 2478SOL    HW2 8334   5.236   6.515   2.920
 2479SOL     OW 8335   0.594   3.299   1.420
 2479SOL    HW1 8336   0.610   3.203   1.399
 2479SOL    HW2 8337   0.499   3.322   1.398
 2480SOL     OW 8338   6.743   2.559   0.922
 2480SOL    HW1 8339   6.768   2.503   1.001
 2480SOL    HW2 8340   6.732   2.500   0.842
 2481SOL     OW 8341   3.374   6.003   0.334
 2481SOL    HW1 8342   3.450   5.964   0.282
 2481SOL    HW2 8343   3.383   5.977   0.430
 2482SOL     OW 8344   4.322   2.951   5.836
 2482SOL    HW1 8345   4.318   2.877   5.903
 2482SOL    HW2 8346   4.414   2.990   5.835
 2483SOL     OW 8347   2.167   1.284   0.636
 2483SOL    HW1 8348   2.092   1.249   0.692
 2483SOL    HW2 8349   2.232   1.334   0.694
 2484SOL     OW 8350   1.909   0.574   0.563
 2484SOL    HW1 8351   2.001   0.570   0.602
 2484SOL    HW2 8352   1.886   0.669   0.540
 2485SOL     OW 8353   4.993   5.102   3.144
 2485SOL    HW1 8354   5.026   5.172   3.079
 2485SOL    HW2 8355   4.994   5.140   3.236
 2486SOL     OW 8356   2.300   6.058   2.315
 2486SOL    HW1 8357   2.248   6.143   2.326
 2486SOL    HW2 8358   2.255   5.984   2.366
 2487SOL     OW 8359   3.934   6.089   0.644
 2487SOL    HW1 8360   3.993   6.087   0.725
 2487SOL    HW2 8361   3.856   6.148   0.662
 2488SOL     OW 8362   2.700   4.092   1.621
 2488SOL    HW1 8363   2.769   4.041   1.673
 2488SOL    HW2 8364   2.703   4.189   1.647
 2489SOL     OW 8365   2.492   4.879   4.160
 2489SOL    HW1 8366   2.428   4.954   4.176
 2489SOL    HW2 8367   2.573   4.913   4.112
 2490SOL     OW 8368   6.259   4.902   1.053
 2490SOL    HW1 8369   6.299   4.819   1.093
 2490SOL    HW2 8370   6.185   4.877   0.991
 2491SOL     OW 8371   2.915   5.957   3.173
 2491SOL    HW1 8372   2.954   6.026   3.233
 2491SOL    HW2 8373   2.987   5.920   3.113
 2492SOL     OW 8374   3.719   3.186   6.339
 2492SOL    HW1 8375   3.733   3.247   6.261
 2492SOL    HW2 8376   3.766   3.224   6.420
 2493SOL     OW 8377   6.060   0.114   3.004
 2493SOL    HW1 8378   5.965   0.100   3.033
 2493SOL    HW2 8379   6.122   0.090   3.080
 2494SOL     OW 8380   4.884   3.262   2.794
 2494SOL    HW1 8381   4.981   3.274   2.777
 2494SOL    HW2 8382   4.849   3.186   2.740
 2495SOL     OW 8383   5.257   1.009   5.248
 2495SOL    HW1 8384   5.255   0.910   5.240
 2495SOL    HW2 8385   5.346   1.037   5.285
 2496SOL     OW 8386   0.927   5.023   0.415
 2496SOL    HW1 8387   0.848   5.015   0.477
 2496SOL    HW2 8388   0.900   4.999   0.322
 2497SOL     OW 8389   0.185   1.659   0.166
 2497SOL    HW1 8390   0.182   1.583   0.100
 2497SOL    HW2 8391   0.270   1.654   0.218
 2498SOL     OW 8392   2.323   2.761   3.609
 2498SOL    HW1 8393   2.287   2.759   3.516
 2498SOL    HW2 8394   2.421   2.739   3.607
 2499SOL     OW 8395   5.339   0.946   4.571
 2499SOL    HW1 8396   5.359   1.037   4.536
 2499SOL    HW2 8397   5.420   0.887   4.559
 2500SOL     OW 8398   4.450   4.008   5.751
 2500SOL    HW1 8399   4.534   3.967   5.715
 2500SOL    HW2 8400   4.380   3.937   5.761
 2501SOL     OW 8401   6.348   4.858   6.922
 2501SOL    HW1 8402   6.357   4.817   7.013
 2501SOL    HW2 8403   6.383   4.795   6.854
 2502SOL     OW 8404   2.935   6.638   3.984
 2502SOL    HW1 8405   2.973   6.551   3.952
 2502SOL    HW2 8406   2.898   6.627   4.076
 2503SOL     OW 8407   3.836   5.771   5.859
 2503SOL    HW1 8408   3.749   5.745   5.819
 2503SOL    HW2 8409   3.820   5.826   5.941
 2504SOL     OW 8410   2.730   5.014   5.228
 2504SOL    HW1 8411   2.767   4.925   5.255
 2504SOL    HW2 8412   2.751   5.032   5.132
 2505SOL     OW 8413   3.887   5.800   4.752
 2505SOL    HW1 8414   3.827   5.750   4.690
 2505SOL    HW2 8415   3.870   5.898   4.743
 2506SOL     OW 8416   6.782   3.214   6.340
 2506SOL    HW1 8417   6.785   3.117   6.366
 2506SOL    HW2 8418   6.693   3.252   6.366
 2507SOL     OW 8419   5.632   4.975   0.448
 2507SOL    HW1 8420   5.559   5.038   0.422
 2507SOL    HW2 8421   5.705   5.025   0.494
 2508SOL     OW 8422   2.752   2.123   1.942
 2508SOL    HW1 8423   2.815   2.162   2.009
 2508SOL    HW2 8424   2.784   2.145   1.850
 2509SOL     OW 8425   5.580   1.859   2.344
 2509SOL    HW1 8426   5.633   1.860   2.259
 2509SOL    HW2 8427   5.554   1.953   2.367
 2510SOL     OW 8428   2.688   4.567   0.327
 2510SOL    HW1 8429   2.658   4.657   0.358
 2510SOL    HW2 8430   2.782   4.573   0.293
 2511SOL     OW 8431   1.448   1.417   4.883
 2511SOL    HW1 8432   1.464   1.323   4.916
 2511SOL    HW2 8433   1.503   1.433   4.802
 2512SOL     OW 8434   5.401   4.495   4.376
 2512SOL    HW1 8435   5.413   4.538   4.466
 2512SOL    HW2 8436   5.357   4.559   4.314
 2513SOL     OW 8437   0.682   2.527   6.169
 2513SOL    HW1 8438   0.686   2.624   6.194
 2513SOL    HW2 8439   0.761   2.503   6.113
 2514SOL     OW 8440   0.336   2.284   4.298
 2514SOL    HW1 8441   0.366   2.334   4.379
 2514SOL    HW2 8442   0.415   2.259   4.242
 2515SOL     OW 8443   1.273   6.733   0.991
 2515SOL    HW1 8444   1.193   6.770   0.946
 2515SOL    HW2 8445   1.249   6.703   1.084
 2516SOL     OW 8446   5.871   5.246   2.873
 2516SOL    HW1 8447   5.961   5.247   2.830
 2516SOL    HW2 8448   5.810   5.187   2.821
 2517SOL     OW 8449   2.457   4.544   6.410
 2517SOL    HW1 8450   2.395   4.467   6.403
 2517SOL    HW2 8451   2.544   4.522   6.365
 2518SOL     OW 8452   1.965   3.011   0.111
 2518SOL    HW1 8453   1.977   2.984   0.016
 2518SOL    HW2 8454   2.047   3.058   0.144
 2519SOL     OW 8455   4.530   5.207   4.261
 2519SOL    HW1 8456   4.557   5.178   4.170
 2519SOL    HW2 8457   4.596   5.273   4.297
 2520SOL     OW 8458   1.541   2.855   0.664
 2520SOL    HW1 8459   1.477   2.870   0.739
 2520SOL    HW2 8460   1.630   2.892   0.688
 2521SOL     OW 8461   0.899   0.168   5.788
 2521SOL    HW1 8462   0.888   0.070   5.803
 2521SOL    HW2 8463   0.820   0.204   5.738
 2522SOL     OW 8464   1.247   2.738   4.476
 2522SOL    HW1 8465   1.243   2.649   4.429
 2522SOL    HW2 8466   1.342   2.763   4.492
 2523SOL     OW 8467   6.938   3.129   1.029
 2523SOL    HW1 8468   6.923   3.032   1.050
 2523SOL    HW2 8469   6.926   3.144   0.931
 2524SOL     OW 8470   0.394   6.192   4.292
 2524SOL    HW1 8471   0.494   6.183   4.288
 2524SOL    HW2 8472   0.369   6.288   4.294
 2525SOL     OW 8473   1.028   4.060   4.189
 2525SOL    HW1 8474   1.103   3.995   4.197
 2525SOL    HW2 8475   0.995   4.085   4.280
 2526SOL     OW 8476   0.545   3.043   5.314
 2526SOL    HW1 8477   0.622   3.100   5.342
 2526SOL    HW2 8478   0.579   2.962   5.267
 2527SOL     OW 8479   6.073   6.559   5.371
 2527SOL    HW1 8480   6.029   6.641   5.408
 2527SOL    HW2 8481   6.026   6.477   5.404
 2528SOL     OW 8482   5.351   4.878   0.729
 2528SOL    HW1 8483   5.399   4.825   0.659
 2528SOL    HW2 8484   5.330   4.969   0.692
 2529SOL     OW 8485   4.687   4.966   5.885
 2529SOL    HW1 8486   4.680   4.905   5.964
 2529SOL    HW2 8487   4.618   4.942   5.818
 2530SOL     OW 8488   1.025   6.544   3.854
 2530SOL    HW1 8489   1.068   6.525   3.766
 2530SOL    HW2 8490   1.050   6.637   3.884
 2531SOL     OW 8491   5.562   6.564   4.935
 2531SOL    HW1 8492   5.482   6.533   4.883
 2531SOL    HW2 8493   5.571   6.509   5.018
 2532SOL     OW 8494   0.540   5.880   0.793
 2532SOL    HW1 8495   0.574   5.875   0.699
 2532SOL    HW2 8496   0.583   5.808   0.847
 2533SOL     OW 8497   5.248   6.530   4.506
 2533SOL    HW1 8498   5.231   6.506   4.602
 2533SOL    HW2 8499   5.163   6.558   4.462
 2534SOL     OW 8500   2.428   0.879   3.132
 2534SOL    HW1 8501   2.344   0.829   3.154
 2534SOL    HW2 8502   2.501   0.851   3.194
 2535SOL     OW 8503   1.870   2.009   5.595
 2535SOL    HW1 8504   1.907   1.920   5.622
 2535SOL    HW2 8505   1.770   2.004   5.592
 2536SOL     OW 8506   6.680   1.834   3.964
 2536SOL    HW1 8507   6.767   1.789   3.985
 2536SOL    HW2 8508   6.656   1.896   4.038
 2537SOL     OW 8509   5.025   6.804   0.616
 2537SOL    HW1 8510   4.990   6.881   0.562
 2537SOL    HW2 8511   4.949   6.756   0.660
 2538SOL     OW 8512   1.572   4.765   5.021
 2538SOL    HW1 8513   1.553   4.673   4.985
 2538SOL    HW2 8514   1.621   4.757   5.108
 2539SOL     OW 8515   4.448   6.956   5.444
 2539SOL    HW1 8516   4.417   6.878   5.389
 2539SOL    HW2 8517   4.465   6.927   5.538
 2540SOL     OW 8518   5.575   0.722   1.314
 2540SOL    HW1 8519   5.583   0.690   1.408
 2540SOL    HW2 8520   5.513   0.800   1.310
 2541SOL     OW 8521   1.626   0.553   5.359
 2541SOL    HW1 8522   1.677   0.637   5.377
 2541SOL    HW2 8523   1.652   0.516   5.270
 2542SOL     OW 8524   4.435   2.108   4.619
 2542SOL    HW1 8525   4.471   2.156   4.539
 2542SOL    HW2 8526   4.509   2.089   4.683
 2543SOL     OW 8527   1.476   0.400   2.983
 2543SOL    HW1 8528   1.463   0.413   3.082
 2543SOL    HW2 8529   1.423   0.470   2.934
 2544SOL     OW 8530   0.212   4.801   1.898
 2544SOL    HW1 8531   0.222   4.862   1.819
 2544SOL    HW2 8532   0.197   4.707   1.866
 2545SOL     OW 8533   1.937   2.027   1.000
 2545SOL    HW1 8534   1.911   1.956   1.065
 2545SOL    HW2 8535   1.865   2.038   0.932
 2546SOL     OW 8536   6.993   3.429   1.592
 2546SOL    HW1 8537   6.942   3.350   1.558
 2546SOL    HW2 8538   6.983   3.506   1.528
 2547SOL     OW 8539   5.410   5.239   0.980
 2547SOL    HW1 8540   5.398   5.337   0.997
 2547SOL    HW2 8541   5.343   5.188   1.034
 2548SOL     OW 8542   1.880   0.072   4.791
 2548SOL    HW1 8543   1.861   0.170   4.798
 2548SOL    HW2 8544   1.935   0.055   4.710
 2549SOL     OW 8545   1.893   2.516   1.884
 2549SOL    HW1 8546   1.840   2.451   1.830
 2549SOL    HW2 8547   1.989   2.488   1.885
 2550SOL     OW 8548   5.674   0.048   6.965
 2550SOL    HW1 8549   5.637   0.102   0.011
 2550SOL    HW2 8550   5.605   7.011   6.934
 2551SOL     OW 8551   3.537   4.547   0.180
 2551SOL    HW1 8552   3.573   4.458   0.208
 2551SOL    HW2 8553   3.550   4.560   0.082
 2552SOL     OW 8554   2.139   5.253   6.419
 2552SOL    HW1 8555   2.196   5.218   6.345
 2552SOL    HW2 8556   2.077   5.180   6.450
 2553SOL     OW 8557   3.735   2.381   6.122
 2553SOL    HW1 8558   3.834   2.387   6.131
 2553SOL    HW2 8559   3.707   2.285   6.121
 2554SOL     OW 8560   2.459   6.066   7.014
 2554SOL    HW1 8561   2.437   5.969   7.009
 2554SOL    HW2 8562   2.439   6.109   6.926
 2555SOL     OW 8563   6.460   6.343   6.597
 2555SOL    HW1 8564   6.409   6.291   6.665
 2555SOL    HW2 8565   6.423   6.323   6.506
 2556SOL     OW 8566   3.919   0.315   0.637
 2556SOL    HW1 8567   3.843   0.372   0.668
 2556SOL    HW2 8568   3.938   0.333   0.541
 2557SOL     OW 8569   3.084   1.074   6.967
 2557SOL    HW1 8570   3.110   1.009   0.009
 2557SOL    HW2 8571   3.100   1.167   6.999
 2558SOL     OW 8572   5.027   4.161   6.144
 2558SOL    HW1 8573   5.005   4.069   6.176
 2558SOL    HW2 8574   5.046   4.159   6.046
 2559SOL     OW 8575   6.843   3.450   3.568
 2559SOL    HW1 8576   6.848   3.544   3.600
 2559SOL    HW2 8577   6.913   3.435   3.498
 2560SOL     OW 8578   4.885   3.583   3.737
 2560SOL    HW1 8579   4.902   3.485   3.730
 2560SOL    HW2 8580   4.864   3.607   3.832
 2561SOL     OW 8581   3.992   1.063   3.459
 2561SOL    HW1 8582   3.896   1.093   3.455
 2561SOL    HW2 8583   3.996   0.967   3.486
 2562SOL     OW 8584   3.373   6.393   3.338
 2562SOL    HW1 8585   3.283   6.431   3.361
 2562SOL    HW2 8586   3.396   6.320   3.403
 2563SOL     OW 8587   3.451   1.777   6.576
 2563SOL    HW1 8588   3.403   1.864   6.562
 2563SOL    HW2 8589   3.531   1.773   6.516
 2564SOL     OW 8590   2.235   7.025   0.695
 2564SOL    HW1 8591   2.137   0.003   0.711
 2564SOL    HW2 8592   2.251   6.984   0.605
 2565SOL     OW 8593   0.548   1.221   6.434
 2565SOL    HW1 8594   0.488   1.142   6.447
 2565SOL    HW2 8595   0.494   1.305   6.441
 2566SOL     OW 8596   2.728   6.457   1.238
 2566SOL    HW1 8597   2.753   6.375   1.290
 2566SOL    HW2 8598   2.639   6.442   1.194
 2567SOL     OW 8599   2.095   1.276   0.938
 2567SOL    HW1 8600   2.018   1.230   0.896
 2567SOL    HW2 8601   2.077   1.374   0.943
 2568SOL     OW 8602   2.856   6.940   1.057
 2568SOL    HW1 8603   2.835   6.918   1.153
 2568SOL    HW2 8604   2.820   0.001   1.034
 2569SOL     OW 8605   3.184   1.887   1.391
 2569SOL    HW1 8606   3.190   1.788   1.380
 2569SOL    HW2 8607   3.161   1.909   1.486
 2570SOL     OW 8608   5.756   5.522   6.062
 2570SOL    HW1 8609   5.676   5.496   6.116
 2570SOL    HW2 8610   5.738   5.609   6.016
 2571SOL     OW 8611   3.713   2.831   5.039
 2571SOL    HW1 8612   3.751   2.853   5.129
 2571SOL    HW2 8613   3.782   2.849   4.968
 2572SOL     OW 8614   2.745   5.835   1.708
 2572SOL    HW1 8615   2.780   5.813   1.799
 2572SOL    HW2 8616   2.809   5.894   1.660
 2573SOL     OW 8617   6.552   2.300   3.789
 2573SOL    HW1 8618   6.583   2.391   3.816
 2573SOL    HW2 8619   6.595   2.275   3.702
 2574SOL     OW 8620   6.330   3.200   0.669
 2574SOL    HW1 8621   6.408   3.233   0.722
 2574SOL    HW2 8622   6.259   3.168   0.732
 2575SOL     OW 8623   5.071   3.801   1.122
 2575SOL    HW1 8624   5.067   3.800   1.222
 2575SOL    HW2 8625   5.158   3.763   1.092
 2576SOL     OW 8626   3.624   0.044   3.588
 2576SOL    HW1 8627   3.630   0.033   3.489
 2576SOL    HW2 8628   3.711   0.079   3.623
 2577SOL     OW 8629   3.895   0.661   4.061
 2577SOL    HW1 8630   3.880   0.659   4.159
 2577SOL    HW2 8631   3.953   0.583   4.035
 2578SOL     OW 8632   5.183   3.096   5.298
 2578SOL    HW1 8633   5.154   3.184   5.337
 2578SOL    HW2 8634   5.283   3.090   5.302
 2579SOL     OW 8635   1.087   1.503   5.668
 2579SOL    HW1 8636   1.042   1.531   5.583
 2579SOL    HW2 8637   1.174   1.551   5.678
 2580SOL     OW 8638   1.712   2.951   5.524
 2580SOL    HW1 8639   1.794   3.009   5.519
 2580SOL    HW2 8640   1.726   2.869   5.469
 2581SOL     OW 8641   5.502   4.785   1.643
 2581SOL    HW1 8642   5.597   4.764   1.667
 2581SOL    HW2 8643   5.466   4.713   1.584
 2582SOL     OW 8644   2.393   4.862   3.091
 2582SOL    HW1 8645   2.414   4.787   3.154
 2582SOL    HW2 8646   2.304   4.902   3.114
 2583SOL     OW 8647   1.145   0.926   1.443
 2583SOL    HW1 8648   1.227   0.886   1.404
 2583SOL    HW2 8649   1.096   0.857   1.497
 2584SOL     OW 8650   3.810   6.653   1.159
 2584SOL    HW1 8651   3.815   6.753   1.156
 2584SOL    HW2 8652   3.782   6.624   1.251
 2585SOL     OW 8653   3.342   0.528   0.818
 2585SOL    HW1 8654   3.306   0.604   0.872
 2585SOL    HW2 8655   3.406   0.475   0.874
 2586SOL     OW 8656   5.719   1.667   5.561
 2586SOL    HW1 8657   5.669   1.580   5.559
 2586SOL    HW2 8658   5.654   1.743   5.560
 2587SOL     OW 8659   6.807   0.200   4.334
 2587SOL    HW1 8660   6.848   0.110   4.347
 2587SOL    HW2 8661   6.850   0.245   4.255
 2588SOL     OW 8662   5.245   0.210   0.811
 2588SOL    HW1 8663   5.334   0.203   0.856
 2588SOL    HW2 8664   5.207   0.301   0.828
 2589SOL     OW 8665   6.951   6.834   5.168
 2589SOL    HW1 8666   7.019   6.801   5.103
 2589SOL    HW2 8667   6.861   6.835   5.124
 2590SOL     OW 8668   4.133   0.064   2.754
 2590SOL    HW1 8669   4.119   0.007   2.673
 2590SOL    HW2 8670   4.163   0.155   2.725
 2591SOL     OW 8671   5.885   6.111   1.074
 2591SOL    HW1 8672   5.850   6.020   1.097
 2591SOL    HW2 8673   5.870   6.130   0.977
 2592SOL     OW 8674   2.812   6.294   1.718
 2592SOL    HW1 8675   2.863   6.340   1.646
 2592SOL    HW2 8676   2.875   6.264   1.790
 2593SOL     OW 8677   3.908   6.786   2.362
 2593SOL    HW1 8678   3.957   6.761   2.278
 2593SOL    HW2 8679   3.973   6.798   2.436
 2594SOL     OW 8680   0.435   6.542   5.819
 2594SOL    HW1 8681   0.342   6.580   5.816
 2594SOL    HW2 8682   0.493   6.591   5.754
 2595SOL     OW 8683   0.222   2.378   5.423
 2595SOL    HW1 8684   0.127   2.360   5.397
 2595SOL    HW2 8685   0.227   2.395   5.521
 2596SOL     OW 8686   3.674   2.540   1.691
 2596SOL    HW1 8687   3.630   2.460   1.732
 2596SOL    HW2 8688   3.655   2.621   1.746
 2597SOL     OW 8689   1.984   4.139   1.015
 2597SOL    HW1 8690   1.961   4.236   1.012
 2597SOL    HW2 8691   1.989   4.103   0.922
 2598SOL     OW 8692   5.797   2.762   4.395
 2598SOL    HW1 8693   5.846   2.711   4.324
 2598SOL    HW2 8694   5.787   2.857   4.366
 2599SOL     OW 8695   3.917   5.847   6.712
 2599SOL    HW1 8696   3.944   5.765   6.663
 2599SOL    HW2 8697   3.831   5.881   6.674
 2600SOL     OW 8698   4.985   3.735   4.470
 2600SOL    HW1 8699   5.047   3.673   4.422
 2600SOL    HW2 8700   4.974   3.703   4.565
 2601SOL     OW 8701   3.617   2.503   6.659
 2601SOL    HW1 8702   3.531   2.482   6.614
 2601SOL    HW2 8703   3.684   2.432   6.638
 2602SOL     OW 8704   6.699   4.524   3.479
 2602SOL    HW1 8705   6.691   4.447   3.543
 2602SOL    HW2 8706   6.749   4.598   3.524
 2603SOL     OW 8707   2.381   2.391   1.419
 2603SOL    HW1 8708   2.460   2.427   1.368
 2603SOL    HW2 8709   2.303   2.385   1.357
 2604SOL     OW 8710   4.922   1.056   1.192
 2604SOL    HW1 8711   4.881   1.016   1.274
 2604SOL    HW2 8712   4.897   1.002   1.112
 2605SOL     OW 8713   4.177   4.906   3.143
 2605SOL    HW1 8714   4.118   4.916   3.223
 2605SOL    HW2 8715   4.244   4.981   3.142
 2606SOL     OW 8716   0.192   4.946   0.424
 2606SOL    HW1 8717   0.270   4.899   0.383
 2606SOL    HW2 8718   0.112   4.887   0.420
 2607SOL     OW 8719   0.888   1.643   5.187
 2607SOL    HW1 8720   0.943   1.594   5.119
 2607SOL    HW2 8721   0.892   1.741   5.169
 2608SOL     OW 8722   4.745   6.212   2.648
 2608SOL    HW1 8723   4.661   6.228   2.700
 2608SOL    HW2 8724   4.798   6.297   2.644
 2609SOL     OW 8725   1.066   2.434   1.790
 2609SOL    HW1 8726   1.147   2.376   1.785
 2609SOL    HW2 8727   1.092   2.525   1.821
 2610SOL     OW 8728   6.814   5.050   4.490
 2610SOL    HW1 8729   6.802   5.131   4.546
 2610SOL    HW2 8730   6.817   4.968   4.548
 2611SOL     OW 8731   6.097   6.654   1.342
 2611SOL    HW1 8732   6.190   6.632   1.316
 2611SOL    HW2 8733   6.058   6.718   1.275
 2612SOL     OW 8734   6.339   6.247   5.385
 2612SOL    HW1 8735   6.367   6.294   5.301
 2612SOL    HW2 8736   6.343   6.148   5.370
 2613SOL     OW 8737   3.170   6.196   2.628
 2613SOL    HW1 8738   3.085   6.197   2.682
 2613SOL    HW2 8739   3.245   6.166   2.686
 2614SOL     OW 8740   6.127   5.934   6.121
 2614SOL    HW1 8741   6.031   5.961   6.117
 2614SOL    HW2 8742   6.152   5.889   6.035
 2615SOL     OW 8743   5.753   5.092   3.428
 2615SOL    HW1 8744   5.769   5.129   3.337
 2615SOL    HW2 8745   5.748   4.992   3.423
 2616SOL     OW 8746   3.991   3.064   4.024
 2616SOL    HW1 8747   4.012   3.100   4.115
 2616SOL    HW2 8748   3.904   3.014   4.027
 2617SOL     OW 8749   2.957   5.837   1.281
 2617SOL    HW1 8750   2.996   5.893   1.208
 2617SOL    HW2 8751   2.869   5.800   1.252
 2618SOL     OW 8752   0.475   6.429   3.751
 2618SOL    HW1 8753   0.547   6.360   3.765
 2618SOL    HW2 8754   0.459   6.441   3.653
 2619SOL     OW 8755   3.555   1.201   2.390
 2619SOL    HW1 8756   3.609   1.126   2.427
 2619SOL    HW2 8757   3.527   1.262   2.464
 2620SOL     OW 8758   1.119   5.872   3.691
 2620SOL    HW1 8759   1.090   5.829   3.776
 2620SOL    HW2 8760   1.173   5.807   3.637
 2621SOL     OW 8761   1.729   5.720   3.573
 2621SOL    HW1 8762   1.739   5.815   3.545
 2621SOL    HW2 8763   1.759   5.660   3.499
 2622SOL     OW 8764   1.959   2.623   6.627
 2622SOL    HW1 8765   1.903   2.565   6.567
 2622SOL    HW2 8766   1.994   2.568   6.703
 2623SOL     OW 8767   4.210   1.559   4.916
 2623SOL    HW1 8768   4.299   1.513   4.919
 2623SOL    HW2 8769   4.224   1.656   4.894
 2624SOL     OW 8770   6.616   2.796   3.835
 2624SOL    HW1 8771   6.521   2.798   3.803
 2624SOL    HW2 8772   6.651   2.890   3.838
 2625SOL     OW 8773   1.895   2.982   5.263
 2625SOL    HW1 8774   1.960   2.974   5.187
 2625SOL    HW2 8775   1.943   3.012   5.345
 2626SOL     OW 8776   0.625   6.220   3.531
 2626SOL    HW1 8777   0.591   6.167   3.608
 2626SOL    HW2 8778   0.720   6.249   3.550
 2627SOL     OW 8779   0.275   0.730   4.437
 2627SOL    HW1 8780   0.316   0.802   4.493
 2627SOL    HW2 8781   0.335   0.649   4.439
 2628SOL     OW 8782   3.690   5.664   6.615
 2628SOL    HW1 8783   3.675   5.649   6.712
 2628SOL    HW2 8784   3.779   5.626   6.588
 2629SOL     OW 8785   3.655   3.890   2.028
 2629SOL    HW1 8786   3.592   3.815   2.009
 2629SOL    HW2 8787   3.673   3.894   2.127
 2630SOL     OW 8788   3.658   2.039   2.488
 2630SOL    HW1 8789   3.615   2.076   2.405
 2630SOL    HW2 8790   3.749   2.004   2.465
 2631SOL     OW 8791   4.368   6.688   3.618
 2631SOL    HW1 8792   4.334   6.780   3.598
 2631SOL    HW2 8793   4.468   6.686   3.606
 2632SOL     OW 8794   2.884   1.878   5.895
 2632SOL    HW1 8795   2.827   1.959   5.911
 2632SOL    HW2 8796   2.896   1.865   5.796
 2633SOL     OW 8797   6.662   2.501   6.017
 2633SOL    HW1 8798   6.675   2.448   6.101
 2633SOL    HW2 8799   6.749   2.510   5.970
 2634SOL     OW 8800   2.058   4.259   3.623
 2634SOL    HW1 8801   2.019   4.226   3.537
 2634SOL    HW2 8802   2.144   4.211   3.640
 2635SOL     OW 8803   5.216   5.724   3.931
 2635SOL    HW1 8804   5.283   5.655   3.958
 2635SOL    HW2 8805   5.180   5.702   3.840
 2636SOL     OW 8806   5.173   0.548   6.314
 2636SOL    HW1 8807   5.244   0.505   6.370
 2636SOL    HW2 8808   5.084   0.535   6.358
 2637SOL     OW 8809   6.374   0.749   3.520
 2637SOL    HW1 8810   6.422   0.836   3.510
 2637SOL    HW2 8811   6.429   0.686   3.576
 2638SOL     OW 8812   6.476   6.659   2.663
 2638SOL    HW1 8813   6.490   6.656   2.564
 2638SOL    HW2 8814   6.518   6.743   2.699
 2639SOL     OW 8815   6.691   6.493   1.755
 2639SOL    HW1 8816   6.631   6.464   1.681
 2639SOL    HW2 8817   6.768   6.545   1.718
 2640SOL     OW 8818   6.700   6.580   5.664
 2640SOL    HW1 8819   6.628   6.585   5.734
 2640SOL    HW2 8820   6.660   6.594   5.574
 2641SOL     OW 8821   6.092   2.992   1.315
 2641SOL    HW1 8822   6.160   3.056   1.279
 2641SOL    HW2 8823   6.138   2.906   1.341
 2642SOL     OW 8824   5.196   0.285   4.766
 2642SOL    HW1 8825   5.289   0.317   4.744
 2642SOL    HW2 8826   5.192   0.186   4.758
 2643SOL     OW 8827   0.832   4.892   3.209
 2643SOL    HW1 8828   0.765   4.956   3.171
 2643SOL    HW2 8829   0.839   4.906   3.308
 2644SOL     OW 8830   0.380   4.109   5.273
 2644SOL    HW1 8831   0.329   4.164   5.339
 2644SOL    HW2 8832   0.329   4.105   5.187
 2645SOL     OW 8833   4.616   6.700   5.535
 2645SOL    HW1 8834   4.568   6.619   5.569
 2645SOL    HW2 8835   4.643   6.685   5.440
 2646SOL     OW 8836   6.350   6.719   6.494
 2646SOL    HW1 8837   6.398   6.741   6.579
 2646SOL    HW2 8838   6.252   6.721   6.510
 2647SOL     OW 8839   5.488   0.840   0.968
 2647SOL    HW1 8840   5.429   0.899   1.024
 2647SOL    HW2 8841   5.540   0.778   1.026
 2648SOL     OW 8842   6.667   6.488   3.742
 2648SOL    HW1 8843   6.665   6.393   3.709
 2648SOL    HW2 8844   6.676   6.550   3.664
 2649SOL     OW 8845   4.064   1.853   6.134
 2649SOL    HW1 8846   4.103   1.806   6.055
 2649SOL    HW2 8847   4.134   1.908   6.178
 2650SOL     OW 8848   0.871   4.006   3.963
 2650SOL    HW1 8849   0.920   3.998   3.876
 2650SOL    HW2 8850   0.931   4.049   4.031
 2651SOL     OW 8851   1.719   1.462   0.621
 2651SOL    HW1 8852   1.633   1.448   0.573
 2651SOL    HW2 8853   1.711   1.540   0.682
 2652SOL     OW 8854   2.946   3.715   3.562
 2652SOL    HW1 8855   2.962   3.695   3.465
 2652SOL    HW2 8856   3.009   3.787   3.592
 2653SOL     OW 8857   5.051   6.678   5.248
 2653SOL    HW1 8858   5.117   6.659   5.176
 2653SOL    HW2 8859   5.100   6.704   5.331
 2654SOL     OW 8860   4.305   3.193   0.039
 2654SOL    HW1 8861   4.252   3.234   0.113
 2654SOL    HW2 8862   4.322   3.096   0.060
 2655SOL     OW 8863   4.892   4.496   4.437
 2655SOL    HW1 8864   4.794   4.476   4.430
 2655SOL    HW2 8865   4.922   4.546   4.356
 2656SOL     OW 8866   4.311   4.802   4.376
 2656SOL    HW1 8867   4.315   4.772   4.281
 2656SOL    HW2 8868   4.397   4.846   4.401
 2657SOL     OW 8869   2.667   4.449   6.277
 2657SOL    HW1 8870   2.763   4.473   6.293
 2657SOL    HW2 8871   2.660   4.394   6.193
 2658SOL     OW 8872   5.440   4.509   6.698
 2658SOL    HW1 8873   5.426   4.594   6.647
 2658SOL    HW2 8874   5.355   4.484   6.745
 2659SOL     OW 8875   6.122   2.481   4.190
 2659SOL    HW1 8876   6.184   2.415   4.148
 2659SOL    HW2 8877   6.158   2.508   4.279
 2660SOL     OW 8878   0.927   1.828   0.624
 2660SOL    HW1 8879   0.968   1.870   0.543
 2660SOL    HW2 8880   0.843   1.877   0.649
 2661SOL     OW 8881   2.145   6.444   1.845
 2661SOL    HW1 8882   2.116   6.518   1.906
 2661SOL    HW2 8883   2.199   6.482   1.770
 2662SOL     OW 8884   4.660   0.099   4.375
 2662SOL    HW1 8885   4.681   0.158   4.453
 2662SOL    HW2 8886   4.669   0.003   4.401
 2663SOL     OW 8887   2.414   5.206   0.946
 2663SOL    HW1 8888   2.357   5.142   0.894
 2663SOL    HW2 8889   2.507   5.169   0.955
 2664SOL     OW 8890   3.744   3.504   3.309
 2664SOL    HW1 8891   3.732   3.530   3.404
 2664SOL    HW2 8892   3.733   3.584   3.250
 2665SOL     OW 8893   3.593   1.820   5.056
 2665SOL    HW1 8894   3.592   1.897   4.992
 2665SOL    HW2 8895   3.512   1.763   5.040
 2666SOL     OW 8896   4.811   3.479   1.309
 2666SOL    HW1 8897   4.752   3.546   1.354
 2666SOL    HW2 8898   4.776   3.387   1.325
 2667SOL     OW 8899   1.578   5.907   4.693
 2667SOL    HW1 8900   1.492   5.926   4.646
 2667SOL    HW2 8901   1.642   5.863   4.630
 2668SOL     OW 8902   6.499   3.228   3.733
 2668SOL    HW1 8903   6.581   3.181   3.767
 2668SOL    HW2 8904   6.523   3.283   3.654
 2669SOL     OW 8905   3.012   4.680   5.595
 2669SOL    HW1 8906   3.020   4.595   5.543
 2669SOL    HW2 8907   3.078   4.746   5.560
 2670SOL     OW 8908   5.919   1.430   6.235
 2670SOL    HW1 8909   5.867   1.390   6.311
 2670SOL    HW2 8910   5.924   1.364   6.160
 2671SOL     OW 8911   2.987   4.840   0.255
 2671SOL    HW1 8912   2.890   4.863   0.246
 2671SOL    HW2 8913   3.038   4.881   0.178
 2672SOL     OW 8914   0.642   5.568   6.564
 2672SOL    HW1 8915   0.589   5.484   6.554
 2672SOL    HW2 8916   0.592   5.633   6.620
 2673SOL     OW 8917   5.266   2.622   3.874
 2673SOL    HW1 8918   5.249   2.703   3.931
 2673SOL    HW2 8919   5.334   2.564   3.919
 2674SOL     OW 8920   2.332   4.256   4.090
 2674SOL    HW1 8921   2.327   4.296   3.998
 2674SOL    HW2 8922   2.357   4.327   4.155
 2675SOL     OW 8923   0.907   4.400   5.442
 2675SOL    HW1 8924   0.992   4.430   5.484
 2675SOL    HW2 8925   0.902   4.301   5.444
 2676SOL     OW 8926   4.099   0.861   2.691
 2676SOL    HW1 8927   4.099   0.951   2.733
 2676SOL    HW2 8928   4.170   0.858   2.620
 2677SOL     OW 8929   3.567   5.210   1.486
 2677SOL    HW1 8930   3.550   5.113   1.503
 2677SOL    HW2 8931   3.645   5.220   1.425
 2678SOL     OW 8932   0.279   4.634   0.588
 2678SOL    HW1 8933   0.187   4.673   0.600
 2678SOL    HW2 8934   0.348   4.703   0.610
 2679SOL     OW 8935   4.446   5.392   1.024
 2679SOL    HW1 8936   4.486   5.343   0.947
 2679SOL    HW2 8937   4.348   5.371   1.029
 2680SOL     OW 8938   1.463   1.610   1.272
 2680SOL    HW1 8939   1.509   1.618   1.183
 2680SOL    HW2 8940   1.523   1.561   1.336
 2681SOL     OW 8941   1.254   2.508   4.279
 2681SOL    HW1 8942   1.166   2.472   4.308
 2681SOL    HW2 8943   1.263   2.498   4.180
 2682SOL     OW 8944   5.301   3.106   2.528
 2682SOL    HW1 8945   5.237   3.030   2.515
 2682SOL    HW2 8946   5.274   3.182   2.470
 2683SOL     OW 8947   1.710   3.596   0.856
 2683SOL    HW1 8948   1.699   3.601   0.956
 2683SOL    HW2 8949   1.622   3.574   0.814
 2684SOL     OW 8950   3.875   5.183   2.860
 2684SOL    HW1 8951   3.950   5.170   2.925
 2684SOL    HW2 8952   3.790   5.202   2.910
 2685SOL     OW 8953   6.779   6.478   5.240
 2685SOL    HW1 8954   6.790   6.379   5.231
 2685SOL    HW2 8955   6.856   6.525   5.196
 2686SOL     OW 8956   1.444   2.525   4.931
 2686SOL    HW1 8957   1.392   2.555   5.011
 2686SOL    HW2 8958   1.389   2.538   4.848
 2687SOL     OW 8959   4.523   4.507   2.846
 2687SOL    HW1 8960   4.469   4.588   2.868
 2687SOL    HW2 8961   4.569   4.520   2.758
 2688SOL     OW 8962   4.564   5.760   6.504
 2688SOL    HW1 8963   4.501   5.822   6.457
 2688SOL    HW2 8964   4.640   5.737   6.444
 2689SOL     OW 8965   2.450   1.900   3.511
 2689SOL    HW1 8966   2.409   1.865   3.427
 2689SOL    HW2 8967   2.455   2.000   3.508
 2690SOL     OW 8968   3.262   2.952   3.961
 2690SOL    HW1 8969   3.194   2.992   3.900
 2690SOL    HW2 8970   3.222   2.941   4.052
 2691SOL     OW 8971   1.770   5.373   2.584
 2691SOL    HW1 8972   1.759   5.469   2.612
 2691SOL    HW2 8973   1.832   5.369   2.505
 2692SOL     OW 8974   5.531   6.039   4.177
 2692SOL    HW1 8975   5.435   6.053   4.201
 2692SOL    HW2 8976   5.588   6.047   4.259
 2693SOL     OW 8977   2.069   4.329   2.931
 2693SOL    HW1 8978   2.090   4.425   2.918
 2693SOL    HW2 8979   1.973   4.312   2.907
 2694SOL     OW 8980   3.544   0.656   2.994
 2694SOL    HW1 8981   3.484   0.585   3.032
 2694SOL    HW2 8982   3.639   0.626   2.997
 2695SOL     OW 8983   5.500   1.810   2.655
 2695SOL    HW1 8984   5.528   1.901   2.625
 2695SOL    HW2 8985   5.483   1.752   2.575
 2696SOL     OW 8986   3.326   2.734   5.255
 2696SOL    HW1 8987   3.365   2.646   5.280
 2696SOL    HW2 8988   3.399   2.796   5.225
 2697SOL     OW 8989   4.788   1.887   3.878
 2697SOL    HW1 8990   4.886   1.877   3.858
 2697SOL    HW2 8991   4.776   1.919   3.972
 2698SOL     OW 8992   2.196   5.438   0.862
 2698SOL    HW1 8993   2.210   5.406   0.956
 2698SOL    HW2 8994   2.285   5.461   0.822
 2699SOL     OW 8995   3.569   5.464   0.232
 2699SOL    HW1 8996   3.585   5.440   0.136
 2699SOL    HW2 8997   3.567   5.381   0.288
 2700SOL     OW 8998   2.130   3.217   2.215
 2700SOL    HW1 8999   2.150   3.294   2.155
 2700SOL    HW2 9000   2.153   3.241   2.309
 2701SOL     OW 9001   4.151   0.212   6.452
 2701SOL    HW1 9002   4.167   0.294   6.397
 2701SOL    HW2 9003   4.199   0.135   6.412
 2702SOL     OW 9004   6.938   1.518   3.716
 2702SOL    HW1 9005   6.988   1.567   3.788
 2702SOL    HW2 9006   6.847   1.559   3.706
 2703SOL     OW 9007   2.076   0.871   2.481
 2703SOL    HW1 9008   1.995   0.913   2.439
 2703SOL    HW2 9009   2.077   0.891   2.579
 2704SOL     OW 9010   0.859   5.248   0.664
 2704SOL    HW1 9011   0.828   5.339   0.638
 2704SOL    HW2 9012   0.909   5.253   0.750
 2705SOL     OW 9013   0.867   5.474   4.204
 2705SOL    HW1 9014   0.810   5.396   4.232
 2705SOL    HW2 9015   0.963   5.449   4.210
 2706SOL     OW 9016   0.041   0.522   1.383
 2706SOL    HW1 9017   0.070   0.609   1.422
 2706SOL    HW2 9018   6.981   0.497   1.421
 2707SOL     OW 9019   2.255   0.903   5.725
 2707SOL    HW1 9020   2.303   0.855   5.651
 2707SOL    HW2 9021   2.320   0.932   5.794
 2708SOL     OW 9022   1.594   2.906   1.678
 2708SOL    HW1 9023   1.660   2.981   1.671
 2708SOL    HW2 9024   1.623   2.843   1.751
 2709SOL     OW 9025   5.454   6.430   1.078
 2709SOL    HW1 9026   5.439   6.351   1.017
 2709SOL    HW2 9027   5.454   6.399   1.173
 2710SOL     OW 9028   6.654   3.174   2.857
 2710SOL    HW1 9029   6.743   3.212   2.880
 2710SOL    HW2 9030   6.638   3.091   2.911
 2711SOL     OW 9031   3.045   0.221   2.817
 2711SOL    HW1 9032   2.966   0.280   2.803
 2711SOL    HW2 9033   3.014   0.126   2.829
 2712SOL     OW 9034   3.928   5.211   0.609
 2712SOL    HW1 9035   3.974   5.236   0.524
 2712SOL    HW2 9036   3.859   5.279   0.632
 2713SOL     OW 9037   1.509   2.794   4.501
 2713SOL    HW1 9038   1.545   2.848   4.577
 2713SOL    HW2 9039   1.584   2.760   4.444
 2714SOL     OW 9040   4.804   2.401   0.103
 2714SOL    HW1 9041   4.855   2.483   0.126
 2714SOL    HW2 9042   4.733   2.423   0.036
 2715SOL     OW 9043   6.065   0.142   0.221
 2715SOL    HW1 9044   6.146   0.127   0.277
 2715SOL    HW2 9045   6.014   0.220   0.257
 2716SOL     OW 9046   6.318   5.274   1.827
 2716SOL    HW1 9047   6.350   5.355   1.877
 2716SOL    HW2 9048   6.238   5.298   1.772
 2717SOL     OW 9049   1.341   5.637   2.130
 2717SOL    HW1 9050   1.252   5.677   2.154
 2717SOL    HW2 9051   1.408   5.710   2.122
 2718SOL     OW 9052   2.109   3.589   4.108
 2718SOL    HW1 9053   2.127   3.629   4.198
 2718SOL    HW2 9054   2.133   3.492   4.109
 2719SOL     OW 9055   4.945   4.855   1.453
 2719SOL    HW1 9056   4.901   4.880   1.366
 2719SOL    HW2 9057   5.044   4.864   1.443
 2720SOL     OW 9058   2.025   5.895   3.260
 2720SOL    HW1 9059   2.065   5.986   3.254
 2720SOL    HW2 9060   2.068   5.844   3.335
 2721SOL     OW 9061   2.680   0.135   5.588
 2721SOL    HW1 9062   2.710   0.039   5.591
 2721SOL    HW2 9063   2.666   0.162   5.493
 2722SOL     OW 9064   6.130   5.303   2.700
 2722SOL    HW1 9065   6.167   5.372   2.638
 2722SOL    HW2 9066   6.205   5.267   2.758
 2723SOL     OW 9067   1.786   0.315   6.333
 2723SOL    HW1 9068   1.844   0.365   6.269
 2723SOL    HW2 9069   1.803   0.217   6.323
 2724SOL     OW 9070   3.316   6.587   6.061
 2724SOL    HW1 9071   3.379   6.595   6.138
 2724SOL    HW2 9072   3.234   6.642   6.079
 2725SOL     OW 9073   6.158   5.136   3.145
 2725SOL    HW1 9074   6.211   5.166   3.066
 2725SOL    HW2 9075   6.170   5.037   3.158
 2726SOL     OW 9076   6.145   4.299   1.056
 2726SOL    HW1 9077   6.142   4.243   0.972
 2726SOL    HW2 9078   6.055   4.339   1.072
 2727SOL     OW 9079   0.172   4.722   2.660
 2727SOL    HW1 9080   0.256   4.773   2.642
 2727SOL    HW2 9081   0.096   4.763   2.610
 2728SOL     OW 9082   3.142   0.453   5.481
 2728SOL    HW1 9083   3.232   0.439   5.523
 2728SOL    HW2 9084   3.072   0.448   5.552
 2729SOL     OW 9085   6.997   5.921   1.629
 2729SOL    HW1 9086   0.025   5.895   1.551
 2729SOL    HW2 9087   0.006   6.003   1.672
 2730SOL     OW 9088   1.652   6.358   0.882
 2730SOL    HW1 9089   1.593   6.436   0.865
 2730SOL    HW2 9090   1.686   6.361   0.976
 2731SOL     OW 9091   3.502   3.747   1.358
 2731SOL    HW1 9092   3.417   3.743   1.305
 2731SOL    HW2 9093   3.484   3.787   1.447
 2732SOL     OW 9094   5.966   3.200   2.403
 2732SOL    HW1 9095   6.014   3.113   2.418
 2732SOL    HW2 9096   6.003   3.244   2.321
 2733SOL     OW 9097   0.165   6.816   5.014
 2733SOL    HW1 9098   0.250   6.767   5.029
 2733SOL    HW2 9099   0.162   6.853   4.921
 2734SOL     OW 9100   2.316   5.226   2.794
 2734SOL    HW1 9101   2.323   5.315   2.749
 2734SOL    HW2 9102   2.227   5.219   2.840
 2735SOL     OW 9103   0.857   3.556   2.914
 2735SOL    HW1 9104   0.796   3.482   2.888
 2735SOL    HW2 9105   0.897   3.597   2.832
 2736SOL     OW 9106   4.993   0.673   3.932
 2736SOL    HW1 9107   5.061   0.600   3.929
 2736SOL    HW2 9108   4.912   0.641   3.982
 2737SOL     OW 9109   3.129   3.293   5.553
 2737SOL    HW1 9110   3.059   3.245   5.501
 2737SOL    HW2 9111   3.186   3.227   5.602
 2738SOL     OW 9112   5.514   5.645   4.754
 2738SOL    HW1 9113   5.429   5.688   4.727
 2738SOL    HW2 9114   5.539   5.575   4.687
 2739SOL     OW 9115   6.388   4.650   0.213
 2739SOL    HW1 9116   6.305   4.702   0.191
 2739SOL    HW2 9117   6.465   4.714   0.222
 2740SOL     OW 9118   5.449   2.433   2.146
 2740SOL    HW1 9119   5.502   2.350   2.166
 2740SOL    HW2 9120   5.364   2.432   2.199
 2741SOL     OW 9121   0.007   1.516   6.417
 2741SOL    HW1 9122   0.017   1.485   6.323
 2741SOL    HW2 9123   7.026   1.615   6.419
 2742SOL     OW 9124   1.468   5.462   6.190
 2742SOL    HW1 9125   1.563   5.431   6.200
 2742SOL    HW2 9126   1.457   5.506   6.101
 2743SOL     OW 9127   6.090   5.328   1.696
 2743SOL    HW1 9128   6.089   5.390   1.617
 2743SOL    HW2 9129   6.040   5.244   1.673
 2744SOL     OW 9130   3.633   2.674   6.853
 2744SOL    HW1 9131   3.635   2.604   6.781
 2744SOL    HW2 9132   3.609   2.631   6.940
 2745SOL     OW 9133   2.133   0.028   0.121
 2745SOL    HW1 9134   2.226   0.028   0.160
 2745SOL    HW2 9135   2.092   6.967   0.135
 2746SOL     OW 9136   2.045   2.828   4.647
 2746SOL    HW1 9137   1.973   2.873   4.594
 2746SOL    HW2 9138   2.133   2.869   4.625
 2747SOL     OW 9139   5.749   4.043   5.422
 2747SOL    HW1 9140   5.770   3.996   5.337
 2747SOL    HW2 9141   5.791   4.134   5.422
 2748SOL     OW 9142   3.455   1.453   1.688
 2748SOL    HW1 9143   3.493   1.407   1.607
 2748SOL    HW2 9144   3.529   1.477   1.751
 2749SOL     OW 9145   5.307   4.765   4.023
 2749SOL    HW1 9146   5.318   4.860   3.997
 2749SOL    HW2 9147   5.219   4.731   3.990
 2750SOL     OW 9148   0.608   5.710   1.701
 2750SOL    HW1 9149   0.615   5.742   1.607
 2750SOL    HW2 9150   0.528   5.752   1.745
 2751SOL     OW 9151   1.939   0.129   0.609
 2751SOL    HW1 9152   1.938   0.038   0.569
 2751SOL    HW2 9153   1.877   0.189   0.558
 2752SOL     OW 9154   5.518   5.565   5.288
 2752SOL    HW1 9155   5.436   5.602   5.332
 2752SOL    HW2 9156   5.513   5.580   5.190
 2753SOL     OW 9157   2.139   6.850   6.229
 2753SOL    HW1 9158   2.176   6.942   6.236
 2753SOL    HW2 9159   2.109   6.833   6.134
 2754SOL     OW 9160   6.593   0.560   4.375
 2754SOL    HW1 9161   6.603   0.480   4.435
 2754SOL    HW2 9162   6.632   0.539   4.285
 2755SOL     OW 9163   2.981   6.516   2.977
 2755SOL    HW1 9164   2.908   6.525   2.910
 2755SOL    HW2 9165   3.068   6.504   2.930
 2756SOL     OW 9166   5.886   4.014   4.152
 2756SOL    HW1 9167   5.893   4.113   4.160
 2756SOL    HW2 9168   5.952   3.970   4.214
 2757SOL     OW 9169   2.805   1.880   6.677
 2757SOL    HW1 9170   2.873   1.811   6.650
 2757SOL    HW2 9171   2.713   1.844   6.662
 2758SOL     OW 9172   5.282   6.147   3.587
 2758SOL    HW1 9173   5.331   6.095   3.656
 2758SOL    HW2 9174   5.215   6.088   3.542
 2759SOL     OW 9175   3.587   4.964   5.129
 2759SOL    HW1 9176   3.527   4.894   5.166
 2759SOL    HW2 9177   3.676   4.959   5.175
 2760SOL     OW 9178   6.297   5.223   2.911
 2760SOL    HW1 9179   6.382   5.171   2.898
 2760SOL    HW2 9180   6.319   5.320   2.924
 2761SOL     OW 9181   1.610   3.862   3.627
 2761SOL    HW1 9182   1.609   3.764   3.651
 2761SOL    HW2 9183   1.673   3.910   3.688
 2762SOL     OW 9184   1.336   2.456   6.595
 2762SOL    HW1 9185   1.260   2.520   6.584
 2762SOL    HW2 9186   1.308   2.381   6.654
 2763SOL     OW 9187   5.427   1.984   5.797
 2763SOL    HW1 9188   5.449   1.950   5.888
 2763SOL    HW2 9189   5.351   1.931   5.759
 2764SOL     OW 9190   0.401   5.257   2.871
 2764SOL    HW1 9191   0.456   5.208   2.804
 2764SOL    HW2 9192   0.428   5.229   2.964
 2765SOL     OW 9193   0.522   0.547   1.060
 2765SOL    HW1 9194   0.599   0.598   1.022
 2765SOL    HW2 9195   0.544   0.517   1.153
 2766SOL     OW 9196   4.271   0.969   7.020
 2766SOL    HW1 9197   4.190   1.007   6.976
 2766SOL    HW2 9198   4.296   0.883   6.976
 2767SOL     OW 9199   5.910   6.039   6.705
 2767SOL    HW1 9200   5.978   6.105   6.673
 2767SOL    HW2 9201   5.826   6.088   6.728
 2768SOL     OW 9202   4.367   1.185   0.183
 2768SOL    HW1 9203   4.360   1.109   0.118
 2768SOL    HW2 9204   4.444   1.243   0.157
 2769SOL     OW 9205   2.211   4.149   6.121
 2769SOL    HW1 9206   2.294   4.155   6.176
 2769SOL    HW2 9207   2.227   4.192   6.032
 2770SOL     OW 9208   3.720   6.140   6.349
 2770SOL    HW1 9209   3.783   6.162   6.423
 2770SOL    HW2 9210   3.653   6.213   6.339
 2771SOL     OW 9211   5.559   6.892   4.674
 2771SOL    HW1 9212   5.549   6.962   4.602
 2771SOL    HW2 9213   5.644   6.909   4.724
 2772SOL     OW 9214   3.384   0.759   2.463
 2772SOL    HW1 9215   3.337   0.831   2.514
 2772SOL    HW2 9216   3.420   0.797   2.378
 2773SOL     OW 9217   0.277   2.631   3.773
 2773SOL    HW1 9218   0.264   2.628   3.674
 2773SOL    HW2 9219   0.204   2.579   3.818
 2774SOL     OW 9220   5.188   3.277   2.774
 2774SOL    HW1 9221   5.189   3.229   2.862
 2774SOL    HW2 9222   5.236   3.222   2.706
 2775SOL     OW 9223   6.845   3.700   3.701
 2775SOL    HW1 9224   6.944   3.700   3.714
 2775SOL    HW2 9225   6.800   3.677   3.788
 2776SOL     OW 9226   5.185   5.253   6.103
 2776SOL    HW1 9227   5.138   5.164   6.110
 2776SOL    HW2 9228   5.267   5.251   6.160
 2777SOL     OW 9229   2.308   1.832   6.027
 2777SOL    HW1 9230   2.330   1.748   6.077
 2777SOL    HW2 9231   2.302   1.908   6.092
 2778SOL     OW 9232   2.036   6.022   6.525
 2778SOL    HW1 9233   1.942   6.001   6.553
 2778SOL    HW2 9234   2.095   5.945   6.545
 2779SOL     OW 9235   5.692   6.442   2.364
 2779SOL    HW1 9236   5.676   6.535   2.332
 2779SOL    HW2 9237   5.784   6.412   2.336
 2780SOL     OW 9238   6.619   0.017   5.979
 2780SOL    HW1 9239   6.687   0.002   6.051
 2780SOL    HW2 9240   6.641   6.988   5.900
 2781SOL     OW 9241   5.836   0.437   2.802
 2781SOL    HW1 9242   5.879   0.361   2.754
 2781SOL    HW2 9243   5.775   0.486   2.739
 2782SOL     OW 9244   4.595   1.276   5.513
 2782SOL    HW1 9245   4.520   1.210   5.510
 2782SOL    HW2 9246   4.682   1.227   5.516
 2783SOL     OW 9247   6.171   3.443   1.474
 2783SOL    HW1 9248   6.111   3.382   1.421
 2783SOL    HW2 9249   6.120   3.525   1.500
 2784SOL     OW 9250   2.892   1.625   2.173
 2784SOL    HW1 9251   2.905   1.718   2.208
 2784SOL    HW2 9252   2.808   1.622   2.118
 2785SOL     OW 9253   5.071   2.151   1.174
 2785SOL    HW1 9254   4.981   2.111   1.190
 2785SOL    HW2 9255   5.135   2.079   1.148
 2786SOL     OW 9256   6.454   5.757   0.987
 2786SOL    HW1 9257   6.453   5.793   1.080
 2786SOL    HW2 9258   6.411   5.822   0.925
 2787SOL     OW 9259   6.425   5.961   5.637
 2787SOL    HW1 9260   6.375   6.034   5.684
 2787SOL    HW2 9261   6.519   5.991   5.620
 2788SOL     OW 9262   3.325   6.042   6.146
 2788SOL    HW1 9263   3.369   6.055   6.234
 2788SOL    HW2 9264   3.278   5.953   6.145
 2789SOL     OW 9265   1.210   2.347   3.629
 2789SOL    HW1 9266   1.294   2.294   3.640
 2789SOL    HW2 9267   1.173   2.333   3.537
 2790SOL     OW 9268   3.052   4.944   0.515
 2790SOL    HW1 9269   3.133   4.994   0.484
 2790SOL    HW2 9270   3.006   4.903   0.436
 2791SOL     OW 9271   0.090   4.432   2.213
 2791SOL    HW1 9272   0.131   4.447   2.303
 2791SOL    HW2 9273   0.014   4.368   2.222
 2792SOL     OW 9274   3.132   0.893   4.386
 2792SOL    HW1 9275   3.201   0.875   4.316
 2792SOL    HW2 9276   3.159   0.972   4.440
 2793SOL     OW 9277   5.028   3.852   1.766
 2793SOL    HW1 9278   5.060   3.772   1.716
 2793SOL    HW2 9279   5.076   3.858   1.853
 2794SOL     OW 9280   0.054   1.380   6.061
 2794SOL    HW1 9281   7.028   1.423   5.990
 2794SOL    HW2 9282   0.003   1.303   6.101
 2795SOL     OW 9283   0.520   5.289   1.036
 2795SOL    HW1 9284   0.619   5.300   1.026
 2795SOL    HW2 9285   0.501   5.207   1.089
 2796SOL     OW 9286   0.613   5.205   4.753
 2796SOL    HW1 9287   0.625   5.299   4.787
 2796SOL    HW2 9288   0.550   5.206   4.675
 2797SOL     OW 9289   5.399   5.181   5.680
 2797SOL    HW1 9290   5.373   5.270   5.717
 2797SOL    HW2 9291   5.489   5.187   5.637
 2798SOL     OW 9292   6.659   6.022   2.507
 2798SOL    HW1 9293   6.684   6.091   2.575
 2798SOL    HW2 9294   6.628   6.067   2.423
 2799SOL     OW 9295   5.164   5.460   5.475
 2799SOL    HW1 9296   5.179   5.449   5.573
 2799SOL    HW2 9297   5.092   5.396   5.445
 2800SOL     OW 9298   5.793   0.740   6.506
 2800SOL    HW1 9299   5.889   0.712   6.508
 2800SOL    HW2 9300   5.739   0.673   6.456
 2801SOL     OW 9301   1.521   5.564   5.915
 2801SOL    HW1 9302   1.493   5.627   5.844
 2801SOL    HW2 9303   1.599   5.601   5.965
 2802SOL     OW 9304   6.893   6.244   5.503
 2802SOL    HW1 9305   6.858   6.194   5.424
 2802SOL    HW2 9306   6.943   6.325   5.472
 2803SOL     OW 9307   3.368   4.086   5.932
 2803SOL    HW1 9308   3.459   4.049   5.953
 2803SOL    HW2 9309   3.316   4.019   5.880
 2804SOL     OW 9310   0.369   3.402   4.021
 2804SOL    HW1 9311   0.305   3.473   4.051
 2804SOL    HW2 9312   0.361   3.323   4.082
 2805SOL     OW 9313   5.898   3.561   1.795
 2805SOL    HW1 9314   5.866   3.655   1.783
 2805SOL    HW2 9315   5.945   3.553   1.883
 2806SOL     OW 9316   2.272   4.337   6.465
 2806SOL    HW1 9317   2.274   4.256   6.406
 2806SOL    HW2 9318   2.177   4.355   6.493
 2807SOL     OW 9319   3.273   0.374   2.853
 2807SOL    HW1 9320   3.277   0.430   2.936
 2807SOL    HW2 9321   3.177   0.356   2.830
 2808SOL     OW 9322   5.646   5.887   0.910
 2808SOL    HW1 9323   5.684   5.920   0.824
 2808SOL    HW2 9324   5.598   5.961   0.956
 2809SOL     OW 9325   5.587   3.188   1.796
 2809SOL    HW1 9326   5.507   3.139   1.760
 2809SOL    HW2 9327   5.586   3.184   1.896
 2810SOL     OW 9328   2.390   5.598   2.959
 2810SOL    HW1 9329   2.489   5.607   2.958
 2810SOL    HW2 9330   2.348   5.688   2.951
 2811SOL     OW 9331   0.985   0.995   2.711
 2811SOL    HW1 9332   1.001   1.067   2.644
 2811SOL    HW2 9333   0.979   0.907   2.664
 2812SOL     OW 9334   6.791   3.140   0.492
 2812SOL    HW1 9335   6.884   3.158   0.462
 2812SOL    HW2 9336   6.729   3.206   0.451
 2813SOL     OW 9337   0.723   1.605   0.890
 2813SOL    HW1 9338   0.696   1.630   0.983
 2813SOL    HW2 9339   0.728   1.506   0.882
 2814SOL     OW 9340   3.171   3.795   6.172
 2814SOL    HW1 9341   3.079   3.813   6.139
 2814SOL    HW2 9342   3.168   3.778   6.271
 2815SOL     OW 9343   0.261   6.300   5.732
 2815SOL    HW1 9344   0.268   6.262   5.640
 2815SOL    HW2 9345   0.349   6.336   5.761
 2816SOL     OW 9346   0.176   5.924   4.851
 2816SOL    HW1 9347   0.158   5.846   4.911
 2816SOL    HW2 9348   0.220   5.997   4.904
 2817SOL     OW 9349   3.786   1.186   1.829
 2817SOL    HW1 9350   3.779   1.286   1.828
 2817SOL    HW2 9351   3.746   1.150   1.913
 2818SOL     OW 9352   0.447   1.263   1.035
 2818SOL    HW1 9353   0.397   1.178   1.047
 2818SOL    HW2 9354   0.410   1.333   1.096
 2819SOL     OW 9355   1.065   0.588   1.188
 2819SOL    HW1 9356   1.068   0.503   1.135
 2819SOL    HW2 9357   1.142   0.590   1.252
 2820SOL     OW 9358   1.171   1.758   2.051
 2820SOL    HW1 9359   1.269   1.735   2.053
 2820SOL    HW2 9360   1.142   1.771   1.956
 2821SOL     OW 9361   3.209   5.356   6.021
 2821SOL    HW1 9362   3.166   5.280   6.070
 2821SOL    HW2 9363   3.230   5.430   6.086
 2822SOL     OW 9364   3.809   2.827   0.186
 2822SOL    HW1 9365   3.739   2.896   0.167
 2822SOL    HW2 9366   3.765   2.738   0.199
 2823SOL     OW 9367   5.075   1.019   0.174
 2823SOL    HW1 9368   5.076   1.117   0.193
 2823SOL    HW2 9369   5.164   0.980   0.196
 2824SOL     OW 9370   1.442   3.521   5.265
 2824SOL    HW1 9371   1.446   3.429   5.306
 2824SOL    HW2 9372   1.524   3.571   5.289
 2825SOL     OW 9373   5.316   0.528   6.749
 2825SOL    HW1 9374   5.345   0.533   6.654
 2825SOL    HW2 9375   5.313   0.620   6.788
 2826SOL     OW 9376   1.576   3.372   6.289
 2826SOL    HW1 9377   1.663   3.392   6.245
 2826SOL    HW2 9378   1.566   3.429   6.371
 2827SOL     OW 9379   0.544   0.444   6.295
 2827SOL    HW1 9380   0.573   0.480   6.207
 2827SOL    HW2 9381   0.457   0.488   6.321
 2828SOL     OW 9382   1.505   3.485   1.052
 2828SOL    HW1 9383   1.587   3.494   1.109
 2828SOL    HW2 9384   1.424   3.481   1.110
 2829SOL     OW 9385   3.691   3.756   2.942
 2829SOL    HW1 9386   3.752   3.685   2.906
 2829SOL    HW2 9387   3.745   3.836   2.969
 2830SOL     OW 9388   3.545   4.298   5.342
 2830SOL    HW1 9389   3.626   4.272   5.290
 2830SOL    HW2 9390   3.526   4.228   5.412
 2831SOL     OW 9391   0.124   1.723   2.597
 2831SOL    HW1 9392   0.213   1.769   2.597
 2831SOL    HW2 9393   0.119   1.659   2.520
 2832SOL     OW 9394   0.854   3.141   1.332
 2832SOL    HW1 9395   0.949   3.111   1.333
 2832SOL    HW2 9396   0.810   3.113   1.418
 2833SOL     OW 9397   2.315   1.015   2.166
 2833SOL    HW1 9398   2.408   1.017   2.129
 2833SOL    HW2 9399   2.252   0.986   2.094
 2834SOL     OW 9400   4.814   6.048   5.054
 2834SOL    HW1 9401   4.809   5.966   4.997
 2834SOL    HW2 9402   4.873   6.115   5.011
 2835SOL     OW 9403   1.223   6.325   0.255
 2835SOL    HW1 9404   1.290   6.340   0.182
 2835SOL    HW2 9405   1.258   6.363   0.340
 2836SOL     OW 9406   3.963   6.235   3.355
 2836SOL    HW1 9407   3.932   6.266   3.445
 2836SOL    HW2 9408   4.059   6.207   3.362
 2837SOL     OW 9409   5.659   4.206   2.261
 2837SOL    HW1 9410   5.751   4.241   2.246
 2837SOL    HW2 9411   5.662   4.131   2.327
 2838SOL     OW 9412   5.071   4.250   6.719
 2838SOL    HW1 9413   5.119   4.244   6.632
 2838SOL    HW2 9414   5.121   4.311   6.781
 2839SOL     OW 9415   6.664   2.347   3.211
 2839SOL    HW1 9416   6.707   2.409   3.277
 2839SOL    HW2 9417   6.723   2.267   3.197
 2840SOL     OW 9418   1.564   5.553   2.882
 2840SOL    HW1 9419   1.622   5.616   2.829
 2840SOL    HW2 9420   1.555   5.588   2.975
 2841SOL     OW 9421   6.298   2.443   0.828
 2841SOL    HW1 9422   6.333   2.535   0.810
 2841SOL    HW2 9423   6.212   2.430   0.778
 2842SOL     OW 9424   1.427   5.618   5.048
 2842SOL    HW1 9425   1.511   5.653   5.090
 2842SOL    HW2 9426   1.450   5.548   4.980
 2843SOL     OW 9427   2.467   2.384   2.761
 2843SOL    HW1 9428   2.559   2.393   2.721
 2843SOL    HW2 9429   2.440   2.288   2.760
 2844SOL     OW 9430   4.834   4.453   1.439
 2844SOL    HW1 9431   4.849   4.478   1.534
 2844SOL    HW2 9432   4.922   4.448   1.391
 2845SOL     OW 9433   5.045   2.464   3.884
 2845SOL    HW1 9434   5.108   2.540   3.871
 2845SOL    HW2 9435   4.996   2.446   3.798
 2846SOL     OW 9436   3.766   0.697   0.150
 2846SOL    HW1 9437   3.838   0.729   0.088
 2846SOL    HW2 9438   3.770   0.748   0.235
 2847SOL     OW 9439   4.762   4.130   1.979
 2847SOL    HW1 9440   4.668   4.148   1.952
 2847SOL    HW2 9441   4.819   4.118   1.898
 2848SOL     OW 9442   1.051   2.398   5.468
 2848SOL    HW1 9443   1.024   2.309   5.432
 2848SOL    HW2 9444   1.061   2.463   5.393
 2849SOL     OW 9445   3.835   0.842   1.858
 2849SOL    HW1 9446   3.776   0.895   1.798
 2849SOL    HW2 9447   3.887   0.904   1.918
 2850SOL     OW 9448   1.953   6.933   3.719
 2850SOL    HW1 9449   1.968   6.931   3.620
 2850SOL    HW2 9450   2.028   6.982   3.763
 2851SOL     OW 9451   3.896   3.375   6.781
 2851SOL    HW1 9452   3.824   3.325   6.828
 2851SOL    HW2 9453   3.984   3.332   6.798
 2852SOL     OW 9454   6.475   4.480   0.001
 2852SOL    HW1 9455   6.443   4.549   0.067
 2852SOL    HW2 9456   6.453   4.389   0.036
 2853SOL     OW 9457   0.248   3.252   6.848
 2853SOL    HW1 9458   0.220   3.303   6.767
 2853SOL    HW2 9459   0.226   3.305   6.930
 2854SOL     OW 9460   3.547   1.063   6.391
 2854SOL    HW1 9461   3.577   0.970   6.412
 2854SOL    HW2 9462   3.458   1.079   6.434
 2855SOL     OW 9463   0.975   2.211   4.253
 2855SOL    HW1 9464   0.947   2.291   4.200
 2855SOL    HW2 9465   1.004   2.138   4.192
 2856SOL     OW 9466   1.832   2.921   2.806
 2856SOL    HW1 9467   1.735   2.895   2.814
 2856SOL    HW2 9468   1.854   2.940   2.711
 2857SOL     OW 9469   0.526   3.724   0.607
 2857SOL    HW1 9470   0.562   3.662   0.537
 2857SOL    HW2 9471   0.590   3.729   0.683
 2858SOL     OW 9472   5.816   6.098   2.612
 2858SOL    HW1 9473   5.780   6.191   2.619
 2858SOL    HW2 9474   5.889   6.085   2.679
 2859SOL     OW 9475   5.162   5.719   0.365
 2859SOL    HW1 9476   5.243   5.714   0.308
 2859SOL    HW2 9477   5.182   5.773   0.447
 2860SOL     OW 9478   1.869   6.418   1.645
 2860SOL    HW1 9479   1.884   6.506   1.600
 2860SOL    HW2 9480   1.840   6.350   1.578
 2861SOL     OW 9481   2.880   5.211   5.676
 2861SOL    HW1 9482   2.885   5.198   5.577
 2861SOL    HW2 9483   2.802   5.159   5.712
 2862SOL     OW 9484   4.428   2.656   1.647
 2862SOL    HW1 9485   4.361   2.729   1.631
 2862SOL    HW2 9486   4.403   2.576   1.593
 2863SOL     OW 9487   5.228   0.793   6.144
 2863SOL    HW1 9488   5.158   0.859   6.120
 2863SOL    HW2 9489   5.186   0.710   6.180
 2864SOL     OW 9490   4.460   3.047   1.054
 2864SOL    HW1 9491   4.387   3.086   0.997
 2864SOL    HW2 9492   4.420   2.984   1.120
 2865SOL     OW 9493   4.565   6.462   4.313
 2865SOL    HW1 9494   4.471   6.489   4.294
 2865SOL    HW2 9495   4.568   6.365   4.337
 2866SOL     OW 9496   5.611   4.261   0.046
 2866SOL    HW1 9497   5.664   4.177   0.054
 2866SOL    HW2 9498   5.674   4.338   0.035
 2867SOL     OW 9499   6.204   6.497   2.051
 2867SOL    HW1 9500   6.214   6.486   2.150
 2867SOL    HW2 9501   6.108   6.517   2.029
 2868SOL     OW 9502   1.018   0.901   5.909
 2868SOL    HW1 9503   1.020   0.938   6.001
 2868SOL    HW2 9504   1.111   0.894   5.873
 2869SOL     OW 9505   6.282   7.021   4.014
 2869SOL    HW1 9506   6.259   0.060   3.944
 2869SOL    HW2 9507   6.360   6.967   3.984
 2870SOL     OW 9508   0.796   1.766   0.164
 2870SOL    HW1 9509   0.892   1.795   0.167
 2870SOL    HW2 9510   0.780   1.696   0.233
 2871SOL     OW 9511   6.574   0.869   0.537
 2871SOL    HW1 9512   6.638   0.929   0.489
 2871SOL    HW2 9513   6.481   0.907   0.531
 2872SOL     OW 9514   2.839   1.685   1.245
 2872SOL    HW1 9515   2.759   1.743   1.259
 2872SOL    HW2 9516   2.880   1.662   1.333
 2873SOL     OW 9517   0.204   5.663   1.624
 2873SOL    HW1 9518   0.238   5.572   1.599
 2873SOL    HW2 9519   0.160   5.705   1.545
 2874SOL     OW 9520   3.951   0.103   2.943
 2874SOL    HW1 9521   4.014   0.071   2.872
 2874SOL    HW2 9522   3.922   0.196   2.921
 2875SOL     OW 9523   3.438   6.908   2.700
 2875SOL    HW1 9524   3.445   6.940   2.606
 2875SOL    HW2 9525   3.385   6.974   2.754
 2876SOL     OW 9526   1.332   6.397   1.778
 2876SOL    HW1 9527   1.272   6.347   1.840
 2876SOL    HW2 9528   1.388   6.332   1.727
 2877SOL     OW 9529   2.162   1.610   6.520
 2877SOL    HW1 9530   2.154   1.594   6.421
 2877SOL    HW2 9531   2.166   1.522   6.567
 2878SOL     OW 9532   3.048   3.279   4.598
 2878SOL    HW1 9533   3.034   3.211   4.525
 2878SOL    HW2 9534   2.992   3.254   4.677
 2879SOL     OW 9535   4.539   5.328   5.924
 2879SOL    HW1 9536   4.473   5.359   5.993
 2879SOL    HW2 9537   4.499   5.336   5.833
 2880SOL     OW 9538   1.027   1.793   3.816
 2880SOL    HW1 9539   1.094   1.739   3.764
 2880SOL    HW2 9540   1.011   1.750   3.905
 2881SOL     OW 9541   3.256   5.322   0.134
 2881SOL    HW1 9542   3.309   5.387   0.188
 2881SOL    HW2 9543   3.191   5.371   0.077
 2882SOL     OW 9544   5.600   6.502   0.842
 2882SOL    HW1 9545   5.581   6.597   0.820
 2882SOL    HW2 9546   5.560   6.479   0.930
 2883SOL     OW 9547   6.432   6.583   3.387
 2883SOL    HW1 9548   6.427   6.508   3.321
 2883SOL    HW2 9549   6.528   6.605   3.406
 2884SOL     OW 9550   6.780   4.996   2.053
 2884SOL    HW1 9551   6.807   5.083   2.012
 2884SOL    HW2 9552   6.802   4.921   1.991
 2885SOL     OW 9553   1.467   2.242   4.688
 2885SOL    HW1 9554   1.452   2.337   4.717
 2885SOL    HW2 9555   1.560   2.214   4.715
 2886SOL     OW 9556   3.002   4.366   0.096
 2886SOL    HW1 9557   3.027   4.408   0.008
 2886SOL    HW2 9558   2.987   4.438   0.164
 2887SOL     OW 9559   0.148   6.334   3.791
 2887SOL    HW1 9560   0.084   6.258   3.800
 2887SOL    HW2 9561   0.212   6.334   3.868
 2888SOL     OW 9562   0.279   5.528   6.840
 2888SOL    HW1 9563   0.217   5.461   6.883
 2888SOL    HW2 9564   0.235   5.567   6.760
 2889SOL     OW 9565   3.257   6.215   3.145
 2889SOL    HW1 9566   3.299   6.300   3.177
 2889SOL    HW2 9567   3.159   6.218   3.163
 2890SOL     OW 9568   2.385   6.248   1.022
 2890SOL    HW1 9569   2.330   6.310   0.966
 2890SOL    HW2 9570   2.405   6.165   0.969
 2891SOL     OW 9571   1.024   3.545   3.130
 2891SOL    HW1 9572   0.952   3.575   3.068
 2891SOL    HW2 9573   1.060   3.457   3.099
 2892SOL     OW 9574   6.460   3.106   1.091
 2892SOL    HW1 9575   6.371   3.139   1.121
 2892SOL    HW2 9576   6.448   3.031   1.025
 2893SOL     OW 9577   1.773   5.734   4.592
 2893SOL    HW1 9578   1.841   5.741   4.519
 2893SOL    HW2 9579   1.813   5.768   4.678
 2894SOL     OW 9580   2.308   4.610   2.003
 2894SOL    HW1 9581   2.339   4.698   2.040
 2894SOL    HW2 9582   2.251   4.626   1.922
 2895SOL     OW 9583   3.316   0.845   6.121
 2895SOL    HW1 9584   3.260   0.762   6.113
 2895SOL    HW2 9585   3.297   0.889   6.208
 2896SOL     OW 9586   5.958   0.343   5.843
 2896SOL    HW1 9587   6.002   0.433   5.851
 2896SOL    HW2 9588   5.858   0.354   5.843
 2897SOL     OW 9589   3.807   4.928   2.792
 2897SOL    HW1 9590   3.809   5.027   2.807
 2897SOL    HW2 9591   3.868   4.884   2.858
 2898SOL     OW 9592   5.861   3.988   3.654
 2898SOL    HW1 9593   5.861   4.016   3.750
 2898SOL    HW2 9594   5.862   3.888   3.649
 2899SOL     OW 9595   6.546   1.807   1.749
 2899SOL    HW1 9596   6.566   1.801   1.847
 2899SOL    HW2 9597   6.447   1.811   1.736
 2900SOL     OW 9598   3.924   4.806   0.012
 2900SOL    HW1 9599   3.919   4.896   6.997
 2900SOL    HW2 9600   3.966   4.815   0.102
 2901SOL     OW 9601   1.363   4.718   3.846
 2901SOL    HW1 9602   1.328   4.797   3.796
 2901SOL    HW2 9603   1.286   4.658   3.871
 2902SOL     OW 9604   0.019   6.086   3.702
 2902SOL    HW1 9605   6.957   6.053   3.676
 2902SOL    HW2 9606   0.088   6.046   3.642
 2903SOL     OW 9607   4.481   5.961   0.721
 2903SOL    HW1 9608   4.466   6.013   0.805
 2903SOL    HW2 9609   4.575   5.975   0.689
 2904SOL     OW 9610   3.047   4.732   5.270
 2904SOL    HW1 9611   3.015   4.645   5.232
 2904SOL    HW2 9612   3.138   4.719   5.310
 2905SOL     OW 9613   1.136   3.936   3.347
 2905SOL    HW1 9614   1.180   3.856   3.305
 2905SOL    HW2 9615   1.160   3.940   3.444
 2906SOL     OW 9616   5.126   6.371   2.659
 2906SOL    HW1 9617   5.214   6.367   2.611
 2906SOL    HW2 9618   5.131   6.439   2.732
 2907SOL     OW 9619   1.048   1.367   3.995
 2907SOL    HW1 9620   1.036   1.463   4.020
 2907SOL    HW2 9621   1.034   1.310   4.075
 2908SOL     OW 9622   5.322   0.001   3.679
 2908SOL    HW1 9623   5.373   0.081   3.647
 2908SOL    HW2 9624   5.340   7.015   3.776
 2909SOL     OW 9625   1.341   6.688   2.903
 2909SOL    HW1 9626   1.388   6.767   2.942
 2909SOL    HW2 9627   1.245   6.691   2.928
 2910SOL     OW 9628   6.678   1.004   4.009
 2910SOL    HW1 9629   6.674   1.087   3.953
 2910SOL    HW2 9630   6.772   0.970   4.013
 2911SOL     OW 9631   1.128   4.603   3.926
 2911SOL    HW1 9632   1.073   4.686   3.913
 2911SOL    HW2 9633   1.129   4.579   4.023
 2912SOL     OW 9634   0.117   6.501   0.060
 2912SOL    HW1 9635   0.061   6.564   0.113
 2912SOL    HW2 9636   0.212   6.533   0.059
 2913SOL     OW 9637   2.483   4.452   2.382
 2913SOL    HW1 9638   2.548   4.506   2.329
 2913SOL    HW2 9639   2.436   4.387   2.323
 2914SOL     OW 9640   5.250   5.152   1.237
 2914SOL    HW1 9641   5.344   5.132   1.265
 2914SOL    HW2 9642   5.194   5.167   1.318
 2915SOL     OW 9643   3.219   2.066   3.272
 2915SOL    HW1 9644   3.246   2.054   3.367
 2915SOL    HW2 9645   3.300   2.088   3.217
 2916SOL     OW 9646   1.945   5.369   0.271
 2916SOL    HW1 9647   1.984   5.300   0.331
 2916SOL    HW2 9648   1.924   5.329   0.182
 2917SOL     OW 9649   3.054   0.552   3.748
 2917SOL    HW1 9650   2.981   0.496   3.788
 2917SOL    HW2 9651   3.096   0.608   3.819
 2918SOL     OW 9652   6.000   3.414   0.485
 2918SOL    HW1 9653   5.997   3.506   0.445
 2918SOL    HW2 9654   6.034   3.350   0.416
 2919SOL     OW 9655   6.405   6.340   3.548
 2919SOL    HW1 9656   6.398   6.420   3.488
 2919SOL    HW2 9657   6.501   6.314   3.559
 2920SOL     OW 9658   2.496   0.778   1.765
 2920SOL    HW1 9659   2.399   0.755   1.773
 2920SOL    HW2 9660   2.506   0.875   1.744
 2921SOL     OW 9661   7.015   0.500   5.341
 2921SOL    HW1 9662   6.922   0.536   5.329
 2921SOL    HW2 9663   7.014   0.401   5.327
 2922SOL     OW 9664   4.104   0.083   1.989
 2922SOL    HW1 9665   4.111   0.054   2.084
 2922SOL    HW2 9666   4.043   0.020   1.940
 2923SOL     OW 9667   6.801   5.111   4.239
 2923SOL    HW1 9668   6.886   5.154   4.207
 2923SOL    HW2 9669   6.811   5.085   4.335
 2924SOL     OW 9670   6.749   1.405   5.142
 2924SOL    HW1 9671   6.732   1.502   5.156
 2924SOL    HW2 9672   6.702   1.373   5.060
 2925SOL     OW 9673   5.449   1.266   6.748
 2925SOL    HW1 9674   5.532   1.318   6.766
 2925SOL    HW2 9675   5.369   1.327   6.754
 2926SOL     OW 9676   6.717   2.414   5.406
 2926SOL    HW1 9677   6.760   2.478   5.343
 2926SOL    HW2 9678   6.713   2.323   5.364
 2927SOL     OW 9679   2.089   3.396   0.961
 2927SOL    HW1 9680   2.188   3.407   0.967
 2927SOL    HW2 9681   2.056   3.437   0.876
 2928SOL     OW 9682   6.501   1.776   0.329
 2928SOL    HW1 9683   6.589   1.803   0.292
 2928SOL    HW2 9684   6.509   1.764   0.428
 2929SOL     OW 9685   1.308   2.791   4.864
 2929SOL    HW1 9686   1.304   2.869   4.801
 2929SOL    HW2 9687   1.328   2.824   4.956
 2930SOL     OW 9688   5.997   5.845   5.487
 2930SOL    HW1 9689   6.024   5.940   5.506
 2930SOL    HW2 9690   6.061   5.783   5.533
 2931SOL     OW 9691   4.433   5.071   0.593
 2931SOL    HW1 9692   4.364   5.134   0.627
 2931SOL    HW2 9693   4.451   5.091   0.496
 2932SOL     OW 9694   6.934   4.976   2.273
 2932SOL    HW1 9695   6.898   4.989   2.181
 2932SOL    HW2 9696   6.952   5.064   2.315
 2933SOL     OW 9697   0.362   0.109   1.931
 2933SOL    HW1 9698   0.329   0.016   1.916
 2933SOL    HW2 9699   0.297   0.175   1.894
 2934SOL     OW 9700   4.468   3.049   1.429
 2934SOL    HW1 9701   4.427   2.980   1.369
 2934SOL    HW2 9702   4.472   3.137   1.380
 2935SOL     OW 9703   0.893   2.577   6.473
 2935SOL    HW1 9704   0.992   2.588   6.470
 2935SOL    HW2 9705   0.853   2.644   6.535
 2936SOL     OW 9706   4.484   6.988   0.611
 2936SOL    HW1 9707   4.567   7.021   0.657
 2936SOL    HW2 9708   4.448   0.031   0.551
 2937SOL     OW 9709   4.480   4.775   1.259
 2937SOL    HW1 9710   4.407   4.806   1.320
 2937SOL    HW2 9711   4.564   4.761   1.312
 2938SOL     OW 9712   6.129   5.368   0.229
 2938SOL    HW1 9713   6.058   5.433   0.257
 2938SOL    HW2 9714   6.208   5.418   0.194
 2939SOL     OW 9715   0.493   6.716   1.567
 2939SOL    HW1 9716   0.472   6.786   1.636
 2939SOL    HW2 9717   0.408   6.674   1.536
 2940SOL     OW 9718   5.827   5.855   4.244
 2940SOL    HW1 9719   5.854   5.831   4.151
 2940SOL    HW2 9720   5.890   5.812   4.309
 2941SOL     OW 9721   2.465   2.572   2.966
 2941SOL    HW1 9722   2.528   2.531   3.032
 2941SOL    HW2 9723   2.459   2.515   2.884
 2942SOL     OW 9724   3.351   2.608   0.284
 2942SOL    HW1 9725   3.302   2.523   0.271
 2942SOL    HW2 9726   3.390   2.638   0.196
 2943SOL     OW 9727   6.141   4.507   3.843
 2943SOL    HW1 9728   6.099   4.596   3.824
 2943SOL    HW2 9729   6.222   4.521   3.901
 2944SOL     OW 9730   2.902   6.505   3.711
 2944SOL    HW1 9731   2.880   6.429   3.650
 2944SOL    HW2 9732   2.954   6.575   3.662
 2945SOL     OW 9733   5.145   3.670   1.624
 2945SOL    HW1 9734   5.106   3.587   1.583
 2945SOL    HW2 9735   5.201   3.645   1.703
 2946SOL     OW 9736   1.825   4.149   5.809
 2946SOL    HW1 9737   1.751   4.109   5.862
 2946SOL    HW2 9738   1.872   4.077   5.758
 2947SOL     OW 9739   0.278   5.958   0.314
 2947SOL    HW1 9740   0.200   5.898   0.300
 2947SOL    HW2 9741   0.313   5.987   0.225
 2948SOL     OW 9742   6.172   4.765   3.308
 2948SOL    HW1 9743   6.134   4.701   3.375
 2948SOL    HW2 9744   6.148   4.859   3.334
 2949SOL     OW 9745   0.859   6.385   6.553
 2949SOL    HW1 9746   0.790   6.452   6.579
 2949SOL    HW2 9747   0.920   6.369   6.631
 2950SOL     OW 9748   5.751   4.886   3.021
 2950SOL    HW1 9749   5.817   4.905   2.948
 2950SOL    HW2 9750   5.791   4.909   3.109
 2951SOL     OW 9751   5.432   0.915   1.717
 2951SOL    HW1 9752   5.437   0.837   1.778
 2951SOL    HW2 9753   5.503   0.982   1.742
 2952SOL     OW 9754   6.015   0.198   5.006
 2952SOL    HW1 9755   5.930   0.202   4.953
 2952SOL    HW2 9756   6.090   0.232   4.950
 2953SOL     OW 9757   6.805   4.657   3.266
 2953SOL    HW1 9758   6.825   4.594   3.341
 2953SOL    HW2 9759   6.717   4.634   3.224
 2954SOL     OW 9760   0.010   4.469   6.621
 2954SOL    HW1 9761   0.088   4.500   6.567
 2954SOL    HW2 9762   0.042   4.441   6.711
 2955SOL     OW 9763   1.254   4.240   6.983
 2955SOL    HW1 9764   1.193   4.210   6.909
 2955SOL    HW2 9765   1.211   4.316   0.004
 2956SOL     OW 9766   0.163   5.452   3.914
 2956SOL    HW1 9767   0.073   5.435   3.874
 2956SOL    HW2 9768   0.227   5.381   3.886
 2957SOL     OW 9769   4.006   4.986   1.441
 2957SOL    HW1 9770   3.935   5.044   1.482
 2957SOL    HW2 9771   4.005   4.896   1.485
 2958SOL     OW 9772   2.356   5.160   3.500
 2958SOL    HW1 9773   2.401   5.073   3.481
 2958SOL    HW2 9774   2.258   5.151   3.482
 2959SOL     OW 9775   5.342   2.744   2.729
 2959SOL    HW1 9776   5.243   2.746   2.721
 2959SOL    HW2 9777   5.373   2.819   2.788
 2960SOL     OW 9778   3.303   0.631   0.015
 2960SOL    HW1 9779   3.281   0.545   0.062
 2960SOL    HW2 9780   3.223   0.662   6.992
 2961SOL     OW 9781   5.987   4.960   2.876
 2961SOL    HW1 9782   6.085   4.949   2.893
 2961SOL    HW2 9783   5.972   4.987   2.781
 2962SOL     OW 9784   5.001   6.577   3.406
 2962SOL    HW1 9785   5.067   6.644   3.440
 2962SOL    HW2 9786   4.910   6.618   3.405
 2963SOL     OW 9787   1.542   1.019   6.668
 2963SOL    HW1 9788   1.521   1.008   6.765
 2963SOL    HW2 9789   1.641   1.014   6.654
 2964SOL     OW 9790   0.566   2.694   6.543
 2964SOL    HW1 9791   0.575   2.784   6.586
 2964SOL    HW2 9792   0.604   2.624   6.603
 2965SOL     OW 9793   1.445   0.516   4.415
 2965SOL    HW1 9794   1.521   0.519   4.350
 2965SOL    HW2 9795   1.376   0.583   4.388
 2966SOL     OW 9796   4.662   5.594   4.027
 2966SOL    HW1 9797   4.738   5.659   4.041
 2966SOL    HW2 9798   4.577   5.645   4.014
 2967SOL     OW 9799   6.543   1.537   5.907
 2967SOL    HW1 9800   6.480   1.489   5.845
 2967SOL    HW2 9801   6.505   1.627   5.930
 2968SOL     OW 9802   1.997   2.897   1.004
 2968SOL    HW1 9803   2.025   2.845   1.085
 2968SOL    HW2 9804   2.044   2.985   1.003
 2969SOL     OW 9805   4.819   4.061   4.729
 2969SOL    HW1 9806   4.759   4.137   4.703
 2969SOL    HW2 9807   4.763   3.983   4.756
 2970SOL     OW 9808   3.027   2.675   5.307
 2970SOL    HW1 9809   3.036   2.739   5.384
 2970SOL    HW2 9810   3.117   2.660   5.266
 2971SOL     OW 9811   5.995   4.026   0.363
 2971SOL    HW1 9812   6.057   4.042   0.440
 2971SOL    HW2 9813   6.000   4.104   0.300
 2972SOL     OW 9814   5.535   5.138   0.128
 2972SOL    HW1 9815   5.509   5.051   0.086
 2972SOL    HW2 9816   5.542   5.208   0.057
 2973SOL     OW 9817   4.867   6.731   2.538
 2973SOL    HW1 9818   4.898   6.826   2.541
 2973SOL    HW2 9819   4.780   6.725   2.490
 2974SOL     OW 9820   5.877   4.422   3.376
 2974SOL    HW1 9821   5.831   4.390   3.459
 2974SOL    HW2 9822   5.861   4.357   3.302
 2975SOL     OW 9823   4.837   4.447   3.808
 2975SOL    HW1 9824   4.924   4.478   3.844
 2975SOL    HW2 9825   4.762   4.496   3.854
 2976SOL     OW 9826   4.878   1.852   3.275
 2976SOL    HW1 9827   4.972   1.818   3.274
 2976SOL    HW2 9828   4.835   1.834   3.186
 2977SOL     OW 9829   1.042   0.685   2.283
 2977SOL    HW1 9830   1.089   0.758   2.334
 2977SOL    HW2 9831   0.977   0.639   2.343
 2978SOL     OW 9832   3.883   4.183   6.812
 2978SOL    HW1 9833   3.845   4.150   6.725
 2978SOL    HW2 9834   3.957   4.122   6.840
 2979SOL     OW 9835   3.186   1.668   4.510
 2979SOL    HW1 9836   3.102   1.648   4.459
 2979SOL    HW2 9837   3.205   1.594   4.574
 2980SOL     OW 9838   2.276   4.714   6.140
 2980SOL    HW1 9839   2.213   4.674   6.207
 2980SOL    HW2 9840   2.339   4.643   6.108
 2981SOL     OW 9841   2.362   1.851   6.861
 2981SOL    HW1 9842   2.335   1.946   6.876
 2981SOL    HW2 9843   2.280   1.794   6.853
 2982SOL     OW 9844   2.292   6.582   2.349
 2982SOL    HW1 9845   2.203   6.584   2.303
 2982SOL    HW2 9846   2.290   6.645   2.427
 2983SOL     OW 9847   0.083   2.459   0.464
 2983SOL    HW1 9848   0.097   2.360   0.464
 2983SOL    HW2 9849   0.008   2.482   0.527
 2984SOL     OW 9850   6.316   5.031   6.351
 2984SOL    HW1 9851   6.221   5.014   6.323
 2984SOL    HW2 9852   6.319   5.110   6.412
 2985SOL     OW 9853   0.763   1.130   4.241
 2985SOL    HW1 9854   0.741   1.125   4.144
 2985SOL    HW2 9855   0.843   1.188   4.255
 2986SOL     OW 9856   3.250   3.889   2.401
 2986SOL    HW1 9857   3.265   3.825   2.476
 2986SOL    HW2 9858   3.279   3.980   2.429
 2987SOL     OW 9859   1.849   2.113   4.420
 2987SOL    HW1 9860   1.838   2.076   4.328
 2987SOL    HW2 9861   1.864   2.211   4.415
 2988SOL     OW 9862   1.591   0.184   1.713
 2988SOL    HW1 9863   1.659   0.178   1.786
 2988SOL    HW2 9864   1.624   0.133   1.634
 2989SOL     OW 9865   5.375   4.011   5.161
 2989SOL    HW1 9866   5.364   4.109   5.147
 2989SOL    HW2 9867   5.332   3.984   5.247
 2990SOL     OW 9868   5.318   2.105   4.335
 2990SOL    HW1 9869   5.316   2.027   4.398
 2990SOL    HW2 9870   5.241   2.099   4.271
 2991SOL     OW 9871   6.400   3.547   0.128
 2991SOL    HW1 9872   6.335   3.595   0.069
 2991SOL    HW2 9873   6.485   3.531   0.077
 2992SOL     OW 9874   0.988   4.649   4.670
 2992SOL    HW1 9875   0.964   4.573   4.731
 2992SOL    HW2 9876   1.069   4.625   4.617
 2993SOL     OW 9877   0.077   5.208   0.408
 2993SOL    HW1 9878   0.094   5.113   0.436
 2993SOL    HW2 9879   0.156   5.264   0.433
 2994SOL     OW 9880   4.699   6.318   6.843
 2994SOL    HW1 9881   4.721   6.228   6.806
 2994SOL    HW2 9882   4.628   6.308   6.913
 2995SOL     OW 9883   4.707   0.493   0.202
 2995SOL    HW1 9884   4.680   0.399   0.182
 2995SOL    HW2 9885   4.795   0.493   0.250
 2996SOL     OW 9886   1.510   1.718   4.613
 2996SOL    HW1 9887   1.457   1.705   4.529
 2996SOL    HW2 9888   1.455   1.770   4.679
 2997SOL     OW 9889   4.446   0.671   3.354
 2997SOL    HW1 9890   4.433   0.770   3.342
 2997SOL    HW2 9891   4.491   0.633   3.274
 2998SOL     OW 9892   3.055   0.214   3.788
 2998SOL    HW1 9893   2.966   0.251   3.760
 2998SOL    HW2 9894   3.065   0.121   3.753
 2999SOL     OW 9895   2.729   4.654   6.498
 2999SOL    HW1 9896   2.710   4.732   6.438
 2999SOL    HW2 9897   2.643   4.606   6.517
 3000SOL     OW 9898   2.594   3.900   6.299
 3000SOL    HW1 9899   2.582   3.839   6.220
 3000SOL    HW2 9900   2.675   3.873   6.350
 3001SOL     OW 9901   6.135   2.360   0.140
 3001SOL    HW1 9902   6.053   2.398   0.098
 3001SOL    HW2 9903   6.144   2.264   0.114
 3002SOL     OW 9904   3.219   1.437   1.010
 3002SOL    HW1 9905   3.188   1.524   1.048
 3002SOL    HW2 9906   3.152   1.403   0.944
 3003SOL     OW 9907   1.252   6.666   1.266
 3003SOL    HW1 9908   1.293   6.576   1.278
 3003SOL    HW2 9909   1.152   6.657   1.269
 3004SOL     OW 9910   1.844   4.494   4.043
 3004SOL    HW1 9911   1.865   4.552   4.122
 3004SOL    HW2 9912   1.853   4.547   3.959
 3005SOL     OW 9913   1.049   3.506   5.590
 3005SOL    HW1 9914   1.097   3.431   5.544
 3005SOL    HW2 9915   1.049   3.491   5.688
 3006SOL     OW 9916   5.665   1.220   5.529
 3006SOL    HW1 9917   5.745   1.175   5.570
 3006SOL    HW2 9918   5.630   1.163   5.455
 3007SOL     OW 9919   4.490   5.576   0.291
 3007SOL    HW1 9920   4.483   5.654   0.228
 3007SOL    HW2 9921   4.430   5.592   0.369
 3008SOL     OW 9922   3.990   2.474   6.262
 3008SOL    HW1 9923   3.965   2.552   6.319
 3008SOL    HW2 9924   3.993   2.391   6.318
 3009SOL     OW 9925   6.995   2.259   2.913
 3009SOL    HW1 9926   0.053   2.211   2.927
 3009SOL    HW2 9927   7.013   2.355   2.893
 3010SOL     OW 9928   3.272   5.786   5.260
 3010SOL    HW1 9929   3.356   5.768   5.311
 3010SOL    HW2 9930   3.193   5.769   5.319
 3011SOL     OW 9931   6.656   0.393   1.717
 3011SOL    HW1 9932   6.676   0.383   1.619
 3011SOL    HW2 9933   6.733   0.357   1.770
 3012SOL     OW 9934   2.938   3.415   6.916
 3012SOL    HW1 9935   3.002   3.490   6.898
 3012SOL    HW2 9936   2.844   3.449   6.908
 3013SOL     OW 9937   6.241   5.226   3.378
 3013SOL    HW1 9938   6.221   5.186   3.288
 3013SOL    HW2 9939   6.339   5.237   3.388
 3014SOL     OW 9940   4.909   1.284   6.448
 3014SOL    HW1 9941   4.928   1.201   6.394
 3014SOL    HW2 9942   4.817   1.278   6.485
 3015SOL     OW 9943   2.708   1.350   0.735
 3015SOL    HW1 9944   2.671   1.270   0.782
 3015SOL    HW2 9945   2.764   1.321   0.658
 3016SOL     OW 9946   3.123   0.166   4.287
 3016SOL    HW1 9947   3.029   0.198   4.298
 3016SOL    HW2 9948   3.140   0.092   4.353
 3017SOL     OW 9949   6.092   4.711   2.416
 3017SOL    HW1 9950   6.017   4.707   2.481
 3017SOL    HW2 9951   6.134   4.802   2.419
 3018SOL     OW 9952   4.101   0.216   6.797
 3018SOL    HW1 9953   4.015   0.166   6.784
 3018SOL    HW2 9954   4.083   0.314   6.790
 3019SOL     OW 9955   1.050   6.802   0.478
 3019SOL    HW1 9956   1.005   6.733   0.422
 3019SOL    HW2 9957   0.984   6.873   0.501
 3020SOL     OW 9958   4.681   3.366   0.223
 3020SOL    HW1 9959   4.701   3.356   0.126
 3020SOL    HW2 9960   4.640   3.282   0.258
 3021SOL     OW 9961   2.315   0.130   4.596
 3021SOL    HW1 9962   2.259   0.093   4.522
 3021SOL    HW2 9963   2.276   0.104   4.685
 3022SOL     OW 9964   3.665   6.058   4.194
 3022SOL    HW1 9965   3.641   6.097   4.105
 3022SOL    HW2 9966   3.764   6.047   4.201
 3023SOL     OW 9967   4.061   6.748   2.584
 3023SOL    HW1 9968   4.144   6.747   2.638
 3023SOL    HW2 9969   3.981   6.748   2.644
 3024SOL     OW 9970   6.178   5.686   5.592
 3024SOL    HW1 9971   6.134   5.599   5.616
 3024SOL    HW2 9972   6.277   5.672   5.586
 3025SOL     OW 9973   4.055   5.998   1.223
 3025SOL    HW1 9974   4.074   5.959   1.132
 3025SOL    HW2 9975   4.139   5.999   1.277
 3026SOL     OW 9976   0.017   0.920   6.461
 3026SOL    HW1 9977   7.026   0.929   6.364
 3026SOL    HW2 9978   0.090   0.854   6.474
 3027SOL     OW 9979   4.151   1.484   1.830
 3027SOL    HW1 9980   4.220   1.511   1.763
 3027SOL    HW2 9981   4.182   1.404   1.881
 3028SOL     OW 9982   1.818   4.082   6.275
 3028SOL    HW1 9983   1.726   4.050   6.251
 3028SOL    HW2 9984   1.885   4.042   6.213
 3029SOL     OW 9985   0.794   2.441   3.529
 3029SOL    HW1 9986   0.818   2.492   3.612
 3029SOL    HW2 9987   0.794   2.504   3.450
 3030SOL     OW 9988   1.588   4.033   0.922
 3030SOL    HW1 9989   1.656   4.036   0.996
 3030SOL    HW2 9990   1.621   3.973   0.849
 3031SOL     OW 9991   1.420   5.212   1.490
 3031SOL    HW1 9992   1.467   5.295   1.460
 3031SOL    HW2 9993   1.355   5.183   1.419
 3032SOL     OW 9994   1.440   5.861   2.945
 3032SOL    HW1 9995   1.518   5.817   2.990
 3032SOL    HW2 9996   1.450   5.960   2.951
 3033SOL     OW 9997   6.364   1.971   3.326
 3033SOL    HW1 9998   6.330   1.888   3.281
 3033SOL    HW2 9999   6.464   1.974   3.318
 3034SOL     OW10000   1.219   6.106   3.553
 3034SOL    HW110001   1.183   6.044   3.623
 3034SOL    HW210002   1.147   6.130   3.488
 3035SOL     OW10003   1.120   3.218   6.041
 3035SOL    HW110004   1.024   3.239   6.021
 3035SOL    HW210005   1.170   3.303   6.056
 3036SOL     OW10006   1.275   1.676   5.705
 3036SOL    HW110007   1.367   1.690   5.740
 3036SOL    HW210008   1.232   1.764   5.687
 3037SOL     OW10009   6.983   5.030   5.272
 3037SOL    HW110010   0.048   5.001   5.258
 3037SOL    HW210011   6.933   5.025   5.185
 3038SOL     OW10012   5.136   4.987   6.111
 3038SOL    HW110013   5.118   4.999   6.209
 3038SOL    HW210014   5.222   4.938   6.098
 3039SOL     OW10015   6.860   3.121   6.885
 3039SOL    HW110016   6.824   3.030   6.864
 3039SOL    HW210017   6.876   3.171   6.800
 3040SOL     OW10018   3.256   4.297   5.814
 3040SOL    HW110019   3.313   4.329   5.739
 3040SOL    HW210020   3.303   4.224   5.864
 3041SOL     OW10021   1.066   4.321   5.806
 3041SOL    HW110022   1.157   4.281   5.802
 3041SOL    HW210023   1.061   4.400   5.746
 3042SOL     OW10024   6.478   5.877   2.090
 3042SOL    HW110025   6.544   5.949   2.114
 3042SOL    HW210026   6.524   5.789   2.089
 3043SOL     OW10027   3.296   3.642   0.300
 3043SOL    HW110028   3.276   3.739   0.286
 3043SOL    HW210029   3.372   3.632   0.364
 3044SOL     OW10030   2.769   4.611   5.719
 3044SOL    HW110031   2.767   4.514   5.695
 3044SOL    HW210032   2.844   4.656   5.669
 3045SOL     OW10033   4.404   0.020   3.160
 3045SOL    HW110034   4.409   0.027   3.260
 3045SOL    HW210035   4.310   0.034   3.130
 3046SOL     OW10036   4.136   6.442   6.562
 3046SOL    HW110037   4.157   6.445   6.660
 3046SOL    HW210038   4.220   6.450   6.510
 3047SOL     OW10039   6.314   6.746   0.518
 3047SOL    HW110040   6.321   6.843   0.496
 3047SOL    HW210041   6.363   6.727   0.603
 3048SOL     OW10042   4.228   2.600   1.112
 3048SOL    HW110043   4.324   2.613   1.087
 3048SOL    HW210044   4.187   2.533   1.051
 3049SOL     OW10045   1.149   0.747   3.798
 3049SOL    HW110046   1.083   0.815   3.829
 3049SOL    HW210047   1.165   0.680   3.871
 3050SOL     OW10048   1.981   2.382   1.475
 3050SOL    HW110049   2.047   2.457   1.474
 3050SOL    HW210050   1.995   2.324   1.396
 3051SOL     OW10051   2.907   6.931   6.392
 3051SOL    HW110052   2.983   6.929   6.456
 3051SOL    HW210053   2.846   7.007   6.415
 3052SOL     OW10054   5.511   6.212   2.407
 3052SOL    HW110055   5.585   6.276   2.386
 3052SOL    HW210056   5.550   6.128   2.445
 3053SOL     OW10057   1.108   4.539   1.120
 3053SOL    HW110058   1.057   4.624   1.135
 3053SOL    HW210059   1.058   4.481   1.055
 3054SOL     OW10060   5.786   0.855   3.536
 3054SOL    HW110061   5.873   0.838   3.489
 3054SOL    HW210062   5.712   0.853   3.469
 3055SOL     OW10063   5.756   6.715   6.106
 3055SOL    HW110064   5.738   6.624   6.141
 3055SOL    HW210065   5.741   6.717   6.007
 3056SOL     OW10066   6.164   1.637   6.274
 3056SOL    HW110067   6.068   1.609   6.266
 3056SOL    HW210068   6.223   1.560   6.249
 3057SOL     OW10069   5.496   6.023   3.726
 3057SOL    HW110070   5.522   5.935   3.765
 3057SOL    HW210071   5.483   6.090   3.799
 3058SOL     OW10072   6.342   3.974   1.386
 3058SOL    HW110073   6.422   3.982   1.327
 3058SOL    HW210074   6.276   3.912   1.344
 3059SOL     OW10075   2.380   1.932   4.457
 3059SOL    HW110076   2.346   2.005   4.398
 3059SOL    HW210077   2.387   1.965   4.551
 3060SOL     OW10078   3.049   5.095   6.603
 3060SOL    HW110079   3.068   5.044   6.519
 3060SOL    HW210080   2.959   5.138   6.596
 3061SOL     OW10081   6.036   5.219   5.791
 3061SOL    HW110082   6.056   5.124   5.814
 3061SOL    HW210083   6.017   5.270   5.874
 3062SOL     OW10084   3.864   5.667   1.035
 3062SOL    HW110085   3.910   5.691   1.121
 3062SOL    HW210086   3.766   5.654   1.053
 3063SOL     OW10087   1.207   4.684   0.550
 3063SOL    HW110088   1.227   4.605   0.492
 3063SOL    HW210089   1.284   4.699   0.613
 3064SOL     OW10090   4.270   2.920   0.126
 3064SOL    HW110091   4.289   2.823   0.144
 3064SOL    HW210092   4.180   2.928   0.082
 3065SOL     OW10093   1.153   1.580   6.433
 3065SOL    HW110094   1.249   1.557   6.444
 3065SOL    HW210095   1.107   1.573   6.522
 3066SOL     OW10096   4.782   5.227   5.933
 3066SOL    HW110097   4.780   5.127   5.922
 3066SOL    HW210098   4.690   5.264   5.923
 3067SOL     OW10099   2.185   2.021   0.273
 3067SOL    HW110100   2.150   2.050   0.362
 3067SOL    HW210101   2.261   1.957   0.287
 3068SOL     OW10102   0.697   1.371   1.064
 3068SOL    HW110103   0.615   1.313   1.059
 3068SOL    HW210104   0.767   1.325   1.119
 3069SOL     OW10105   6.081   6.606   3.479
 3069SOL    HW110106   6.171   6.563   3.489
 3069SOL    HW210107   6.070   6.640   3.386
 3070SOL     OW10108   2.946   0.982   6.755
 3070SOL    HW110109   2.975   1.015   6.845
 3070SOL    HW210110   2.865   1.032   6.725
 3071SOL     OW10111   6.747   4.491   3.782
 3071SOL    HW110112   6.825   4.528   3.833
 3071SOL    HW210113   6.744   4.392   3.792
 3072SOL     OW10114   1.900   5.837   0.134
 3072SOL    HW110115   1.909   5.839   0.234
 3072SOL    HW210116   1.930   5.924   0.096
 3073SOL     OW10117   0.349   4.460   1.370
 3073SOL    HW110118   0.263   4.504   1.394
 3073SOL    HW210119   0.363   4.379   1.427
 3074SOL     OW10120   1.518   4.126   1.469
 3074SOL    HW110121   1.570   4.197   1.516
 3074SOL    HW210122   1.567   4.099   1.386
 3075SOL     OW10123   2.271   5.037   3.942
 3075SOL    HW110124   2.182   5.009   3.908
 3075SOL    HW210125   2.318   5.092   3.873
 3076SOL     OW10126   6.759   1.091   4.774
 3076SOL    HW110127   6.766   1.045   4.686
 3076SOL    HW210128   6.803   1.181   4.768
 3077SOL     OW10129   6.087   3.353   2.162
 3077SOL    HW110130   6.014   3.417   2.141
 3077SOL    HW210131   6.107   3.298   2.080
 3078SOL     OW10132   6.599   2.781   2.283
 3078SOL    HW110133   6.559   2.773   2.192
 3078SOL    HW210134   6.617   2.877   2.304
 3079SOL     OW10135   2.765   2.271   4.126
 3079SOL    HW110136   2.834   2.234   4.188
 3079SOL    HW210137   2.803   2.279   4.034
 3080SOL     OW10138   4.557   3.963   1.706
 3080SOL    HW110139   4.580   4.005   1.618
 3080SOL    HW210140   4.541   4.034   1.774
 3081SOL     OW10141   0.830   4.731   6.975
 3081SOL    HW110142   0.902   4.768   6.916
 3081SOL    HW210143   0.741   4.747   6.932
 3082SOL     OW10144   3.149   5.612   4.797
 3082SOL    HW110145   3.112   5.539   4.854
 3082SOL    HW210146   3.114   5.603   4.703
 3083SOL     OW10147   3.229   5.234   2.481
 3083SOL    HW110148   3.145   5.180   2.482
 3083SOL    HW210149   3.207   5.330   2.493
 3084SOL     OW10150   0.337   4.125   2.361
 3084SOL    HW110151   0.241   4.134   2.388
 3084SOL    HW210152   0.342   4.094   2.266
 3085SOL     OW10153   5.045   4.597   0.782
 3085SOL    HW110154   5.112   4.585   0.709
 3085SOL    HW210155   4.956   4.561   0.753
 3086SOL     OW10156   4.896   1.345   0.060
 3086SOL    HW110157   4.962   1.284   0.018
 3086SOL    HW210158   4.941   1.429   0.089
 3087SOL     OW10159   2.074   6.635   2.198
 3087SOL    HW110160   2.100   6.644   2.101
 3087SOL    HW210161   2.033   6.720   2.230
 3088SOL     OW10162   1.085   3.048   5.632
 3088SOL    HW110163   1.148   3.047   5.710
 3088SOL    HW210164   1.002   3.098   5.656
 3089SOL     OW10165   4.867   1.119   5.262
 3089SOL    HW110166   4.925   1.114   5.180
 3089SOL    HW210167   4.906   1.185   5.326
 3090SOL     OW10168   1.651   1.226   1.970
 3090SOL    HW110169   1.663   1.305   2.030
 3090SOL    HW210170   1.573   1.240   1.910
 3091SOL     OW10171   1.523   1.270   0.751
 3091SOL    HW110172   1.548   1.192   0.694
 3091SOL    HW210173   1.533   1.354   0.698
 3092SOL     OW10174   5.087   6.800   1.795
 3092SOL    HW110175   5.148   6.874   1.769
 3092SOL    HW210176   5.140   6.716   1.810
 3093SOL     OW10177   5.699   6.083   5.550
 3093SOL    HW110178   5.605   6.065   5.580
 3093SOL    HW210179   5.729   6.009   5.490
 3094SOL     OW10180   3.068   0.602   4.169
 3094SOL    HW110181   3.164   0.620   4.192
 3094SOL    HW210182   3.062   0.522   4.111
 3095SOL     OW10183   2.397   3.109   5.520
 3095SOL    HW110184   2.338   3.049   5.465
 3095SOL    HW210185   2.474   3.139   5.465
 3096SOL     OW10186   0.540   3.962   4.722
 3096SOL    HW110187   0.582   3.951   4.631
 3096SOL    HW210188   0.486   3.880   4.744
 3097SOL     OW10189   5.876   2.903   0.353
 3097SOL    HW110190   5.948   2.943   0.296
 3097SOL    HW210191   5.906   2.900   0.448
 3098SOL     OW10192   1.461   2.890   2.092
 3098SOL    HW110193   1.548   2.887   2.142
 3098SOL    HW210194   1.443   2.984   2.063
 3099SOL     OW10195   0.936   6.165   3.740
 3099SOL    HW110196   0.901   6.075   3.715
 3099SOL    HW210197   1.021   6.155   3.792
 3100SOL     OW10198   0.007   6.797   2.824
 3100SOL    HW110199   6.947   6.756   2.803
 3100SOL    HW210200   0.042   6.845   2.744
 3101SOL     OW10201   4.646   6.670   5.990
 3101SOL    HW110202   4.672   6.625   6.076
 3101SOL    HW210203   4.551   6.650   5.969
 3102SOL     OW10204   6.842   5.799   0.314
 3102SOL    HW110205   6.809   5.866   0.247
 3102SOL    HW210206   6.765   5.764   0.367
 3103SOL     OW10207   4.899   0.739   1.076
 3103SOL    HW110208   4.933   0.654   1.037
 3103SOL    HW210209   4.853   0.792   1.005
 3104SOL     OW10210   4.351   0.024   6.763
 3104SOL    HW110211   4.383   6.964   6.731
 3104SOL    HW210212   4.252   0.021   6.776
 3105SOL     OW10213   4.904   3.149   0.857
 3105SOL    HW110214   4.888   3.063   0.810
 3105SOL    HW210215   4.819   3.180   0.900
 3106SOL     OW10216   5.292   6.947   5.596
 3106SOL    HW110217   5.241   6.994   5.525
 3106SOL    HW210218   5.307   7.008   5.674
 3107SOL     OW10219   4.308   1.719   4.519
 3107SOL    HW110220   4.405   1.733   4.539
 3107SOL    HW210221   4.282   1.775   4.440
 3108SOL     OW10222   2.242   4.838   4.660
 3108SOL    HW110223   2.321   4.855   4.718
 3108SOL    HW210224   2.206   4.746   4.678
 3109SOL     OW10225   6.251   0.208   4.844
 3109SOL    HW110226   6.202   0.173   4.764
 3109SOL    HW210227   6.338   0.248   4.814
 3110SOL     OW10228   2.465   4.421   3.286
 3110SOL    HW110229   2.419   4.360   3.351
 3110SOL    HW210230   2.438   4.396   3.193
 3111SOL     OW10231   6.395   4.728   3.569
 3111SOL    HW110232   6.317   4.774   3.611
 3111SOL    HW210233   6.366   4.639   3.533
 3112SOL     OW10234   3.059   3.160   6.760
 3112SOL    HW110235   3.146   3.197   6.726
 3112SOL    HW210236   2.997   3.235   6.782
 3113SOL     OW10237   3.250   5.938   2.504
 3113SOL    HW110238   3.288   5.852   2.538
 3113SOL    HW210239   3.289   6.014   2.556
 3114SOL     OW10240   4.131   1.288   0.278
 3114SOL    HW110241   4.087   1.213   0.328
 3114SOL    HW210242   4.225   1.262   0.256
 3115SOL     OW10243   3.994   4.600   5.282
 3115SOL    HW110244   3.923   4.604   5.352
 3115SOL    HW210245   4.041   4.511   5.288
 3116SOL     OW10246   1.080   1.947   0.439
 3116SOL    HW110247   1.170   1.906   0.425
 3116SOL    HW210248   1.069   2.024   0.377
 3117SOL     OW10249   5.035   2.717   5.481
 3117SOL    HW110250   4.985   2.637   5.446
 3117SOL    HW210251   5.100   2.748   5.412
 3118SOL     OW10252   1.147   0.370   2.533
 3118SOL    HW110253   1.136   0.389   2.435
 3118SOL    HW210254   1.218   0.430   2.570
 3119SOL     OW10255   2.932   2.422   5.296
 3119SOL    HW110256   3.004   2.359   5.269
 3119SOL    HW210257   2.972   2.512   5.317
 3120SOL     OW10258   3.135   0.603   5.855
 3120SOL    HW110259   3.232   0.605   5.880
 3120SOL    HW210260   3.083   0.560   5.928
 3121SOL     OW10261   5.374   1.740   4.246
 3121SOL    HW110262   5.302   1.722   4.178
 3121SOL    HW210263   5.446   1.795   4.204
 3122SOL     OW10264   4.374   4.716   4.804
 3122SOL    HW110265   4.385   4.790   4.871
 3122SOL    HW210266   4.336   4.636   4.849
 3123SOL     OW10267   2.049   0.346   3.404
 3123SOL    HW110268   2.148   0.335   3.396
 3123SOL    HW210269   2.019   0.313   3.494
 3124SOL     OW10270   5.421   6.792   4.250
 3124SOL    HW110271   5.352   6.743   4.197
 3124SOL    HW210272   5.450   6.736   4.328
 3125SOL     OW10273   0.689   2.809   5.492
 3125SOL    HW110274   0.767   2.784   5.550
 3125SOL    HW210275   0.683   2.746   5.415
 3126SOL     OW10276   5.818   4.792   6.381
 3126SOL    HW110277   5.858   4.870   6.430
 3126SOL    HW210278   5.759   4.826   6.308
 3127SOL     OW10279   1.379   2.858   5.128
 3127SOL    HW110280   1.476   2.854   5.152
 3127SOL    HW210281   1.340   2.766   5.131
 3128SOL     OW10282   3.921   0.757   0.532
 3128SOL    HW110283   3.974   0.838   0.506
 3128SOL    HW210284   3.964   0.713   0.611
 3129SOL     OW10285   5.137   3.262   0.953
 3129SOL    HW110286   5.074   3.192   0.919
 3129SOL    HW210287   5.085   3.343   0.979
 3130SOL     OW10288   1.812   4.206   1.420
 3130SOL    HW110289   1.757   4.284   1.448
 3130SOL    HW210290   1.829   4.146   1.498
 3131SOL     OW10291   6.954   3.398   2.317
 3131SOL    HW110292   6.962   3.428   2.412
 3131SOL    HW210293   0.004   3.430   2.264
 3132SOL     OW10294   4.335   5.111   6.758
 3132SOL    HW110295   4.303   5.040   6.822
 3132SOL    HW210296   4.431   5.131   6.777
 3133SOL     OW10297   3.924   1.652   3.407
 3133SOL    HW110298   3.979   1.735   3.401
 3133SOL    HW210299   3.982   1.575   3.433
 3134SOL     OW10300   3.758   5.063   1.947
 3134SOL    HW110301   3.801   4.977   1.921
 3134SOL    HW210302   3.707   5.050   2.032
 3135SOL     OW10303   5.449   6.418   6.428
 3135SOL    HW110304   5.497   6.343   6.382
 3135SOL    HW210305   5.498   6.441   6.513
 3136SOL     OW10306   5.551   0.460   2.060
 3136SOL    HW110307   5.543   0.551   2.020
 3136SOL    HW210308   5.644   0.447   2.095
 3137SOL     OW10309   6.681   6.788   2.136
 3137SOL    HW110310   6.614   6.725   2.096
 3137SOL    HW210311   6.696   6.764   2.232
 3138SOL     OW10312   6.237   5.265   3.731
 3138SOL    HW110313   6.148   5.231   3.701
 3138SOL    HW210314   6.301   5.189   3.741
 3139SOL     OW10315   3.332   5.017   1.552
 3139SOL    HW110316   3.361   5.050   1.642
 3139SOL    HW210317   3.343   4.917   1.548
 3140SOL     OW10318   0.017   5.909   5.184
 3140SOL    HW110319   0.024   5.835   5.118
 3140SOL    HW210320   0.105   5.922   5.229
 3141SOL     OW10321   6.887   1.021   6.660
 3141SOL    HW110322   6.946   1.011   6.580
 3141SOL    HW210323   6.792   1.009   6.633
 3142SOL     OW10324   3.829   1.189   2.670
 3142SOL    HW110325   3.787   1.128   2.737
 3142SOL    HW210326   3.902   1.242   2.714
 3143SOL     OW10327   6.249   1.820   6.922
 3143SOL    HW110328   6.343   1.810   6.889
 3143SOL    HW210329   6.243   1.787   7.016
 3144SOL     OW10330   4.319   3.787   6.982
 3144SOL    HW110331   4.249   3.731   7.026
 3144SOL    HW210332   4.409   3.762   7.018
 3145SOL     OW10333   1.887   6.660   2.545
 3145SOL    HW110334   1.892   6.604   2.462
 3145SOL    HW210335   1.977   6.699   2.564
 3146SOL     OW10336   0.881   1.007   5.044
 3146SOL    HW110337   0.889   0.961   4.956
 3146SOL    HW210338   0.876   0.939   5.118
 3147SOL     OW10339   3.371   5.373   6.744
 3147SOL    HW110340   3.447   5.390   6.682
 3147SOL    HW210341   3.343   5.459   6.787
 3148SOL     OW10342   0.388   0.491   3.710
 3148SOL    HW110343   0.448   0.453   3.639
 3148SOL    HW210344   0.311   0.537   3.668
 3149SOL     OW10345   3.283   1.148   6.459
 3149SOL    HW110346   3.278   1.147   6.559
 3149SOL    HW210347   3.198   1.111   6.421
 3150SOL     OW10348   6.450   5.678   5.563
 3150SOL    HW110349   6.419   5.769   5.593
 3150SOL    HW210350   6.509   5.639   5.633
 3151SOL     OW10351   0.480   1.854   5.866
 3151SOL    HW110352   0.436   1.815   5.786
 3151SOL    HW210353   0.495   1.783   5.934
 3152SOL     OW10354   1.094   4.366   6.763
 3152SOL    HW110355   1.163   4.426   6.802
 3152SOL    HW210356   1.005   4.388   6.802
 3153SOL     OW10357   6.199   5.093   0.164
 3153SOL    HW110358   6.187   5.191   0.181
 3153SOL    HW210359   6.238   5.049   0.245
 3154SOL     OW10360   5.866   0.833   1.054
 3154SOL    HW110361   5.816   0.751   1.082
 3154SOL    HW210362   5.933   0.809   0.984
 3155SOL     OW10363   6.438   4.429   0.340
 3155SOL    HW110364   6.464   4.520   0.307
 3155SOL    HW210365   6.438   4.365   0.263
 3156SOL     OW10366   3.422   4.015   2.195
 3156SOL    HW110367   3.341   3.976   2.238
 3156SOL    HW210368   3.421   3.994   2.097
 3157SOL     OW10369   1.588   1.950   5.212
 3157SOL    HW110370   1.665   1.966   5.151
 3157SOL    HW210371   1.525   2.027   5.207
 3158SOL     OW10372   2.736   1.665   5.212
 3158SOL    HW110373   2.678   1.626   5.283
 3158SOL    HW210374   2.717   1.763   5.204
 3159SOL     OW10375   5.678   0.714   6.763
 3159SOL    HW110376   5.588   0.753   6.779
 3159SOL    HW210377   5.695   0.706   6.665
 3160SOL     OW10378   2.020   0.026   5.414
 3160SOL    HW110379   2.098   0.048   5.472
 3160SOL    HW210380   2.052   0.004   5.322
 3161SOL     OW10381   2.062   2.454   2.576
 3161SOL    HW110382   2.074   2.354   2.569
 3161SOL    HW210383   2.151   2.496   2.596
 3162SOL     OW10384   2.019   5.762   0.686
 3162SOL    HW110385   2.041   5.842   0.742
 3162SOL    HW210386   1.972   5.694   0.742
 3163SOL     OW10387   3.442   3.374   0.253
 3163SOL    HW110388   3.493   3.411   0.331
 3163SOL    HW210389   3.428   3.275   0.266
 3164SOL     OW10390   3.521   5.779   2.313
 3164SOL    HW110391   3.539   5.727   2.230
 3164SOL    HW210392   3.603   5.778   2.372
 3165SOL     OW10393   0.891   5.549   1.158
 3165SOL    HW110394   0.974   5.577   1.111
 3165SOL    HW210395   0.906   5.461   1.203
 3166SOL     OW10396   4.194   1.108   4.523
 3166SOL    HW110397   4.257   1.175   4.564
 3166SOL    HW210398   4.244   1.023   4.507
 3167SOL     OW10399   5.553   4.493   0.789
 3167SOL    HW110400   5.457   4.467   0.798
 3167SOL    HW210401   5.611   4.419   0.824
 3168SOL     OW10402   5.707   2.304   0.872
 3168SOL    HW110403   5.607   2.299   0.867
 3168SOL    HW210404   5.745   2.213   0.862
 3169SOL     OW10405   1.959   4.199   3.349
 3169SOL    HW110406   1.895   4.275   3.357
 3169SOL    HW210407   1.910   4.115   3.324
 3170SOL     OW10408   4.206   5.843   2.890
 3170SOL    HW110409   4.204   5.835   2.990
 3170SOL    HW210410   4.182   5.937   2.864
 3171SOL     OW10411   5.559   2.110   1.842
 3171SOL    HW110412   5.574   2.148   1.933
 3171SOL    HW210413   5.641   2.121   1.786
 3172SOL     OW10414   0.452   5.745   0.188
 3172SOL    HW110415   0.459   5.698   0.276
 3172SOL    HW210416   0.495   5.689   0.117
 3173SOL     OW10417   3.013   2.692   6.464
 3173SOL    HW110418   3.036   2.594   6.458
 3173SOL    HW210419   2.942   2.714   6.397
 3174SOL     OW10420   2.442   2.783   6.315
 3174SOL    HW110421   2.350   2.798   6.350
 3174SOL    HW210422   2.505   2.849   6.357
 3175SOL     OW10423   5.677   1.008   1.795
 3175SOL    HW110424   5.715   0.916   1.792
 3175SOL    HW210425   5.722   1.060   1.869
 3176SOL     OW10426   0.558   3.024   5.621
 3176SOL    HW110427   0.605   2.942   5.587
 3176SOL    HW210428   0.524   3.077   5.543
 3177SOL     OW10429   5.149   4.101   4.034
 3177SOL    HW110430   5.167   4.189   4.078
 3177SOL    HW210431   5.098   4.042   4.096
 3178SOL     OW10432   6.469   2.467   0.239
 3178SOL    HW110433   6.384   2.462   0.187
 3178SOL    HW210434   6.459   2.532   0.314
 3179SOL     OW10435   1.359   1.553   1.763
 3179SOL    HW110436   1.390   1.523   1.673
 3179SOL    HW210437   1.438   1.563   1.824
 3180SOL     OW10438   5.436   6.718   0.610
 3180SOL    HW110439   5.372   6.732   0.534
 3180SOL    HW210440   5.515   6.666   0.577
 3181SOL     OW10441   6.885   1.793   4.170
 3181SOL    HW110442   6.835   1.741   4.239
 3181SOL    HW210443   6.909   1.883   4.207
 3182SOL     OW10444   2.637   0.854   6.622
 3182SOL    HW110445   2.611   0.777   6.564
 3182SOL    HW210446   2.679   0.926   6.566
 3183SOL     OW10447   4.411   4.763   2.199
 3183SOL    HW110448   4.504   4.800   2.206
 3183SOL    HW210449   4.353   4.806   2.268
 3184SOL     OW10450   0.407   1.744   2.684
 3184SOL    HW110451   0.467   1.711   2.611
 3184SOL    HW210452   0.368   1.666   2.733
 3185SOL     OW10453   5.776   6.668   6.487
 3185SOL    HW110454   5.754   6.639   6.394
 3185SOL    HW210455   5.703   6.729   6.521
 3186SOL     OW10456   2.850   1.668   0.484
 3186SOL    HW110457   2.835   1.595   0.418
 3186SOL    HW210458   2.836   1.757   0.440
 3187SOL     OW10459   3.586   5.340   2.149
 3187SOL    HW110460   3.538   5.273   2.205
 3187SOL    HW210461   3.543   5.346   2.059
 3188SOL     OW10462   2.144   5.805   4.601
 3188SOL    HW110463   2.166   5.813   4.698
 3188SOL    HW210464   2.223   5.833   4.546
 3189SOL     OW10465   2.118   1.572   0.223
 3189SOL    HW110466   2.130   1.664   0.261
 3189SOL    HW210467   2.069   1.515   0.290
 3190SOL     OW10468   6.867   5.896   6.822
 3190SOL    HW110469   6.943   5.877   6.884
 3190SOL    HW210470   6.812   5.971   6.860
 3191SOL     OW10471   4.330   5.064   1.644
 3191SOL    HW110472   4.370   5.147   1.681
 3191SOL    HW210473   4.304   5.003   1.719
 3192SOL     OW10474   0.017   2.631   0.833
 3192SOL    HW110475   0.106   2.586   0.824
 3192SOL    HW210476   7.003   2.603   0.918
 3193SOL     OW10477   4.005   1.543   5.097
 3193SOL    HW110478   4.071   1.538   5.021
 3193SOL    HW210479   3.946   1.622   5.084
 3194SOL     OW10480   0.475   1.444   5.424
 3194SOL    HW110481   0.399   1.380   5.409
 3194SOL    HW210482   0.532   1.448   5.341
 3195SOL     OW10483   0.622   1.217   1.388
 3195SOL    HW110484   0.688   1.226   1.463
 3195SOL    HW210485   0.625   1.124   1.352
 3196SOL     OW10486   6.847   0.496   6.647
 3196SOL    HW110487   6.927   0.457   6.599
 3196SOL    HW210488   6.783   0.422   6.669
 3197SOL     OW10489   2.510   6.859   5.370
 3197SOL    HW110490   2.514   6.774   5.424
 3197SOL    HW210491   2.465   6.930   5.423
 3198SOL     OW10492   6.301   2.504   3.043
 3198SOL    HW110493   6.236   2.428   3.042
 3198SOL    HW210494   6.256   2.587   3.010
 3199SOL     OW10495   5.361   4.486   2.939
 3199SOL    HW110496   5.434   4.508   3.003
 3199SOL    HW210497   5.299   4.564   2.930
 3200SOL     OW10498   5.909   2.976   3.000
 3200SOL    HW110499   5.945   2.962   3.092
 3200SOL    HW210500   5.838   3.046   3.002
 3201SOL     OW10501   6.636   4.855   3.138
 3201SOL    HW110502   6.683   4.819   3.057
 3201SOL    HW210503   6.545   4.814   3.144
 3202SOL     OW10504   0.719   5.025   0.594
 3202SOL    HW110505   0.772   5.092   0.646
 3202SOL    HW210506   0.679   4.959   0.658
 3203SOL     OW10507   5.581   1.881   1.131
 3203SOL    HW110508   5.522   1.896   1.210
 3203SOL    HW210509   5.672   1.854   1.162
 3204SOL     OW10510   3.448   0.734   3.281
 3204SOL    HW110511   3.522   0.770   3.224
 3204SOL    HW210512   3.364   0.785   3.262
 3205SOL     OW10513   5.011   2.709   5.769
 3205SOL    HW110514   4.923   2.692   5.813
 3205SOL    HW210515   4.997   2.724   5.671
 3206SOL     OW10516   2.128   3.924   1.096
 3206SOL    HW110517   2.222   3.958   1.089
 3206SOL    HW210518   2.064   3.999   1.085
 3207SOL     OW10519   1.394   0.707   6.717
 3207SOL    HW110520   1.461   0.649   6.670
 3207SOL    HW210521   1.443   0.774   6.773
 3208SOL     OW10522   5.561   5.871   6.193
 3208SOL    HW110523   5.559   5.936   6.269
 3208SOL    HW210524   5.497   5.797   6.210
 3209SOL     OW10525   3.113   5.165   4.639
 3209SOL    HW110526   3.051   5.120   4.574
 3209SOL    HW210527   3.077   5.157   4.731
 3210SOL     OW10528   1.243   5.147   1.271
 3210SOL    HW110529   1.225   5.245   1.260
 3210SOL    HW210530   1.218   5.099   1.187
 3211SOL     OW10531   2.005   4.721   0.559
 3211SOL    HW110532   2.048   4.661   0.491
 3211SOL    HW210533   2.028   4.690   0.651
 3212SOL     OW10534   3.492   6.988   2.456
 3212SOL    HW110535   3.487   6.924   2.379
 3212SOL    HW210536   3.517   0.049   2.422
 3213SOL     OW10537   1.581   0.509   6.605
 3213SOL    HW110538   1.679   0.488   6.596
 3213SOL    HW210539   1.529   0.449   6.544
 3214SOL     OW10540   4.762   5.791   2.438
 3214SOL    HW110541   4.794   5.864   2.376
 3214SOL    HW210542   4.761   5.825   2.532
 3215SOL     OW10543   0.586   4.138   1.045
 3215SOL    HW110544   0.560   4.052   1.088
 3215SOL    HW210545   0.504   4.190   1.022
 3216SOL     OW10546   5.593   5.265   0.783
 3216SOL    HW110547   5.516   5.240   0.841
 3216SOL    HW210548   5.629   5.183   0.738
 3217SOL     OW10549   0.111   5.345   2.430
 3217SOL    HW110550   0.191   5.380   2.477
 3217SOL    HW210551   0.141   5.294   2.348
 3218SOL     OW10552   5.669   2.537   2.902
 3218SOL    HW110553   5.731   2.571   2.830
 3218SOL    HW210554   5.586   2.592   2.902
 3219SOL     OW10555   0.009   0.545   4.494
 3219SOL    HW110556   0.030   0.610   4.568
 3219SOL    HW210557   7.002   0.595   4.415
 3220SOL     OW10558   0.393   5.768   6.254
 3220SOL    HW110559   0.313   5.801   6.204
 3220SOL    HW210560   0.393   5.808   6.346
 3221SOL     OW10561   3.151   0.017   2.558
 3221SOL    HW110562   3.188   0.044   2.469
 3221SOL    HW210563   3.152   0.096   2.620
 3222SOL     OW10564   2.804   1.243   2.390
 3222SOL    HW110565   2.869   1.243   2.314
 3222SOL    HW210566   2.851   1.273   2.473
 3223SOL     OW10567   2.707   6.850   0.221
 3223SOL    HW110568   2.663   6.779   0.166
 3223SOL    HW210569   2.720   6.817   0.315
 3224SOL     OW10570   4.948   2.544   4.993
 3224SOL    HW110571   4.986   2.471   4.936
 3224SOL    HW210572   4.881   2.505   5.056
 3225SOL     OW10573   4.587   1.551   5.408
 3225SOL    HW110574   4.518   1.579   5.474
 3225SOL    HW210575   4.610   1.455   5.422
 3226SOL     OW10576   2.129   0.920   2.012
 3226SOL    HW110577   2.032   0.931   1.989
 3226SOL    HW210578   2.167   0.843   1.959
 3227SOL     OW10579   3.480   3.364   6.807
 3227SOL    HW110580   3.540   3.399   6.735
 3227SOL    HW210581   3.389   3.348   6.770
 3228SOL     OW10582   6.776   3.782   0.842
 3228SOL    HW110583   6.873   3.762   0.856
 3228SOL    HW210584   6.738   3.720   0.773
 3229SOL     OW10585   3.676   0.599   5.477
 3229SOL    HW110586   3.729   0.652   5.410
 3229SOL    HW210587   3.588   0.645   5.493
 3230SOL     OW10588   1.709   5.689   6.063
 3230SOL    HW110589   1.701   5.736   6.151
 3230SOL    HW210590   1.783   5.730   6.010
 3231SOL     OW10591   2.651   0.764   2.755
 3231SOL    HW110592   2.696   0.852   2.737
 3231SOL    HW210593   2.685   0.695   2.691
 3232SOL     OW10594   4.081   6.237   4.068
 3232SOL    HW110595   4.020   6.309   4.099
 3232SOL    HW210596   4.107   6.254   3.973
 3233SOL     OW10597   6.902   2.455   0.644
 3233SOL    HW110598   6.809   2.426   0.666
 3233SOL    HW210599   6.946   2.492   0.726
 3234SOL     OW10600   0.695   3.054   0.128
 3234SOL    HW110601   0.602   3.023   0.108
 3234SOL    HW210602   0.760   3.006   0.069
 3235SOL     OW10603   6.492   0.069   1.959
 3235SOL    HW110604   6.454   0.000   1.898
 3235SOL    HW210605   6.519   0.150   1.907
 3236SOL     OW10606   0.971   4.391   0.829
 3236SOL    HW110607   0.910   4.356   0.758
 3236SOL    HW210608   1.065   4.366   0.808
 3237SOL     OW10609   5.874   1.073   2.613
 3237SOL    HW110610   5.806   1.120   2.670
 3237SOL    HW210611   5.943   1.031   2.671
 3238SOL     OW10612   5.769   5.298   0.135
 3238SOL    HW110613   5.797   5.256   0.048
 3238SOL    HW210614   5.696   5.244   0.176
 3239SOL     OW10615   0.280   1.028   3.406
 3239SOL    HW110616   0.282   1.001   3.310
 3239SOL    HW210617   0.210   1.099   3.419
 3240SOL     OW10618   0.090   0.478   6.060
 3240SOL    HW110619   0.176   0.427   6.070
 3240SOL    HW210620   0.015   0.413   6.048
 3241SOL     OW10621   5.114   1.562   5.795
 3241SOL    HW110622   5.030   1.563   5.740
 3241SOL    HW210623   5.091   1.576   5.891
 3242SOL     OW10624   4.549   3.761   5.933
 3242SOL    HW110625   4.513   3.687   5.877
 3242SOL    HW210626   4.481   3.786   6.002
 3243SOL     OW10627   4.452   5.146   0.259
 3243SOL    HW110628   4.513   5.109   0.189
 3243SOL    HW210629   4.489   5.231   0.294
 3244SOL     OW10630   5.591   6.239   7.012
 3244SOL    HW110631   5.622   6.257   6.918
 3244SOL    HW210632   5.671   6.234   0.043
 3245SOL     OW10633   4.982   1.775   4.524
 3245SOL    HW110634   4.980   1.676   4.536
 3245SOL    HW210635   4.941   1.819   4.604
 3246SOL     OW10636   6.658   6.893   2.963
 3246SOL    HW110637   6.683   6.915   2.868
 3246SOL    HW210638   6.672   6.796   2.980
 3247SOL     OW10639   6.117   4.671   2.080
 3247SOL    HW110640   6.151   4.594   2.027
 3247SOL    HW210641   6.145   4.661   2.176
 3248SOL     OW10642   5.430   2.312   2.570
 3248SOL    HW110643   5.526   2.337   2.554
 3248SOL    HW210644   5.389   2.377   2.635
 3249SOL     OW10645   3.405   3.608   3.551
 3249SOL    HW110646   3.369   3.647   3.466
 3249SOL    HW210647   3.333   3.556   3.596
 3250SOL     OW10648   5.408   0.210   2.735
 3250SOL    HW110649   5.432   0.278   2.665
 3250SOL    HW210650   5.424   0.248   2.826
 3251SOL     OW10651   3.409   1.009   4.192
 3251SOL    HW110652   3.362   1.090   4.229
 3251SOL    HW210653   3.500   1.036   4.161
 3252SOL     OW10654   3.046   0.468   2.350
 3252SOL    HW110655   3.011   0.559   2.373
 3252SOL    HW210656   3.135   0.454   2.394
 3253SOL     OW10657   4.514   3.794   0.393
 3253SOL    HW110658   4.480   3.880   0.354
 3253SOL    HW210659   4.516   3.724   0.322
 3254SOL     OW10660   5.121   6.575   6.953
 3254SOL    HW110661   5.183   6.620   6.889
 3254SOL    HW210662   5.028   6.610   6.941
 3255SOL     OW10663   4.582   6.598   1.183
 3255SOL    HW110664   4.542   6.617   1.272
 3255SOL    HW210665   4.592   6.500   1.170
 3256SOL     OW10666   3.619   1.988   1.114
 3256SOL    HW110667   3.558   1.924   1.161
 3256SOL    HW210668   3.681   2.029   1.180
 3257SOL     OW10669   1.844   1.798   1.624
 3257SOL    HW110670   1.757   1.846   1.639
 3257SOL    HW210671   1.909   1.861   1.581
 3258SOL     OW10672   4.122   5.428   3.372
 3258SOL    HW110673   4.069   5.467   3.447
 3258SOL    HW210674   4.095   5.471   3.286
 3259SOL     OW10675   4.741   5.386   4.355
 3259SOL    HW110676   4.738   5.344   4.446
 3259SOL    HW210677   4.834   5.383   4.320
 3260SOL     OW10678   1.768   3.574   1.177
 3260SOL    HW110679   1.828   3.651   1.154
 3260SOL    HW210680   1.800   3.531   1.261
 3261SOL     OW10681   5.198   0.662   1.160
 3261SOL    HW110682   5.117   0.717   1.180
 3261SOL    HW210683   5.260   0.714   1.102
 3262SOL     OW10684   3.866   2.073   1.845
 3262SOL    HW110685   3.889   2.132   1.768
 3262SOL    HW210686   3.823   2.127   1.917
 3263SOL     OW10687   3.261   1.385   2.694
 3263SOL    HW110688   3.360   1.388   2.678
 3263SOL    HW210689   3.243   1.389   2.792
 3264SOL     OW10690   2.260   5.641   1.051
 3264SOL    HW110691   2.348   5.594   1.044
 3264SOL    HW210692   2.190   5.591   1.000
 3265SOL     OW10693   5.618   0.088   6.643
 3265SOL    HW110694   5.573   0.133   6.720
 3265SOL    HW210695   5.716   0.082   6.661
 3266SOL     OW10696   2.823   4.844   6.823
 3266SOL    HW110697   2.889   4.918   6.839
 3266SOL    HW210698   2.865   4.756   6.847
 3267SOL     OW10699   3.152   6.786   2.280
 3267SOL    HW110700   3.053   6.773   2.282
 3267SOL    HW210701   3.183   6.794   2.185
 3268SOL     OW10702   1.984   4.385   1.281
 3268SOL    HW110703   1.920   4.316   1.314
 3268SOL    HW210704   1.964   4.406   1.185
 3269SOL     OW10705   6.777   5.836   1.991
 3269SOL    HW110706   6.726   5.751   2.001
 3269SOL    HW210707   6.771   5.868   1.896
 3270SOL     OW10708   1.326   3.374   6.704
 3270SOL    HW110709   1.240   3.424   6.693
 3270SOL    HW210710   1.401   3.427   6.666
 3271SOL     OW10711   6.882   3.091   1.717
 3271SOL    HW110712   6.853   3.170   1.664
 3271SOL    HW210713   6.863   3.007   1.666
 3272SOL     OW10714   2.970   4.533   6.521
 3272SOL    HW110715   2.993   4.506   6.427
 3272SOL    HW210716   2.879   4.573   6.522
 3273SOL     OW10717   6.665   5.227   6.870
 3273SOL    HW110718   6.593   5.174   6.825
 3273SOL    HW210719   6.626   5.273   6.950
 3274SOL     OW10720   5.848   0.315   0.498
 3274SOL    HW110721   5.900   0.378   0.556
 3274SOL    HW210722   5.854   0.223   0.536
 3275SOL     OW10723   4.573   0.943   6.923
 3275SOL    HW110724   4.650   0.996   6.957
 3275SOL    HW210725   4.490   0.998   6.927
 3276SOL     OW10726   4.295   6.759   6.514
 3276SOL    HW110727   4.201   6.786   6.491
 3276SOL    HW210728   4.358   6.794   6.444
 3277SOL     OW10729   3.757   1.067   1.158
 3277SOL    HW110730   3.743   1.092   1.254
 3277SOL    HW210731   3.668   1.059   1.112
 3278SOL     OW10732   1.182   0.659   5.840
 3278SOL    HW110733   1.212   0.584   5.898
 3278SOL    HW210734   1.090   0.688   5.868
 3279SOL     OW10735   5.336   0.245   0.338
 3279SOL    HW110736   5.255   0.247   0.279
 3279SOL    HW210737   5.318   0.188   0.417
 3280SOL     OW10738   4.779   4.710   5.115
 3280SOL    HW110739   4.785   4.803   5.151
 3280SOL    HW210740   4.866   4.685   5.073
 3281SOL     OW10741   0.804   5.218   1.079
 3281SOL    HW110742   0.871   5.178   1.015
 3281SOL    HW210743   0.850   5.240   1.165
 3282SOL     OW10744   6.731   5.024   5.103
 3282SOL    HW110745   6.658   5.036   5.171
 3282SOL    HW210746   6.768   4.931   5.110
 3283SOL     OW10747   3.194   1.294   1.467
 3283SOL    HW110748   3.102   1.298   1.430
 3283SOL    HW210749   3.260   1.283   1.393
 3284SOL     OW10750   1.329   6.010   5.836
 3284SOL    HW110751   1.347   6.088   5.776
 3284SOL    HW210752   1.239   5.972   5.815
 3285SOL     OW10753   4.578   2.284   4.839
 3285SOL    HW110754   4.534   2.231   4.910
 3285SOL    HW210755   4.675   2.260   4.835
 3286SOL     OW10756   3.304   2.830   1.939
 3286SOL    HW110757   3.315   2.749   1.881
 3286SOL    HW210758   3.383   2.838   2.000
 3287SOL     OW10759   0.554   7.022   0.119
 3287SOL    HW110760   0.600   0.025   0.035
 3287SOL    HW210761   0.459   0.025   0.119
 3288SOL     OW10762   1.972   6.913   0.480
 3288SOL    HW110763   2.069   6.893   0.491
 3288SOL    HW210764   1.947   6.908   0.384
 3289SOL     OW10765   2.617   1.487   6.064
 3289SOL    HW110766   2.658   1.517   6.150
 3289SOL    HW210767   2.686   1.491   5.991
 3290SOL     OW10768   6.718   5.203   0.726
 3290SOL    HW110769   6.753   5.120   0.769
 3290SOL    HW210770   6.655   5.178   0.652
 3291SOL     OW10771   2.057   1.271   5.938
 3291SOL    HW110772   2.104   1.355   5.964
 3291SOL    HW210773   2.095   1.237   5.852
 3292SOL     OW10774   6.998   1.046   0.531
 3292SOL    HW110775   6.907   1.065   0.494
 3292SOL    HW210776   7.026   1.122   0.590
 3293SOL     OW10777   6.320   4.358   1.635
 3293SOL    HW110778   6.336   4.327   1.541
 3293SOL    HW210779   6.374   4.302   1.698
 3294SOL     OW10780   5.086   2.861   6.420
 3294SOL    HW110781   5.172   2.909   6.400
 3294SOL    HW210782   5.084   2.775   6.369
 3295SOL     OW10783   0.869   3.071   1.918
 3295SOL    HW110784   0.856   2.973   1.905
 3295SOL    HW210785   0.960   3.088   1.956
 3296SOL     OW10786   1.244   0.700   3.038
 3296SOL    HW110787   1.219   0.779   2.981
 3296SOL    HW210788   1.271   0.732   3.129
 3297SOL     OW10789   2.838   1.286   5.369
 3297SOL    HW110790   2.738   1.289   5.373
 3297SOL    HW210791   2.876   1.357   5.429
 3298SOL     OW10792   7.005   2.264   5.823
 3298SOL    HW110793   7.000   2.325   5.903
 3298SOL    HW210794   6.937   2.192   5.832
 3299SOL     OW10795   3.939   6.013   3.032
 3299SOL    HW110796   3.906   6.016   2.937
 3299SOL    HW210797   3.934   5.920   3.067
 3300SOL     OW10798   1.308   0.404   5.996
 3300SOL    HW110799   1.402   0.393   6.027
 3300SOL    HW210800   1.247   0.413   6.075
 3301SOL     OW10801   1.955   2.990   3.517
 3301SOL    HW110802   1.955   2.943   3.429
 3301SOL    HW210803   2.049   3.011   3.543
 3302SOL     OW10804   0.642   4.845   5.081
 3302SOL    HW110805   0.738   4.854   5.055
 3302SOL    HW210806   0.589   4.918   5.037
 3303SOL     OW10807   3.022   3.607   0.118
 3303SOL    HW110808   2.975   3.669   0.055
 3303SOL    HW210809   3.020   3.646   0.211
 3304SOL     OW10810   1.733   5.368   6.264
 3304SOL    HW110811   1.803   5.306   6.230
 3304SOL    HW210812   1.776   5.443   6.314
 3305SOL     OW10813   2.722   1.411   2.017
 3305SOL    HW110814   2.680   1.329   1.979
 3305SOL    HW210815   2.678   1.435   2.103
 3306SOL     OW10816   1.236   4.868   4.582
 3306SOL    HW110817   1.253   4.859   4.680
 3306SOL    HW210818   1.137   4.873   4.565
 3307SOL     OW10819   0.827   6.873   5.653
 3307SOL    HW110820   0.925   6.891   5.656
 3307SOL    HW210821   0.787   6.884   5.744
 3308SOL     OW10822   3.327   5.584   1.402
 3308SOL    HW110823   3.365   5.659   1.457
 3308SOL    HW210824   3.265   5.530   1.458
 3309SOL     OW10825   6.509   4.910   3.946
 3309SOL    HW110826   6.535   4.830   3.892
 3309SOL    HW210827   6.570   4.918   4.025
 3310SOL     OW10828   6.742   4.122   4.686
 3310SOL    HW110829   6.705   4.074   4.606
 3310SOL    HW210830   6.676   4.191   4.716
 3311SOL     OW10831   3.066   4.146   0.457
 3311SOL    HW110832   2.967   4.137   0.453
 3311SOL    HW210833   3.096   4.157   0.552
 3312SOL     OW10834   4.075   3.736   5.550
 3312SOL    HW110835   4.126   3.754   5.633
 3312SOL    HW210836   4.117   3.660   5.500
 3313SOL     OW10837   1.361   6.961   3.694
 3313SOL    HW110838   1.363   6.959   3.594
 3313SOL    HW210839   1.284   6.906   3.727
 3314SOL     OW10840   2.603   0.997   2.146
 3314SOL    HW110841   2.591   0.976   2.243
 3314SOL    HW210842   2.700   1.007   2.126
 3315SOL     OW10843   0.209   3.701   4.662
 3315SOL    HW110844   0.163   3.784   4.631
 3315SOL    HW210845   0.162   3.621   4.624
 3316SOL     OW10846   4.499   0.912   5.246
 3316SOL    HW110847   4.581   0.855   5.245
 3316SOL    HW210848   4.423   0.861   5.205
 3317SOL     OW10849   4.860   2.677   2.329
 3317SOL    HW110850   4.923   2.624   2.387
 3317SOL    HW210851   4.875   2.653   2.234
 3318SOL     OW10852   1.932   1.461   0.440
 3318SOL    HW110853   1.875   1.444   0.521
 3318SOL    HW210854   1.911   1.394   0.370
 3319SOL     OW10855   5.704   1.124   3.990
 3319SOL    HW110856   5.644   1.200   3.965
 3319SOL    HW210857   5.743   1.084   3.908
 3320SOL     OW10858   5.811   1.044   0.017
 3320SOL    HW110859   5.906   1.043   7.013
 3320SOL    HW210860   5.793   1.131   0.064
 3321SOL     OW10861   5.551   1.826   0.620
 3321SOL    HW110862   5.608   1.856   0.697
 3321SOL    HW210863   5.548   1.899   0.551
 3322SOL     OW10864   6.672   2.412   1.679
 3322SOL    HW110865   6.699   2.388   1.772
 3322SOL    HW210866   6.733   2.483   1.644
 3323SOL     OW10867   2.295   2.782   0.564
 3323SOL    HW110868   2.287   2.881   0.553
 3323SOL    HW210869   2.299   2.739   0.475
 3324SOL     OW10870   4.306   5.048   6.209
 3324SOL    HW110871   4.271   5.054   6.303
 3324SOL    HW210872   4.301   4.953   6.178
 3325SOL     OW10873   0.143   3.845   0.227
 3325SOL    HW110874   0.101   3.887   0.146
 3325SOL    HW210875   0.081   3.777   0.264
 3326SOL     OW10876   4.583   1.736   1.709
 3326SOL    HW110877   4.675   1.732   1.747
 3326SOL    HW210878   4.520   1.774   1.776
 3327SOL     OW10879   2.989   5.654   1.694
 3327SOL    HW110880   3.053   5.731   1.701
 3327SOL    HW210881   2.934   5.650   1.777
 3328SOL     OW10882   4.065   1.801   0.767
 3328SOL    HW110883   4.108   1.879   0.721
 3328SOL    HW210884   4.076   1.719   0.711
 3329SOL     OW10885   5.708   0.304   5.717
 3329SOL    HW110886   5.666   0.261   5.637
 3329SOL    HW210887   5.678   0.256   5.800
 3330SOL     OW10888   6.186   3.288   1.738
 3330SOL    HW110889   6.177   3.362   1.672
 3330SOL    HW210890   6.245   3.216   1.700
 3331SOL     OW10891   2.497   3.286   1.595
 3331SOL    HW110892   2.451   3.303   1.682
 3331SOL    HW210893   2.595   3.281   1.610
 3332SOL     OW10894   5.965   5.564   0.322
 3332SOL    HW110895   6.043   5.585   0.380
 3332SOL    HW210896   5.884   5.612   0.356
 3333SOL     OW10897   3.663   5.837   6.211
 3333SOL    HW110898   3.578   5.810   6.255
 3333SOL    HW210899   3.740   5.792   6.256
 3334SOL     OW10900   3.234   3.687   1.292
 3334SOL    HW110901   3.192   3.768   1.250
 3334SOL    HW210902   3.162   3.620   1.313
 3335SOL     OW10903   4.760   4.813   5.621
 3335SOL    HW110904   4.822   4.734   5.624
 3335SOL    HW210905   4.756   4.855   5.711
 3336SOL     OW10906   3.057   5.390   4.932
 3336SOL    HW110907   3.100   5.415   5.019
 3336SOL    HW210908   3.037   5.292   4.932
 3337SOL     OW10909   3.166   3.025   2.106
 3337SOL    HW110910   3.157   2.928   2.087
 3337SOL    HW210911   3.258   3.056   2.083
 3338SOL     OW10912   6.129   3.192   0.852
 3338SOL    HW110913   6.048   3.242   0.881
 3338SOL    HW210914   6.168   3.143   0.931
 3339SOL     OW10915   6.700   0.251   6.699
 3339SOL    HW110916   6.737   0.176   6.643
 3339SOL    HW210917   6.600   0.249   6.694
 3340SOL     OW10918   3.821   0.318   1.146
 3340SOL    HW110919   3.901   0.318   1.206
 3340SOL    HW210920   3.741   0.350   1.197
 3341SOL     OW10921   1.428   5.939   4.113
 3341SOL    HW110922   1.420   5.935   4.013
 3341SOL    HW210923   1.524   5.932   4.139
 3342SOL     OW10924   2.618   6.452   4.306
 3342SOL    HW110925   2.566   6.516   4.362
 3342SOL    HW210926   2.687   6.501   4.254
 3343SOL     OW10927   4.933   2.972   0.560
 3343SOL    HW110928   4.941   3.054   0.504
 3343SOL    HW210929   4.837   2.948   0.572
 3344SOL     OW10930   6.269   3.748   4.457
 3344SOL    HW110931   6.264   3.720   4.553
 3344SOL    HW210932   6.235   3.674   4.399
 3345SOL     OW10933   1.878   3.922   5.657
 3345SOL    HW110934   1.784   3.932   5.626
 3345SOL    HW210935   1.941   3.944   5.583
 3346SOL     OW10936   1.442   1.194   1.374
 3346SOL    HW110937   1.393   1.171   1.290
 3346SOL    HW210938   1.520   1.132   1.385
 3347SOL     OW10939   0.575   4.939   3.719
 3347SOL    HW110940   0.553   4.971   3.627
 3347SOL    HW210941   0.626   5.011   3.767
 3348SOL     OW10942   3.020   3.141   3.316
 3348SOL    HW110943   3.051   3.122   3.222
 3348SOL    HW210944   3.077   3.090   3.380
 3349SOL     OW10945   0.800   4.823   4.514
 3349SOL    HW110946   0.866   4.760   4.555
 3349SOL    HW210947   0.844   4.911   4.499
 3350SOL     OW10948   1.152   2.250   6.653
 3350SOL    HW110949   1.102   2.229   6.569
 3350SOL    HW210950   1.087   2.261   6.728
 3351SOL     OW10951   5.340   7.017   2.609
 3351SOL    HW110952   5.280   6.977   2.679
 3351SOL    HW210953   5.374   0.076   2.641
 3352SOL     OW10954   0.290   3.668   0.488
 3352SOL    HW110955   0.217   3.722   0.528
 3352SOL    HW210956   0.376   3.686   0.536
 3353SOL     OW10957   1.428   6.323   2.167
 3353SOL    HW110958   1.495   6.395   2.186
 3353SOL    HW210959   1.353   6.330   2.233
 3354SOL     OW10960   5.373   2.620   4.214
 3354SOL    HW110961   5.290   2.664   4.249
 3354SOL    HW210962   5.382   2.529   4.253
 3355SOL     OW10963   1.455   1.343   0.118
 3355SOL    HW110964   1.383   1.304   0.175
 3355SOL    HW210965   1.544   1.327   0.159
 3356SOL     OW10966   1.919   3.241   0.275
 3356SOL    HW110967   1.923   3.338   0.253
 3356SOL    HW210968   2.011   3.202   0.273
 3357SOL     OW10969   2.580   4.985   1.844
 3357SOL    HW110970   2.636   4.903   1.855
 3357SOL    HW210971   2.610   5.055   1.908
 3358SOL     OW10972   4.623   0.151   1.728
 3358SOL    HW110973   4.575   0.206   1.796
 3358SOL    HW210974   4.557   0.111   1.664
 3359SOL     OW10975   6.776   0.178   3.997
 3359SOL    HW110976   6.864   0.210   4.032
 3359SOL    HW210977   6.736   0.114   4.062
 3360SOL     OW10978   6.959   0.869   0.217
 3360SOL    HW110979   7.020   0.798   0.250
 3360SOL    HW210980   6.882   0.828   0.169
 3361SOL     OW10981   0.537   5.272   2.319
 3361SOL    HW110982   0.588   5.354   2.293
 3361SOL    HW210983   0.541   5.259   2.418
 3362SOL     OW10984   3.948   1.692   4.573
 3362SOL    HW110985   3.927   1.764   4.640
 3362SOL    HW210986   4.046   1.697   4.551
 3363SOL     OW10987   1.039   0.401   6.955
 3363SOL    HW110988   0.988   0.373   6.874
 3363SOL    HW210989   1.055   0.322   7.014
 3364SOL     OW10990   1.154   4.282   4.066
 3364SOL    HW110991   1.122   4.197   4.108
 3364SOL    HW210992   1.240   4.265   4.018
 3365SOL     OW10993   0.307   2.291   5.154
 3365SOL    HW110994   0.268   2.321   5.241
 3365SOL    HW210995   0.234   2.281   5.087
 3366SOL     OW10996   6.164   6.992   5.726
 3366SOL    HW110997   6.131   6.931   5.797
 3366SOL    HW210998   6.258   6.967   5.702
 3367SOL     OW10999   1.982   2.785   1.882
 3367SOL    HW111000   1.953   2.690   1.879
 3367SOL    HW211001   2.079   2.792   1.855
 3368SOL     OW11002   0.613   5.941   6.634
 3368SOL    HW111003   0.568   5.863   6.678
 3368SOL    HW211004   0.671   5.907   6.560
 3369SOL     OW11005   3.281   2.480   5.900
 3369SOL    HW111006   3.359   2.418   5.883
 3369SOL    HW211007   3.242   2.509   5.813
 3370SOL     OW11008   6.665   5.967   5.499
 3370SOL    HW111009   6.698   6.021   5.421
 3370SOL    HW211010   6.668   5.870   5.476
 3371SOL     OW11011   0.482   4.386   2.342
 3371SOL    HW111012   0.455   4.420   2.432
 3371SOL    HW211013   0.443   4.295   2.329
 3372SOL     OW11014   1.162   1.366   1.890
 3372SOL    HW111015   1.067   1.398   1.894
 3372SOL    HW211016   1.221   1.431   1.937
 3373SOL     OW11017   6.193   1.370   3.470
 3373SOL    HW111018   6.105   1.325   3.481
 3373SOL    HW211019   6.203   1.442   3.539
 3374SOL     OW11020   2.588   5.409   4.551
 3374SOL    HW111021   2.584   5.432   4.454
 3374SOL    HW211022   2.521   5.464   4.601
 3375SOL     OW11023   4.709   5.078   5.480
 3375SOL    HW111024   4.728   5.001   5.541
 3375SOL    HW211025   4.627   5.059   5.426
 3376SOL     OW11026   4.052   3.350   2.870
 3376SOL    HW111027   4.063   3.305   2.959
 3376SOL    HW211028   4.118   3.312   2.805
 3377SOL     OW11029   0.322   6.004   4.463
 3377SOL    HW111030   0.225   6.019   4.484
 3377SOL    HW211031   0.358   6.083   4.414
 3378SOL     OW11032   6.248   0.564   0.698
 3378SOL    HW111033   6.324   0.556   0.763
 3378SOL    HW211034   6.283   0.590   0.608
 3379SOL     OW11035   7.007   5.146   6.076
 3379SOL    HW111036   0.072   5.140   6.044
 3379SOL    HW211037   6.982   5.060   6.122
 3380SOL     OW11038   5.856   6.035   6.130
 3380SOL    HW111039   5.839   5.959   6.192
 3380SOL    HW211040   5.775   6.051   6.073
 3381SOL     OW11041   1.219   2.503   0.826
 3381SOL    HW111042   1.293   2.477   0.888
 3381SOL    HW211043   1.237   2.466   0.735
 3382SOL     OW11044   0.879   1.105   0.355
 3382SOL    HW111045   0.924   1.094   0.443
 3382SOL    HW211046   0.782   1.083   0.363
 3383SOL     OW11047   4.768   5.381   3.133
 3383SOL    HW111048   4.816   5.378   3.221
 3383SOL    HW211049   4.802   5.458   3.079
 3384SOL     OW11050   2.945   3.286   5.094
 3384SOL    HW111051   2.887   3.325   5.165
 3384SOL    HW211052   2.976   3.195   5.122
 3385SOL     OW11053   0.187   4.044   3.570
 3385SOL    HW111054   0.242   3.963   3.552
 3385SOL    HW211055   0.210   4.079   3.661
 3386SOL     OW11056   6.560   3.102   5.866
 3386SOL    HW111057   6.487   3.156   5.824
 3386SOL    HW211058   6.618   3.162   5.921
 3387SOL     OW11059   2.958   0.454   2.624
 3387SOL    HW111060   3.006   0.513   2.688
 3387SOL    HW211061   3.024   0.396   2.576
 3388SOL     OW11062   6.130   3.167   1.971
 3388SOL    HW111063   6.086   3.077   1.965
 3388SOL    HW211064   6.137   3.207   1.879
 3389SOL     OW11065   4.651   5.372   4.998
 3389SOL    HW111066   4.567   5.338   5.040
 3389SOL    HW211067   4.680   5.456   5.044
 3390SOL     OW11068   5.630   4.895   6.194
 3390SOL    HW111069   5.535   4.867   6.180
 3390SOL    HW211070   5.653   4.967   6.129
 3391SOL     OW11071   5.602   2.630   4.574
 3391SOL    HW111072   5.653   2.693   4.516
 3391SOL    HW211073   5.505   2.632   4.548
 3392SOL     OW11074   2.814   1.012   3.408
 3392SOL    HW111075   2.853   1.029   3.499
 3392SOL    HW211076   2.873   1.052   3.338
 3393SOL     OW11077   0.184   6.665   0.458
 3393SOL    HW111078   0.247   6.736   0.428
 3393SOL    HW211079   0.100   6.670   0.404
 3394SOL     OW11080   6.203   3.553   0.961
 3394SOL    HW111081   6.115   3.512   0.936
 3394SOL    HW211082   6.258   3.565   0.878
 3395SOL     OW11083   6.282   3.073   3.689
 3395SOL    HW111084   6.198   3.118   3.657
 3395SOL    HW211085   6.348   3.142   3.717
 3396SOL     OW11086   6.701   2.094   3.455
 3396SOL    HW111087   6.684   2.034   3.534
 3396SOL    HW211088   6.633   2.077   3.385
 3397SOL     OW11089   2.966   1.145   5.655
 3397SOL    HW111090   2.922   1.074   5.600
 3397SOL    HW211091   2.899   1.214   5.681
 3398SOL     OW11092   1.420   6.838   3.971
 3398SOL    HW111093   1.418   6.876   3.878
 3398SOL    HW211094   1.510   6.799   3.989
 3399SOL     OW11095   5.175   4.514   4.588
 3399SOL    HW111096   5.187   4.604   4.548
 3399SOL    HW211097   5.088   4.475   4.557
 3400SOL     OW11098   4.427   1.677   5.611
 3400SOL    HW111099   4.444   1.763   5.659
 3400SOL    HW211100   4.338   1.682   5.565
 3401SOL     OW11101   6.884   3.607   1.186
 3401SOL    HW111102   6.812   3.653   1.237
 3401SOL    HW211103   6.886   3.510   1.210
 3402SOL     OW11104   4.119   6.467   0.675
 3402SOL    HW111105   4.088   6.437   0.765
 3402SOL    HW211106   4.191   6.406   0.642
 3403SOL     OW11107   3.709   0.553   4.881
 3403SOL    HW111108   3.746   0.626   4.938
 3403SOL    HW211109   3.612   0.540   4.902
 3404SOL     OW11110   5.463   1.769   6.592
 3404SOL    HW111111   5.477   1.671   6.600
 3404SOL    HW211112   5.368   1.788   6.567
 3405SOL     OW11113   6.362   3.766   4.086
 3405SOL    HW111114   6.336   3.771   4.182
 3405SOL    HW211115   6.339   3.852   4.041
 3406SOL     OW11116   0.988   4.066   2.294
 3406SOL    HW111117   1.012   4.073   2.391
 3406SOL    HW211118   1.068   4.086   2.238
 3407SOL     OW11119   1.417   5.064   0.077
 3407SOL    HW111120   1.378   5.156   0.068
 3407SOL    HW211121   1.343   4.997   0.083
 3408SOL     OW11122   5.029   4.156   4.880
 3408SOL    HW111123   4.966   4.123   4.809
 3408SOL    HW211124   5.099   4.214   4.840
 3409SOL     OW11125   3.333   6.350   5.925
 3409SOL    HW111126   3.319   6.436   5.972
 3409SOL    HW211127   3.402   6.296   5.973
 3410SOL     OW11128   6.235   5.882   0.327
 3410SOL    HW111129   6.188   5.928   0.402
 3410SOL    HW211130   6.198   5.914   0.240
 3411SOL     OW11131   0.338   2.714   1.926
 3411SOL    HW111132   0.397   2.792   1.947
 3411SOL    HW211133   0.372   2.633   1.974
 3412SOL     OW11134   4.422   2.873   6.497
 3412SOL    HW111135   4.452   2.928   6.575
 3412SOL    HW211136   4.415   2.931   6.416
 3413SOL     OW11137   4.790   0.603   2.609
 3413SOL    HW111138   4.792   0.680   2.545
 3413SOL    HW211139   4.717   0.539   2.583
 3414SOL     OW11140   1.785   1.160   5.922
 3414SOL    HW111141   1.881   1.189   5.926
 3414SOL    HW211142   1.753   1.141   6.015
 3415SOL     OW11143   1.575   4.631   4.564
 3415SOL    HW111144   1.570   4.559   4.495
 3415SOL    HW211145   1.661   4.621   4.615
 3416SOL     OW11146   6.650   5.617   0.142
 3416SOL    HW111147   6.704   5.666   0.211
 3416SOL    HW211148   6.663   5.660   0.053
 3417SOL     OW11149   0.220   5.955   3.573
 3417SOL    HW111150   0.232   5.866   3.617
 3417SOL    HW211151   0.226   5.944   3.474
 3418SOL     OW11152   4.034   0.587   5.117
 3418SOL    HW111153   4.028   0.676   5.072
 3418SOL    HW211154   4.038   0.514   5.048
 3419SOL     OW11155   3.655   5.330   4.821
 3419SOL    HW111156   3.700   5.367   4.740
 3419SOL    HW211157   3.576   5.386   4.844
 3420SOL     OW11158   5.456   2.648   3.504
 3420SOL    HW111159   5.429   2.635   3.408
 3420SOL    HW211160   5.374   2.657   3.560
 3421SOL     OW11161   6.268   0.534   6.416
 3421SOL    HW111162   6.367   0.548   6.412
 3421SOL    HW211163   6.230   0.534   6.323
 3422SOL     OW11164   2.048   6.597   1.090
 3422SOL    HW111165   2.002   6.682   1.116
 3422SOL    HW211166   2.008   6.563   1.005
 3423SOL     OW11167   2.446   6.693   0.399
 3423SOL    HW111168   2.537   6.715   0.434
 3423SOL    HW211169   2.396   6.640   0.468
 3424SOL     OW11170   3.168   6.848   2.715
 3424SOL    HW111171   3.264   6.823   2.725
 3424SOL    HW211172   3.157   6.910   2.637
 3425SOL     OW11173   5.538   3.837   2.115
 3425SOL    HW111174   5.576   3.782   2.041
 3425SOL    HW211175   5.595   3.828   2.197
 3426SOL     OW11176   2.866   3.105   0.088
 3426SOL    HW111177   2.871   3.043   0.010
 3426SOL    HW211178   2.820   3.189   0.061
 3427SOL     OW11179   6.778   6.717   6.411
 3427SOL    HW111180   6.813   6.730   6.318
 3427SOL    HW211181   6.712   6.643   6.411
 3428SOL     OW11182   3.594   4.984   1.015
 3428SOL    HW111183   3.684   4.995   0.973
 3428SOL    HW211184   3.523   5.000   0.947
 3429SOL     OW11185   1.340   1.009   0.064
 3429SOL    HW111186   1.308   1.019   0.158
 3429SOL    HW211187   1.261   0.999   0.003
 3430SOL     OW11188   0.503   6.472   5.081
 3430SOL    HW111189   0.405   6.452   5.082
 3430SOL    HW211190   0.551   6.405   5.138
 3431SOL     OW11191   1.894   0.103   1.234
 3431SOL    HW111192   1.822   0.054   1.185
 3431SOL    HW211193   1.875   0.101   1.332
 3432SOL     OW11194   2.452   2.545   6.825
 3432SOL    HW111195   2.438   2.543   6.924
 3432SOL    HW211196   2.466   2.640   6.796
 3433SOL     OW11197   1.120   6.795   6.578
 3433SOL    HW111198   1.073   6.726   6.522
 3433SOL    HW211199   1.104   6.886   6.540
 3434SOL     OW11200   3.813   2.457   0.907
 3434SOL    HW111201   3.760   2.487   0.828
 3434SOL    HW211202   3.758   2.466   0.990
 3435SOL     OW11203   1.181   1.723   1.350
 3435SOL    HW111204   1.256   1.660   1.329
 3435SOL    HW211205   1.153   1.770   1.267
 3436SOL     OW11206   3.751   6.783   5.506
 3436SOL    HW111207   3.761   6.684   5.505
 3436SOL    HW211208   3.742   6.815   5.601
 3437SOL     OW11209   3.338   0.655   6.404
 3437SOL    HW111210   3.418   0.681   6.349
 3437SOL    HW211211   3.315   0.730   6.466
 3438SOL     OW11212   1.283   2.592   0.183
 3438SOL    HW111213   1.330   2.562   0.101
 3438SOL    HW211214   1.298   2.690   0.196
 3439SOL     OW11215   2.269   6.727   5.927
 3439SOL    HW111216   2.305   6.637   5.948
 3439SOL    HW211217   2.344   6.789   5.904
 3440SOL     OW11218   4.092   3.182   1.486
 3440SOL    HW111219   4.040   3.099   1.467
 3440SOL    HW211220   4.099   3.196   1.585
 3441SOL     OW11221   4.835   0.361   3.785
 3441SOL    HW111222   4.886   0.385   3.866
 3441SOL    HW211223   4.767   0.432   3.766
 3442SOL     OW11224   3.208   4.893   2.317
 3442SOL    HW111225   3.162   4.889   2.228
 3442SOL    HW211226   3.146   4.934   2.384
 3443SOL     OW11227   5.316   0.209   2.115
 3443SOL    HW111228   5.273   0.295   2.143
 3443SOL    HW211229   5.269   0.132   2.159
 3444SOL     OW11230   4.611   5.492   6.983
 3444SOL    HW111231   4.643   5.586   6.995
 3444SOL    HW211232   4.645   5.456   6.896
 3445SOL     OW11233   5.990   5.620   4.074
 3445SOL    HW111234   6.040   5.707   4.076
 3445SOL    HW211235   6.050   5.546   4.103
 3446SOL     OW11236   5.956   0.870   2.812
 3446SOL    HW111237   5.881   0.812   2.843
 3446SOL    HW211238   6.026   0.876   2.883
 3447SOL     OW11239   5.281   4.728   0.963
 3447SOL    HW111240   5.347   4.775   0.905
 3447SOL    HW211241   5.226   4.665   0.908
 3448SOL     OW11242   3.190   0.257   0.811
 3448SOL    HW111243   3.162   0.176   0.864
 3448SOL    HW211244   3.130   0.333   0.833
 3449SOL     OW11245   6.245   6.333   3.981
 3449SOL    HW111246   6.242   6.372   3.890
 3449SOL    HW211247   6.169   6.268   3.992
 3450SOL     OW11248   0.517   3.257   6.890
 3450SOL    HW111249   0.567   3.316   6.827
 3450SOL    HW211250   0.427   3.236   6.853
 3451SOL     OW11251   1.152   5.473   3.024
 3451SOL    HW111252   1.132   5.375   3.026
 3451SOL    HW211253   1.089   5.519   2.962
 3452SOL     OW11254   5.610   2.173   6.815
 3452SOL    HW111255   5.608   2.225   6.900
 3452SOL    HW211256   5.699   2.183   6.772
 3453SOL     OW11257   0.048   6.648   6.052
 3453SOL    HW111258   0.046   6.741   6.087
 3453SOL    HW211259   6.985   6.609   6.053
 3454SOL     OW11260   1.917   0.961   0.070
 3454SOL    HW111261   1.836   0.917   0.110
 3454SOL    HW211262   1.888   1.029   0.003
 3455SOL     OW11263   2.047   3.248   4.347
 3455SOL    HW111264   2.067   3.151   4.338
 3455SOL    HW211265   2.063   3.277   4.441
 3456SOL     OW11266   5.362   6.438   2.516
 3456SOL    HW111267   5.432   6.371   2.492
 3456SOL    HW211268   5.396   6.497   2.589
 3457SOL     OW11269   2.486   5.675   3.986
 3457SOL    HW111270   2.570   5.626   4.006
 3457SOL    HW211271   2.441   5.634   3.907
 3458SOL     OW11272   4.984   7.008   0.452
 3458SOL    HW111273   5.040   0.042   0.398
 3458SOL    HW211274   4.906   6.976   0.397
 3459SOL     OW11275   6.436   3.724   2.685
 3459SOL    HW111276   6.506   3.664   2.724
 3459SOL    HW211277   6.452   3.734   2.587
 3460SOL     OW11278   2.497   3.407   0.431
 3460SOL    HW111279   2.478   3.377   0.337
 3460SOL    HW211280   2.459   3.339   0.494
 3461SOL     OW11281   4.545   5.866   4.454
 3461SOL    HW111282   4.548   5.775   4.412
 3461SOL    HW211283   4.637   5.905   4.456
 3462SOL     OW11284   0.140   3.760   2.241
 3462SOL    HW111285   0.154   3.674   2.191
 3462SOL    HW211286   0.194   3.759   2.325
 3463SOL     OW11287   1.175   3.121   3.238
 3463SOL    HW111288   1.119   3.043   3.268
 3463SOL    HW211289   1.220   3.162   3.318
 3464SOL     OW11290   6.584   2.227   6.382
 3464SOL    HW111291   6.626   2.206   6.470
 3464SOL    HW211292   6.637   2.298   6.336
 3465SOL     OW11293   0.155   3.064   2.135
 3465SOL    HW111294   0.215   3.098   2.063
 3465SOL    HW211295   0.062   3.098   2.120
 3466SOL     OW11296   6.800   4.595   6.375
 3466SOL    HW111297   6.736   4.528   6.337
 3466SOL    HW211298   6.859   4.550   6.443
 3467SOL     OW11299   2.159   1.856   0.694
 3467SOL    HW111300   2.238   1.848   0.634
 3467SOL    HW211301   2.159   1.946   0.738
 3468SOL     OW11302   5.406   0.641   3.260
 3468SOL    HW111303   5.314   0.641   3.221
 3468SOL    HW211304   5.452   0.727   3.239
 3469SOL     OW11305   4.717   0.820   4.312
 3469SOL    HW111306   4.794   0.757   4.316
 3469SOL    HW211307   4.636   0.776   4.351
 3470SOL     OW11308   0.435   2.359   1.341
 3470SOL    HW111309   0.506   2.328   1.405
 3470SOL    HW211310   0.398   2.280   1.292
 3471SOL     OW11311   4.583   4.441   4.406
 3471SOL    HW111312   4.517   4.481   4.470
 3471SOL    HW211313   4.560   4.346   4.390
 3472SOL     OW11314   2.885   0.994   2.082
 3472SOL    HW111315   2.948   1.045   2.140
 3472SOL    HW211316   2.908   1.010   1.986
 3473SOL     OW11317   6.814   2.621   2.571
 3473SOL    HW111318   6.813   2.521   2.576
 3473SOL    HW211319   6.770   2.651   2.486
 3474SOL     OW11320   0.243   4.522   2.471
 3474SOL    HW111321   0.197   4.607   2.494
 3474SOL    HW211322   0.182   4.445   2.489
 3475SOL     OW11323   0.804   4.313   3.999
 3475SOL    HW111324   0.892   4.277   4.028
 3475SOL    HW211325   0.743   4.321   4.078
 3476SOL     OW11326   2.159   1.889   2.675
 3476SOL    HW111327   2.200   1.805   2.639
 3476SOL    HW211328   2.215   1.923   2.751
 3477SOL     OW11329   2.262   4.903   1.259
 3477SOL    HW111330   2.275   4.877   1.164
 3477SOL    HW211331   2.243   5.001   1.265
 3478SOL     OW11332   2.217   5.729   5.978
 3478SOL    HW111333   2.277   5.675   6.037
 3478SOL    HW211334   2.267   5.807   5.941
 3479SOL     OW11335   1.154   0.916   2.896
 3479SOL    HW111336   1.178   0.997   2.950
 3479SOL    HW211337   1.112   0.944   2.810
 3480SOL     OW11338   6.773   5.311   4.579
 3480SOL    HW111339   6.804   5.345   4.491
 3480SOL    HW211340   6.808   5.370   4.652
 3481SOL     OW11341   4.974   0.836   0.406
 3481SOL    HW111342   4.964   0.745   0.365
 3481SOL    HW211343   5.019   0.897   0.341
 3482SOL     OW11344   6.311   0.927   2.161
 3482SOL    HW111345   6.227   0.875   2.147
 3482SOL    HW211346   6.300   1.018   2.122
 3483SOL     OW11347   5.154   1.805   1.681
 3483SOL    HW111348   5.122   1.715   1.650
 3483SOL    HW211349   5.178   1.800   1.778
 3484SOL     OW11350   0.814   2.838   0.438
 3484SOL    HW111351   0.907   2.812   0.464
 3484SOL    HW211352   0.812   2.858   0.340
 3485SOL     OW11353   1.703   1.544   4.417
 3485SOL    HW111354   1.625   1.482   4.432
 3485SOL    HW211355   1.776   1.494   4.371
 3486SOL     OW11356   2.685   0.314   3.356
 3486SOL    HW111357   2.659   0.227   3.313
 3486SOL    HW211358   2.701   0.383   3.285
 3487SOL     OW11359   6.752   1.751   0.539
 3487SOL    HW111360   6.679   1.685   0.557
 3487SOL    HW211361   6.724   1.841   0.571
 3488SOL     OW11362   5.725   0.499   4.897
 3488SOL    HW111363   5.641   0.465   4.941
 3488SOL    HW211364   5.777   0.552   4.963
 3489SOL     OW11365   4.069   0.480   1.706
 3489SOL    HW111366   4.074   0.578   1.685
 3489SOL    HW211367   4.137   0.431   1.651
 3490SOL     OW11368   4.386   4.191   1.072
 3490SOL    HW111369   4.466   4.248   1.089
 3490SOL    HW211370   4.303   4.241   1.098
 3491SOL     OW11371   4.412   2.285   5.703
 3491SOL    HW111372   4.482   2.233   5.655
 3491SOL    HW211373   4.421   2.268   5.802
 3492SOL     OW11374   6.788   4.050   0.876
 3492SOL    HW111375   6.866   4.080   0.930
 3492SOL    HW211376   6.801   3.955   0.848
 3493SOL     OW11377   4.715   4.327   4.675
 3493SOL    HW111378   4.685   4.410   4.722
 3493SOL    HW211379   4.707   4.340   4.576
 3494SOL     OW11380   2.958   1.040   1.798
 3494SOL    HW111381   3.047   1.084   1.814
 3494SOL    HW211382   2.969   0.969   1.729
 3495SOL     OW11383   6.033   4.875   1.758
 3495SOL    HW111384   6.099   4.808   1.723
 3495SOL    HW211385   6.058   4.902   1.850
 3496SOL     OW11386   6.153   5.155   0.798
 3496SOL    HW111387   6.107   5.069   0.819
 3496SOL    HW211388   6.195   5.149   0.707
 3497SOL     OW11389   2.610   1.326   3.943
 3497SOL    HW111390   2.579   1.272   4.021
 3497SOL    HW211391   2.631   1.264   3.866
 3498SOL     OW11392   3.111   2.059   1.194
 3498SOL    HW111393   3.011   2.056   1.199
 3498SOL    HW211394   3.150   2.022   1.278
 3499SOL     OW11395   5.673   3.890   4.295
 3499SOL    HW111396   5.731   3.930   4.224
 3499SOL    HW211397   5.584   3.865   4.256
 3500SOL     OW11398   1.565   3.158   3.633
 3500SOL    HW111399   1.570   3.160   3.534
 3500SOL    HW211400   1.625   3.229   3.671
 3501SOL     OW11401   2.991   5.685   5.899
 3501SOL    HW111402   3.014   5.690   5.997
 3501SOL    HW211403   2.925   5.612   5.884
 3502SOL     OW11404   6.681   1.752   1.329
 3502SOL    HW111405   6.681   1.698   1.414
 3502SOL    HW211406   6.716   1.843   1.348
 3503SOL     OW11407   6.207   5.909   4.890
 3503SOL    HW111408   6.213   5.845   4.967
 3503SOL    HW211409   6.120   5.957   4.892
 3504SOL     OW11410   2.471   0.548   1.599
 3504SOL    HW111411   2.505   0.642   1.599
 3504SOL    HW211412   2.534   0.491   1.652
 3505SOL     OW11413   5.460   4.151   5.957
 3505SOL    HW111414   5.434   4.107   6.043
 3505SOL    HW211415   5.432   4.247   5.958
 3506SOL     OW11416   5.624   4.599   5.501
 3506SOL    HW111417   5.564   4.647   5.437
 3506SOL    HW211418   5.570   4.534   5.555
 3507SOL     OW11419   2.537   0.868   0.999
 3507SOL    HW111420   2.439   0.857   0.980
 3507SOL    HW211421   2.563   0.810   1.076
 3508SOL     OW11422   1.911   2.359   5.952
 3508SOL    HW111423   1.885   2.282   5.893
 3508SOL    HW211424   1.992   2.403   5.914
 3509SOL     OW11425   4.838   0.360   6.657
 3509SOL    HW111426   4.785   0.384   6.739
 3509SOL    HW211427   4.791   0.289   6.606
 3510SOL     OW11428   1.295   1.213   2.170
 3510SOL    HW111429   1.203   1.178   2.190
 3510SOL    HW211430   1.351   1.140   2.132
 3511SOL     OW11431   1.805   4.746   1.317
 3511SOL    HW111432   1.818   4.698   1.404
 3511SOL    HW211433   1.796   4.680   1.243
 3512SOL     OW11434   0.641   4.514   0.505
 3512SOL    HW111435   0.712   4.584   0.502
 3512SOL    HW211436   0.578   4.527   0.429
 3513SOL     OW11437   5.258   1.999   0.346
 3513SOL    HW111438   5.318   2.079   0.341
 3513SOL    HW211439   5.173   2.018   0.297
 3514SOL     OW11440   0.041   1.085   2.075
 3514SOL    HW111441   0.070   0.993   2.047
 3514SOL    HW211442   0.004   1.133   1.995
 3515SOL     OW11443   4.216   6.102   3.422
 3515SOL    HW111444   4.269   6.184   3.403
 3515SOL    HW211445   4.272   6.037   3.473
 3516SOL     OW11446   5.149   7.000   0.938
 3516SOL    HW111447   5.168   0.062   0.902
 3516SOL    HW211448   5.182   6.931   0.874
 3517SOL     OW11449   0.912   2.078   1.501
 3517SOL    HW111450   0.995   2.030   1.528
 3517SOL    HW211451   0.914   2.096   1.403
 3518SOL     OW11452   4.940   3.174   4.667
 3518SOL    HW111453   4.941   3.250   4.732
 3518SOL    HW211454   5.015   3.111   4.688
 3519SOL     OW11455   1.397   1.209   6.444
 3519SOL    HW111456   1.297   1.212   6.439
 3519SOL    HW211457   1.425   1.161   6.527
 3520SOL     OW11458   3.101   5.493   6.975
 3520SOL    HW111459   3.155   5.576   6.960
 3520SOL    HW211460   3.051   5.470   6.892
 3521SOL     OW11461   4.962   2.634   0.158
 3521SOL    HW111462   4.974   2.655   0.255
 3521SOL    HW211463   5.031   2.682   0.104
 3522SOL     OW11464   0.154   4.840   1.284
 3522SOL    HW111465   0.254   4.841   1.290
 3522SOL    HW211466   0.120   4.753   1.321
 3523SOL     OW11467   1.525   4.447   5.753
 3523SOL    HW111468   1.516   4.542   5.780
 3523SOL    HW211469   1.619   4.430   5.723
 3524SOL     OW11470   4.765   1.461   1.637
 3524SOL    HW111471   4.740   1.523   1.563
 3524SOL    HW211472   4.751   1.367   1.608
 3525SOL     OW11473   7.010   4.452   3.398
 3525SOL    HW111474   0.070   4.496   3.403
 3525SOL    HW211475   6.999   4.406   3.310
 3526SOL     OW11476   2.501   6.881   3.853
 3526SOL    HW111477   2.557   6.802   3.825
 3526SOL    HW211478   2.515   6.956   3.788
 3527SOL     OW11479   5.512   3.724   6.049
 3527SOL    HW111480   5.497   3.640   6.100
 3527SOL    HW211481   5.465   3.718   5.961
 3528SOL     OW11482   1.342   6.240   5.708
 3528SOL    HW111483   1.251   6.275   5.689
 3528SOL    HW211484   1.409   6.288   5.650
 3529SOL     OW11485   3.939   0.244   0.358
 3529SOL    HW111486   3.882   0.323   0.335
 3529SOL    HW211487   3.886   0.160   0.348
 3530SOL     OW11488   6.481   5.486   2.438
 3530SOL    HW111489   6.503   5.487   2.340
 3530SOL    HW211490   6.566   5.475   2.490
 3531SOL     OW11491   5.382   3.180   1.064
 3531SOL    HW111492   5.286   3.191   1.040
 3531SOL    HW211493   5.402   3.229   1.148
 3532SOL     OW11494   2.733   0.095   1.782
 3532SOL    HW111495   2.721   0.181   1.733
 3532SOL    HW211496   2.831   0.073   1.786
 3533SOL     OW11497   1.096   1.865   2.538
 3533SOL    HW111498   1.118   1.822   2.625
 3533SOL    HW211499   1.102   1.965   2.548
 3534SOL     OW11500   6.676   1.610   0.798
 3534SOL    HW111501   6.676   1.620   0.898
 3534SOL    HW211502   6.732   1.531   0.773
 3535SOL     OW11503   1.631   5.298   6.801
 3535SOL    HW111504   1.643   5.288   6.702
 3535SOL    HW211505   1.651   5.211   6.846
 3536SOL     OW11506   3.151   1.579   3.131
 3536SOL    HW111507   3.202   1.604   3.049
 3536SOL    HW211508   3.121   1.662   3.178
 3537SOL     OW11509   3.442   6.310   2.390
 3537SOL    HW111510   3.403   6.287   2.301
 3537SOL    HW211511   3.396   6.390   2.428
 3538SOL     OW11512   1.860   6.880   6.309
 3538SOL    HW111513   1.923   6.819   6.260
 3538SOL    HW211514   1.897   6.972   6.310
 3539SOL     OW11515   3.792   3.227   5.405
 3539SOL    HW111516   3.866   3.292   5.416
 3539SOL    HW211517   3.791   3.193   5.311
 3540SOL     OW11518   1.807   2.507   5.665
 3540SOL    HW111519   1.811   2.568   5.745
 3540SOL    HW211520   1.714   2.504   5.630
 3541SOL     OW11521   1.942   3.037   6.202
 3541SOL    HW111522   1.878   2.986   6.260
 3541SOL    HW211523   1.893   3.079   6.126
 3542SOL     OW11524   2.033   5.633   2.864
 3542SOL    HW111525   2.131   5.646   2.880
 3542SOL    HW211526   1.984   5.716   2.890
 3543SOL     OW11527   0.731   2.408   4.565
 3543SOL    HW111528   0.766   2.491   4.523
 3543SOL    HW211529   0.682   2.431   4.649
 3544SOL     OW11530   2.444   4.133   6.239
 3544SOL    HW111531   2.519   4.162   6.299
 3544SOL    HW211532   2.456   4.037   6.214
 3545SOL     OW11533   4.008   5.809   0.602
 3545SOL    HW111534   3.985   5.897   0.559
 3545SOL    HW211535   4.083   5.822   0.666
 3546SOL     OW11536   1.443   4.007   4.469
 3546SOL    HW111537   1.516   4.038   4.530
 3546SOL    HW211538   1.404   3.922   4.505
 3547SOL     OW11539   6.811   4.220   3.811
 3547SOL    HW111540   6.778   4.136   3.768
 3547SOL    HW211541   6.893   4.252   3.764
 3548SOL     OW11542   5.715   1.770   5.969
 3548SOL    HW111543   5.752   1.755   6.061
 3548SOL    HW211544   5.767   1.842   5.923
 3549SOL     OW11545   6.810   5.019   5.910
 3549SOL    HW111546   6.765   5.107   5.896
 3549SOL    HW211547   6.885   5.031   5.975
 3550SOL     OW11548   6.302   1.973   2.742
 3550SOL    HW111549   6.248   1.913   2.682
 3550SOL    HW211550   6.281   2.068   2.721
 3551SOL     OW11551   3.637   0.691   2.098
 3551SOL    HW111552   3.646   0.628   2.021
 3551SOL    HW211553   3.648   0.785   2.065
 3552SOL     OW11554   5.476   6.503   2.094
 3552SOL    HW111555   5.545   6.490   2.023
 3552SOL    HW211556   5.459   6.600   2.107
 3553SOL     OW11557   5.313   4.227   0.960
 3553SOL    HW111558   5.317   4.285   0.879
 3553SOL    HW211559   5.406   4.211   0.995
 3554SOL     OW11560   4.392   2.346   1.008
 3554SOL    HW111561   4.330   2.401   0.952
 3554SOL    HW211562   4.424   2.268   0.954
 3555SOL     OW11563   1.197   3.865   3.655
 3555SOL    HW111564   1.199   3.843   3.752
 3555SOL    HW211565   1.135   3.943   3.640
 3556SOL     OW11566   4.452   1.420   3.282
 3556SOL    HW111567   4.389   1.434   3.358
 3556SOL    HW211568   4.505   1.336   3.298
 3557SOL     OW11569   1.398   0.259   4.185
 3557SOL    HW111570   1.358   0.278   4.275
 3557SOL    HW211571   1.375   0.332   4.121
 3558SOL     OW11572   1.526   6.767   1.422
 3558SOL    HW111573   1.447   6.784   1.364
 3558SOL    HW211574   1.597   6.719   1.370
 3559SOL     OW11575   0.532   5.972   5.137
 3559SOL    HW111576   0.460   5.957   5.205
 3559SOL    HW211577   0.604   5.905   5.150
 3560SOL     OW11578   0.749   6.064   1.349
 3560SOL    HW111579   0.846   6.041   1.353
 3560SOL    HW211580   0.732   6.121   1.269
 3561SOL     OW11581   4.035   4.831   5.170
 3561SOL    HW111582   4.024   4.739   5.207
 3561SOL    HW211583   4.028   4.828   5.071
 3562SOL     OW11584   5.193   1.213   3.311
 3562SOL    HW111585   5.098   1.218   3.343
 3562SOL    HW211586   5.228   1.121   3.325
 3563SOL     OW11587   5.814   1.302   0.062
 3563SOL    HW111588   5.780   1.355   0.139
 3563SOL    HW211589   5.900   1.341   0.029
 3564SOL     OW11590   1.361   4.259   3.687
 3564SOL    HW111591   1.445   4.309   3.669
 3564SOL    HW211592   1.364   4.221   3.779
 3565SOL     OW11593   3.989   5.827   5.001
 3565SOL    HW111594   3.957   5.843   4.908
 3565SOL    HW211595   3.928   5.762   5.046
 3566SOL     OW11596   6.755   3.748   6.185
 3566SOL    HW111597   6.782   3.778   6.276
 3566SOL    HW211598   6.689   3.673   6.192
 3567SOL     OW11599   0.822   3.601   6.951
 3567SOL    HW111600   0.781   3.674   7.006
 3567SOL    HW211601   0.912   3.577   6.990
 3568SOL     OW11602   4.437   5.764   4.151
 3568SOL    HW111603   4.344   5.738   4.126
 3568SOL    HW211604   4.478   5.693   4.207
 3569SOL     OW11605   2.691   2.468   5.716
 3569SOL    HW111606   2.694   2.486   5.815
 3569SOL    HW211607   2.627   2.531   5.673
 3570SOL     OW11608   5.290   0.144   5.158
 3570SOL    HW111609   5.260   0.237   5.138
 3570SOL    HW211610   5.269   0.085   5.080
 3571SOL     OW11611   1.477   0.802   5.070
 3571SOL    HW111612   1.460   0.713   5.113
 3571SOL    HW211613   1.521   0.788   4.981
 3572SOL     OW11614   5.723   3.187   3.013
 3572SOL    HW111615   5.778   3.262   2.975
 3572SOL    HW211616   5.631   3.189   2.975
 3573SOL     OW11617   6.147   3.922   3.018
 3573SOL    HW111618   6.157   4.018   3.044
 3573SOL    HW211619   6.216   3.868   3.064
 3574SOL     OW11620   0.764   2.898   0.934
 3574SOL    HW111621   0.747   2.809   0.975
 3574SOL    HW211622   0.788   2.964   1.005
 3575SOL     OW11623   4.997   5.439   2.818
 3575SOL    HW111624   5.024   5.388   2.900
 3575SOL    HW211625   4.975   5.533   2.843
 3576SOL     OW11626   0.558   1.873   0.221
 3576SOL    HW111627   0.488   1.812   0.258
 3576SOL    HW211628   0.641   1.821   0.201
 3577SOL     OW11629   1.624   3.036   6.878
 3577SOL    HW111630   1.579   3.091   6.808
 3577SOL    HW211631   1.641   2.944   6.843
 3578SOL     OW11632   5.117   1.620   0.947
 3578SOL    HW111633   5.054   1.691   0.977
 3578SOL    HW211634   5.074   1.565   0.875
 3579SOL     OW11635   6.754   2.116   2.598
 3579SOL    HW111636   6.755   2.151   2.692
 3579SOL    HW211637   6.839   2.065   2.580
 3580SOL     OW11638   5.765   3.204   0.389
 3580SOL    HW111639   5.716   3.140   0.448
 3580SOL    HW211640   5.722   3.204   0.298
 3581SOL     OW11641   0.707   5.581   3.472
 3581SOL    HW111642   0.623   5.536   3.501
 3581SOL    HW211643   0.778   5.512   3.456
 3582SOL     OW11644   1.636   4.312   5.382
 3582SOL    HW111645   1.536   4.312   5.388
 3582SOL    HW211646   1.665   4.379   5.313
 3583SOL     OW11647   1.728   4.577   0.000
 3583SOL    HW111648   1.805   4.525   6.992
 3583SOL    HW211649   1.674   4.615   6.954
 3584SOL     OW11650   5.590   4.409   5.716
 3584SOL    HW111651   5.609   4.422   5.813
 3584SOL    HW211652   5.666   4.359   5.673
 3585SOL     OW11653   2.650   2.375   4.687
 3585SOL    HW111654   2.726   2.326   4.645
 3585SOL    HW211655   2.658   2.372   4.786
 3586SOL     OW11656   6.458   1.756   5.181
 3586SOL    HW111657   6.389   1.684   5.191
 3586SOL    HW211658   6.459   1.814   5.263
 3587SOL     OW11659   1.931   5.833   5.892
 3587SOL    HW111660   1.999   5.835   5.966
 3587SOL    HW211661   1.956   5.764   5.825
 3588SOL     OW11662   6.830   2.904   5.074
 3588SOL    HW111663   6.898   2.887   5.146
 3588SOL    HW211664   6.877   2.920   4.987
 3589SOL     OW11665   5.739   0.752   6.154
 3589SOL    HW111666   5.771   0.671   6.204
 3589SOL    HW211667   5.721   0.826   6.219
 3590SOL     OW11668   6.605   3.572   0.375
 3590SOL    HW111669   6.619   3.650   0.315
 3590SOL    HW211670   6.643   3.490   0.333
 3591SOL     OW11671   5.558   3.629   0.002
 3591SOL    HW111672   5.565   3.648   0.100
 3591SOL    HW211673   5.615   3.550   7.008
 3592SOL     OW11674   0.349   0.125   2.625
 3592SOL    HW111675   0.441   0.124   2.665
 3592SOL    HW211676   0.341   0.202   2.563
 3593SOL     OW11677   0.194   4.095   5.738
 3593SOL    HW111678   0.205   4.178   5.792
 3593SOL    HW211679   0.097   4.068   5.737
 3594SOL     OW11680   4.399   0.646   3.700
 3594SOL    HW111681   4.414   0.557   3.744
 3594SOL    HW211682   4.470   0.660   3.631
 3595SOL     OW11683   5.284   5.745   6.542
 3595SOL    HW111684   5.350   5.724   6.614
 3595SOL    HW211685   5.204   5.789   6.582
 3596SOL     OW11686   4.956   3.347   3.466
 3596SOL    HW111687   4.939   3.364   3.369
 3596SOL    HW211688   4.925   3.255   3.490
 3597SOL     OW11689   1.676   2.845   5.193
 3597SOL    HW111690   1.712   2.773   5.253
 3597SOL    HW211691   1.712   2.933   5.222
 3598SOL     OW11692   2.059   6.676   5.770
 3598SOL    HW111693   2.154   6.688   5.797
 3598SOL    HW211694   2.053   6.606   5.698
 3599SOL     OW11695   4.758   2.003   0.296
 3599SOL    HW111696   4.702   1.959   0.367
 3599SOL    HW211697   4.758   2.102   0.310
 3600SOL     OW11698   0.687   2.774   2.341
 3600SOL    HW111699   0.742   2.767   2.425
 3600SOL    HW211700   0.685   2.685   2.296
 3601SOL     OW11701   5.174   3.246   6.049
 3601SOL    HW111702   5.179   3.219   6.145
 3601SOL    HW211703   5.092   3.206   6.008
 3602SOL     OW11704   1.268   3.898   1.356
 3602SOL    HW111705   1.213   3.958   1.413
 3602SOL    HW211706   1.347   3.948   1.321
 3603SOL     OW11707   3.532   1.068   4.466
 3603SOL    HW111708   3.464   1.121   4.416
 3603SOL    HW211709   3.488   1.022   4.543
 3604SOL     OW11710   0.080   6.966   3.884
 3604SOL    HW111711   0.049   0.028   3.855
 3604SOL    HW211712   0.099   6.967   3.982
 3605SOL     OW11713   0.777   4.600   3.600
 3605SOL    HW111714   0.774   4.643   3.690
 3605SOL    HW211715   0.696   4.626   3.547
 3606SOL     OW11716   1.139   6.800   3.937
 3606SOL    HW111717   1.231   6.801   3.976
 3606SOL    HW211718   1.144   6.826   3.840
 3607SOL     OW11719   5.563   4.583   1.954
 3607SOL    HW111720   5.662   4.572   1.939
 3607SOL    HW211721   5.534   4.520   2.026
 3608SOL     OW11722   5.147   1.422   4.799
 3608SOL    HW111723   5.070   1.370   4.837
 3608SOL    HW211724   5.175   1.493   4.863
 3609SOL     OW11725   2.081   0.382   4.313
 3609SOL    HW111726   2.176   0.354   4.310
 3609SOL    HW211727   2.049   0.383   4.408
 3610SOL     OW11728   1.737   0.953   6.165
 3610SOL    HW111729   1.715   0.871   6.113
 3610SOL    HW211730   1.805   0.930   6.235
 3611SOL     OW11731   4.076   4.768   3.828
 3611SOL    HW111732   4.102   4.779   3.924
 3611SOL    HW211733   4.157   4.748   3.773
 3612SOL     OW11734   0.648   0.799   6.437
 3612SOL    HW111735   0.627   0.831   6.529
 3612SOL    HW211736   0.562   0.779   6.388
 3613SOL     OW11737   4.772   4.592   2.231
 3613SOL    HW111738   4.822   4.594   2.144
 3613SOL    HW211739   4.711   4.512   2.232
 3614SOL     OW11740   3.572   3.701   0.724
 3614SOL    HW111741   3.606   3.659   0.808
 3614SOL    HW211742   3.475   3.680   0.713
 3615SOL     OW11743   5.390   2.825   6.454
 3615SOL    HW111744   5.455   2.777   6.396
 3615SOL    HW211745   5.356   2.762   6.525
 3616SOL     OW11746   0.918   0.236   6.288
 3616SOL    HW111747   0.948   0.323   6.326
 3616SOL    HW211748   0.943   0.231   6.191
 3617SOL     OW11749   4.324   0.382   5.616
 3617SOL    HW111750   4.255   0.452   5.632
 3617SOL    HW211751   4.343   0.375   5.518
 3618SOL     OW11752   2.321   3.270   5.247
 3618SOL    HW111753   2.350   3.174   5.250
 3618SOL    HW211754   2.391   3.327   5.290
 3619SOL     OW11755   5.561   3.343   6.526
 3619SOL    HW111756   5.570   3.395   6.440
 3619SOL    HW211757   5.506   3.261   6.509
 3620SOL     OW11758   5.875   5.490   5.334
 3620SOL    HW111759   5.814   5.411   5.327
 3620SOL    HW211760   5.882   5.517   5.430
 3621SOL     OW11761   3.148   3.020   4.774
 3621SOL    HW111762   3.167   2.984   4.865
 3621SOL    HW211763   3.084   3.097   4.781
 3622SOL     OW11764   2.066   0.954   0.570
 3622SOL    HW111765   1.987   0.967   0.630
 3622SOL    HW211766   2.139   1.017   0.597
 3623SOL     OW11767   6.359   5.595   4.509
 3623SOL    HW111768   6.355   5.505   4.552
 3623SOL    HW211769   6.443   5.603   4.455
 3624SOL     OW11770   1.270   0.093   2.311
 3624SOL    HW111771   1.230   0.184   2.322
 3624SOL    HW211772   1.273   0.047   2.400
 3625SOL     OW11773   6.931   3.212   6.620
 3625SOL    HW111774   6.835   3.236   6.604
 3625SOL    HW211775   6.950   3.122   6.582
 3626SOL     OW11776   0.764   3.188   5.389
 3626SOL    HW111777   0.841   3.203   5.328
 3626SOL    HW211778   0.796   3.147   5.475
 3627SOL     OW11779   4.420   3.427   1.603
 3627SOL    HW111780   4.361   3.498   1.641
 3627SOL    HW211781   4.391   3.338   1.639
 3628SOL     OW11782   1.315   1.479   2.101
 3628SOL    HW111783   1.333   1.383   2.123
 3628SOL    HW211784   1.246   1.515   2.165
 3629SOL     OW11785   0.734   0.145   5.008
 3629SOL    HW111786   0.760   0.103   5.094
 3629SOL    HW211787   0.671   0.221   5.026
 3630SOL     OW11788   6.355   2.825   3.747
 3630SOL    HW111789   6.331   2.762   3.673
 3630SOL    HW211790   6.364   2.918   3.711
 3631SOL     OW11791   1.836   6.762   3.331
 3631SOL    HW111792   1.805   6.803   3.245
 3631SOL    HW211793   1.879   6.674   3.313
 3632SOL     OW11794   5.061   4.623   0.455
 3632SOL    HW111795   5.133   4.554   0.455
 3632SOL    HW211796   4.978   4.585   0.496
 3633SOL     OW11797   4.617   2.794   6.067
 3633SOL    HW111798   4.605   2.884   6.025
 3633SOL    HW211799   4.531   2.766   6.111
 3634SOL     OW11800   1.788   6.046   6.120
 3634SOL    HW111801   1.759   5.979   6.188
 3634SOL    HW211802   1.714   6.062   6.055
 3635SOL     OW11803   2.984   1.106   1.012
 3635SOL    HW111804   2.902   1.049   1.003
 3635SOL    HW211805   2.970   1.193   0.965
 3636SOL     OW11806   6.886   5.688   0.854
 3636SOL    HW111807   6.810   5.700   0.918
 3636SOL    HW211808   6.888   5.593   0.822
 3637SOL     OW11809   0.721   2.680   1.072
 3637SOL    HW111810   0.706   2.608   1.004
 3637SOL    HW211811   0.646   2.678   1.138
 3638SOL     OW11812   6.923   4.239   2.789
 3638SOL    HW111813   6.888   4.310   2.851
 3638SOL    HW211814   7.023   4.235   2.797
 3639SOL     OW11815   3.739   4.999   6.444
 3639SOL    HW111816   3.652   4.955   6.422
 3639SOL    HW211817   3.805   4.982   6.371
 3640SOL     OW11818   4.824   1.635   0.333
 3640SOL    HW111819   4.833   1.640   0.433
 3640SOL    HW211820   4.729   1.618   0.309
 3641SOL     OW11821   5.764   3.602   1.310
 3641SOL    HW111822   5.750   3.584   1.213
 3641SOL    HW211823   5.732   3.524   1.364
 3642SOL     OW11824   4.768   2.499   6.259
 3642SOL    HW111825   4.692   2.445   6.298
 3642SOL    HW211826   4.845   2.498   6.323
 3643SOL     OW11827   4.163   5.805   5.762
 3643SOL    HW111828   4.219   5.865   5.819
 3643SOL    HW211829   4.138   5.723   5.813
 3644SOL     OW11830   2.497   0.936   1.460
 3644SOL    HW111831   2.406   0.896   1.444
 3644SOL    HW211832   2.504   1.022   1.410
 3645SOL     OW11833   1.418   3.473   4.120
 3645SOL    HW111834   1.455   3.476   4.027
 3645SOL    HW211835   1.340   3.411   4.122
 3646SOL     OW11836   1.780   4.102   5.406
 3646SOL    HW111837   1.734   4.047   5.336
 3646SOL    HW211838   1.735   4.191   5.414
 3647SOL     OW11839   2.338   5.682   6.683
 3647SOL    HW111840   2.421   5.737   6.678
 3647SOL    HW211841   2.362   5.585   6.674
 3648SOL     OW11842   5.118   5.987   3.398
 3648SOL    HW111843   5.204   5.957   3.358
 3648SOL    HW211844   5.073   5.909   3.442
 3649SOL     OW11845   6.619   3.300   0.307
 3649SOL    HW111846   6.609   3.294   0.207
 3649SOL    HW211847   6.529   3.289   0.350
 3650SOL     OW11848   6.549   4.791   0.907
 3650SOL    HW111849   6.451   4.784   0.886
 3650SOL    HW211850   6.565   4.762   1.001
 3651SOL     OW11851   2.101   0.388   4.654
 3651SOL    HW111852   2.050   0.467   4.622
 3651SOL    HW211853   2.074   0.307   4.602
 3652SOL     OW11854   5.668   6.819   3.497
 3652SOL    HW111855   5.676   6.896   3.434
 3652SOL    HW211856   5.753   6.811   3.550
 3653SOL     OW11857   1.994   0.997   2.923
 3653SOL    HW111858   1.899   0.970   2.906
 3653SOL    HW211859   2.036   1.025   2.837
 3654SOL     OW11860   4.655   5.798   0.437
 3654SOL    HW111861   4.598   5.760   0.509
 3654SOL    HW211862   4.727   5.733   0.413
 3655SOL     OW11863   3.339   1.240   4.315
 3655SOL    HW111864   3.401   1.305   4.359
 3655SOL    HW211865   3.250   1.283   4.302
 3656SOL     OW11866   0.962   5.810   1.462
 3656SOL    HW111867   0.892   5.746   1.491
 3656SOL    HW211868   1.051   5.764   1.458
 3657SOL     OW11869   4.712   5.465   4.752
 3657SOL    HW111870   4.702   5.408   4.671
 3657SOL    HW211871   4.673   5.418   4.832
 3658SOL     OW11872   1.950   5.056   6.486
 3658SOL    HW111873   1.972   4.968   6.444
 3658SOL    HW211874   1.966   5.050   6.585
 3659SOL     OW11875   0.948   1.952   6.610
 3659SOL    HW111876   0.916   2.041   6.643
 3659SOL    HW211877   0.873   1.906   6.563
 3660SOL     OW11878   6.016   5.989   4.482
 3660SOL    HW111879   6.047   6.082   4.499
 3660SOL    HW211880   5.985   5.948   4.568
 3661SOL     OW11881   0.601   0.549   4.527
 3661SOL    HW111882   0.700   0.545   4.512
 3661SOL    HW211883   0.578   0.634   4.575
 3662SOL     OW11884   4.129   0.956   4.779
 3662SOL    HW111885   4.228   0.944   4.779
 3662SOL    HW211886   4.107   1.054   4.771
 3663SOL     OW11887   1.898   2.770   6.940
 3663SOL    HW111888   1.988   2.785   6.900
 3663SOL    HW211889   1.870   2.675   6.923
 3664SOL     OW11890   4.804   2.435   1.914
 3664SOL    HW111891   4.739   2.404   1.984
 3664SOL    HW211892   4.765   2.512   1.864
 3665SOL     OW11893   0.499   5.978   5.927
 3665SOL    HW111894   0.403   6.001   5.909
 3665SOL    HW211895   0.548   6.059   5.958
 3666SOL     OW11896   1.096   3.298   3.054
 3666SOL    HW111897   1.055   3.250   2.977
 3666SOL    HW211898   1.116   3.232   3.127
 3667SOL     OW11899   0.638   1.198   3.630
 3667SOL    HW111900   0.561   1.149   3.671
 3667SOL    HW211901   0.611   1.293   3.613
 3668SOL     OW11902   1.775   0.773   1.765
 3668SOL    HW111903   1.821   0.738   1.846
 3668SOL    HW211904   1.679   0.792   1.786
 3669SOL     OW11905   5.530   1.318   3.897
 3669SOL    HW111906   5.554   1.377   3.974
 3669SOL    HW211907   5.431   1.323   3.880
 3670SOL     OW11908   2.815   5.373   0.721
 3670SOL    HW111909   2.892   5.428   0.686
 3670SOL    HW211910   2.760   5.340   0.644
 3671SOL     OW11911   6.963   1.504   4.199
 3671SOL    HW111912   6.942   1.601   4.196
 3671SOL    HW211913   0.030   1.489   4.175
 3672SOL     OW11914   4.626   2.188   2.569
 3672SOL    HW111915   4.666   2.096   2.563
 3672SOL    HW211916   4.574   2.196   2.654
 3673SOL     OW11917   3.819   5.316   6.428
 3673SOL    HW111918   3.913   5.330   6.398
 3673SOL    HW211919   3.783   5.232   6.386
 3674SOL     OW11920   1.673   5.721   5.135
 3674SOL    HW111921   1.633   5.783   5.203
 3674SOL    HW211922   1.697   5.635   5.179
 3675SOL     OW11923   0.787   2.400   4.070
 3675SOL    HW111924   0.690   2.395   4.096
 3675SOL    HW211925   0.840   2.439   4.145
 3676SOL     OW11926   5.715   2.999   2.684
 3676SOL    HW111927   5.789   3.065   2.694
 3676SOL    HW211928   5.670   3.013   2.596
 3677SOL     OW11929   2.569   0.670   5.172
 3677SOL    HW111930   2.582   0.628   5.082
 3677SOL    HW211931   2.525   0.604   5.233
 3678SOL     OW11932   1.808   1.275   3.838
 3678SOL    HW111933   1.817   1.215   3.918
 3678SOL    HW211934   1.841   1.227   3.757
 3679SOL     OW11935   6.801   0.345   3.261
 3679SOL    HW111936   6.787   0.252   3.293
 3679SOL    HW211937   6.725   0.403   3.291
 3680SOL     OW11938   4.553   2.560   4.348
 3680SOL    HW111939   4.571   2.649   4.390
 3680SOL    HW211940   4.462   2.529   4.373
 3681SOL     OW11941   1.254   0.755   6.500
 3681SOL    HW111942   1.282   0.733   6.593
 3681SOL    HW211943   1.334   0.786   6.448
 3682SOL     OW11944   5.587   2.689   0.502
 3682SOL    HW111945   5.637   2.653   0.580
 3682SOL    HW211946   5.561   2.784   0.521
 3683SOL     OW11947   0.258   0.971   3.993
 3683SOL    HW111948   0.307   1.058   3.998
 3683SOL    HW211949   0.185   0.970   4.061
 3684SOL     OW11950   1.256   5.481   6.925
 3684SOL    HW111951   1.218   5.551   6.986
 3684SOL    HW211952   1.338   5.517   6.880
 3685SOL     OW11953   2.682   6.170   5.468
 3685SOL    HW111954   2.758   6.235   5.467
 3685SOL    HW211955   2.704   6.092   5.410
 3686SOL     OW11956   6.368   4.576   3.970
 3686SOL    HW111957   6.435   4.616   3.908
 3686SOL    HW211958   6.414   4.538   4.050
 3687SOL     OW11959   4.653   6.720   3.577
 3687SOL    HW111960   4.710   6.798   3.604
 3687SOL    HW211961   4.695   6.675   3.498
 3688SOL     OW11962   6.371   3.234   6.644
 3688SOL    HW111963   6.370   3.330   6.671
 3688SOL    HW211964   6.315   3.222   6.562
 3689SOL     OW11965   2.276   2.276   5.528
 3689SOL    HW111966   2.358   2.329   5.548
 3689SOL    HW211967   2.228   2.317   5.451
 3690SOL     OW11968   4.705   6.087   0.934
 3690SOL    HW111969   4.611   6.060   0.957
 3690SOL    HW211970   4.744   6.020   0.871
 3691SOL     OW11971   2.492   2.013   6.149
 3691SOL    HW111972   2.400   2.049   6.134
 3691SOL    HW211973   2.518   1.955   6.072
 3692SOL     OW11974   6.718   4.274   5.857
 3692SOL    HW111975   6.640   4.218   5.886
 3692SOL    HW211976   6.792   4.215   5.826
 3693SOL     OW11977   2.057   1.545   3.017
 3693SOL    HW111978   2.149   1.520   3.047
 3693SOL    HW211979   1.990   1.485   3.060
 3694SOL     OW11980   1.585   6.994   2.031
 3694SOL    HW111981   1.676   6.960   2.053
 3694SOL    HW211982   1.569   6.986   1.933
 3695SOL     OW11983   5.736   1.628   1.949
 3695SOL    HW111984   5.803   1.595   1.881
 3695SOL    HW211985   5.725   1.559   2.020
 3696SOL     OW11986   4.024   0.267   5.446
 3696SOL    HW111987   4.123   0.280   5.447
 3696SOL    HW211988   3.979   0.351   5.417
 3697SOL     OW11989   6.630   6.332   3.015
 3697SOL    HW111990   6.710   6.344   2.957
 3697SOL    HW211991   6.551   6.304   2.960
 3698SOL     OW11992   2.293   0.985   3.730
 3698SOL    HW111993   2.258   1.072   3.694
 3698SOL    HW211994   2.281   0.913   3.662
 3699SOL     OW11995   2.108   1.857   3.453
 3699SOL    HW111996   2.025   1.906   3.425
 3699SOL    HW211997   2.186   1.892   3.400
 3700SOL     OW11998   1.331   5.216   4.712
 3700SOL    HW111999   1.307   5.124   4.745
 3700SOL    HW212000   1.316   5.283   4.785
 3701SOL     OW12001   1.037   6.429   2.585
 3701SOL    HW112002   0.973   6.472   2.650
 3701SOL    HW212003   1.030   6.330   2.593
 3702SOL     OW12004   5.693   6.571   2.959
 3702SOL    HW112005   5.699   6.493   3.022
 3702SOL    HW212006   5.763   6.561   2.888
 3703SOL     OW12007   0.836   0.354   6.773
 3703SOL    HW112008   0.815   0.417   6.699
 3703SOL    HW212009   0.755   0.299   6.795
 3704SOL     OW12010   5.571   2.949   0.870
 3704SOL    HW112011   5.475   2.919   0.868
 3704SOL    HW212012   5.575   3.048   0.885
 3705SOL     OW12013   4.792   4.865   3.812
 3705SOL    HW112014   4.793   4.950   3.761
 3705SOL    HW212015   4.762   4.790   3.753
 3706SOL     OW12016   0.480   4.451   6.877
 3706SOL    HW112017   0.473   4.365   6.927
 3706SOL    HW212018   0.525   4.435   6.789
 3707SOL     OW12019   4.201   5.917   3.902
 3707SOL    HW112020   4.161   5.935   3.813
 3707SOL    HW212021   4.285   5.970   3.913
 3708SOL     OW12022   4.559   6.762   0.961
 3708SOL    HW112023   4.495   6.832   0.991
 3708SOL    HW212024   4.558   6.686   1.026
 3709SOL     OW12025   2.509   0.274   1.323
 3709SOL    HW112026   2.431   0.336   1.333
 3709SOL    HW212027   2.591   0.327   1.301
 3710SOL     OW12028   0.883   5.432   4.903
 3710SOL    HW112029   0.785   5.420   4.917
 3710SOL    HW212030   0.932   5.396   4.982
 3711SOL     OW12031   1.284   6.206   4.871
 3711SOL    HW112032   1.264   6.110   4.891
 3711SOL    HW212033   1.362   6.236   4.926
 3712SOL     OW12034   1.631   6.133   0.249
 3712SOL    HW112035   1.699   6.100   0.315
 3712SOL    HW212036   1.557   6.066   0.242
 3713SOL     OW12037   0.855   0.639   4.716
 3713SOL    HW112038   0.791   0.587   4.772
 3713SOL    HW212039   0.945   0.595   4.718
 3714SOL     OW12040   6.065   5.127   6.725
 3714SOL    HW112041   6.080   5.055   6.793
 3714SOL    HW212042   6.068   5.216   6.770
 3715SOL     OW12043   1.000   4.938   2.449
 3715SOL    HW112044   1.035   4.961   2.539
 3715SOL    HW212045   0.900   4.933   2.452
 3716SOL     OW12046   5.983   5.395   4.532
 3716SOL    HW112047   6.070   5.426   4.572
 3716SOL    HW212048   5.967   5.300   4.558
 3717SOL     OW12049   6.192   1.276   0.628
 3717SOL    HW112050   6.129   1.201   0.608
 3717SOL    HW212051   6.199   1.336   0.548
 3718SOL     OW12052   6.400   0.228   6.690
 3718SOL    HW112053   6.335   0.208   6.763
 3718SOL    HW212054   6.378   0.172   6.610
 3719SOL     OW12055   3.915   3.258   6.518
 3719SOL    HW112056   4.005   3.287   6.487
 3719SOL    HW212057   3.896   3.300   6.607
 3720SOL     OW12058   5.639   4.031   0.525
 3720SOL    HW112059   5.671   3.963   0.458
 3720SOL    HW212060   5.713   4.052   0.589
 3721SOL     OW12061   0.100   5.143   0.763
 3721SOL    HW112062   0.069   5.210   0.830
 3721SOL    HW212063   0.198   5.153   0.749
 3722SOL     OW12064   5.264   6.271   1.569
 3722SOL    HW112065   5.212   6.268   1.484
 3722SOL    HW212066   5.226   6.204   1.633
 3723SOL     OW12067   4.887   5.639   0.367
 3723SOL    HW112068   4.869   5.594   0.280
 3723SOL    HW212069   4.982   5.669   0.370
 3724SOL     OW12070   1.375   4.710   5.398
 3724SOL    HW112071   1.303   4.779   5.408
 3724SOL    HW212072   1.461   4.747   5.434
 3725SOL     OW12073   0.608   6.039   6.889
 3725SOL    HW112074   0.618   6.033   6.790
 3725SOL    HW212075   0.652   6.123   6.922
 3726SOL     OW12076   5.372   3.956   5.766
 3726SOL    HW112077   5.336   3.992   5.680
 3726SOL    HW212078   5.388   4.031   5.830
 3727SOL     OW12079   6.680   3.303   5.030
 3727SOL    HW112080   6.585   3.274   5.042
 3727SOL    HW212081   6.690   3.398   5.059
 3728SOL     OW12082   2.440   3.946   6.853
 3728SOL    HW112083   2.398   4.030   6.886
 3728SOL    HW212084   2.540   3.956   6.855
 3729SOL     OW12085   0.798   0.735   4.032
 3729SOL    HW112086   0.703   0.715   4.008
 3729SOL    HW212087   0.828   0.672   4.103
 3730SOL     OW12088   3.891   6.206   5.732
 3730SOL    HW112089   3.792   6.203   5.724
 3730SOL    HW212090   3.930   6.122   5.693
 3731SOL     OW12091   0.223   1.266   0.064
 3731SOL    HW112092   0.322   1.279   0.061
 3731SOL    HW212093   0.196   1.230   0.153
 3732SOL     OW12094   1.825   2.239   0.260
 3732SOL    HW112095   1.882   2.160   0.239
 3732SOL    HW212096   1.764   2.218   0.336
 3733SOL     OW12097   2.183   2.160   3.696
 3733SOL    HW112098   2.103   2.220   3.693
 3733SOL    HW212099   2.154   2.065   3.707
 3734SOL     OW12100   4.551   0.362   1.466
 3734SOL    HW112101   4.551   0.266   1.438
 3734SOL    HW212102   4.544   0.420   1.385
 3735SOL     OW12103   4.134   0.550   2.446
 3735SOL    HW112104   4.160   0.562   2.351
 3735SOL    HW212105   4.038   0.520   2.451
 3736SOL     OW12106   6.853   1.124   0.829
 3736SOL    HW112107   6.949   1.141   0.807
 3736SOL    HW212108   6.836   1.025   0.832
 3737SOL     OW12109   5.786   1.802   3.174
 3737SOL    HW112110   5.875   1.760   3.157
 3737SOL    HW212111   5.799   1.900   3.193
 3738SOL     OW12112   6.405   6.592   1.237
 3738SOL    HW112113   6.434   6.656   1.166
 3738SOL    HW212114   6.474   6.587   1.309
 3739SOL     OW12115   2.745   4.381   1.702
 3739SOL    HW112116   2.804   4.356   1.624
 3739SOL    HW212117   2.801   4.389   1.784
 3740SOL     OW12118   6.220   5.629   0.440
 3740SOL    HW112119   6.310   5.612   0.479
 3740SOL    HW212120   6.224   5.710   0.381
 3741SOL     OW12121   4.197   3.090   6.633
 3741SOL    HW112122   4.292   3.115   6.653
 3741SOL    HW212123   4.180   3.098   6.535
 3742SOL     OW12124   4.382   0.268   0.541
 3742SOL    HW112125   4.318   0.225   0.604
 3742SOL    HW212126   4.334   0.294   0.457
 3743SOL     OW12127   5.471   3.876   1.126
 3743SOL    HW112128   5.406   3.800   1.116
 3743SOL    HW212129   5.464   3.915   1.217
 3744SOL     OW12130   1.102   6.661   2.421
 3744SOL    HW112131   1.068   6.581   2.471
 3744SOL    HW212132   1.202   6.659   2.417
 3745SOL     OW12133   5.585   3.805   2.545
 3745SOL    HW112134   5.488   3.796   2.568
 3745SOL    HW212135   5.633   3.851   2.620
 3746SOL     OW12136   5.922   0.194   3.395
 3746SOL    HW112137   5.989   0.258   3.434
 3746SOL    HW212138   5.965   0.105   3.381
 3747SOL     OW12139   4.894   6.633   5.904
 3747SOL    HW112140   4.825   6.653   5.973
 3747SOL    HW212141   4.853   6.580   5.830
 3748SOL     OW12142   5.250   0.488   2.123
 3748SOL    HW112143   5.199   0.540   2.054
 3748SOL    HW212144   5.347   0.491   2.103
 3749SOL     OW12145   2.027   4.685   3.599
 3749SOL    HW112146   2.113   4.734   3.589
 3749SOL    HW212147   2.010   4.630   3.517
 3750SOL     OW12148   5.912   4.472   0.935
 3750SOL    HW112149   5.914   4.529   1.018
 3750SOL    HW212150   5.819   4.440   0.920
 3751SOL     OW12151   6.925   2.883   0.835
 3751SOL    HW112152   6.903   2.867   0.931
 3751SOL    HW212153   7.004   2.828   0.808
 3752SOL     OW12154   0.891   6.557   0.462
 3752SOL    HW112155   0.796   6.585   0.471
 3752SOL    HW212156   0.912   6.490   0.533
 3753SOL     OW12157   0.298   0.357   4.255
 3753SOL    HW112158   0.243   0.329   4.334
 3753SOL    HW212159   0.393   0.370   4.284
 3754SOL     OW12160   4.732   6.348   1.670
 3754SOL    HW112161   4.709   6.401   1.751
 3754SOL    HW212162   4.667   6.273   1.660
 3755SOL     OW12163   5.554   5.514   4.975
 3755SOL    HW112164   5.548   5.571   4.893
 3755SOL    HW212165   5.650   5.494   4.994
 3756SOL     OW12166   1.994   0.411   6.182
 3756SOL    HW112167   2.076   0.464   6.163
 3756SOL    HW212168   1.983   0.340   6.114
 3757SOL     OW12169   4.014   6.257   6.918
 3757SOL    HW112170   4.028   6.166   6.878
 3757SOL    HW212171   3.929   6.296   6.882
 3758SOL     OW12172   1.633   1.153   4.396
 3758SOL    HW112173   1.620   1.232   4.336
 3758SOL    HW212174   1.653   1.185   4.489
 3759SOL     OW12175   3.996   5.016   5.611
 3759SOL    HW112176   4.052   5.099   5.607
 3759SOL    HW212177   4.052   4.936   5.590
 3760SOL     OW12178   0.805   3.470   4.446
 3760SOL    HW112179   0.862   3.401   4.489
 3760SOL    HW212180   0.862   3.533   4.393
 3761SOL     OW12181   0.648   6.891   4.820
 3761SOL    HW112182   0.646   6.887   4.720
 3761SOL    HW212183   0.593   6.817   4.858
 3762SOL     OW12184   0.859   5.650   6.754
 3762SOL    HW112185   0.813   5.726   6.801
 3762SOL    HW212186   0.796   5.610   6.687
 3763SOL     OW12187   6.595   4.815   0.250
 3763SOL    HW112188   6.639   4.793   0.337
 3763SOL    HW212189   6.664   4.818   0.178
 3764SOL     OW12190   1.923   0.432   3.846
 3764SOL    HW112191   1.852   0.500   3.827
 3764SOL    HW212192   1.998   0.476   3.895
 3765SOL     OW12193   5.443   1.584   1.346
 3765SOL    HW112194   5.395   1.515   1.401
 3765SOL    HW212195   5.423   1.675   1.381
 3766SOL     OW12196   1.009   1.137   4.528
 3766SOL    HW112197   1.091   1.175   4.570
 3766SOL    HW212198   0.935   1.135   4.595
 3767SOL     OW12199   2.167   5.577   0.428
 3767SOL    HW112200   2.146   5.571   0.330
 3767SOL    HW212201   2.099   5.635   0.473
 3768SOL     OW12202   2.461   5.717   5.375
 3768SOL    HW112203   2.416   5.628   5.364
 3768SOL    HW212204   2.533   5.709   5.444
 3769SOL     OW12205   5.805   5.425   5.045
 3769SOL    HW112206   5.826   5.331   5.018
 3769SOL    HW212207   5.780   5.427   5.142
 3770SOL     OW12208   1.628   0.578   6.886
 3770SOL    HW112209   1.641   0.506   6.955
 3770SOL    HW212210   1.613   0.536   6.797
 3771SOL     OW12211   5.578   2.439   0.208
 3771SOL    HW112212   5.544   2.474   0.120
 3771SOL    HW212213   5.658   2.493   0.235
 3772SOL     OW12214   6.783   1.443   6.960
 3772SOL    HW112215   6.751   1.415   0.022
 3772SOL    HW212216   6.704   1.461   6.901
 3773SOL     OW12217   5.964   3.133   6.223
 3773SOL    HW112218   6.039   3.090   6.274
 3773SOL    HW212219   5.877   3.108   6.265
 3774SOL     OW12220   0.487   6.566   6.752
 3774SOL    HW112221   0.391   6.541   6.743
 3774SOL    HW212222   0.495   6.647   6.810
 3775SOL     OW12223   5.278   4.246   1.914
 3775SOL    HW112224   5.358   4.205   1.957
 3775SOL    HW212225   5.195   4.203   1.950
 3776SOL     OW12226   3.653   0.914   0.866
 3776SOL    HW112227   3.614   0.997   0.905
 3776SOL    HW212228   3.730   0.938   0.806
 3777SOL     OW12229   3.047   4.906   4.196
 3777SOL    HW112230   2.962   4.857   4.177
 3777SOL    HW212231   3.027   5.003   4.209
 3778SOL     OW12232   2.894   5.222   3.278
 3778SOL    HW112233   2.965   5.278   3.319
 3778SOL    HW212234   2.931   5.173   3.199
 3779SOL     OW12235   1.820   4.647   0.957
 3779SOL    HW112236   1.722   4.662   0.962
 3779SOL    HW212237   1.867   4.734   0.941
 3780SOL     OW12238   4.526   4.674   5.468
 3780SOL    HW112239   4.487   4.720   5.388
 3780SOL    HW212240   4.609   4.721   5.497
 3781SOL     OW12241   1.684   6.487   4.565
 3781SOL    HW112242   1.607   6.545   4.590
 3781SOL    HW212243   1.667   6.393   4.596
 3782SOL     OW12244   3.023   2.177   4.244
 3782SOL    HW112245   3.101   2.122   4.213
 3782SOL    HW212246   3.034   2.199   4.341
 3783SOL     OW12247   5.391   6.160   5.302
 3783SOL    HW112248   5.417   6.212   5.221
 3783SOL    HW212249   5.419   6.065   5.291
 3784SOL     OW12250   4.966   1.989   3.618
 3784SOL    HW112251   4.917   1.904   3.599
 3784SOL    HW212252   5.020   2.015   3.538
 3785SOL     OW12253   1.571   0.972   0.306
 3785SOL    HW112254   1.651   1.031   0.301
 3785SOL    HW212255   1.572   0.906   0.230
 3786SOL     OW12256   2.785   6.549   2.789
 3786SOL    HW112257   2.755   6.458   2.764
 3786SOL    HW212258   2.812   6.600   2.707
 3787SOL     OW12259   5.940   5.901   3.217
 3787SOL    HW112260   5.924   5.996   3.193
 3787SOL    HW212261   5.926   5.888   3.315
 3788SOL     OW12262   0.459   2.920   3.695
 3788SOL    HW112263   0.481   2.824   3.679
 3788SOL    HW212264   0.477   2.973   3.611
 3789SOL     OW12265   0.908   2.848   4.110
 3789SOL    HW112266   0.832   2.879   4.052
 3789SOL    HW212267   0.967   2.787   4.058
 3790SOL     OW12268   1.705   3.619   5.244
 3790SOL    HW112269   1.746   3.537   5.206
 3790SOL    HW212270   1.709   3.693   5.176
 3791SOL     OW12271   6.227   0.059   0.923
 3791SOL    HW112272   6.317   0.016   0.920
 3791SOL    HW212273   6.158   7.026   0.885
 3792SOL     OW12274   6.941   0.997   3.997
 3792SOL    HW112275   7.000   1.004   3.917
 3792SOL    HW212276   6.960   1.073   4.059
 3793SOL     OW12277   3.787   6.939   3.016
 3793SOL    HW112278   3.813   6.842   3.024
 3793SOL    HW212279   3.864   6.991   2.980
 3794SOL     OW12280   3.092   4.523   1.415
 3794SOL    HW112281   3.079   4.607   1.467
 3794SOL    HW212282   3.046   4.530   1.326
 3795SOL     OW12283   3.673   6.510   0.044
 3795SOL    HW112284   3.598   6.478   0.102
 3795SOL    HW212285   3.636   6.551   6.990
 3796SOL     OW12286   2.846   2.011   1.186
 3796SOL    HW112287   2.834   1.957   1.103
 3796SOL    HW212288   2.833   1.952   1.266
 3797SOL     OW12289   6.333   4.387   2.523
 3797SOL    HW112290   6.233   4.384   2.532
 3797SOL    HW212291   6.374   4.335   2.598
 3798SOL     OW12292   3.674   5.595   3.297
 3798SOL    HW112293   3.704   5.554   3.383
 3798SOL    HW212294   3.577   5.619   3.303
 3799SOL     OW12295   0.013   2.427   4.592
 3799SOL    HW112296   7.010   2.447   4.684
 3799SOL    HW212297   0.067   2.504   4.558
 3800SOL     OW12298   5.057   2.945   4.743
 3800SOL    HW112299   5.085   2.854   4.712
 3800SOL    HW212300   4.993   2.935   4.820
 3801SOL     OW12301   6.819   6.210   3.951
 3801SOL    HW112302   6.823   6.112   3.973
 3801SOL    HW212303   6.888   6.232   3.883
 3802SOL     OW12304   0.164   2.130   4.133
 3802SOL    HW112305   0.111   2.072   4.194
 3802SOL    HW212306   0.208   2.203   4.185
 3803SOL     OW12307   3.789   2.059   1.306
 3803SOL    HW112308   3.877   2.084   1.348
 3803SOL    HW212309   3.716   2.071   1.374
 3804SOL     OW12310   5.481   1.756   3.750
 3804SOL    HW112311   5.520   1.744   3.659
 3804SOL    HW212312   5.400   1.815   3.745
 3805SOL     OW12313   2.620   3.716   1.565
 3805SOL    HW112314   2.555   3.706   1.489
 3805SOL    HW212315   2.594   3.795   1.621
 3806SOL     OW12316   2.695   3.791   0.247
 3806SOL    HW112317   2.634   3.721   0.210
 3806SOL    HW212318   2.771   3.806   0.184
 3807SOL     OW12319   2.704   0.765   3.571
 3807SOL    HW112320   2.721   0.770   3.669
 3807SOL    HW212321   2.689   0.857   3.535
 3808SOL     OW12322   4.235   0.850   1.030
 3808SOL    HW112323   4.300   0.816   1.099
 3808SOL    HW212324   4.159   0.895   1.076
 3809SOL     OW12325   6.469   2.633   0.673
 3809SOL    HW112326   6.516   2.695   0.736
 3809SOL    HW212327   6.378   2.669   0.653
 3810SOL     OW12328   4.492   2.591   5.411
 3810SOL    HW112329   4.547   2.510   5.432
 3810SOL    HW212330   4.438   2.617   5.492
 3811SOL     OW12331   0.736   4.715   3.844
 3811SOL    HW112332   0.691   4.796   3.807
 3811SOL    HW212333   0.685   4.683   3.924
 3812SOL     OW12334   5.680   1.120   5.076
 3812SOL    HW112335   5.602   1.165   5.034
 3812SOL    HW212336   5.672   1.021   5.063
 3813SOL     OW12337   3.826   4.111   0.834
 3813SOL    HW112338   3.735   4.069   0.838
 3813SOL    HW212339   3.894   4.046   0.866
 3814SOL     OW12340   0.095   6.828   1.427
 3814SOL    HW112341   0.141   6.746   1.460
 3814SOL    HW212342   0.162   6.902   1.416
 3815SOL     OW12343   4.962   2.732   0.429
 3815SOL    HW112344   4.970   2.657   0.494
 3815SOL    HW212345   4.954   2.818   0.479
 3816SOL     OW12346   6.934   5.854   0.621
 3816SOL    HW112347   6.876   5.805   0.686
 3816SOL    HW212348   6.877   5.909   0.561
 3817SOL     OW12349   4.951   3.089   3.548
 3817SOL    HW112350   4.920   3.016   3.487
 3817SOL    HW212351   4.969   3.051   3.639
 3818SOL     OW12352   5.115   0.446   0.513
 3818SOL    HW112353   5.168   0.364   0.489
 3818SOL    HW212354   5.018   0.426   0.505
 3819SOL     OW12355   5.560   5.551   0.701
 3819SOL    HW112356   5.462   5.559   0.718
 3819SOL    HW212357   5.592   5.461   0.729
 3820SOL     OW12358   6.809   6.758   4.297
 3820SOL    HW112359   6.816   6.718   4.205
 3820SOL    HW212360   6.899   6.758   4.340
 3821SOL     OW12361   1.935   2.841   1.594
 3821SOL    HW112362   1.962   2.938   1.600
 3821SOL    HW212363   1.937   2.801   1.686
 3822SOL     OW12364   1.047   5.678   2.618
 3822SOL    HW112365   1.019   5.769   2.587
 3822SOL    HW212366   1.141   5.681   2.652
 3823SOL     OW12367   4.043   2.189   5.832
 3823SOL    HW112368   4.045   2.282   5.796
 3823SOL    HW212369   3.949   2.163   5.853
 3824SOL     OW12370   6.177   1.858   5.879
 3824SOL    HW112371   6.182   1.875   5.978
 3824SOL    HW212372   6.202   1.763   5.860
 3825SOL     OW12373   0.242   0.042   1.008
 3825SOL    HW112374   0.205   7.021   1.086
 3825SOL    HW212375   0.204   0.134   1.007
 3826SOL     OW12376   1.205   3.759   6.674
 3826SOL    HW112377   1.140   3.683   6.676
 3826SOL    HW212378   1.258   3.755   6.589
 3827SOL     OW12379   3.108   3.091   0.532
 3827SOL    HW112380   3.081   2.997   0.508
 3827SOL    HW212381   3.200   3.089   0.571
 3828SOL     OW12382   4.419   2.354   1.291
 3828SOL    HW112383   4.497   2.407   1.323
 3828SOL    HW212384   4.397   2.380   1.197
 3829SOL     OW12385   2.112   4.756   4.309
 3829SOL    HW112386   2.205   4.719   4.315
 3829SOL    HW212387   2.103   4.833   4.371
 3830SOL     OW12388   0.848   0.891   4.381
 3830SOL    HW112389   0.876   0.833   4.305
 3830SOL    HW212390   0.801   0.972   4.346
 3831SOL     OW12391   4.511   1.783   2.302
 3831SOL    HW112392   4.414   1.809   2.299
 3831SOL    HW212393   4.567   1.862   2.279
 3832SOL     OW12394   6.017   0.668   2.044
 3832SOL    HW112395   6.048   0.730   1.972
 3832SOL    HW212396   6.097   0.627   2.090
 3833SOL     OW12397   1.030   5.945   5.888
 3833SOL    HW112398   1.033   5.866   5.827
 3833SOL    HW212399   0.994   5.917   5.977
 3834SOL     OW12400   3.268   2.844   0.812
 3834SOL    HW112401   3.206   2.773   0.778
 3834SOL    HW212402   3.356   2.803   0.834
 3835SOL     OW12403   3.042   5.129   4.891
 3835SOL    HW112404   2.965   5.095   4.945
 3835SOL    HW212405   3.103   5.053   4.870
 3836SOL     OW12406   2.201   3.905   4.659
 3836SOL    HW112407   2.287   3.886   4.612
 3836SOL    HW212408   2.192   4.004   4.675
 3837SOL     OW12409   4.731   3.404   6.962
 3837SOL    HW112410   4.742   3.492   6.918
 3837SOL    HW212411   4.821   3.363   6.979
 3838SOL     OW12412   6.419   4.351   4.525
 3838SOL    HW112413   6.433   4.308   4.614
 3838SOL    HW212414   6.375   4.287   4.462
 3839SOL     OW12415   4.188   0.364   4.224
 3839SOL    HW112416   4.274   0.332   4.185
 3839SOL    HW212417   4.125   0.286   4.234
 3840SOL     OW12418   1.596   1.165   5.662
 3840SOL    HW112419   1.622   1.158   5.759
 3840SOL    HW212420   1.606   1.260   5.632
 3841SOL     OW12421   6.657   3.240   4.748
 3841SOL    HW112422   6.668   3.253   4.846
 3841SOL    HW212423   6.719   3.301   4.699
 3842SOL     OW12424   1.312   4.858   0.332
 3842SOL    HW112425   1.323   4.760   0.312
 3842SOL    HW212426   1.264   4.902   0.256
 3843SOL     OW12427   0.035   3.812   1.498
 3843SOL    HW112428   0.107   3.880   1.507
 3843SOL    HW212429   0.075   3.723   1.476
 3844SOL     OW12430   0.192   4.538   5.333
 3844SOL    HW112431   0.261   4.601   5.368
 3844SOL    HW212432   0.212   4.445   5.364
 3845SOL     OW12433   3.338   2.923   2.730
 3845SOL    HW112434   3.280   2.853   2.771
 3845SOL    HW212435   3.427   2.924   2.776
 3846SOL     OW12436   0.221   4.274   4.062
 3846SOL    HW112437   0.222   4.332   4.144
 3846SOL    HW212438   0.171   4.320   3.989
 3847SOL     OW12439   6.506   1.900   6.158
 3847SOL    HW112440   6.466   1.872   6.071
 3847SOL    HW212441   6.555   1.987   6.145
 3848SOL     OW12442   2.983   5.506   3.064
 3848SOL    HW112443   3.011   5.479   3.156
 3848SOL    HW212444   2.901   5.563   3.070
 3849SOL     OW12445   0.555   0.990   5.574
 3849SOL    HW112446   0.551   0.989   5.674
 3849SOL    HW212447   0.649   0.972   5.544
 3850SOL     OW12448   2.181   3.582   1.741
 3850SOL    HW112449   2.256   3.562   1.677
 3850SOL    HW212450   2.195   3.529   1.825
 3851SOL     OW12451   1.578   4.355   2.653
 3851SOL    HW112452   1.519   4.274   2.655
 3851SOL    HW212453   1.556   4.414   2.731
 3852SOL     OW12454   4.830   6.978   4.862
 3852SOL    HW112455   4.733   6.965   4.840
 3852SOL    HW212456   4.880   7.002   4.779
 3853SOL     OW12457   1.442   3.608   2.639
 3853SOL    HW112458   1.425   3.520   2.684
 3853SOL    HW212459   1.479   3.673   2.705
 3854SOL     OW12460   0.570   4.090   3.096
 3854SOL    HW112461   0.481   4.049   3.117
 3854SOL    HW212462   0.621   4.029   3.036
 3855SOL     OW12463   5.469   5.565   6.698
 3855SOL    HW112464   5.564   5.583   6.720
 3855SOL    HW212465   5.461   5.476   6.652
 3856SOL     OW12466   6.916   6.097   4.858
 3856SOL    HW112467   6.992   6.033   4.867
 3856SOL    HW212468   6.907   6.127   4.763
 3857SOL     OW12469   1.153   6.374   5.422
 3857SOL    HW112470   1.205   6.393   5.506
 3857SOL    HW212471   1.084   6.445   5.409
 3858SOL     OW12472   1.212   6.104   6.076
 3858SOL    HW112473   1.193   6.026   6.135
 3858SOL    HW212474   1.257   6.072   5.992
 3859SOL     OW12475   0.055   1.896   2.989
 3859SOL    HW112476   0.028   1.802   3.009
 3859SOL    HW212477   0.054   1.912   2.891
 3860SOL     OW12478   2.319   6.184   4.600
 3860SOL    HW112479   2.256   6.188   4.523
 3860SOL    HW212480   2.387   6.113   4.585
 3861SOL     OW12481   5.398   4.594   1.473
 3861SOL    HW112482   5.426   4.592   1.377
 3861SOL    HW212483   5.428   4.511   1.519
 3862SOL     OW12484   6.542   6.938   5.270
 3862SOL    HW112485   6.449   6.903   5.277
 3862SOL    HW212486   6.577   6.922   5.177
 3863SOL     OW12487   3.754   4.179   0.048
 3863SOL    HW112488   3.789   4.190   6.984
 3863SOL    HW212489   3.738   4.269   0.088
 3864SOL     OW12490   4.001   2.149   6.142
 3864SOL    HW112491   4.049   2.067   6.109
 3864SOL    HW212492   4.063   2.227   6.139
 3865SOL     OW12493   4.034   0.739   1.629
 3865SOL    HW112494   3.969   0.691   1.571
 3865SOL    HW212495   4.025   0.837   1.615
 3866SOL     OW12496   4.298   0.775   0.233
 3866SOL    HW112497   4.336   0.846   0.292
 3866SOL    HW212498   4.248   0.817   0.158
 3867SOL     OW12499   2.160   3.792   3.551
 3867SOL    HW112500   2.152   3.731   3.630
 3867SOL    HW212501   2.069   3.814   3.516
 3868SOL     OW12502   2.133   6.189   1.964
 3868SOL    HW112503   2.150   6.196   2.062
 3868SOL    HW212504   2.118   6.280   1.926
 3869SOL     OW12505   0.396   2.811   4.236
 3869SOL    HW112506   0.460   2.883   4.210
 3869SOL    HW212507   0.379   2.751   4.158
 3870SOL     OW12508   4.089   5.336   0.340
 3870SOL    HW112509   4.028   5.361   0.265
 3870SOL    HW212510   4.108   5.416   0.397
 3871SOL     OW12511   3.683   0.094   2.752
 3871SOL    HW112512   3.609   0.113   2.817
 3871SOL    HW212513   3.672   0.002   2.715
 3872SOL     OW12514   3.891   2.891   0.957
 3872SOL    HW112515   3.962   2.874   0.887
 3872SOL    HW212516   3.930   2.877   1.048
 3873SOL     OW12517   5.418   5.847   1.287
 3873SOL    HW112518   5.516   5.833   1.271
 3873SOL    HW212519   5.384   5.777   1.350
 3874SOL     OW12520   4.055   6.767   0.395
 3874SOL    HW112521   4.142   6.803   0.429
 3874SOL    HW212522   3.983   6.786   0.461
 3875SOL     OW12523   1.221   3.838   2.909
 3875SOL    HW112524   1.251   3.778   2.835
 3875SOL    HW212525   1.299   3.888   2.946
 3876SOL     OW12526   4.561   5.093   6.379
 3876SOL    HW112527   4.629   5.139   6.322
 3876SOL    HW212528   4.485   5.061   6.321
 3877SOL     OW12529   6.971   1.691   1.123
 3877SOL    HW112530   0.001   1.745   1.183
 3877SOL    HW212531   6.951   1.603   1.166
 3878SOL     OW12532   2.859   5.908   6.047
 3878SOL    HW112533   2.921   5.986   6.061
 3878SOL    HW212534   2.911   5.823   6.056
 3879SOL     OW12535   5.077   5.530   1.366
 3879SOL    HW112536   5.007   5.459   1.373
 3879SOL    HW212537   5.039   5.610   1.319
 3880SOL     OW12538   5.926   3.811   2.919
 3880SOL    HW112539   5.889   3.748   2.987
 3880SOL    HW212540   6.015   3.846   2.950
 3881SOL     OW12541   1.558   5.575   0.692
 3881SOL    HW112542   1.643   5.611   0.654
 3881SOL    HW212543   1.484   5.641   0.675
 3882SOL     OW12544   6.611   0.818   5.784
 3882SOL    HW112545   6.524   0.771   5.768
 3882SOL    HW212546   6.684   0.771   5.734
 3883SOL     OW12547   4.881   1.321   4.105
 3883SOL    HW112548   4.904   1.406   4.153
 3883SOL    HW212549   4.936   1.246   4.142
 3884SOL     OW12550   1.623   6.241   4.675
 3884SOL    HW112551   1.619   6.200   4.766
 3884SOL    HW212552   1.538   6.223   4.627
 3885SOL     OW12553   6.461   1.145   4.733
 3885SOL    HW112554   6.542   1.115   4.784
 3885SOL    HW212555   6.379   1.113   4.779
 3886SOL     OW12556   6.494   0.228   5.803
 3886SOL    HW112557   6.524   0.171   5.880
 3886SOL    HW212558   6.400   0.257   5.818
 3887SOL     OW12559   4.906   1.616   5.627
 3887SOL    HW112560   4.932   1.658   5.540
 3887SOL    HW212561   4.850   1.680   5.680
 3888SOL     OW12562   6.566   1.502   6.790
 3888SOL    HW112563   6.531   1.421   6.837
 3888SOL    HW212564   6.596   1.477   6.698
 3889SOL     OW12565   0.708   5.137   6.826
 3889SOL    HW112566   0.679   5.084   6.746
 3889SOL    HW212567   0.628   5.174   6.872
 3890SOL     OW12568   6.247   6.149   3.180
 3890SOL    HW112569   6.162   6.193   3.209
 3890SOL    HW212570   6.261   6.066   3.234
 3891SOL     OW12571   5.210   5.357   4.643
 3891SOL    HW112572   5.182   5.286   4.708
 3891SOL    HW212573   5.201   5.447   4.686
 3892SOL     OW12574   0.825   0.436   2.989
 3892SOL    HW112575   0.902   0.392   2.942
 3892SOL    HW212576   0.742   0.426   2.934
 3893SOL     OW12577   3.740   5.512   3.552
 3893SOL    HW112578   3.681   5.455   3.610
 3893SOL    HW212579   3.833   5.513   3.589
 3894SOL     OW12580   3.569   2.646   0.466
 3894SOL    HW112581   3.650   2.614   0.417
 3894SOL    HW212582   3.494   2.662   0.401
 3895SOL     OW12583   1.535   1.460   5.346
 3895SOL    HW112584   1.554   1.428   5.439
 3895SOL    HW212585   1.561   1.556   5.337
 3896SOL     OW12586   0.531   1.573   5.992
 3896SOL    HW112587   0.491   1.522   5.916
 3896SOL    HW212588   0.503   1.531   6.078
 3897SOL     OW12589   2.781   6.347   2.455
 3897SOL    HW112590   2.689   6.354   2.415
 3897SOL    HW212591   2.835   6.428   2.429
 3898SOL     OW12592   3.485   2.887   4.344
 3898SOL    HW112593   3.526   2.796   4.353
 3898SOL    HW212594   3.439   2.911   4.430
 3899SOL     OW12595   5.519   1.159   5.293
 3899SOL    HW112596   5.579   1.143   5.215
 3899SOL    HW212597   5.473   1.247   5.284
 3900SOL     OW12598   6.478   2.574   3.272
 3900SOL    HW112599   6.417   2.588   3.195
 3900SOL    HW212600   6.510   2.479   3.272
 3901SOL     OW12601   1.398   6.537   4.953
 3901SOL    HW112602   1.497   6.546   4.964
 3901SOL    HW212603   1.357   6.504   5.038
 3902SOL     OW12604   5.548   5.007   1.836
 3902SOL    HW112605   5.594   4.981   1.921
 3902SOL    HW212606   5.520   4.925   1.786
 3903SOL     OW12607   4.020   2.290   0.113
 3903SOL    HW112608   4.101   2.312   0.059
 3903SOL    HW212609   3.984   2.373   0.153
 3904SOL     OW12610   1.096   7.020   0.285
 3904SOL    HW112611   1.098   0.059   0.358
 3904SOL    HW212612   1.105   6.928   0.324
 3905SOL     OW12613   6.557   6.562   6.117
 3905SOL    HW112614   6.553   6.577   6.216
 3905SOL    HW212615   6.640   6.606   6.080
 3906SOL     OW12616   1.567   4.961   3.612
 3906SOL    HW112617   1.593   4.866   3.628
 3906SOL    HW212618   1.570   5.011   3.699
 3907SOL     OW12619   0.050   0.834   4.638
 3907SOL    HW112620   6.997   0.804   4.687
 3907SOL    HW212621   0.025   0.856   4.543
 3908SOL     OW12622   1.467   0.936   5.584
 3908SOL    HW112623   1.466   0.940   5.484
 3908SOL    HW212624   1.504   1.022   5.620
 3909SOL     OW12625   5.444   3.080   5.422
 3909SOL    HW112626   5.370   3.042   5.478
 3909SOL    HW212627   5.476   3.166   5.462
 3910SOL     OW12628   3.500   3.678   1.991
 3910SOL    HW112629   3.458   3.686   2.081
 3910SOL    HW212630   3.435   3.637   1.927
 3911SOL     OW12631   5.423   0.487   1.075
 3911SOL    HW112632   5.398   0.495   0.979
 3911SOL    HW212633   5.347   0.516   1.133
 3912SOL     OW12634   3.239   2.392   6.795
 3912SOL    HW112635   3.234   2.492   6.787
 3912SOL    HW212636   3.147   2.353   6.788
 3913SOL     OW12637   3.804   6.807   0.496
 3913SOL    HW112638   3.748   6.753   0.558
 3913SOL    HW212639   3.796   6.904   0.519
 3914SOL     OW12640   5.969   1.466   1.195
 3914SOL    HW112641   6.066   1.453   1.175
 3914SOL    HW212642   5.931   1.380   1.232
 3915SOL     OW12643   4.421   5.949   0.274
 3915SOL    HW112644   4.464   5.875   0.326
 3915SOL    HW212645   4.466   6.036   0.295
 3916SOL     OW12646   3.068   0.672   2.862
 3916SOL    HW112647   3.105   0.764   2.880
 3916SOL    HW212648   3.109   0.607   2.926
 3917SOL     OW12649   2.543   5.691   0.697
 3917SOL    HW112650   2.445   5.701   0.682
 3917SOL    HW212651   2.566   5.594   0.702
 3918SOL     OW12652   5.382   0.920   0.586
 3918SOL    HW112653   5.478   0.915   0.611
 3918SOL    HW212654   5.325   0.900   0.666
 3919SOL     OW12655   4.625   1.171   1.118
 3919SOL    HW112656   4.643   1.183   1.020
 3919SOL    HW212657   4.705   1.201   1.170
 3920SOL     OW12658   3.185   1.557   6.385
 3920SOL    HW112659   3.172   1.563   6.484
 3920SOL    HW212660   3.151   1.641   6.342
 3921SOL     OW12661   0.510   2.299   6.596
 3921SOL    HW112662   0.552   2.371   6.651
 3921SOL    HW212663   0.411   2.302   6.607
 3922SOL     OW12664   4.855   4.763   1.759
 3922SOL    HW112665   4.889   4.677   1.721
 3922SOL    HW212666   4.766   4.748   1.802
 3923SOL     OW12667   5.972   0.797   1.763
 3923SOL    HW112668   5.995   0.853   1.684
 3923SOL    HW212669   5.954   0.704   1.734
 3924SOL     OW12670   6.949   4.569   3.953
 3924SOL    HW112671   6.922   4.609   4.041
 3924SOL    HW212672   7.026   4.621   3.916
 3925SOL     OW12673   5.071   4.017   0.055
 3925SOL    HW112674   4.996   3.952   0.068
 3925SOL    HW212675   5.082   4.072   0.137
 3926SOL     OW12676   1.527   0.812   6.443
 3926SOL    HW112677   1.532   0.886   6.377
 3926SOL    HW212678   1.563   0.843   6.531
 3927SOL     OW12679   0.626   2.506   4.793
 3927SOL    HW112680   0.614   2.605   4.803
 3927SOL    HW212681   0.585   2.460   4.871
 3928SOL     OW12682   2.259   6.747   3.712
 3928SOL    HW112683   2.252   6.846   3.708
 3928SOL    HW212684   2.332   6.721   3.775
 3929SOL     OW12685   0.001   1.624   5.162
 3929SOL    HW112686   0.004   1.611   5.261
 3929SOL    HW212687   6.953   1.574   5.124
 3930SOL     OW12688   1.309   2.753   3.822
 3930SOL    HW112689   1.400   2.795   3.820
 3930SOL    HW212690   1.253   2.792   3.749
 3931SOL     OW12691   1.439   2.559   1.820
 3931SOL    HW112692   1.449   2.516   1.731
 3931SOL    HW212693   1.519   2.615   1.840
 3932SOL     OW12694   1.967   5.742   3.835
 3932SOL    HW112695   1.884   5.740   3.890
 3932SOL    HW212696   1.971   5.827   3.782
 3933SOL     OW12697   1.986   5.099   0.322
 3933SOL    HW112698   1.901   5.101   0.375
 3933SOL    HW212699   1.983   5.023   0.257
 3934SOL     OW12700   0.995   1.393   2.783
 3934SOL    HW112701   0.926   1.390   2.710
 3934SOL    HW212702   0.971   1.325   2.853
 3935SOL     OW12703   6.333   3.528   6.632
 3935SOL    HW112704   6.307   3.543   6.537
 3935SOL    HW212705   6.272   3.578   6.693
 3936SOL     OW12706   6.667   5.342   5.160
 3936SOL    HW112707   6.603   5.297   5.223
 3936SOL    HW212708   6.756   5.350   5.205
 3937SOL     OW12709   6.711   5.492   2.608
 3937SOL    HW112710   6.653   5.542   2.673
 3937SOL    HW212711   6.781   5.554   2.572
 3938SOL     OW12712   6.521   3.899   3.302
 3938SOL    HW112713   6.570   3.984   3.282
 3938SOL    HW212714   6.558   3.859   3.386
 3939SOL     OW12715   0.511   1.251   2.566
 3939SOL    HW112716   0.605   1.221   2.581
 3939SOL    HW212717   0.495   1.263   2.468
 3940SOL     OW12718   3.197   4.878   1.875
 3940SOL    HW112719   3.164   4.799   1.824
 3940SOL    HW212720   3.135   4.898   1.951
 3941SOL     OW12721   5.873   6.872   4.240
 3941SOL    HW112722   5.911   6.810   4.308
 3941SOL    HW212723   5.944   6.897   4.174
 3942SOL     OW12724   1.306   6.373   6.517
 3942SOL    HW112725   1.239   6.347   6.447
 3942SOL    HW212726   1.304   6.306   6.591
 3943SOL     OW12727   1.158   3.195   1.576
 3943SOL    HW112728   1.151   3.121   1.642
 3943SOL    HW212729   1.152   3.158   1.483
 3944SOL     OW12730   6.792   2.531   6.642
 3944SOL    HW112731   6.816   2.473   6.719
 3944SOL    HW212732   6.705   2.501   6.604
 3945SOL     OW12733   1.173   1.149   3.031
 3945SOL    HW112734   1.226   1.226   3.067
 3945SOL    HW212735   1.082   1.180   3.004
 3946SOL     OW12736   0.001   2.992   0.505
 3946SOL    HW112737   6.961   2.919   0.503
 3946SOL    HW212738   0.085   2.960   0.463
 3947SOL     OW12739   5.762   5.748   0.349
 3947SOL    HW112740   5.807   5.837   0.353
 3947SOL    HW212741   5.671   5.755   0.390
 3948SOL     OW12742   1.637   2.451   5.938
 3948SOL    HW112743   1.582   2.401   6.005
 3948SOL    HW212744   1.733   2.430   5.952
 3949SOL     OW12745   6.170   6.110   2.147
 3949SOL    HW112746   6.184   6.034   2.084
 3949SOL    HW212747   6.127   6.077   2.230
 3950SOL     OW12748   4.020   4.558   1.050
 3950SOL    HW112749   4.067   4.643   1.071
 3950SOL    HW212750   3.925   4.564   1.080
 3951SOL     OW12751   0.472   1.877   5.532
 3951SOL    HW112752   0.458   1.969   5.567
 3951SOL    HW212753   0.474   1.880   5.432
 3952SOL     OW12754   6.042   2.750   5.477
 3952SOL    HW112755   6.020   2.671   5.534
 3952SOL    HW212756   5.959   2.783   5.433
 3953SOL     OW12757   3.095   4.311   6.288
 3953SOL    HW112758   3.149   4.390   6.258
 3953SOL    HW212759   3.098   4.240   6.217
 3954SOL     OW12760   6.790   3.441   4.632
 3954SOL    HW112761   6.796   3.519   4.570
 3954SOL    HW212762   6.866   3.445   4.697
 3955SOL     OW12763   5.416   5.773   6.919
 3955SOL    HW112764   5.449   5.699   6.861
 3955SOL    HW212765   5.316   5.775   6.917
 3956SOL     OW12766   0.596   2.921   6.077
 3956SOL    HW112767   0.633   2.865   6.151
 3956SOL    HW212768   0.612   2.875   5.989
 3957SOL     OW12769   2.733   6.928   4.146
 3957SOL    HW112770   2.821   6.924   4.099
 3957SOL    HW212771   2.664   6.967   4.085
 3958SOL     OW12772   6.629   6.097   6.356
 3958SOL    HW112773   6.555   6.093   6.423
 3958SOL    HW212774   6.713   6.064   6.398
 3959SOL     OW12775   3.302   5.409   0.449
 3959SOL    HW112776   3.336   5.364   0.531
 3959SOL    HW212777   3.339   5.502   0.444
 3960SOL     OW12778   3.591   2.991   0.073
 3960SOL    HW112779   3.607   3.085   0.104
 3960SOL    HW212780   3.566   2.993   7.005
 3961SOL     OW12781   4.976   1.309   1.986
 3961SOL    HW112782   4.888   1.298   1.940
 3961SOL    HW212783   5.050   1.300   1.919
 3962SOL     OW12784   0.671   6.454   6.905
 3962SOL    HW112785   0.761   6.487   6.878
 3962SOL    HW212786   0.601   6.496   6.847
 3963SOL     OW12787   5.000   5.411   4.275
 3963SOL    HW112788   5.083   5.357   4.293
 3963SOL    HW212789   5.025   5.507   4.263
 3964SOL     OW12790   5.100   5.951   5.449
 3964SOL    HW112791   5.041   5.888   5.499
 3964SOL    HW212792   5.076   6.045   5.474
 3965SOL     OW12793   3.610   4.529   6.935
 3965SOL    HW112794   3.649   4.595   6.870
 3965SOL    HW212795   3.613   4.437   6.896
 3966SOL     OW12796   6.348   4.756   5.455
 3966SOL    HW112797   6.346   4.837   5.513
 3966SOL    HW212798   6.440   4.743   5.417
 3967SOL     OW12799   0.691   6.302   5.215
 3967SOL    HW112800   0.760   6.261   5.155
 3967SOL    HW212801   0.616   6.237   5.228
 3968SOL     OW12802   5.379   0.489   2.557
 3968SOL    HW112803   5.457   0.470   2.497
 3968SOL    HW212804   5.303   0.429   2.534
 3969SOL     OW12805   1.055   4.862   2.735
 3969SOL    HW112806   1.044   4.881   2.833
 3969SOL    HW212807   1.021   4.770   2.715
 3970SOL     OW12808   4.956   4.863   3.399
 3970SOL    HW112809   4.936   4.774   3.440
 3970SOL    HW212810   4.881   4.890   3.338
 3971SOL     OW12811   1.921   5.867   2.956
 3971SOL    HW112812   1.937   5.920   3.039
 3971SOL    HW212813   1.826   5.835   2.955
 3972SOL     OW12814   0.530   6.541   0.685
 3972SOL    HW112815   0.443   6.526   0.732
 3972SOL    HW212816   0.570   6.452   0.661
 3973SOL     OW12817   3.762   4.096   3.776
 3973SOL    HW112818   3.796   4.188   3.797
 3973SOL    HW212819   3.692   4.102   3.706
 3974SOL     OW12820   6.664   1.125   6.162
 3974SOL    HW112821   6.637   1.058   6.231
 3974SOL    HW212822   6.697   1.078   6.080
 3975SOL     OW12823   6.662   0.983   6.431
 3975SOL    HW112824   6.680   0.897   6.477
 3975SOL    HW212825   6.572   0.981   6.389
 3976SOL     OW12826   1.768   4.098   1.173
 3976SOL    HW112827   1.843   4.096   1.106
 3976SOL    HW212828   1.799   4.143   1.256
 3977SOL     OW12829   2.387   6.295   6.316
 3977SOL    HW112830   2.303   6.259   6.274
 3977SOL    HW212831   2.454   6.314   6.245
 3978SOL     OW12832   5.893   1.940   5.845
 3978SOL    HW112833   5.840   1.992   5.912
 3978SOL    HW212834   5.990   1.941   5.872
 3979SOL     OW12835   1.331   6.772   2.120
 3979SOL    HW112836   1.404   6.839   2.133
 3979SOL    HW212837   1.297   6.778   2.026
 3980SOL     OW12838   4.853   3.174   4.413
 3980SOL    HW112839   4.868   3.271   4.392
 3980SOL    HW212840   4.877   3.156   4.508
 3981SOL     OW12841   6.931   1.871   0.354
 3981SOL    HW112842   6.850   1.834   0.400
 3981SOL    HW212843   6.973   1.940   0.412
 3982SOL     OW12844   2.538   1.202   4.170
 3982SOL    HW112845   2.608   1.258   4.214
 3982SOL    HW212846   2.448   1.223   4.208
 3983SOL     OW12847   3.334   6.626   4.104
 3983SOL    HW112848   3.416   6.680   4.121
 3983SOL    HW212849   3.253   6.678   4.134
 3984SOL     OW12850   1.295   6.873   1.885
 3984SOL    HW112851   1.366   6.871   1.815
 3984SOL    HW212852   1.277   6.968   1.911
 3985SOL     OW12853   1.784   3.610   0.119
 3985SOL    HW112854   1.743   3.682   0.063
 3985SOL    HW212855   1.721   3.533   0.126
 3986SOL     OW12856   0.073   1.806   1.340
 3986SOL    HW112857   0.163   1.771   1.313
 3986SOL    HW212858   0.084   1.871   1.415
 3987SOL     OW12859   2.138   5.259   6.015
 3987SOL    HW112860   2.168   5.349   5.983
 3987SOL    HW212861   2.144   5.194   5.940
 3988SOL     OW12862   3.730   2.015   0.264
 3988SOL    HW112863   3.681   2.048   0.345
 3988SOL    HW212864   3.829   2.016   0.282
 3989SOL     OW12865   6.230   6.857   0.177
 3989SOL    HW112866   6.219   6.919   0.254
 3989SOL    HW212867   6.205   6.905   0.092
 3990SOL     OW12868   0.332   2.909   4.537
 3990SOL    HW112869   0.365   2.820   4.568
 3990SOL    HW212870   0.235   2.918   4.561
 3991SOL     OW12871   0.331   2.182   3.627
 3991SOL    HW112872   0.380   2.100   3.597
 3991SOL    HW212873   0.377   2.263   3.591
 3992SOL     OW12874   4.157   3.537   6.784
 3992SOL    HW112875   4.176   3.439   6.793
 3992SOL    HW212876   4.059   3.552   6.772
 3993SOL     OW12877   3.109   2.133   2.801
 3993SOL    HW112878   3.080   2.170   2.712
 3993SOL    HW212879   3.209   2.126   2.803
 3994SOL     OW12880   2.374   2.645   4.188
 3994SOL    HW112881   2.448   2.590   4.150
 3994SOL    HW212882   2.289   2.592   4.186
 3995SOL     OW12883   2.312   4.232   3.438
 3995SOL    HW112884   2.306   4.150   3.494
 3995SOL    HW212885   2.259   4.220   3.354
 3996SOL     OW12886   1.224   0.988   4.322
 3996SOL    HW112887   1.259   1.069   4.274
 3996SOL    HW212888   1.138   1.012   4.368
 3997SOL     OW12889   4.864   3.938   3.113
 3997SOL    HW112890   4.783   3.994   3.130
 3997SOL    HW212891   4.946   3.996   3.115
 3998SOL     OW12892   6.495   2.082   2.496
 3998SOL    HW112893   6.590   2.051   2.500
 3998SOL    HW212894   6.461   2.100   2.588
 3999SOL     OW12895   6.269   4.150   3.161
 3999SOL    HW112896   6.212   4.230   3.148
 3999SOL    HW212897   6.294   4.142   3.258
 4000SOL     OW12898   2.680   5.591   2.830
 4000SOL    HW112899   2.658   5.673   2.778
 4000SOL    HW212900   2.740   5.532   2.776
 4001SOL     OW12901   2.777   3.787   5.858
 4001SOL    HW112902   2.764   3.812   5.954
 4001SOL    HW212903   2.699   3.820   5.805
 4002SOL     OW12904   3.535   3.403   5.342
 4002SOL    HW112905   3.537   3.367   5.249
 4002SOL    HW212906   3.609   3.468   5.355
 4003SOL     OW12907   2.853   1.487   6.448
 4003SOL    HW112908   2.839   1.541   6.365
 4003SOL    HW212909   2.850   1.389   6.425
 4004SOL     OW12910   6.107   3.206   2.971
 4004SOL    HW112911   6.042   3.268   2.927
 4004SOL    HW212912   6.072   3.176   3.059
 4005SOL     OW12913   4.305   3.599   0.938
 4005SOL    HW112914   4.399   3.618   0.969
 4005SOL    HW212915   4.292   3.635   0.846
 4006SOL     OW12916   5.497   5.222   1.999
 4006SOL    HW112917   5.398   5.215   2.012
 4006SOL    HW212918   5.531   5.139   1.955
 4007SOL     OW12919   0.277   1.891   3.199
 4007SOL    HW112920   0.304   1.796   3.182
 4007SOL    HW212921   0.221   1.924   3.123
 4008SOL     OW12922   3.098   0.107   0.273
 4008SOL    HW112923   3.094   0.028   0.212
 4008SOL    HW212924   3.186   0.108   0.320
 4009SOL     OW12925   4.839   1.829   1.759
 4009SOL    HW112926   4.882   1.743   1.785
 4009SOL    HW212927   4.813   1.825   1.663
 4010SOL     OW12928   3.373   4.735   1.549
 4010SOL    HW112929   3.413   4.769   1.634
 4010SOL    HW212930   3.308   4.662   1.570
 4011SOL     OW12931   0.011   5.934   1.132
 4011SOL    HW112932   0.098   5.965   1.170
 4011SOL    HW212933   7.028   5.972   1.041
 4012SOL     OW12934   4.269   6.645   1.912
 4012SOL    HW112935   4.295   6.704   1.988
 4012SOL    HW212936   4.210   6.571   1.945
 4013SOL     OW12937   1.892   6.787   1.180
 4013SOL    HW112938   1.817   6.837   1.137
 4013SOL    HW212939   1.963   6.851   1.209
 4014SOL     OW12940   3.824   6.384   4.053
 4014SOL    HW112941   3.808   6.306   3.992
 4014SOL    HW212942   3.856   6.462   3.999
 4015SOL     OW12943   4.659   4.829   6.289
 4015SOL    HW112944   4.752   4.816   6.324
 4015SOL    HW212945   4.636   4.926   6.292
 4016SOL     OW12946   2.978   5.233   0.241
 4016SOL    HW112947   2.999   5.254   0.146
 4016SOL    HW212948   3.054   5.265   0.299
 4017SOL     OW12949   0.226   4.879   5.272
 4017SOL    HW112950   0.232   4.849   5.176
 4017SOL    HW212951   0.284   4.960   5.285
 4018SOL     OW12952   4.371   6.986   1.978
 4018SOL    HW112953   4.452   6.939   1.942
 4018SOL    HW212954   4.289   6.937   1.950
 4019SOL     OW12955   5.182   3.561   2.120
 4019SOL    HW112956   5.221   3.476   2.083
 4019SOL    HW212957   5.217   3.577   2.212
 4020SOL     OW12958   6.490   3.456   4.681
 4020SOL    HW112959   6.493   3.484   4.776
 4020SOL    HW212960   6.544   3.372   4.669
 4021SOL     OW12961   3.590   4.131   5.561
 4021SOL    HW112962   3.641   4.066   5.505
 4021SOL    HW212963   3.520   4.083   5.614
 4022SOL     OW12964   3.714   6.903   0.174
 4022SOL    HW112965   3.696   6.949   0.261
 4022SOL    HW212966   3.809   6.873   0.171
 4023SOL     OW12967   6.934   0.858   5.447
 4023SOL    HW112968   7.003   0.895   5.510
 4023SOL    HW212969   6.979   0.817   5.368
 4024SOL     OW12970   2.192   4.988   4.969
 4024SOL    HW112971   2.240   4.964   5.054
 4024SOL    HW212972   2.226   4.930   4.895
 4025SOL     OW12973   0.999   6.271   4.253
 4025SOL    HW112974   1.032   6.303   4.164
 4025SOL    HW212975   1.012   6.344   4.321
 4026SOL     OW12976   6.128   6.262   4.513
 4026SOL    HW112977   6.227   6.272   4.509
 4026SOL    HW212978   6.084   6.340   4.469
 4027SOL     OW12979   2.894   1.693   6.984
 4027SOL    HW112980   2.973   1.690   6.923
 4027SOL    HW212981   2.897   1.778   0.009
 4028SOL     OW12982   4.046   1.477   3.575
 4028SOL    HW112983   4.095   1.394   3.602
 4028SOL    HW212984   4.107   1.556   3.584
 4029SOL     OW12985   2.559   3.952   5.994
 4029SOL    HW112986   2.545   3.994   5.904
 4029SOL    HW212987   2.477   3.903   6.022
 4030SOL     OW12988   6.960   0.924   1.061
 4030SOL    HW112989   6.992   0.876   1.143
 4030SOL    HW212990   6.861   0.915   1.053
 4031SOL     OW12991   5.203   6.382   3.027
 4031SOL    HW112992   5.214   6.283   3.024
 4031SOL    HW212993   5.215   6.415   3.121
 4032SOL     OW12994   0.214   7.004   2.390
 4032SOL    HW112995   0.278   6.993   2.466
 4032SOL    HW212996   0.227   0.065   2.348
 4033SOL     OW12997   1.902   2.024   2.632
 4033SOL    HW112998   1.859   1.984   2.552
 4033SOL    HW212999   1.979   1.967   2.661
 4034SOL     OW13000   6.007   1.870   5.476
 4034SOL    HW113001   5.942   1.946   5.474
 4034SOL    HW213002   5.973   1.797   5.417
 4035SOL     OW13003   6.639   0.908   1.681
 4035SOL    HW113004   6.627   0.828   1.740
 4035SOL    HW213005   6.554   0.959   1.676
 4036SOL     OW13006   4.179   5.131   2.716
 4036SOL    HW113007   4.148   5.208   2.661
 4036SOL    HW213008   4.143   5.139   2.809
 4037SOL     OW13009   2.075   1.608   6.271
 4037SOL    HW113010   2.047   1.665   6.193
 4037SOL    HW213011   2.032   1.518   6.263
 4038SOL     OW13012   4.624   3.113   0.276
 4038SOL    HW113013   4.548   3.075   0.329
 4038SOL    HW213014   4.653   3.047   0.207
 4039SOL     OW13015   4.559   5.934   1.945
 4039SOL    HW113016   4.521   6.003   2.006
 4039SOL    HW213017   4.590   5.855   1.998
 4040SOL     OW13018   2.688   6.844   4.732
 4040SOL    HW113019   2.641   6.758   4.750
 4040SOL    HW213020   2.768   6.852   4.792
 4041SOL     OW13021   1.945   5.616   1.136
 4041SOL    HW113022   1.996   5.566   1.206
 4041SOL    HW213023   1.974   5.712   1.136
 4042SOL     OW13024   5.887   6.330   4.325
 4042SOL    HW113025   5.875   6.267   4.248
 4042SOL    HW213026   5.798   6.350   4.365
 4043SOL     OW13027   0.128   1.963   6.559
 4043SOL    HW113028   0.074   1.933   6.637
 4043SOL    HW213029   0.070   2.016   6.496
 4044SOL     OW13030   5.269   5.646   3.173
 4044SOL    HW113031   5.232   5.738   3.162
 4044SOL    HW213032   5.368   5.648   3.162
 4045SOL     OW13033   4.201   6.456   5.864
 4045SOL    HW113034   4.233   6.443   5.770
 4045SOL    HW213035   4.116   6.406   5.877
 4046SOL     OW13036   0.776   2.203   2.738
 4046SOL    HW113037   0.833   2.251   2.671
 4046SOL    HW213038   0.798   2.105   2.735
 4047SOL     OW13039   2.557   2.249   6.915
 4047SOL    HW113040   2.547   2.334   6.864
 4047SOL    HW213041   2.634   2.197   6.880
 4048SOL     OW13042   5.665   1.266   1.560
 4048SOL    HW113043   5.586   1.237   1.506
 4048SOL    HW213044   5.712   1.185   1.596
 4049SOL     OW13045   5.170   5.620   6.162
 4049SOL    HW113046   5.080   5.652   6.191
 4049SOL    HW213047   5.163   5.528   6.125
 4050SOL     OW13048   0.933   6.256   1.875
 4050SOL    HW113049   1.004   6.322   1.852
 4050SOL    HW213050   0.859   6.261   1.807
 4051SOL     OW13051   4.288   1.556   6.265
 4051SOL    HW113052   4.268   1.647   6.229
 4051SOL    HW213053   4.204   1.514   6.300
 4052SOL     OW13054   5.800   2.045   3.288
 4052SOL    HW113055   5.704   2.060   3.312
 4052SOL    HW213056   5.842   2.131   3.260
 4053SOL     OW13057   2.542   6.011   4.533
 4053SOL    HW113058   2.553   5.949   4.610
 4053SOL    HW213059   2.614   5.994   4.465
 4054SOL     OW13060   5.052   4.188   0.854
 4054SOL    HW113061   5.083   4.164   0.762
 4054SOL    HW213062   5.131   4.205   0.912
 4055SOL     OW13063   2.454   4.447   0.917
 4055SOL    HW113064   2.532   4.392   0.885
 4055SOL    HW213065   2.465   4.466   1.014
 4056SOL     OW13066   5.556   4.138   1.086
 4056SOL    HW113067   5.607   4.147   1.172
 4056SOL    HW213068   5.530   4.042   1.073
 4057SOL     OW13069   0.007   2.695   0.362
 4057SOL    HW113070   0.038   2.603   0.389
 4057SOL    HW213071   6.968   2.728   0.427
 4058SOL     OW13072   3.316   6.833   5.017
 4058SOL    HW113073   3.384   6.906   5.011
 4058SOL    HW213074   3.242   6.851   4.953
 4059SOL     OW13075   0.530   1.599   2.467
 4059SOL    HW113076   0.493   1.512   2.500
 4059SOL    HW213077   0.567   1.586   2.375
 4060SOL     OW13078   5.716   4.915   5.853
 4060SOL    HW113079   5.618   4.913   5.833
 4060SOL    HW213080   5.739   4.999   5.901
 4061SOL     OW13081   2.666   5.118   2.086
 4061SOL    HW113082   2.625   5.124   2.178
 4061SOL    HW213083   2.660   5.208   2.042
 4062SOL     OW13084   2.278   0.401   2.007
 4062SOL    HW113085   2.312   0.339   1.937
 4062SOL    HW213086   2.316   0.375   2.096
 4063SOL     OW13087   6.000   6.991   0.448
 4063SOL    HW113088   5.942   7.025   0.521
 4063SOL    HW213089   6.096   7.007   0.472
 4064SOL     OW13090   2.690   1.019   4.508
 4064SOL    HW113091   2.604   0.969   4.499
 4064SOL    HW213092   2.767   0.955   4.509
 4065SOL     OW13093   1.519   6.911   1.739
 4065SOL    HW113094   1.534   6.983   1.671
 4065SOL    HW213095   1.547   6.823   1.701
 4066SOL     OW13096   6.205   4.309   2.757
 4066SOL    HW113097   6.146   4.238   2.718
 4066SOL    HW213098   6.300   4.279   2.753
 4067SOL     OW13099   6.172   3.530   2.930
 4067SOL    HW113100   6.248   3.472   2.900
 4067SOL    HW213101   6.184   3.553   3.027
 4068SOL     OW13102   1.899   1.682   4.575
 4068SOL    HW113103   1.885   1.780   4.593
 4068SOL    HW213104   1.817   1.645   4.531
 4069SOL     OW13105   3.781   5.340   6.707
 4069SOL    HW113106   3.716   5.269   6.735
 4069SOL    HW213107   3.799   5.332   6.609
 4070SOL     OW13108   0.513   2.419   2.968
 4070SOL    HW113109   0.525   2.346   3.035
 4070SOL    HW213110   0.518   2.381   2.875
 4071SOL     OW13111   1.172   1.253   4.856
 4071SOL    HW113112   1.148   1.159   4.881
 4071SOL    HW213113   1.211   1.301   4.934
 4072SOL     OW13114   0.772   5.460   4.614
 4072SOL    HW113115   0.792   5.490   4.708
 4072SOL    HW213116   0.713   5.527   4.570
 4073SOL     OW13117   2.778   5.967   6.629
 4073SOL    HW113118   2.849   6.024   6.586
 4073SOL    HW213119   2.798   5.871   6.611
 4074SOL     OW13120   0.418   4.887   1.342
 4074SOL    HW113121   0.417   4.891   1.442
 4074SOL    HW213122   0.497   4.834   1.311
 4075SOL     OW13123   4.806   1.794   1.473
 4075SOL    HW113124   4.816   1.695   1.458
 4075SOL    HW213125   4.747   1.832   1.402
 4076SOL     OW13126   2.522   3.394   6.580
 4076SOL    HW113127   2.457   3.398   6.504
 4076SOL    HW213128   2.476   3.420   6.665
 4077SOL     OW13129   3.649   1.592   0.195
 4077SOL    HW113130   3.567   1.631   0.237
 4077SOL    HW213131   3.717   1.573   0.265
 4078SOL     OW13132   1.802   5.374   2.079
 4078SOL    HW113133   1.828   5.354   1.984
 4078SOL    HW213134   1.703   5.374   2.087
 4079SOL     OW13135   2.263   0.936   3.430
 4079SOL    HW113136   2.346   0.985   3.455
 4079SOL    HW213137   2.286   0.845   3.395
 4080SOL     OW13138   4.830   3.261   6.201
 4080SOL    HW113139   4.740   3.219   6.191
 4080SOL    HW213140   4.830   3.350   6.156
 4081SOL     OW13141   1.853   2.432   3.953
 4081SOL    HW113142   1.909   2.431   4.036
 4081SOL    HW213143   1.824   2.526   3.934
 4082SOL     OW13144   1.106   4.421   0.100
 4082SOL    HW113145   1.044   4.359   0.149
 4082SOL    HW213146   1.054   4.492   0.054
 4083SOL     OW13147   6.930   3.253   2.809
 4083SOL    HW113148   7.025   3.231   2.833
 4083SOL    HW213149   6.908   3.212   2.720
 4084SOL     OW13150   5.733   2.542   3.993
 4084SOL    HW113151   5.758   2.603   3.917
 4084SOL    HW213152   5.779   2.571   4.076
 4085SOL     OW13153   3.554   5.768   1.508
 4085SOL    HW113154   3.652   5.749   1.500
 4085SOL    HW213155   3.537   5.819   1.593
 4086SOL     OW13156   2.042   5.716   1.572
 4086SOL    HW113157   2.007   5.682   1.660
 4086SOL    HW213158   1.970   5.711   1.503
 4087SOL     OW13159   3.043   2.181   3.484
 4087SOL    HW113160   3.049   2.172   3.385
 4087SOL    HW213161   2.990   2.104   3.521
 4088SOL     OW13162   0.669   1.942   0.678
 4088SOL    HW113163   0.644   1.846   0.687
 4088SOL    HW213164   0.640   1.976   0.588
 4089SOL     OW13165   5.819   6.211   4.067
 4089SOL    HW113166   5.830   6.293   4.010
 4089SOL    HW213167   5.784   6.136   4.010
 4090SOL     OW13168   0.959   4.108   6.220
 4090SOL    HW113169   1.011   4.065   6.294
 4090SOL    HW213170   0.937   4.202   6.244
 4091SOL     OW13171   6.715   6.215   0.274
 4091SOL    HW113172   6.780   6.285   0.302
 4091SOL    HW213173   6.758   6.152   0.209
 4092SOL     OW13174   6.813   2.599   5.027
 4092SOL    HW113175   6.855   2.545   5.099
 4092SOL    HW213176   6.758   2.672   5.068
 4093SOL     OW13177   4.560   0.493   2.537
 4093SOL    HW113178   4.478   0.515   2.589
 4093SOL    HW213179   4.553   0.400   2.501
 4094SOL     OW13180   2.722   5.947   4.321
 4094SOL    HW113181   2.813   5.988   4.312
 4094SOL    HW213182   2.682   5.933   4.230
 4095SOL     OW13183   0.413   3.544   6.896
 4095SOL    HW113184   0.428   3.502   6.986
 4095SOL    HW213185   0.377   3.637   6.908
 4096SOL     OW13186   4.763   6.109   6.713
 4096SOL    HW113187   4.786   6.014   6.736
 4096SOL    HW213188   4.811   6.135   6.629
 4097SOL     OW13189   3.339   4.829   5.974
 4097SOL    HW113190   3.277   4.761   5.934
 4097SOL    HW213191   3.306   4.921   5.951
 4098SOL     OW13192   0.855   2.958   1.635
 4098SOL    HW113193   0.890   3.029   1.696
 4098SOL    HW213194   0.755   2.954   1.644
 4099SOL     OW13195   2.785   4.789   1.178
 4099SOL    HW113196   2.708   4.778   1.114
 4099SOL    HW213197   2.837   4.871   1.153
 4100SOL     OW13198   6.808   5.454   4.801
 4100SOL    HW113199   6.779   5.382   4.864
 4100SOL    HW213200   6.777   5.542   4.835
 4101SOL     OW13201   5.802   1.374   0.451
 4101SOL    HW113202   5.740   1.319   0.507
 4101SOL    HW213203   5.751   1.423   0.381
 4102SOL     OW13204   6.512   0.605   0.716
 4102SOL    HW113205   6.547   0.549   0.641
 4102SOL    HW213206   6.491   0.697   0.682
 4103SOL     OW13207   0.276   0.738   0.774
 4103SOL    HW113208   0.186   0.770   0.746
 4103SOL    HW213209   0.287   0.753   0.873
 4104SOL     OW13210   0.809   4.539   2.499
 4104SOL    HW113211   0.729   4.542   2.559
 4104SOL    HW213212   0.779   4.545   2.404
 4105SOL     OW13213   4.040   6.244   1.865
 4105SOL    HW113214   4.019   6.252   1.767
 4105SOL    HW213215   4.131   6.202   1.876
 4106SOL     OW13216   6.837   2.195   4.081
 4106SOL    HW113217   6.855   2.273   4.021
 4106SOL    HW213218   6.917   2.135   4.083
 4107SOL     OW13219   1.741   6.003   1.093
 4107SOL    HW113220   1.737   6.068   1.170
 4107SOL    HW213221   1.776   6.050   1.012
 4108SOL     OW13222   6.743   4.200   5.393
 4108SOL    HW113223   6.843   4.191   5.386
 4108SOL    HW213224   6.703   4.196   5.302
 4109SOL     OW13225   5.268   6.255   5.061
 4109SOL    HW113226   5.358   6.214   5.047
 4109SOL    HW213227   5.213   6.196   5.120
 4110SOL     OW13228   4.708   3.406   6.587
 4110SOL    HW113229   4.762   3.323   6.579
 4110SOL    HW213230   4.749   3.478   6.531
 4111SOL     OW13231   3.674   3.486   6.627
 4111SOL    HW113232   3.765   3.480   6.668
 4111SOL    HW213233   3.683   3.504   6.529
 4112SOL     OW13234   5.027   0.334   5.557
 4112SOL    HW113235   4.981   0.272   5.621
 4112SOL    HW213236   4.971   0.345   5.475
 4113SOL     OW13237   5.014   6.664   4.440
 4113SOL    HW113238   5.078   6.741   4.433
 4113SOL    HW213239   4.999   6.624   4.349
 4114SOL     OW13240   2.824   2.242   4.553
 4114SOL    HW113241   2.788   2.180   4.484
 4114SOL    HW213242   2.924   2.235   4.555
 4115SOL     OW13243   4.024   5.404   2.367
 4115SOL    HW113244   3.924   5.399   2.364
 4115SOL    HW213245   4.058   5.351   2.445
 4116SOL     OW13246   3.655   2.219   1.591
 4116SOL    HW113247   3.755   2.226   1.579
 4116SOL    HW213248   3.632   2.239   1.686
 4117SOL     OW13249   0.983   4.880   2.069
 4117SOL    HW113250   0.903   4.823   2.088
 4117SOL    HW213251   0.976   4.964   2.124
 4118SOL     OW13252   2.950   6.630   6.844
 4118SOL    HW113253   2.919   6.630   6.939
 4118SOL    HW213254   2.901   6.700   6.793
 4119SOL     OW13255   3.834   2.142   4.036
 4119SOL    HW113256   3.929   2.152   4.065
 4119SOL    HW213257   3.819   2.050   3.999
 4120SOL     OW13258   4.212   0.305   0.330
 4120SOL    HW113259   4.202   0.404   0.345
 4120SOL    HW213260   4.122   0.264   0.318
 4121SOL     OW13261   6.063   1.092   4.935
 4121SOL    HW113262   6.063   1.060   4.840
 4121SOL    HW213263   5.999   1.168   4.945
 4122SOL     OW13264   0.586   5.609   5.565
 4122SOL    HW113265   0.507   5.548   5.565
 4122SOL    HW213266   0.560   5.697   5.605
 4123SOL     OW13267   4.177   4.739   5.855
 4123SOL    HW113268   4.200   4.813   5.791
 4123SOL    HW213269   4.165   4.654   5.804
 4124SOL     OW13270   6.050   4.972   6.263
 4124SOL    HW113271   6.043   4.879   6.225
 4124SOL    HW213272   5.983   4.982   6.337
 4125SOL     OW13273   4.751   1.645   2.377
 4125SOL    HW113274   4.823   1.703   2.417
 4125SOL    HW213275   4.671   1.701   2.356
 4126SOL     OW13276   1.792   3.622   3.255
 4126SOL    HW113277   1.815   3.711   3.215
 4126SOL    HW213278   1.717   3.581   3.203
 4127SOL     OW13279   4.722   4.917   4.644
 4127SOL    HW113280   4.714   4.848   4.716
 4127SOL    HW213281   4.796   4.980   4.666
 4128SOL     OW13282   1.503   3.360   2.136
 4128SOL    HW113283   1.602   3.364   2.147
 4128SOL    HW213284   1.465   3.452   2.144
 4129SOL     OW13285   4.782   1.900   6.745
 4129SOL    HW113286   4.806   1.820   6.690
 4129SOL    HW213287   4.768   1.979   6.684
 4130SOL     OW13288   6.845   2.715   5.661
 4130SOL    HW113289   6.938   2.722   5.697
 4130SOL    HW213290   6.809   2.624   5.679
 4131SOL     OW13291   1.830   6.297   3.763
 4131SOL    HW113292   1.867   6.352   3.838
 4131SOL    HW213293   1.735   6.273   3.783
 4132SOL     OW13294   5.092   4.137   3.554
 4132SOL    HW113295   5.142   4.052   3.533
 4132SOL    HW213296   4.997   4.128   3.524
 4133SOL     OW13297   3.341   0.036   1.545
 4133SOL    HW113298   3.396   0.052   1.627
 4133SOL    HW213299   3.360   0.107   1.477
 4134SOL     OW13300   2.167   2.395   0.126
 4134SOL    HW113301   2.101   2.470   0.135
 4134SOL    HW213302   2.119   2.314   0.092
 4135SOL     OW13303   2.220   1.314   2.859
 4135SOL    HW113304   2.243   1.272   2.946
 4135SOL    HW213305   2.217   1.414   2.869
 4136SOL     OW13306   1.767   2.198   2.767
 4136SOL    HW113307   1.816   2.135   2.706
 4136SOL    HW213308   1.673   2.165   2.779
 4137SOL     OW13309   1.560   4.595   0.936
 4137SOL    HW113310   1.558   4.601   0.836
 4137SOL    HW213311   1.544   4.500   0.963
 4138SOL     OW13312   3.725   4.841   3.211
 4138SOL    HW113313   3.658   4.848   3.137
 4138SOL    HW213314   3.681   4.865   3.298
 4139SOL     OW13315   2.443   2.659   4.479
 4139SOL    HW113316   2.414   2.651   4.384
 4139SOL    HW213317   2.506   2.584   4.501
 4140SOL     OW13318   2.959   0.774   5.387
 4140SOL    HW113319   2.903   0.856   5.398
 4140SOL    HW213320   2.979   0.734   5.476
 4141SOL     OW13321   5.596   6.682   1.341
 4141SOL    HW113322   5.584   6.760   1.402
 4141SOL    HW213323   5.513   6.626   1.341
 4142SOL     OW13324   6.337   5.347   0.530
 4142SOL    HW113325   6.279   5.348   0.611
 4142SOL    HW213326   6.294   5.292   0.458
 4143SOL     OW13327   0.355   3.146   0.427
 4143SOL    HW113328   0.303   3.062   0.411
 4143SOL    HW213329   0.294   3.225   0.420
 4144SOL     OW13330   4.729   3.898   6.386
 4144SOL    HW113331   4.690   3.986   6.412
 4144SOL    HW213332   4.799   3.873   6.453
 4145SOL     OW13333   6.725   5.732   1.070
 4145SOL    HW113334   6.730   5.641   1.110
 4145SOL    HW213335   6.641   5.741   1.018
 4146SOL     OW13336   0.109   0.941   5.598
 4146SOL    HW113337   0.130   0.938   5.696
 4146SOL    HW213338   0.192   0.923   5.545
 4147SOL     OW13339   4.656   3.000   5.857
 4147SOL    HW113340   4.748   2.979   5.889
 4147SOL    HW213341   4.657   3.013   5.758
 4148SOL     OW13342   0.834   0.375   4.415
 4148SOL    HW113343   0.869   0.322   4.493
 4148SOL    HW213344   0.774   0.317   4.360
 4149SOL     OW13345   0.369   2.503   0.543
 4149SOL    HW113346   0.415   2.480   0.458
 4149SOL    HW213347   0.272   2.520   0.524
 4150SOL     OW13348   0.304   0.971   5.154
 4150SOL    HW113349   0.358   1.053   5.136
 4150SOL    HW213350   0.357   0.890   5.129
 4151SOL     OW13351   3.784   6.470   6.083
 4151SOL    HW113352   3.750   6.483   6.176
 4151SOL    HW213353   3.759   6.549   6.027
 4152SOL     OW13354   3.000   6.291   1.349
 4152SOL    HW113355   3.071   6.319   1.283
 4152SOL    HW213356   2.923   6.253   1.299
 4153SOL     OW13357   4.568   4.804   0.062
 4153SOL    HW113358   4.470   4.821   0.066
 4153SOL    HW213359   4.586   4.707   0.078
 4154SOL     OW13360   0.659   4.604   4.882
 4154SOL    HW113361   0.584   4.540   4.865
 4154SOL    HW213362   0.673   4.613   4.980
 4155SOL     OW13363   6.720   1.583   2.856
 4155SOL    HW113364   6.643   1.545   2.907
 4155SOL    HW213365   6.694   1.598   2.761
 4156SOL     OW13366   4.905   6.492   4.912
 4156SOL    HW113367   4.891   6.498   4.814
 4156SOL    HW213368   4.867   6.573   4.957
 4157SOL     OW13369   4.329   6.579   4.277
 4157SOL    HW113370   4.255   6.559   4.342
 4157SOL    HW213371   4.368   6.668   4.298
 4158SOL     OW13372   1.649   5.101   3.396
 4158SOL    HW113373   1.711   5.039   3.347
 4158SOL    HW213374   1.616   5.057   3.479
 4159SOL     OW13375   2.112   3.205   3.797
 4159SOL    HW113376   2.178   3.175   3.727
 4159SOL    HW213377   2.161   3.230   3.880
 4160SOL     OW13378   6.613   0.566   0.970
 4160SOL    HW113379   6.642   0.471   0.969
 4160SOL    HW213380   6.576   0.591   0.880
 4161SOL     OW13381   1.004   0.449   6.433
 4161SOL    HW113382   1.049   0.402   6.508
 4161SOL    HW213383   0.932   0.509   6.468
 4162SOL     OW13384   6.041   6.307   5.691
 4162SOL    HW113385   6.120   6.260   5.731
 4162SOL    HW213386   6.038   6.290   5.593
 4163SOL     OW13387   6.262   0.050   3.176
 4163SOL    HW113388   6.293   6.986   3.197
 4163SOL    HW213389   6.340   0.105   3.147
 4164SOL     OW13390   1.014   6.601   6.425
 4164SOL    HW113391   1.085   6.577   6.358
 4164SOL    HW213392   0.952   6.524   6.435
 4165SOL     OW13393   4.338   0.412   6.779
 4165SOL    HW113394   4.419   0.356   6.759
 4165SOL    HW213395   4.301   0.386   6.869
 4166SOL     OW13396   5.899   4.129   1.007
 4166SOL    HW113397   5.882   4.184   1.088
 4166SOL    HW213398   5.879   4.033   1.027
 4167SOL     OW13399   1.558   4.309   1.042
 4167SOL    HW113400   1.538   4.377   1.113
 4167SOL    HW213401   1.598   4.227   1.084
 4168SOL     OW13402   0.011   5.054   1.358
 4168SOL    HW113403   0.035   5.071   1.454
 4168SOL    HW213404   0.050   4.967   1.329
 4169SOL     OW13405   5.795   3.467   3.841
 4169SOL    HW113406   5.725   3.396   3.830
 4169SOL    HW213407   5.882   3.435   3.804
 4170SOL     OW13408   2.860   3.725   4.895
 4170SOL    HW113409   2.772   3.681   4.913
 4170SOL    HW213410   2.934   3.658   4.903
 4171SOL     OW13411   5.112   4.774   1.154
 4171SOL    HW113412   5.163   4.742   1.074
 4171SOL    HW213413   5.176   4.818   1.218
 4172SOL     OW13414   0.215   1.572   6.188
 4172SOL    HW113415   0.289   1.516   6.226
 4172SOL    HW213416   0.149   1.513   6.141
 4173SOL     OW13417   5.359   3.382   5.304
 4173SOL    HW113418   5.458   3.393   5.309
 4173SOL    HW213419   5.333   3.347   5.214
 4174SOL     OW13420   5.075   0.418   3.944
 4174SOL    HW113421   5.083   0.390   4.040
 4174SOL    HW213422   5.156   0.387   3.894
 4175SOL     OW13423   2.056   5.540   4.829
 4175SOL    HW113424   2.002   5.624   4.838
 4175SOL    HW213425   2.138   5.559   4.774
 4176SOL     OW13426   2.739   6.634   2.006
 4176SOL    HW113427   2.756   6.654   1.909
 4176SOL    HW213428   2.821   6.593   2.046
 4177SOL     OW13429   6.697   4.470   4.372
 4177SOL    HW113430   6.740   4.415   4.443
 4177SOL    HW213431   6.602   4.441   4.359
 4178SOL     OW13432   4.453   1.193   3.873
 4178SOL    HW113433   4.450   1.167   3.970
 4178SOL    HW213434   4.450   1.112   3.816
 4179SOL     OW13435   5.714   2.472   3.491
 4179SOL    HW113436   5.668   2.416   3.560
 4179SOL    HW213437   5.668   2.560   3.484
 4180SOL     OW13438   5.616   3.348   1.584
 4180SOL    HW113439   5.575   3.331   1.673
 4180SOL    HW213440   5.715   3.336   1.590
 4181SOL     OW13441   1.927   2.184   6.141
 4181SOL    HW113442   1.937   2.273   6.097
 4181SOL    HW213443   1.830   2.162   6.149
 4182SOL     OW13444   6.881   6.404   2.906
 4182SOL    HW113445   6.899   6.453   2.821
 4182SOL    HW213446   6.923   6.453   2.983
 4183SOL     OW13447   4.488   0.719   0.696
 4183SOL    HW113448   4.414   0.657   0.670
 4183SOL    HW213449   4.520   0.770   0.616
 4184SOL     OW13450   4.802   4.933   1.243
 4184SOL    HW113451   4.710   4.970   1.246
 4184SOL    HW213452   4.821   4.896   1.152
 4185SOL     OW13453   0.948   6.156   2.647
 4185SOL    HW113454   0.946   6.070   2.596
 4185SOL    HW213455   1.023   6.153   2.714
 4186SOL     OW13456   1.719   4.956   1.187
 4186SOL    HW113457   1.745   4.886   1.253
 4186SOL    HW213458   1.628   4.936   1.151
 4187SOL     OW13459   3.646   4.002   5.987
 4187SOL    HW113460   3.681   3.932   5.924
 4187SOL    HW213461   3.646   3.966   6.080
 4188SOL     OW13462   4.964   0.051   3.939
 4188SOL    HW113463   4.876   0.003   3.936
 4188SOL    HW213464   4.971   0.103   4.024
 4189SOL     OW13465   3.186   1.042   4.905
 4189SOL    HW113466   3.140   1.003   4.985
 4189SOL    HW213467   3.166   0.987   4.824
 4190SOL     OW13468   1.614   0.160   6.952
 4190SOL    HW113469   1.518   0.185   6.967
 4190SOL    HW213470   1.644   0.198   6.864
 4191SOL     OW13471   5.852   3.597   3.086
 4191SOL    HW113472   5.900   3.510   3.097
 4191SOL    HW213473   5.762   3.591   3.128
 4192SOL     OW13474   6.793   0.719   3.558
 4192SOL    HW113475   6.814   0.722   3.460
 4192SOL    HW213476   6.877   0.704   3.610
 4193SOL     OW13477   2.416   6.922   2.038
 4193SOL    HW113478   2.449   6.850   2.099
 4193SOL    HW213479   2.460   6.913   1.949
 4194SOL     OW13480   6.563   1.504   5.469
 4194SOL    HW113481   6.566   1.421   5.524
 4194SOL    HW213482   6.656   1.539   5.456
 4195SOL     OW13483   3.165   0.653   1.510
 4195SOL    HW113484   3.075   0.665   1.469
 4195SOL    HW213485   3.211   0.742   1.517
 4196SOL     OW13486   6.056   1.981   3.688
 4196SOL    HW113487   6.071   1.979   3.589
 4196SOL    HW213488   6.029   2.073   3.716
 4197SOL     OW13489   4.418   4.945   4.973
 4197SOL    HW113490   4.412   4.902   5.063
 4197SOL    HW213491   4.510   4.981   4.960
 4198SOL     OW13492   5.772   3.422   6.708
 4198SOL    HW113493   5.733   3.358   6.642
 4198SOL    HW213494   5.815   3.498   6.659
 4199SOL     OW13495   1.850   3.457   6.283
 4199SOL    HW113496   1.798   3.542   6.292
 4199SOL    HW213497   1.876   3.443   6.187
 4200SOL     OW13498   3.272   6.660   5.223
 4200SOL    HW113499   3.268   6.710   5.310
 4200SOL    HW213500   3.296   6.723   5.149
 4201SOL     OW13501   5.486   6.199   3.936
 4201SOL    HW113502   5.532   6.158   4.014
 4201SOL    HW213503   5.422   6.270   3.968
 4202SOL     OW13504   4.289   5.655   5.559
 4202SOL    HW113505   4.387   5.672   5.569
 4202SOL    HW213506   4.238   5.723   5.611
 4203SOL     OW13507   4.557   5.730   2.135
 4203SOL    HW113508   4.497   5.697   2.063
 4203SOL    HW213509   4.514   5.712   2.224
 4204SOL     OW13510   3.478   3.073   2.089
 4204SOL    HW113511   3.446   3.086   2.183
 4204SOL    HW213512   3.568   3.031   2.089
 4205SOL     OW13513   3.756   5.438   4.575
 4205SOL    HW113514   3.731   5.532   4.598
 4205SOL    HW213515   3.855   5.428   4.580
 4206SOL     OW13516   6.114   0.815   5.167
 4206SOL    HW113517   6.046   0.849   5.232
 4206SOL    HW213518   6.189   0.881   5.160
 4207SOL     OW13519   2.404   2.036   0.805
 4207SOL    HW113520   2.428   2.003   0.897
 4207SOL    HW213521   2.304   2.041   0.797
 4208SOL     OW13522   0.955   2.319   6.886
 4208SOL    HW113523   0.939   2.416   6.906
 4208SOL    HW213524   0.887   2.263   6.933
 4209SOL     OW13525   1.160   1.704   4.522
 4209SOL    HW113526   1.154   1.659   4.612
 4209SOL    HW213527   1.158   1.803   4.535
 4210SOL     OW13528   2.865   3.365   1.708
 4210SOL    HW113529   2.925   3.348   1.786
 4210SOL    HW213530   2.793   3.428   1.735
 4211SOL     OW13531   4.666   6.197   5.471
 4211SOL    HW113532   4.644   6.174   5.377
 4211SOL    HW213533   4.653   6.117   5.529
 4212SOL     OW13534   6.105   1.717   2.146
 4212SOL    HW113535   6.054   1.787   2.197
 4212SOL    HW213536   6.058   1.700   2.059
 4213SOL     OW13537   2.400   1.147   2.752
 4213SOL    HW113538   2.328   1.216   2.765
 4213SOL    HW213539   2.489   1.189   2.763
 4214SOL     OW13540   6.932   4.055   5.770
 4214SOL    HW113541   6.861   4.063   5.700
 4214SOL    HW213542   6.925   3.965   5.814
 4215SOL     OW13543   6.583   5.610   4.355
 4215SOL    HW113544   6.665   5.667   4.343
 4215SOL    HW213545   6.551   5.578   4.265
 4216SOL     OW13546   1.421   1.912   2.772
 4216SOL    HW113547   1.419   1.827   2.825
 4216SOL    HW213548   1.399   1.891   2.676
 4217SOL     OW13549   6.236   0.329   2.932
 4217SOL    HW113550   6.178   0.252   2.958
 4217SOL    HW213551   6.326   0.296   2.905
 4218SOL     OW13552   5.022   0.113   1.277
 4218SOL    HW113553   5.008   0.021   1.239
 4218SOL    HW213554   5.023   0.180   1.203
 4219SOL     OW13555   2.812   5.520   4.860
 4219SOL    HW113556   2.826   5.478   4.771
 4219SOL    HW213557   2.893   5.506   4.917
 4220SOL     OW13558   6.363   2.777   3.434
 4220SOL    HW113559   6.454   2.815   3.451
 4220SOL    HW213560   6.370   2.696   3.375
 4221SOL     OW13561   6.311   5.802   6.559
 4221SOL    HW113562   6.289   5.731   6.625
 4221SOL    HW213563   6.356   5.762   6.479
 4222SOL     OW13564   5.952   2.040   2.110
 4222SOL    HW113565   6.037   2.032   2.057
 4222SOL    HW213566   5.971   2.089   2.195
 4223SOL     OW13567   3.308   3.005   4.539
 4223SOL    HW113568   3.284   3.078   4.475
 4223SOL    HW213569   3.233   2.991   4.603
 4224SOL     OW13570   4.962   3.051   3.839
 4224SOL    HW113571   4.882   2.991   3.836
 4224SOL    HW213572   5.039   3.002   3.880
 4225SOL     OW13573   5.087   0.580   5.193
 4225SOL    HW113574   5.147   0.503   5.215
 4225SOL    HW213575   5.042   0.612   5.276
 4226SOL     OW13576   1.974   0.119   3.246
 4226SOL    HW113577   1.939   0.061   3.319
 4226SOL    HW213578   2.006   0.206   3.285
 4227SOL     OW13579   3.342   4.608   6.723
 4227SOL    HW113580   3.410   4.680   6.742
 4227SOL    HW213581   3.304   4.575   6.810
 4228SOL     OW13582   6.410   4.710   3.171
 4228SOL    HW113583   6.452   4.632   3.217
 4228SOL    HW213584   6.327   4.737   3.220
 4229SOL     OW13585   3.764   4.627   6.428
 4229SOL    HW113586   3.819   4.564   6.483
 4229SOL    HW213587   3.801   4.631   6.335
 4230SOL     OW13588   2.835   0.623   4.269
 4230SOL    HW113589   2.929   0.612   4.238
 4230SOL    HW213590   2.823   0.577   4.357
 4231SOL     OW13591   5.220   6.497   4.785
 4231SOL    HW113592   5.216   6.536   4.877
 4231SOL    HW213593   5.211   6.398   4.791
 4232SOL     OW13594   0.459   5.252   1.624
 4232SOL    HW113595   0.508   5.321   1.677
 4232SOL    HW213596   0.506   5.164   1.632
 4233SOL     OW13597   6.687   0.163   6.956
 4233SOL    HW113598   6.707   0.218   6.875
 4233SOL    HW213599   6.697   0.066   6.934
 4234SOL     OW13600   1.521   6.885   5.542
 4234SOL    HW113601   1.504   6.918   5.635
 4234SOL    HW213602   1.615   6.854   5.534
 4235SOL     OW13603   6.255   4.014   5.209
 4235SOL    HW113604   6.190   3.967   5.150
 4235SOL    HW213605   6.313   3.947   5.255
 4236SOL     OW13606   6.993   3.185   3.303
 4236SOL    HW113607   6.967   3.114   3.368
 4236SOL    HW213608   6.938   3.177   3.220
 4237SOL     OW13609   6.134   4.662   4.135
 4237SOL    HW113610   6.218   4.633   4.088
 4237SOL    HW213611   6.138   4.634   4.231
 4238SOL     OW13612   4.357   4.718   4.114
 4238SOL    HW113613   4.423   4.644   4.126
 4238SOL    HW213614   4.402   4.795   4.068
 4239SOL     OW13615   5.669   0.189   4.071
 4239SOL    HW113616   5.609   0.263   4.101
 4239SOL    HW213617   5.625   0.101   4.089
 4240SOL     OW13618   2.185   6.149   6.248
 4240SOL    HW113619   2.171   6.089   6.170
 4240SOL    HW213620   2.119   6.128   6.320
 4241SOL     OW13621   5.869   0.184   1.163
 4241SOL    HW113622   5.778   0.160   1.129
 4241SOL    HW213623   5.865   0.270   1.213
 4242SOL     OW13624   2.267   6.793   3.304
 4242SOL    HW113625   2.204   6.730   3.350
 4242SOL    HW213626   2.332   6.741   3.249
 4243SOL     OW13627   0.978   3.921   2.855
 4243SOL    HW113628   1.058   3.894   2.909
 4243SOL    HW213629   0.965   3.855   2.780
 4244SOL     OW13630   4.642   5.727   0.879
 4244SOL    HW113631   4.729   5.746   0.834
 4244SOL    HW213632   4.654   5.654   0.947
 4245SOL     OW13633   6.867   2.280   0.153
 4245SOL    HW113634   6.942   2.217   0.133
 4245SOL    HW213635   6.838   2.269   0.247
 4246SOL     OW13636   5.489   3.289   3.189
 4246SOL    HW113637   5.434   3.327   3.114
 4246SOL    HW213638   5.428   3.244   3.254
 4247SOL     OW13639   2.199   5.106   4.577
 4247SOL    HW113640   2.215   5.009   4.594
 4247SOL    HW213641   2.237   5.159   4.652
 4248SOL     OW13642   1.792   1.015   3.401
 4248SOL    HW113643   1.869   1.009   3.337
 4248SOL    HW213644   1.735   1.094   3.378
 4249SOL     OW13645   6.530   1.693   3.508
 4249SOL    HW113646   6.541   1.790   3.489
 4249SOL    HW213647   6.443   1.660   3.470
 4250SOL     OW13648   0.126   5.957   3.943
 4250SOL    HW113649   0.182   5.882   3.908
 4250SOL    HW213650   0.075   5.998   3.867
 4251SOL     OW13651   6.075   2.642   6.933
 4251SOL    HW113652   6.064   2.660   0.001
 4251SOL    HW213653   6.150   2.577   6.919
 4252SOL     OW13654   5.894   5.784   6.242
 4252SOL    HW113655   5.963   5.807   6.311
 4252SOL    HW213656   5.829   5.717   6.281
 4253SOL     OW13657   3.643   6.289   2.572
 4253SOL    HW113658   3.567   6.269   2.510
 4253SOL    HW213659   3.623   6.371   2.625
 4254SOL     OW13660   2.422   4.745   1.696
 4254SOL    HW113661   2.396   4.810   1.767
 4254SOL    HW213662   2.455   4.660   1.738
 4255SOL     OW13663   6.947   3.460   4.014
 4255SOL    HW113664   6.939   3.548   4.063
 4255SOL    HW213665   6.866   3.445   3.958
 4256SOL     OW13666   1.111   5.887   1.855
 4256SOL    HW113667   1.139   5.977   1.821
 4256SOL    HW213668   1.036   5.852   1.799
 4257SOL     OW13669   6.503   0.757   4.920
 4257SOL    HW113670   6.436   0.831   4.928
 4257SOL    HW213671   6.565   0.761   4.998
 4258SOL     OW13672   3.602   5.708   1.161
 4258SOL    HW113673   3.574   5.630   1.217
 4258SOL    HW213674   3.610   5.789   1.219
 4259SOL     OW13675   1.680   6.591   1.273
 4259SOL    HW113676   1.734   6.658   1.221
 4259SOL    HW213677   1.704   6.499   1.243
 4260SOL     OW13678   5.049   0.043   3.668
 4260SOL    HW113679   5.022   0.058   3.763
 4260SOL    HW213680   5.145   0.015   3.665
 4261SOL     OW13681   1.980   0.238   3.642
 4261SOL    HW113682   1.961   0.276   3.733
 4261SOL    HW213683   1.931   0.152   3.632
 4262SOL     OW13684   1.797   4.624   5.513
 4262SOL    HW113685   1.885   4.662   5.543
 4262SOL    HW213686   1.787   4.532   5.551
 4263SOL     OW13687   3.183   1.269   3.531
 4263SOL    HW113688   3.218   1.348   3.480
 4263SOL    HW213689   3.202   1.281   3.628
 4264SOL     OW13690   5.927   1.291   4.462
 4264SOL    HW113691   5.943   1.387   4.483
 4264SOL    HW213692   5.915   1.279   4.363
 4265SOL     OW13693   3.492   0.389   1.026
 4265SOL    HW113694   3.448   0.308   0.987
 4265SOL    HW213695   3.426   0.440   1.080
 4266SOL     OW13696   1.677   6.882   0.215
 4266SOL    HW113697   1.640   6.898   0.124
 4266SOL    HW213698   1.605   6.895   0.284
 4267SOL     OW13699   1.846   3.862   4.073
 4267SOL    HW113700   1.818   3.766   4.080
 4267SOL    HW213701   1.945   3.867   4.065
 4268SOL     OW13702   2.032   5.164   6.910
 4268SOL    HW113703   2.050   5.095   6.841
 4268SOL    HW213704   2.072   5.251   6.882
 4269SOL     OW13705   3.393   1.478   3.906
 4269SOL    HW113706   3.469   1.490   3.971
 4269SOL    HW213707   3.380   1.563   3.856
 4270SOL     OW13708   3.714   3.046   1.306
 4270SOL    HW113709   3.658   2.963   1.310
 4270SOL    HW213710   3.700   3.091   1.217
 4271SOL     OW13711   6.453   0.925   0.164
 4271SOL    HW113712   6.417   0.990   0.231
 4271SOL    HW213713   6.377   0.881   0.116
 4272SOL     OW13714   6.938   3.240   5.059
 4272SOL    HW113715   6.841   3.229   5.038
 4272SOL    HW213716   6.952   3.237   5.158
 4273SOL     OW13717   5.257   5.964   4.963
 4273SOL    HW113718   5.298   5.880   4.998
 4273SOL    HW213719   5.204   6.008   5.035
 4274SOL     OW13720   0.691   6.805   1.789
 4274SOL    HW113721   0.658   6.791   1.695
 4274SOL    HW213722   0.786   6.775   1.795
 4275SOL     OW13723   0.422   1.837   4.818
 4275SOL    HW113724   0.476   1.900   4.762
 4275SOL    HW213725   0.381   1.887   4.894
 4276SOL     OW13726   3.069   5.087   3.597
 4276SOL    HW113727   3.052   5.016   3.528
 4276SOL    HW213728   3.053   5.050   3.688
 4277SOL     OW13729   6.503   4.505   3.300
 4277SOL    HW113730   6.424   4.493   3.360
 4277SOL    HW213731   6.587   4.485   3.351
 4278SOL     OW13732   6.965   6.697   3.398
 4278SOL    HW113733   0.003   6.715   3.326
 4278SOL    HW213734   7.005   6.639   3.468
 4279SOL     OW13735   1.675   0.716   2.444
 4279SOL    HW113736   1.722   0.648   2.388
 4279SOL    HW213737   1.632   0.785   2.384
 4280SOL     OW13738   5.980   6.553   5.845
 4280SOL    HW113739   5.887   6.544   5.880
 4280SOL    HW213740   5.996   6.485   5.774
 4281SOL     OW13741   4.902   4.930   4.276
 4281SOL    HW113742   4.815   4.886   4.254
 4281SOL    HW213743   4.918   5.007   4.214
 4282SOL     OW13744   3.255   4.547   1.026
 4282SOL    HW113745   3.197   4.602   1.086
 4282SOL    HW213746   3.347   4.587   1.022
 4283SOL     OW13747   4.604   1.174   3.274
 4283SOL    HW113748   4.565   1.116   3.202
 4283SOL    HW213749   4.653   1.117   3.339
 4284SOL     OW13750   3.861   5.960   0.046
 4284SOL    HW113751   3.854   5.860   0.048
 4284SOL    HW213752   3.955   5.987   0.027
 4285SOL     OW13753   2.489   0.987   5.882
 4285SOL    HW113754   2.463   0.917   5.948
 4285SOL    HW213755   2.492   1.076   5.928
 4286SOL     OW13756   6.897   0.316   6.239
 4286SOL    HW113757   6.829   0.253   6.276
 4286SOL    HW213758   6.852   0.397   6.201
 4287SOL     OW13759   4.801   1.508   6.193
 4287SOL    HW113760   4.708   1.545   6.197
 4287SOL    HW213761   4.798   1.411   6.217
 4288SOL     OW13762   6.858   5.783   2.595
 4288SOL    HW113763   6.921   5.821   2.528
 4288SOL    HW213764   6.770   5.763   2.551
 4289SOL     OW13765   1.562   2.265   5.690
 4289SOL    HW113766   1.529   2.245   5.782
 4289SOL    HW213767   1.591   2.361   5.685
 4290SOL     OW13768   0.324   6.421   4.423
 4290SOL    HW113769   0.375   6.507   4.436
 4290SOL    HW213770   0.343   6.360   4.501
 4291SOL     OW13771   4.887   3.196   6.553
 4291SOL    HW113772   4.805   3.140   6.545
 4291SOL    HW213773   4.920   3.220   6.461
 4292SOL     OW13774   6.056   3.016   0.142
 4292SOL    HW113775   6.052   3.049   0.048
 4292SOL    HW213776   6.128   2.947   0.151
 4293SOL     OW13777   4.245   4.037   6.588
 4293SOL    HW113778   4.341   4.019   6.569
 4293SOL    HW213779   4.209   3.967   6.650
 4294SOL     OW13780   2.053   1.938   6.145
 4294SOL    HW113781   2.014   1.874   6.079
 4294SOL    HW213782   1.988   2.011   6.164
 4295SOL     OW13783   4.270   6.402   2.744
 4295SOL    HW113784   4.251   6.457   2.826
 4295SOL    HW213785   4.185   6.388   2.693
 4296SOL     OW13786   3.063   0.009   0.925
 4296SOL    HW113787   2.989   6.974   0.948
 4296SOL    HW213788   3.143   6.987   0.895
 4297SOL     OW13789   6.254   6.366   1.813
 4297SOL    HW113790   6.244   6.408   1.904
 4297SOL    HW213791   6.167   6.326   1.785
 4298SOL     OW13792   3.750   6.359   1.468
 4298SOL    HW113793   3.797   6.320   1.547
 4298SOL    HW213794   3.670   6.303   1.446
 4299SOL     OW13795   0.621   3.520   0.207
 4299SOL    HW113796   0.595   3.424   0.194
 4299SOL    HW213797   0.540   3.573   0.231
 4300SOL     OW13798   2.845   0.500   0.977
 4300SOL    HW113799   2.750   0.517   0.951
 4300SOL    HW213800   2.903   0.575   0.946
 4301SOL     OW13801   3.221   0.306   1.397
 4301SOL    HW113802   3.158   0.246   1.347
 4301SOL    HW213803   3.179   0.335   1.483
 4302SOL     OW13804   6.235   0.188   6.900
 4302SOL    HW113805   6.287   0.232   6.973
 4302SOL    HW213806   6.143   0.168   6.932
 4303SOL     OW13807   0.075   4.683   3.690
 4303SOL    HW113808   0.124   4.673   3.604
 4303SOL    HW213809   7.019   4.734   3.675
 4304SOL     OW13810   3.912   3.980   1.956
 4304SOL    HW113811   3.813   3.976   1.937
 4304SOL    HW213812   3.927   4.029   2.042
 4305SOL     OW13813   0.783   6.683   4.619
 4305SOL    HW113814   0.765   6.628   4.537
 4305SOL    HW213815   0.748   6.636   4.700
 4306SOL     OW13816   4.996   4.616   4.957
 4306SOL    HW113817   5.041   4.537   5.000
 4306SOL    HW213818   4.962   4.590   4.867
 4307SOL     OW13819   5.541   3.050   5.821
 4307SOL    HW113820   5.477   3.032   5.746
 4307SOL    HW213821   5.531   3.145   5.851
 4308SOL     OW13822   5.721   5.204   1.721
 4308SOL    HW113823   5.652   5.145   1.762
 4308SOL    HW213824   5.803   5.150   1.700
 4309SOL     OW13825   0.905   3.471   0.275
 4309SOL    HW113826   0.968   3.542   0.307
 4309SOL    HW213827   0.816   3.512   0.253
 4310SOL     OW13828   1.296   2.732   2.243
 4310SOL    HW113829   1.324   2.808   2.185
 4310SOL    HW213830   1.358   2.654   2.228
 4311SOL     OW13831   0.945   6.932   2.009
 4311SOL    HW113832   1.002   6.969   1.936
 4311SOL    HW213833   1.002   6.878   2.071
 4312SOL     OW13834   1.291   5.660   2.761
 4312SOL    HW113835   1.259   5.748   2.797
 4312SOL    HW213836   1.374   5.632   2.809
 4313SOL     OW13837   3.560   2.301   0.144
 4313SOL    HW113838   3.605   2.231   0.088
 4313SOL    HW213839   3.502   2.358   0.086
 4314SOL     OW13840   6.482   1.831   5.876
 4314SOL    HW113841   6.501   1.923   5.843
 4314SOL    HW213842   6.438   1.778   5.803
 4315SOL     OW13843   2.002   1.561   4.100
 4315SOL    HW113844   1.926   1.612   4.140
 4315SOL    HW213845   2.086   1.613   4.109
 4316SOL     OW13846   4.835   6.480   2.676
 4316SOL    HW113847   4.808   6.574   2.652
 4316SOL    HW213848   4.881   6.480   2.764
 4317SOL     OW13849   4.349   0.716   5.552
 4317SOL    HW113850   4.298   0.688   5.470
 4317SOL    HW213851   4.286   0.728   5.628
 4318SOL     OW13852   0.569   0.652   3.903
 4318SOL    HW113853   0.477   0.622   3.930
 4318SOL    HW213854   0.629   0.573   3.893
 4319SOL     OW13855   1.927   2.192   1.251
 4319SOL    HW113856   1.833   2.222   1.268
 4319SOL    HW213857   1.936   2.164   1.155
 4320SOL     OW13858   4.138   6.092   0.827
 4320SOL    HW113859   4.074   6.035   0.878
 4320SOL    HW213860   4.204   6.034   0.779
 4321SOL     OW13861   0.013   4.911   3.430
 4321SOL    HW113862   6.983   4.877   3.356
 4321SOL    HW213863   0.090   4.848   3.442
 4322SOL     OW13864   6.781   3.422   5.667
 4322SOL    HW113865   6.823   3.498   5.616
 4322SOL    HW213866   6.685   3.444   5.687
 4323SOL     OW13867   3.988   5.480   6.837
 4323SOL    HW113868   4.054   5.414   6.874
 4323SOL    HW213869   3.911   5.430   6.796
 4324SOL     OW13870   6.531   3.498   5.692
 4324SOL    HW113871   6.473   3.455   5.622
 4324SOL    HW213872   6.492   3.587   5.717
 4325SOL     OW13873   2.543   2.038   2.267
 4325SOL    HW113874   2.572   2.068   2.358
 4325SOL    HW213875   2.460   1.982   2.275
 4326SOL     OW13876   5.797   3.284   2.643
 4326SOL    HW113877   5.869   3.314   2.706
 4326SOL    HW213878   5.837   3.265   2.554
 4327SOL     OW13879   3.795   5.421   3.127
 4327SOL    HW113880   3.751   5.502   3.165
 4327SOL    HW213881   3.801   5.351   3.198
 4328SOL     OW13882   6.141   4.415   4.671
 4328SOL    HW113883   6.139   4.497   4.614
 4328SOL    HW213884   6.189   4.342   4.623
 4329SOL     OW13885   6.232   3.411   5.240
 4329SOL    HW113886   6.199   3.372   5.154
 4329SOL    HW213887   6.153   3.434   5.298
 4330SOL     OW13888   2.025   6.552   4.637
 4330SOL    HW113889   2.027   6.651   4.625
 4330SOL    HW213890   1.961   6.511   4.572
 4331SOL     OW13891   0.020   0.180   1.436
 4331SOL    HW113892   0.004   0.237   1.355
 4331SOL    HW213893   7.012   0.226   1.517
 4332SOL     OW13894   5.795   3.657   2.747
 4332SOL    HW113895   5.865   3.704   2.801
 4332SOL    HW213896   5.822   3.656   2.651
 4333SOL     OW13897   4.437   2.091   5.011
 4333SOL    HW113898   4.485   2.003   5.008
 4333SOL    HW213899   4.425   2.119   5.107
 4334SOL     OW13900   1.515   3.007   2.747
 4334SOL    HW113901   1.466   3.088   2.779
 4334SOL    HW213902   1.506   3.000   2.647
 4335SOL     OW13903   3.621   2.950   1.036
 4335SOL    HW113904   3.602   2.860   1.075
 4335SOL    HW213905   3.718   2.955   1.010
 4336SOL     OW13906   1.911   4.743   5.000
 4336SOL    HW113907   2.005   4.777   5.013
 4336SOL    HW213908   1.857   4.765   5.081
 4337SOL     OW13909   1.534   5.870   2.048
 4337SOL    HW113910   1.592   5.856   1.968
 4337SOL    HW213911   1.459   5.932   2.025
 4338SOL     OW13912   6.259   0.194   6.133
 4338SOL    HW113913   6.311   0.109   6.141
 4338SOL    HW213914   6.232   0.206   6.037
 4339SOL     OW13915   3.497   2.450   6.292
 4339SOL    HW113916   3.424   2.503   6.248
 4339SOL    HW213917   3.556   2.410   6.222
 4340SOL     OW13918   5.927   2.703   1.202
 4340SOL    HW113919   5.966   2.631   1.145
 4340SOL    HW213920   5.870   2.763   1.147
 4341SOL     OW13921   1.522   5.414   2.084
 4341SOL    HW113922   1.503   5.432   1.988
 4341SOL    HW213923   1.466   5.474   2.141
 4342SOL     OW13924   4.906   3.705   3.263
 4342SOL    HW113925   4.981   3.684   3.200
 4342SOL    HW213926   4.864   3.792   3.237
 4343SOL     OW13927   3.523   6.874   6.451
 4343SOL    HW113928   3.520   6.793   6.510
 4343SOL    HW213929   3.487   6.953   6.500
 4344SOL     OW13930   0.494   3.024   3.383
 4344SOL    HW113931   0.482   2.947   3.320
 4344SOL    HW213932   0.421   3.091   3.368
 4345SOL     OW13933   2.907   3.499   3.033
 4345SOL    HW113934   2.965   3.474   3.111
 4345SOL    HW213935   2.912   3.598   3.018
 4346SOL     OW13936   2.181   2.495   2.206
 4346SOL    HW113937   2.124   2.576   2.218
 4346SOL    HW213938   2.254   2.496   2.275
 4347SOL     OW13939   6.260   5.904   1.948
 4347SOL    HW113940   6.350   5.896   1.991
 4347SOL    HW213941   6.227   5.813   1.922
 4348SOL     OW13942   0.197   5.534   4.199
 4348SOL    HW113943   0.175   5.623   4.240
 4348SOL    HW213944   0.214   5.546   4.101
 4349SOL     OW13945   6.889   3.258   3.748
 4349SOL    HW113946   6.976   3.287   3.787
 4349SOL    HW213947   6.865   3.317   3.671
 4350SOL     OW13948   5.037   1.927   4.912
 4350SOL    HW113949   5.120   1.908   4.860
 4350SOL    HW213950   5.063   1.965   5.002
 4351SOL     OW13951   1.468   6.124   1.304
 4351SOL    HW113952   1.416   6.206   1.326
 4351SOL    HW213953   1.427   6.078   1.225
 4352SOL     OW13954   5.244   3.498   1.305
 4352SOL    HW113955   5.176   3.507   1.377
 4352SOL    HW213956   5.336   3.496   1.344
 4353SOL     OW13957   2.941   3.618   6.647
 4353SOL    HW113958   2.999   3.636   6.727
 4353SOL    HW213959   2.995   3.571   6.577
 4354SOL     OW13960   0.805   0.811   5.796
 4354SOL    HW113961   0.760   0.800   5.885
 4354SOL    HW213962   0.886   0.869   5.806
 4355SOL     OW13963   1.231   6.701   3.184
 4355SOL    HW113964   1.324   6.696   3.146
 4355SOL    HW213965   1.169   6.738   3.115
 4356SOL     OW13966   4.355   3.287   5.810
 4356SOL    HW113967   4.316   3.215   5.752
 4356SOL    HW213968   4.419   3.342   5.756
 4357SOL     OW13969   0.289   1.335   1.809
 4357SOL    HW113970   0.242   1.370   1.727
 4357SOL    HW213971   0.244   1.369   1.891
 4358SOL     OW13972   0.290   0.709   0.098
 4358SOL    HW113973   0.294   0.774   0.022
 4358SOL    HW213974   0.261   0.619   0.063
 4359SOL     OW13975   1.822   0.414   6.605
 4359SOL    HW113976   1.805   0.377   6.514
 4359SOL    HW213977   1.830   0.339   6.671
 4360SOL     OW13978   1.152   2.150   4.026
 4360SOL    HW113979   1.199   2.238   4.026
 4360SOL    HW213980   1.200   2.086   4.086
 4361SOL     OW13981   2.323   3.061   1.286
 4361SOL    HW113982   2.269   3.080   1.368
 4361SOL    HW213983   2.270   3.084   1.205
 4362SOL     OW13984   0.916   6.035   4.182
 4362SOL    HW113985   0.936   6.127   4.217
 4362SOL    HW213986   0.980   5.969   4.223
 4363SOL     OW13987   3.832   0.562   1.865
 4363SOL    HW113988   3.900   0.520   1.805
 4363SOL    HW213989   3.831   0.661   1.851
 4364SOL     OW13990   3.308   3.678   2.582
 4364SOL    HW113991   3.366   3.626   2.645
 4364SOL    HW213992   3.215   3.681   2.618
 4365SOL     OW13993   3.371   1.843   2.117
 4365SOL    HW113994   3.423   1.892   2.047
 4365SOL    HW213995   3.294   1.795   2.075
 4366SOL     OW13996   6.434   5.934   5.928
 4366SOL    HW113997   6.488   6.016   5.911
 4366SOL    HW213998   6.384   5.908   5.845
 4367SOL     OW13999   2.993   5.218   2.743
 4367SOL    HW114000   3.038   5.308   2.742
 4367SOL    HW214001   2.983   5.187   2.837
 4368SOL     OW14002   4.169   5.789   3.166
 4368SOL    HW114003   4.143   5.692   3.168
 4368SOL    HW214004   4.124   5.837   3.241
 4369SOL     OW14005   5.166   5.266   2.995
 4369SOL    HW114006   5.186   5.341   3.058
 4369SOL    HW214007   5.252   5.235   2.954
 4370SOL     OW14008   3.657   3.880   1.681
 4370SOL    HW114009   3.678   3.790   1.717
 4370SOL    HW214010   3.563   3.882   1.648
 4371SOL     OW14011   2.345   1.295   2.195
 4371SOL    HW114012   2.429   1.317   2.244
 4371SOL    HW214013   2.334   1.196   2.190
 4372SOL     OW14014   1.812   3.332   4.160
 4372SOL    HW114015   1.734   3.298   4.213
 4372SOL    HW214016   1.871   3.255   4.136
 4373SOL     OW14017   4.288   1.058   6.028
 4373SOL    HW114018   4.244   1.041   5.940
 4373SOL    HW214019   4.301   1.157   6.040
 4374SOL     OW14020   2.286   2.098   1.387
 4374SOL    HW114021   2.255   2.126   1.478
 4374SOL    HW214022   2.376   2.056   1.394
 4375SOL     OW14023   4.046   6.581   3.332
 4375SOL    HW114024   4.114   6.512   3.311
 4375SOL    HW214025   4.076   6.670   3.297
 4376SOL     OW14026   6.340   0.405   1.960
 4376SOL    HW114027   6.329   0.392   1.862
 4376SOL    HW214028   6.277   0.346   2.010
 4377SOL     OW14029   6.628   5.668   0.410
 4377SOL    HW114030   6.607   5.601   0.338
 4377SOL    HW214031   6.598   5.633   0.498
 4378SOL     OW14032   1.176   4.779   2.293
 4378SOL    HW114033   1.103   4.828   2.341
 4378SOL    HW214034   1.214   4.837   2.221
 4379SOL     OW14035   2.270   0.771   2.325
 4379SOL    HW114036   2.309   0.856   2.290
 4379SOL    HW214037   2.194   0.792   2.387
 4380SOL     OW14038   2.324   5.959   5.079
 4380SOL    HW114039   2.267   5.968   4.997
 4380SOL    HW214040   2.395   5.890   5.063
 4381SOL     OW14041   2.777   4.762   4.504
 4381SOL    HW114042   2.796   4.705   4.585
 4381SOL    HW214043   2.687   4.804   4.513
 4382SOL     OW14044   5.381   4.280   5.128
 4382SOL    HW114045   5.456   4.273   5.063
 4382SOL    HW214046   5.415   4.314   5.215
 4383SOL     OW14047   0.947   1.605   5.455
 4383SOL    HW114048   0.906   1.688   5.493
 4383SOL    HW214049   0.919   1.595   5.360
 4384SOL     OW14050   4.843   0.768   0.013
 4384SOL    HW114051   4.924   0.823   7.020
 4384SOL    HW214052   4.798   0.740   6.957
 4385SOL     OW14053   0.110   2.428   3.921
 4385SOL    HW114054   0.148   2.337   3.905
 4385SOL    HW214055   0.018   2.433   3.884
 4386SOL     OW14056   1.099   3.952   6.407
 4386SOL    HW114057   1.002   3.931   6.423
 4386SOL    HW214058   1.151   3.867   6.405
 4387SOL     OW14059   0.310   2.139   1.841
 4387SOL    HW114060   0.273   2.087   1.919
 4387SOL    HW214061   0.367   2.214   1.875
 4388SOL     OW14062   3.953   1.008   6.569
 4388SOL    HW114063   3.872   0.994   6.513
 4388SOL    HW214064   4.030   0.960   6.528
 4389SOL     OW14065   5.761   2.379   1.153
 4389SOL    HW114066   5.732   2.296   1.106
 4389SOL    HW214067   5.721   2.381   1.245
 4390SOL     OW14068   3.946   2.233   1.634
 4390SOL    HW114069   3.956   2.332   1.647
 4390SOL    HW214070   4.035   2.189   1.645
 4391SOL     OW14071   1.644   6.079   6.513
 4391SOL    HW114072   1.683   6.113   6.427
 4391SOL    HW214073   1.553   6.042   6.496
 4392SOL     OW14074   5.587   4.227   4.963
 4392SOL    HW114075   5.574   4.134   4.928
 4392SOL    HW214076   5.670   4.231   5.018
 4393SOL     OW14077   4.942   6.452   2.945
 4393SOL    HW114078   4.878   6.437   3.020
 4393SOL    HW214079   5.033   6.422   2.972
 4394SOL     OW14080   5.785   5.382   2.354
 4394SOL    HW114081   5.859   5.342   2.408
 4394SOL    HW214082   5.746   5.460   2.403
 4395SOL     OW14083   4.120   2.129   0.826
 4395SOL    HW114084   4.132   2.096   0.732
 4395SOL    HW214085   4.026   2.112   0.855
 4396SOL     OW14086   2.281   1.932   3.950
 4396SOL    HW114087   2.356   1.897   3.895
 4396SOL    HW214088   2.199   1.941   3.893
 4397SOL     OW14089   0.031   1.727   3.872
 4397SOL    HW114090   7.004   1.806   3.847
 4397SOL    HW214091   0.071   1.743   3.962
 4398SOL     OW14092   1.562   4.377   4.386
 4398SOL    HW114093   1.650   4.348   4.425
 4398SOL    HW214094   1.562   4.360   4.287
 4399SOL     OW14095   2.179   0.563   1.006
 4399SOL    HW114096   2.247   0.491   1.021
 4399SOL    HW214097   2.210   0.647   1.051
 4400SOL     OW14098   2.253   6.677   5.246
 4400SOL    HW114099   2.263   6.629   5.159
 4400SOL    HW214100   2.262   6.612   5.321
 4401SOL     OW14101   5.557   5.477   6.256
 4401SOL    HW114102   5.501   5.558   6.270
 4401SOL    HW214103   5.620   5.467   6.333
 4402SOL     OW14104   1.593   6.196   2.984
 4402SOL    HW114105   1.636   6.140   3.055
 4402SOL    HW214106   1.558   6.280   3.025
 4403SOL     OW14107   6.825   6.967   3.355
 4403SOL    HW114108   6.828   6.868   3.367
 4403SOL    HW214109   6.902   7.008   3.403
 4404SOL     OW14110   1.268   3.814   5.019
 4404SOL    HW114111   1.172   3.841   5.030
 4404SOL    HW214112   1.273   3.720   4.986
 4405SOL     OW14113   3.190   4.712   6.532
 4405SOL    HW114114   3.248   4.691   6.611
 4405SOL    HW214115   3.112   4.650   6.531
 4406SOL     OW14116   5.326   4.344   0.718
 4406SOL    HW114117   5.364   4.256   0.688
 4406SOL    HW214118   5.299   4.398   0.638
 4407SOL     OW14119   0.196   5.366   1.149
 4407SOL    HW114120   0.240   5.448   1.185
 4407SOL    HW214121   0.258   5.288   1.160
 4408SOL     OW14122   5.157   0.958   0.746
 4408SOL    HW114123   5.089   1.031   0.742
 4408SOL    HW214124   5.114   0.871   0.724
 4409SOL     OW14125   3.609   0.940   1.704
 4409SOL    HW114126   3.555   0.861   1.734
 4409SOL    HW214127   3.548   1.017   1.688
 4410SOL     OW14128   2.198   4.370   0.002
 4410SOL    HW114129   2.210   4.356   0.100
 4410SOL    HW214130   2.109   4.412   7.014
 4411SOL     OW14131   3.960   3.078   3.332
 4411SOL    HW114132   3.905   3.032   3.401
 4411SOL    HW214133   3.935   3.175   3.328
 4412SOL     OW14134   3.896   1.927   4.745
 4412SOL    HW114135   3.804   1.901   4.716
 4412SOL    HW214136   3.932   1.997   4.684
 4413SOL     OW14137   4.982   5.755   5.205
 4413SOL    HW114138   4.906   5.698   5.237
 4413SOL    HW214139   4.947   5.843   5.174
 4414SOL     OW14140   4.685   4.833   2.092
 4414SOL    HW114141   4.648   4.789   2.011
 4414SOL    HW214142   4.744   4.769   2.142
 4415SOL     OW14143   4.525   3.976   6.626
 4415SOL    HW114144   4.547   4.035   6.548
 4415SOL    HW214145   4.538   3.881   6.601
 4416SOL     OW14146   2.691   1.458   4.193
 4416SOL    HW114147   2.776   1.440   4.144
 4416SOL    HW214148   2.619   1.480   4.126
 4417SOL     OW14149   6.729   4.248   2.584
 4417SOL    HW114150   6.760   4.213   2.496
 4417SOL    HW214151   6.802   4.238   2.652
 4418SOL     OW14152   4.738   6.664   4.275
 4418SOL    HW114153   4.755   6.653   4.177
 4418SOL    HW214154   4.695   6.581   4.311
 4419SOL     OW14155   5.298   5.569   0.698
 4419SOL    HW114156   5.255   5.479   0.705
 4419SOL    HW214157   5.246   5.626   0.635
 4420SOL     OW14158   5.323   1.663   0.581
 4420SOL    HW114159   5.414   1.702   0.595
 4420SOL    HW214160   5.297   1.674   0.485
 4421SOL     OW14161   1.852   1.491   3.520
 4421SOL    HW114162   1.926   1.496   3.453
 4421SOL    HW214163   1.808   1.581   3.527
 4422SOL     OW14164   2.232   3.690   5.824
 4422SOL    HW114165   2.281   3.624   5.881
 4422SOL    HW214166   2.274   3.695   5.734
 4423SOL     OW14167   0.901   2.694   5.902
 4423SOL    HW114168   0.889   2.612   5.958
 4423SOL    HW214169   0.987   2.739   5.926
 4424SOL     OW14170   5.797   6.467   3.394
 4424SOL    HW114171   5.833   6.548   3.440
 4424SOL    HW214172   5.785   6.393   3.461
 4425SOL     OW14173   3.265   5.685   5.810
 4425SOL    HW114174   3.185   5.743   5.799
 4425SOL    HW214175   3.243   5.592   5.780
 4426SOL     OW14176   6.604   1.341   4.907
 4426SOL    HW114177   6.527   1.401   4.927
 4426SOL    HW214178   6.582   1.282   4.830
 4427SOL     OW14179   6.921   0.032   2.599
 4427SOL    HW114180   6.986   6.987   2.582
 4427SOL    HW214181   6.962   0.100   2.659
 4428SOL     OW14182   2.861   4.773   3.157
 4428SOL    HW114183   2.795   4.836   3.116
 4428SOL    HW214184   2.954   4.806   3.141
 4429SOL     OW14185   2.860   0.242   4.339
 4429SOL    HW114186   2.807   0.284   4.265
 4429SOL    HW214187   2.812   0.161   4.372
 4430SOL     OW14188   5.039   2.650   3.265
 4430SOL    HW114189   4.954   2.688   3.228
 4430SOL    HW214190   5.019   2.567   3.317
 4431SOL     OW14191   1.720   1.849   2.096
 4431SOL    HW114192   1.795   1.817   2.154
 4431SOL    HW214193   1.750   1.928   2.042
 4432SOL     OW14194   2.993   3.729   3.895
 4432SOL    HW114195   2.977   3.782   3.812
 4432SOL    HW214196   2.943   3.642   3.890
 4433SOL     OW14197   6.213   0.074   4.542
 4433SOL    HW114198   6.283   0.145   4.550
 4433SOL    HW214199   6.246   7.019   4.586
 4434SOL     OW14200   4.668   1.106   4.292
 4434SOL    HW114201   4.703   1.013   4.288
 4434SOL    HW214202   4.709   1.160   4.218
 4435SOL     OW14203   3.882   3.652   1.082
 4435SOL    HW114204   3.821   3.588   1.129
 4435SOL    HW214205   3.975   3.644   1.120
 4436SOL     OW14206   3.021   2.261   0.453
 4436SOL    HW114207   3.002   2.178   0.506
 4436SOL    HW214208   3.002   2.341   0.510
 4437SOL     OW14209   5.099   1.164   3.778
 4437SOL    HW114210   5.032   1.090   3.781
 4437SOL    HW214211   5.130   1.178   3.683
 4438SOL     OW14212   3.705   1.901   6.779
 4438SOL    HW114213   3.624   1.878   6.726
 4438SOL    HW214214   3.708   1.845   6.862
 4439SOL     OW14215   0.785   5.552   1.413
 4439SOL    HW114216   0.826   5.555   1.322
 4439SOL    HW214217   0.805   5.464   1.456
 4440SOL     OW14218   1.435   4.835   6.630
 4440SOL    HW114219   1.452   4.769   6.557
 4440SOL    HW214220   1.446   4.928   6.595
 4441SOL     OW14221   6.885   1.404   2.093
 4441SOL    HW114222   6.946   1.484   2.097
 4441SOL    HW214223   6.901   1.354   2.008
 4442SOL     OW14224   2.859   6.021   3.924
 4442SOL    HW114225   2.856   6.119   3.902
 4442SOL    HW214226   2.884   5.969   3.842
 4443SOL     OW14227   0.846   2.647   6.871
 4443SOL    HW114228   0.925   2.705   6.852
 4443SOL    HW214229   0.809   2.668   6.961
 4444SOL     OW14230   3.309   6.163   6.726
 4444SOL    HW114231   3.233   6.223   6.748
 4444SOL    HW214232   3.311   6.085   6.789
 4445SOL     OW14233   0.692   0.415   0.223
 4445SOL    HW114234   0.751   0.412   0.304
 4445SOL    HW214235   0.741   0.459   0.148
 4446SOL     OW14236   5.835   1.215   1.250
 4446SOL    HW114237   5.855   1.185   1.157
 4446SOL    HW214238   5.738   1.240   1.256
 4447SOL     OW14239   5.212   3.573   5.712
 4447SOL    HW114240   5.233   3.481   5.742
 4447SOL    HW214241   5.285   3.635   5.738
 4448SOL     OW14242   3.018   3.921   0.699
 4448SOL    HW114243   3.023   3.972   0.785
 4448SOL    HW214244   2.927   3.934   0.659
 4449SOL     OW14245   4.270   0.193   6.068
 4449SOL    HW114246   4.180   0.173   6.029
 4449SOL    HW214247   4.285   0.138   6.150
 4450SOL     OW14248   3.461   2.902   3.771
 4450SOL    HW114249   3.445   2.920   3.674
 4450SOL    HW214250   3.376   2.915   3.822
 4451SOL     OW14251   5.623   4.618   2.681
 4451SOL    HW114252   5.678   4.542   2.715
 4451SOL    HW214253   5.580   4.593   2.594
 4452SOL     OW14254   5.485   6.135   4.955
 4452SOL    HW114255   5.403   6.080   4.942
 4452SOL    HW214256   5.503   6.189   4.873
 4453SOL     OW14257   6.710   2.863   0.079
 4453SOL    HW114258   6.732   2.772   0.115
 4453SOL    HW214259   6.686   2.855   7.011
 4454SOL     OW14260   4.910   2.608   0.769
 4454SOL    HW114261   5.004   2.601   0.801
 4454SOL    HW214262   4.863   2.681   0.818
 4455SOL     OW14263   3.141   6.975   6.805
 4455SOL    HW114264   3.172   6.934   6.720
 4455SOL    HW214265   3.061   6.927   6.838
 4456SOL     OW14266   2.346   5.073   2.485
 4456SOL    HW114267   2.377   5.020   2.564
 4456SOL    HW214268   2.265   5.126   2.509
 4457SOL     OW14269   4.115   2.599   0.180
 4457SOL    HW114270   4.204   2.615   0.222
 4457SOL    HW214271   4.127   2.577   0.083
 4458SOL     OW14272   1.687   3.607   6.786
 4458SOL    HW114273   1.728   3.692   6.754
 4458SOL    HW214274   1.758   3.542   6.812
 4459SOL     OW14275   5.554   0.224   3.798
 4459SOL    HW114276   5.625   0.172   3.750
 4459SOL    HW214277   5.575   0.225   3.896
 4460SOL     OW14278   2.455   2.674   5.843
 4460SOL    HW114279   2.512   2.696   5.921
 4460SOL    HW214280   2.472   2.739   5.769
 4461SOL     OW14281   0.986   0.724   2.621
 4461SOL    HW114282   0.929   0.671   2.558
 4461SOL    HW214283   0.949   0.717   2.713
 4462SOL     OW14284   0.076   3.817   1.167
 4462SOL    HW114285   0.019   3.888   1.126
 4462SOL    HW214286   0.018   3.741   1.196
 4463SOL     OW14287   2.203   2.853   6.993
 4463SOL    HW114288   2.283   2.842   6.934
 4463SOL    HW214289   2.181   2.950   7.001
 4464SOL     OW14290   5.940   5.175   0.403
 4464SOL    HW114291   5.961   5.219   0.315
 4464SOL    HW214292   5.889   5.239   0.460
 4465SOL     OW14293   2.037   6.433   3.013
 4465SOL    HW114294   2.083   6.403   3.096
 4465SOL    HW214295   2.099   6.423   2.935
 4466SOL     OW14296   1.132   0.487   2.906
 4466SOL    HW114297   1.196   0.494   2.830
 4466SOL    HW214298   1.171   0.531   2.987
 4467SOL     OW14299   1.143   6.497   3.613
 4467SOL    HW114300   1.148   6.578   3.555
 4467SOL    HW214301   1.233   6.478   3.652
 4468SOL     OW14302   0.778   1.510   0.238
 4468SOL    HW114303   0.823   1.506   0.327
 4468SOL    HW214304   0.812   1.435   0.181
 4469SOL     OW14305   3.095   0.397   1.083
 4469SOL    HW114306   3.006   0.419   1.043
 4469SOL    HW214307   3.083   0.330   1.156
 4470SOL     OW14308   5.976   3.285   1.303
 4470SOL    HW114309   5.904   3.259   1.239
 4470SOL    HW214310   5.939   3.285   1.396
 4471SOL     OW14311   0.231   2.873   0.434
 4471SOL    HW114312   0.203   2.790   0.385
 4471SOL    HW214313   0.289   2.848   0.511
 4472SOL     OW14314   1.495   3.323   3.290
 4472SOL    HW114315   1.566   3.337   3.358
 4472SOL    HW214316   1.496   3.228   3.260
 4473SOL     OW14317   0.264   1.375   4.615
 4473SOL    HW114318   0.364   1.379   4.625
 4473SOL    HW214319   0.232   1.283   4.636
 4474SOL     OW14320   3.408   1.156   2.138
 4474SOL    HW114321   3.466   1.189   2.213
 4474SOL    HW214322   3.355   1.232   2.101
 4475SOL     OW14323   1.918   4.282   2.376
 4475SOL    HW114324   1.924   4.377   2.345
 4475SOL    HW214325   1.932   4.221   2.298
 4476SOL     OW14326   5.266   6.334   4.039
 4476SOL    HW114327   5.217   6.410   3.997
 4476SOL    HW214328   5.201   6.260   4.058
 4477SOL     OW14329   1.791   0.172   6.754
 4477SOL    HW114330   1.754   0.110   6.684
 4477SOL    HW214331   1.882   0.141   6.781
 4478SOL     OW14332   2.964   6.141   2.411
 4478SOL    HW114333   2.895   6.193   2.461
 4478SOL    HW214334   3.049   6.138   2.465
 4479SOL     OW14335   0.941   0.761   0.241
 4479SOL    HW114336   1.037   0.786   0.235
 4479SOL    HW214337   0.918   0.698   0.166
 4480SOL     OW14338   2.206   4.168   4.720
 4480SOL    HW114339   2.265   4.193   4.797
 4480SOL    HW214340   2.111   4.168   4.749
 4481SOL     OW14341   2.562   0.296   4.553
 4481SOL    HW114342   2.488   0.329   4.610
 4481SOL    HW214343   2.568   0.197   4.559
 4482SOL     OW14344   0.525   3.804   4.156
 4482SOL    HW114345   0.546   3.901   4.163
 4482SOL    HW214346   0.575   3.764   4.079
 4483SOL     OW14347   6.200   3.231   1.185
 4483SOL    HW114348   6.254   3.303   1.231
 4483SOL    HW214349   6.104   3.241   1.210
 4484SOL     OW14350   3.156   2.114   5.443
 4484SOL    HW114351   3.247   2.076   5.429
 4484SOL    HW214352   3.119   2.144   5.356
 4485SOL     OW14353   5.667   2.653   6.377
 4485SOL    HW114354   5.737   2.693   6.436
 4485SOL    HW214355   5.658   2.708   6.294
 4486SOL     OW14356   5.648   3.506   4.576
 4486SOL    HW114357   5.636   3.451   4.493
 4486SOL    HW214358   5.571   3.569   4.586
 4487SOL     OW14359   2.142   3.374   6.990
 4487SOL    HW114360   2.206   3.414   6.925
 4487SOL    HW214361   2.117   3.443   0.030
 4488SOL     OW14362   5.699   2.702   5.777
 4488SOL    HW114363   5.618   2.644   5.786
 4488SOL    HW214364   5.694   2.754   5.692
 4489SOL     OW14365   4.961   6.275   4.616
 4489SOL    HW114366   4.893   6.208   4.644
 4489SOL    HW214367   5.045   6.262   4.668
 4490SOL     OW14368   5.576   2.127   2.106
 4490SOL    HW114369   5.510   2.108   2.178
 4490SOL    HW214370   5.612   2.042   2.069
 4491SOL     OW14371   0.711   3.192   3.285
 4491SOL    HW114372   0.741   3.161   3.194
 4491SOL    HW214373   0.644   3.128   3.321
 4492SOL     OW14374   5.700   4.294   0.892
 4492SOL    HW114375   5.651   4.260   0.972
 4492SOL    HW214376   5.795   4.261   0.894
 4493SOL     OW14377   4.398   5.349   5.348
 4493SOL    HW114378   4.345   5.433   5.335
 4493SOL    HW214379   4.397   5.296   5.264
 4494SOL     OW14380   0.327   1.917   6.323
 4494SOL    HW114381   0.265   1.945   6.395
 4494SOL    HW214382   0.307   1.822   6.297
 4495SOL     OW14383   5.409   6.804   3.577
 4495SOL    HW114384   5.377   6.878   3.635
 4495SOL    HW214385   5.506   6.815   3.558
 4496SOL     OW14386   4.892   5.754   0.781
 4496SOL    HW114387   4.940   5.667   0.770
 4496SOL    HW214388   4.956   5.822   0.818
 4497SOL     OW14389   4.819   0.038   0.017
 4497SOL    HW114390   4.816   6.983   0.071
 4497SOL    HW214391   4.912   0.054   7.015
 4498SOL     OW14392   0.034   3.264   6.332
 4498SOL    HW114393   6.963   3.270   6.341
 4498SOL    HW214394   0.065   3.326   6.260
 4499SOL     OW14395   0.109   3.264   3.926
 4499SOL    HW114396   0.197   3.309   3.938
 4499SOL    HW214397   0.036   3.323   3.960
 4500SOL     OW14398   3.300   3.298   3.879
 4500SOL    HW114399   3.384   3.250   3.854
 4500SOL    HW214400   3.295   3.385   3.830
 4501SOL     OW14401   0.249   3.102   5.791
 4501SOL    HW114402   0.236   3.050   5.876
 4501SOL    HW214403   0.174   3.081   5.728
 4502SOL     OW14404   1.747   2.934   6.362
 4502SOL    HW114405   1.711   2.865   6.426
 4502SOL    HW214406   1.677   3.003   6.346
 4503SOL     OW14407   2.759   0.102   2.341
 4503SOL    HW114408   2.846   0.142   2.311
 4503SOL    HW214409   2.747   0.120   2.438
 4504SOL     OW14410   6.370   2.107   5.002
 4504SOL    HW114411   6.310   2.073   5.074
 4504SOL    HW214412   6.441   2.039   4.982
 4505SOL     OW14413   6.511   5.825   3.873
 4505SOL    HW114414   6.436   5.785   3.821
 4505SOL    HW214415   6.480   5.909   3.917
 4506SOL     OW14416   4.752   2.444   5.149
 4506SOL    HW114417   4.666   2.491   5.128
 4506SOL    HW214418   4.752   2.354   5.105
 4507SOL     OW14419   5.084   3.820   1.393
 4507SOL    HW114420   5.057   3.915   1.409
 4507SOL    HW214421   5.097   3.774   1.481
 4508SOL     OW14422   0.495   4.740   6.213
 4508SOL    HW114423   0.586   4.781   6.221
 4508SOL    HW214424   0.427   4.812   6.198
 4509SOL     OW14425   4.792   2.178   3.857
 4509SOL    HW114426   4.815   2.190   3.953
 4509SOL    HW214427   4.804   2.082   3.832
 4510SOL     OW14428   5.647   6.345   5.404
 4510SOL    HW114429   5.561   6.313   5.443
 4510SOL    HW214430   5.723   6.292   5.443
 4511SOL     OW14431   6.801   2.936   6.441
 4511SOL    HW114432   6.865   2.905   6.512
 4511SOL    HW214433   6.737   2.862   6.419
 4512SOL     OW14434   2.241   6.581   6.234
 4512SOL    HW114435   2.266   6.550   6.326
 4512SOL    HW214436   2.206   6.675   6.240
 4513SOL     OW14437   5.236   6.789   0.435
 4513SOL    HW114438   5.152   6.796   0.489
 4513SOL    HW214439   5.218   6.731   0.355
 4514SOL     OW14440   4.544   0.502   4.644
 4514SOL    HW114441   4.537   0.532   4.739
 4514SOL    HW214442   4.454   0.470   4.613
 4515SOL     OW14443   6.907   4.229   6.189
 4515SOL    HW114444   6.976   4.250   6.258
 4515SOL    HW214445   6.900   4.130   6.179
 4516SOL     OW14446   1.501   1.712   6.053
 4516SOL    HW114447   1.445   1.793   6.034
 4516SOL    HW214448   1.579   1.737   6.109
 4517SOL     OW14449   2.383   0.133   6.913
 4517SOL    HW114450   2.386   0.048   6.965
 4517SOL    HW214451   2.476   0.158   6.885
 4518SOL     OW14452   6.343   1.571   3.335
 4518SOL    HW114453   6.363   1.593   3.240
 4518SOL    HW214454   6.334   1.472   3.346
 4519SOL     OW14455   6.131   0.530   1.649
 4519SOL    HW114456   6.154   0.507   1.555
 4519SOL    HW214457   6.203   0.589   1.687
 4520SOL     OW14458   5.317   4.874   2.782
 4520SOL    HW114459   5.221   4.855   2.799
 4520SOL    HW214460   5.373   4.817   2.842
 4521SOL     OW14461   5.094   2.306   5.295
 4521SOL    HW114462   5.186   2.315   5.334
 4521SOL    HW214463   5.065   2.211   5.299
 4522SOL     OW14464   5.318   0.340   3.785
 4522SOL    HW114465   5.345   0.387   3.702
 4522SOL    HW214466   5.395   0.286   3.819
 4523SOL     OW14467   1.262   4.545   6.890
 4523SOL    HW114468   1.316   4.477   6.939
 4523SOL    HW214469   1.323   4.611   6.846
 4524SOL     OW14470   5.267   2.498   5.900
 4524SOL    HW114471   5.310   2.408   5.908
 4524SOL    HW214472   5.177   2.495   5.943
 4525SOL     OW14473   6.099   1.685   3.293
 4525SOL    HW114474   6.041   1.686   3.374
 4525SOL    HW214475   6.193   1.661   3.319
 4526SOL     OW14476   5.106   0.701   0.621
 4526SOL    HW114477   5.099   0.601   0.617
 4526SOL    HW214478   5.043   0.741   0.554
 4527SOL     OW14479   4.291   1.463   4.131
 4527SOL    HW114480   4.305   1.439   4.227
 4527SOL    HW214481   4.377   1.456   4.081
 4528SOL     OW14482   5.157   6.501   0.473
 4528SOL    HW114483   5.239   6.451   0.443
 4528SOL    HW214484   5.177   6.551   0.557
 4529SOL     OW14485   3.239   1.278   3.791
 4529SOL    HW114486   3.279   1.187   3.803
 4529SOL    HW214487   3.296   1.346   3.836
 4530SOL     OW14488   6.930   3.802   5.236
 4530SOL    HW114489   6.846   3.785   5.288
 4530SOL    HW214490   6.953   3.721   5.182
 4531SOL     OW14491   6.823   2.864   3.365
 4531SOL    HW114492   6.745   2.849   3.426
 4531SOL    HW214493   6.892   2.919   3.413
 4532SOL     OW14494   0.476   1.323   2.261
 4532SOL    HW114495   0.511   1.404   2.216
 4532SOL    HW214496   0.389   1.296   2.220
 4533SOL     OW14497   1.663   0.126   3.526
 4533SOL    HW114498   1.623   0.112   3.617
 4533SOL    HW214499   1.620   0.204   3.482
 4534SOL     OW14500   5.835   3.240   4.230
 4534SOL    HW114501   5.788   3.164   4.187
 4534SOL    HW214502   5.934   3.222   4.232
 4535SOL     OW14503   4.289   2.010   2.529
 4535SOL    HW114504   4.363   1.942   2.521
 4535SOL    HW214505   4.328   2.101   2.540
 4536SOL     OW14506   4.506   1.780   4.827
 4536SOL    HW114507   4.407   1.770   4.817
 4536SOL    HW214508   4.549   1.784   4.737
 4537SOL     OW14509   3.761   3.537   5.919
 4537SOL    HW114510   3.853   3.550   5.956
 4537SOL    HW214511   3.711   3.624   5.923
 4538SOL     OW14512   3.019   1.953   4.036
 4538SOL    HW114513   3.103   1.901   4.050
 4538SOL    HW214514   2.972   1.965   4.123
 4539SOL     OW14515   2.469   1.670   4.296
 4539SOL    HW114516   2.541   1.620   4.344
 4539SOL    HW214517   2.443   1.751   4.349
 4540SOL     OW14518   3.553   3.181   3.893
 4540SOL    HW114519   3.642   3.210   3.927
 4540SOL    HW214520   3.549   3.081   3.894
 4541SOL     OW14521   5.633   1.412   6.939
 4541SOL    HW114522   5.673   1.487   6.885
 4541SOL    HW214523   5.702   1.374   7.000
 4542SOL     OW14524   5.688   6.537   1.904
 4542SOL    HW114525   5.737   6.463   1.856
 4542SOL    HW214526   5.642   6.595   1.837
 4543SOL     OW14527   4.134   1.846   0.086
 4543SOL    HW114528   4.154   1.751   0.064
 4543SOL    HW214529   4.132   1.858   0.185
 4544SOL     OW14530   2.678   6.148   5.734
 4544SOL    HW114531   2.673   6.136   5.635
 4544SOL    HW214532   2.687   6.246   5.755
 4545SOL     OW14533   5.358   2.283   5.398
 4545SOL    HW114534   5.426   2.213   5.419
 4545SOL    HW214535   5.388   2.371   5.435
 4546SOL     OW14536   1.429   0.326   6.440
 4546SOL    HW114537   1.414   0.362   6.348
 4546SOL    HW214538   1.343   0.289   6.476
 4547SOL     OW14539   6.498   2.420   2.615
 4547SOL    HW114540   6.514   2.400   2.711
 4547SOL    HW214541   6.578   2.392   2.562
 4548SOL     OW14542   0.952   4.376   4.483
 4548SOL    HW114543   1.046   4.399   4.509
 4548SOL    HW214544   0.909   4.454   4.439
 4549SOL     OW14545   5.939   3.401   2.855
 4549SOL    HW114546   5.866   3.459   2.820
 4549SOL    HW214547   6.023   3.454   2.864
 4550SOL     OW14548   0.554   6.394   3.114
 4550SOL    HW114549   0.618   6.365   3.043
 4550SOL    HW214550   0.554   6.328   3.189
 4551SOL     OW14551   0.096   1.886   5.462
 4551SOL    HW114552   0.130   1.961   5.517
 4551SOL    HW214553   0.133   1.894   5.369
 4552SOL     OW14554   6.783   2.376   6.258
 4552SOL    HW114555   6.876   2.374   6.220
 4552SOL    HW214556   6.777   2.451   6.324
 4553SOL     OW14557   3.498   4.043   0.633
 4553SOL    HW114558   3.421   3.980   0.624
 4553SOL    HW214559   3.532   4.041   0.727
 4554SOL     OW14560   3.835   1.105   1.562
 4554SOL    HW114561   3.929   1.073   1.578
 4554SOL    HW214562   3.788   1.117   1.649
 4555SOL     OW14563   3.385   1.762   5.922
 4555SOL    HW114564   3.481   1.745   5.945
 4555SOL    HW214565   3.342   1.815   5.995
 4556SOL     OW14566   4.540   2.315   3.825
 4556SOL    HW114567   4.630   2.309   3.869
 4556SOL    HW214568   4.486   2.387   3.869
 4557SOL     OW14569   4.794   6.409   5.168
 4557SOL    HW114570   4.863   6.407   5.096
 4557SOL    HW214571   4.713   6.357   5.138
 4558SOL     OW14572   6.452   3.752   5.798
 4558SOL    HW114573   6.477   3.815   5.725
 4558SOL    HW214574   6.520   3.756   5.871
 4559SOL     OW14575   1.194   5.668   1.452
 4559SOL    HW114576   1.274   5.702   1.403
 4559SOL    HW214577   1.215   5.664   1.550
 4560SOL     OW14578   5.611   4.145   3.525
 4560SOL    HW114579   5.567   4.086   3.593
 4560SOL    HW214580   5.651   4.225   3.571
 4561SOL     OW14581   2.610   0.812   1.245
 4561SOL    HW114582   2.549   0.733   1.237
 4561SOL    HW214583   2.581   0.869   1.323
 4562SOL     OW14584   3.059   5.774   5.008
 4562SOL    HW114585   3.060   5.694   5.068
 4562SOL    HW214586   3.090   5.748   4.917
 4563SOL     OW14587   6.324   4.052   7.001
 4563SOL    HW114588   6.383   4.005   6.936
 4563SOL    HW214589   6.228   4.031   6.980
 4564SOL     OW14590   0.789   6.140   0.818
 4564SOL    HW114591   0.817   6.046   0.800
 4564SOL    HW214592   0.690   6.143   0.832
 4565SOL     OW14593   0.670   1.399   5.607
 4565SOL    HW114594   0.702   1.304   5.603
 4565SOL    HW214595   0.613   1.419   5.527
 4566SOL     OW14596   0.050   0.842   0.690
 4566SOL    HW114597   0.022   0.911   0.623
 4566SOL    HW214598   6.997   0.801   0.731
 4567SOL     OW14599   0.506   0.737   0.316
 4567SOL    HW114600   0.504   0.668   0.389
 4567SOL    HW214601   0.420   0.735   0.266
 4568SOL     OW14602   1.840   4.255   5.012
 4568SOL    HW114603   1.869   4.331   5.069
 4568SOL    HW214604   1.875   4.169   5.050
 4569SOL     OW14605   2.381   1.573   3.825
 4569SOL    HW114606   2.295   1.572   3.876
 4569SOL    HW214607   2.458   1.574   3.889
 4570SOL     OW14608   0.243   4.776   3.406
 4570SOL    HW114609   0.293   4.689   3.403
 4570SOL    HW214610   0.267   4.831   3.325
 4571SOL     OW14611   3.479   3.833   5.316
 4571SOL    HW114612   3.511   3.758   5.259
 4571SOL    HW214613   3.382   3.821   5.337
 4572SOL     OW14614   0.386   6.208   6.792
 4572SOL    HW114615   0.425   6.119   6.814
 4572SOL    HW214616   0.423   6.241   6.706
 4573SOL     OW14617   6.451   6.251   0.788
 4573SOL    HW114618   6.508   6.232   0.868
 4573SOL    HW214619   6.460   6.178   0.721
 4574SOL     OW14620   6.957   4.403   0.950
 4574SOL    HW114621   7.014   4.386   1.031
 4574SOL    HW214622   6.935   4.501   0.945
 4575SOL     OW14623   6.431   2.031   0.114
 4575SOL    HW114624   6.468   1.938   0.117
 4575SOL    HW214625   6.497   2.094   0.155
 4576SOL     OW14626   2.437   5.846   6.414
 4576SOL    HW114627   2.468   5.903   6.489
 4576SOL    HW214628   2.337   5.847   6.410
 4577SOL     OW14629   0.367   2.652   3.043
 4577SOL    HW114630   0.418   2.571   3.012
 4577SOL    HW214631   0.337   2.705   2.964
 4578SOL     OW14632   0.463   3.657   3.346
 4578SOL    HW114633   0.459   3.699   3.255
 4578SOL    HW214634   0.547   3.602   3.353
 4579SOL     OW14635   5.410   1.310   2.914
 4579SOL    HW114636   5.349   1.364   2.973
 4579SOL    HW214637   5.503   1.346   2.919
 4580SOL     OW14638   5.372   5.536   0.125
 4580SOL    HW114639   5.356   5.629   0.158
 4580SOL    HW214640   5.471   5.520   0.119
 4581SOL     OW14641   3.024   5.135   3.038
 4581SOL    HW114642   3.040   5.041   3.068
 4581SOL    HW214643   3.111   5.180   3.019
 4582SOL     OW14644   5.945   6.265   4.736
 4582SOL    HW114645   5.879   6.340   4.740
 4582SOL    HW214646   5.985   6.262   4.644
 4583SOL     OW14647   2.497   1.532   4.842
 4583SOL    HW114648   2.570   1.523   4.909
 4583SOL    HW214649   2.485   1.628   4.817
 4584SOL     OW14650   0.691   6.166   5.476
 4584SOL    HW114651   0.703   6.230   5.400
 4584SOL    HW214652   0.694   6.072   5.442
 4585SOL     OW14653   2.968   6.260   3.156
 4585SOL    HW114654   2.874   6.252   3.187
 4585SOL    HW214655   2.977   6.340   3.096
 4586SOL     OW14656   4.018   4.818   0.795
 4586SOL    HW114657   4.103   4.831   0.847
 4586SOL    HW214658   4.003   4.721   0.779
 4587SOL     OW14659   4.150   3.200   1.770
 4587SOL    HW114660   4.162   3.232   1.864
 4587SOL    HW214661   4.240   3.183   1.729
 4588SOL     OW14662   3.859   3.993   5.167
 4588SOL    HW114663   3.953   3.972   5.191
 4588SOL    HW214664   3.851   4.002   5.068
 4589SOL     OW14665   5.784   1.080   2.065
 4589SOL    HW114666   5.849   1.153   2.042
 4589SOL    HW214667   5.748   1.095   2.157
 4590SOL     OW14668   4.331   6.135   1.850
 4590SOL    HW114669   4.376   6.128   1.761
 4590SOL    HW214670   4.279   6.051   1.868
 4591SOL     OW14671   0.946   6.176   4.796
 4591SOL    HW114672   1.036   6.211   4.767
 4591SOL    HW214673   0.947   6.076   4.792
 4592SOL     OW14674   4.060   2.795   1.637
 4592SOL    HW114675   4.057   2.835   1.729
 4592SOL    HW214676   3.986   2.833   1.582
 4593SOL     OW14677   4.208   5.480   3.833
 4593SOL    HW114678   4.250   5.437   3.913
 4593SOL    HW214679   4.150   5.556   3.862
 4594SOL     OW14680   3.642   2.469   1.165
 4594SOL    HW114681   3.589   2.437   1.243
 4594SOL    HW214682   3.699   2.547   1.193
 4595SOL     OW14683   3.351   2.856   5.777
 4595SOL    HW114684   3.437   2.807   5.789
 4595SOL    HW214685   3.304   2.821   5.696
 4596SOL     OW14686   5.925   6.567   2.074
 4596SOL    HW114687   5.936   6.644   2.137
 4596SOL    HW214688   5.830   6.559   2.046
 4597SOL     OW14689   4.914   4.667   0.136
 4597SOL    HW114690   5.004   4.648   0.174
 4597SOL    HW214691   4.860   4.584   0.135
 4598SOL     OW14692   1.357   5.224   6.860
 4598SOL    HW114693   1.454   5.242   6.843
 4598SOL    HW214694   1.313   5.309   6.889
 4599SOL     OW14695   1.687   4.420   1.508
 4599SOL    HW114696   1.768   4.451   1.558
 4599SOL    HW214697   1.605   4.450   1.557
 4600SOL     OW14698   2.635   6.057   6.023
 4600SOL    HW114699   2.631   6.095   5.931
 4600SOL    HW214700   2.707   5.988   6.027
 4601SOL     OW14701   1.555   0.971   5.315
 4601SOL    HW114702   1.592   1.054   5.275
 4601SOL    HW214703   1.528   0.907   5.243
 4602SOL     OW14704   1.036   5.993   0.564
 4602SOL    HW114705   0.971   6.062   0.597
 4602SOL    HW214706   1.002   5.902   0.588
 4603SOL     OW14707   3.686   6.859   1.472
 4603SOL    HW114708   3.746   6.936   1.452
 4603SOL    HW214709   3.665   6.858   1.570
 4604SOL     OW14710   4.550   0.795   1.541
 4604SOL    HW114711   4.514   0.829   1.628
 4604SOL    HW214712   4.521   0.700   1.528
 4605SOL     OW14713   5.274   0.923   3.284
 4605SOL    HW114714   5.224   0.851   3.237
 4605SOL    HW214715   5.279   0.902   3.382
 4606SOL     OW14716   6.812   6.993   1.977
 4606SOL    HW114717   6.741   6.940   2.022
 4606SOL    HW214718   6.882   7.020   2.043
 4607SOL     OW14719   2.707   3.042   0.877
 4607SOL    HW114720   2.699   3.029   0.976
 4607SOL    HW214721   2.793   3.088   0.856
 4608SOL     OW14722   1.853   5.384   4.066
 4608SOL    HW114723   1.777   5.409   4.005
 4608SOL    HW214724   1.934   5.364   4.011
 4609SOL     OW14725   4.239   5.589   6.056
 4609SOL    HW114726   4.286   5.501   6.057
 4609SOL    HW214727   4.162   5.585   5.992
 4610SOL     OW14728   6.759   2.240   0.411
 4610SOL    HW114729   6.796   2.248   0.503
 4610SOL    HW214730   6.659   2.233   0.416
 4611SOL     OW14731   6.543   4.931   5.608
 4611SOL    HW114732   6.616   4.991   5.640
 4611SOL    HW214733   6.576   4.878   5.529
 4612SOL     OW14734   2.059   6.626   0.584
 4612SOL    HW114735   1.992   6.552   0.589
 4612SOL    HW214736   2.021   6.708   0.627
 4613SOL     OW14737   2.673   5.761   2.608
 4613SOL    HW114738   2.669   5.848   2.658
 4613SOL    HW214739   2.585   5.744   2.563
 4614SOL     OW14740   1.153   4.906   5.430
 4614SOL    HW114741   1.130   4.984   5.489
 4614SOL    HW214742   1.070   4.874   5.384
 4615SOL     OW14743   2.301   0.644   0.388
 4615SOL    HW114744   2.261   0.734   0.368
 4615SOL    HW214745   2.394   0.656   0.422
 4616SOL     OW14746   6.705   0.197   5.671
 4616SOL    HW114747   6.680   0.126   5.605
 4616SOL    HW214748   6.626   0.217   5.729
 4617SOL     OW14749   1.572   2.239   3.058
 4617SOL    HW114750   1.537   2.173   3.124
 4617SOL    HW214751   1.513   2.240   2.977
 4618SOL     OW14752   1.575   3.219   5.150
 4618SOL    HW114753   1.657   3.259   5.110
 4618SOL    HW214754   1.495   3.273   5.125
 4619SOL     OW14755   4.876   6.290   3.793
 4619SOL    HW114756   4.841   6.383   3.781
 4619SOL    HW214757   4.962   6.279   3.743
 4620SOL     OW14758   3.146   3.903   6.943
 4620SOL    HW114759   3.156   3.824   6.882
 4620SOL    HW214760   3.237   3.940   6.964
 4621SOL     OW14761   5.660   1.774   3.522
 4621SOL    HW114762   5.728   1.797   3.591
 4621SOL    HW214763   5.630   1.857   3.475
 4622SOL     OW14764   0.447   3.218   0.876
 4622SOL    HW114765   0.498   3.209   0.790
 4622SOL    HW214766   0.383   3.142   0.884
 4623SOL     OW14767   0.558   5.557   1.192
 4623SOL    HW114768   0.598   5.465   1.187
 4623SOL    HW214769   0.474   5.554   1.247
 4624SOL     OW14770   4.720   6.852   2.871
 4624SOL    HW114771   4.698   6.934   2.925
 4624SOL    HW214772   4.813   6.860   2.835
 4625SOL     OW14773   1.800   4.304   6.760
 4625SOL    HW114774   1.719   4.347   6.720
 4625SOL    HW214775   1.848   4.252   6.690
 4626SOL     OW14776   5.839   4.881   1.255
 4626SOL    HW114777   5.884   4.960   1.297
 4626SOL    HW214778   5.896   4.799   1.271
 4627SOL     OW14779   3.362   6.043   4.623
 4627SOL    HW114780   3.356   5.959   4.677
 4627SOL    HW214781   3.396   6.022   4.532
 4628SOL     OW14782   6.014   4.204   3.549
 4628SOL    HW114783   6.001   4.187   3.451
 4628SOL    HW214784   5.964   4.134   3.601
 4629SOL     OW14785   2.385   4.961   6.147
 4629SOL    HW114786   2.463   4.983   6.089
 4629SOL    HW214787   2.346   4.873   6.119
 4630SOL     OW14788   3.524   6.042   3.308
 4630SOL    HW114789   3.565   6.102   3.239
 4630SOL    HW214790   3.440   6.002   3.272
 4631SOL     OW14791   2.750   6.635   3.443
 4631SOL    HW114792   2.687   6.558   3.444
 4631SOL    HW214793   2.817   6.623   3.369
 4632SOL     OW14794   4.411   4.545   3.194
 4632SOL    HW114795   4.339   4.596   3.147
 4632SOL    HW214796   4.416   4.452   3.158
 4633SOL     OW14797   6.303   1.880   3.733
 4633SOL    HW114798   6.214   1.925   3.726
 4633SOL    HW214799   6.362   1.932   3.795
 4634SOL     OW14800   2.548   4.393   6.725
 4634SOL    HW114801   2.530   4.385   6.627
 4634SOL    HW214802   2.565   4.489   6.748
 4635SOL     OW14803   5.958   3.633   2.493
 4635SOL    HW114804   6.013   3.656   2.574
 4635SOL    HW214805   6.014   3.581   2.429
 4636SOL     OW14806   2.156   4.911   0.041
 4636SOL    HW114807   2.188   4.817   0.036
 4636SOL    HW214808   2.213   4.969   7.012
 4637SOL     OW14809   1.883   0.548   0.254
 4637SOL    HW114810   1.960   0.505   0.301
 4637SOL    HW214811   1.916   0.601   0.177
 4638SOL     OW14812   3.197   2.879   6.193
 4638SOL    HW114813   3.152   2.951   6.245
 4638SOL    HW214814   3.197   2.902   6.096
 4639SOL     OW14815   1.868   5.110   5.390
 4639SOL    HW114816   1.872   5.178   5.317
 4639SOL    HW214817   1.780   5.062   5.386
 4640SOL     OW14818   4.804   5.151   3.692
 4640SOL    HW114819   4.739   5.121   3.622
 4640SOL    HW214820   4.759   5.217   3.753
 4641SOL     OW14821   2.702   5.526   4.064
 4641SOL    HW114822   2.665   5.458   4.002
 4641SOL    HW214823   2.782   5.570   4.021
 4642SOL     OW14824   1.022   6.488   4.884
 4642SOL    HW114825   1.029   6.436   4.970
 4642SOL    HW214826   1.066   6.577   4.895
 4643SOL     OW14827   5.014   2.367   1.004
 4643SOL    HW114828   5.015   2.304   1.082
 4643SOL    HW214829   4.994   2.316   0.920
 4644SOL     OW14830   1.299   4.717   4.362
 4644SOL    HW114831   1.373   4.730   4.295
 4644SOL    HW214832   1.320   4.769   4.445
 4645SOL     OW14833   1.660   0.264   4.275
 4645SOL    HW114834   1.569   0.274   4.235
 4645SOL    HW214835   1.729   0.271   4.203
 4646SOL     OW14836   2.733   6.295   2.756
 4646SOL    HW114837   2.729   6.274   2.658
 4646SOL    HW214838   2.822   6.267   2.793
 4647SOL     OW14839   0.850   6.588   2.722
 4647SOL    HW114840   0.865   6.601   2.624
 4647SOL    HW214841   0.758   6.619   2.746
 4648SOL     OW14842   3.862   0.199   0.894
 4648SOL    HW114843   3.848   0.259   0.973
 4648SOL    HW214844   3.834   0.247   0.811
 4649SOL     OW14845   5.385   6.942   6.011
 4649SOL    HW114846   5.454   6.873   6.033
 4649SOL    HW214847   5.316   6.901   5.951
 4650SOL     OW14848   4.038   5.566   3.582
 4650SOL    HW114849   4.061   5.564   3.679
 4650SOL    HW214850   4.033   5.661   3.550
 4651SOL     OW14851   0.289   1.691   0.779
 4651SOL    HW114852   0.307   1.749   0.859
 4651SOL    HW214853   0.212   1.631   0.799
 4652SOL     OW14854   0.664   0.215   3.770
 4652SOL    HW114855   0.686   0.308   3.742
 4652SOL    HW214856   0.597   0.176   3.707
 4653SOL     OW14857   6.916   5.621   6.749
 4653SOL    HW114858   7.010   5.622   6.716
 4653SOL    HW214859   6.888   5.714   6.773
 4654SOL     OW14860   0.774   6.857   0.244
 4654SOL    HW114861   0.755   6.845   0.342
 4654SOL    HW214862   0.710   6.924   0.206
 4655SOL     OW14863   6.598   4.891   1.654
 4655SOL    HW114864   6.563   4.826   1.722
 4655SOL    HW214865   6.526   4.957   1.633
 4656SOL     OW14866   0.894   0.065   3.143
 4656SOL    HW114867   0.985   0.106   3.150
 4656SOL    HW214868   0.892   7.007   3.192
 4657SOL     OW14869   5.193   0.067   1.507
 4657SOL    HW114870   5.160   0.063   1.413
 4657SOL    HW214871   5.285   0.106   1.509
 4658SOL     OW14872   3.307   0.492   2.503
 4658SOL    HW114873   3.320   0.591   2.512
 4658SOL    HW214874   3.368   0.444   2.565
 4659SOL     OW14875   2.589   3.921   5.719
 4659SOL    HW114876   2.625   3.981   5.647
 4659SOL    HW214877   2.502   3.882   5.688
 4660SOL     OW14878   0.927   2.650   4.664
 4660SOL    HW114879   0.895   2.689   4.578
 4660SOL    HW214880   0.878   2.693   4.740
 4661SOL     OW14881   4.122   4.575   5.636
 4661SOL    HW114882   4.065   4.525   5.571
 4661SOL    HW214883   4.196   4.517   5.667
 4662SOL     OW14884   5.021   0.514   4.725
 4662SOL    HW114885   5.075   0.430   4.712
 4662SOL    HW214886   4.968   0.532   4.642
 4663SOL     OW14887   0.200   1.333   2.658
 4663SOL    HW114888   0.107   1.354   2.689
 4663SOL    HW214889   0.211   1.234   2.652
 4664SOL     OW14890   1.813   2.528   6.935
 4664SOL    HW114891   1.737   2.501   6.875
 4664SOL    HW214892   1.879   2.453   6.941
 4665SOL     OW14893   4.536   6.926   0.223
 4665SOL    HW114894   4.497   6.891   0.137
 4665SOL    HW214895   4.462   6.963   0.279
 4666SOL     OW14896   1.754   1.754   6.702
 4666SOL    HW114897   1.687   1.759   6.776
 4666SOL    HW214898   1.819   1.829   6.711
 4667SOL     OW14899   6.746   4.977   0.880
 4667SOL    HW114900   6.678   4.904   0.882
 4667SOL    HW214901   6.822   4.951   0.820
 4668SOL     OW14902   6.888   2.389   3.867
 4668SOL    HW114903   6.872   2.331   3.787
 4668SOL    HW214904   6.802   2.435   3.893
 4669SOL     OW14905   3.631   6.909   0.763
 4669SOL    HW114906   3.564   6.950   0.701
 4669SOL    HW214907   3.713   6.967   0.765
 4670SOL     OW14908   3.154   1.307   4.922
 4670SOL    HW114909   3.186   1.213   4.935
 4670SOL    HW214910   3.135   1.348   5.011
 4671SOL     OW14911   6.136   2.421   2.064
 4671SOL    HW114912   6.086   2.345   2.022
 4671SOL    HW214913   6.224   2.433   2.018
 4672SOL     OW14914   2.439   4.513   6.011
 4672SOL    HW114915   2.494   4.439   6.048
 4672SOL    HW214916   2.499   4.575   5.959
 4673SOL     OW14917   4.908   6.962   1.058
 4673SOL    HW114918   4.996   6.962   1.012
 4673SOL    HW214919   4.835   6.971   0.991
 4674SOL     OW14920   5.216   6.116   6.352
 4674SOL    HW114921   5.235   6.038   6.292
 4674SOL    HW214922   5.118   6.119   6.371
 4675SOL     OW14923   0.398   3.691   0.212
 4675SOL    HW114924   0.342   3.752   0.156
 4675SOL    HW214925   0.380   3.708   0.308
 4676SOL     OW14926   0.847   5.839   4.018
 4676SOL    HW114927   0.785   5.778   4.068
 4676SOL    HW214928   0.860   5.923   4.071
 4677SOL     OW14929   2.142   2.114   0.732
 4677SOL    HW114930   2.095   2.127   0.644
 4677SOL    HW214931   2.100   2.174   0.800
 4678SOL     OW14932   2.450   4.408   2.650
 4678SOL    HW114933   2.414   4.315   2.651
 4678SOL    HW214934   2.464   4.437   2.555
 4679SOL     OW14935   4.109   0.081   1.650
 4679SOL    HW114936   4.020   0.063   1.692
 4679SOL    HW214937   4.120   0.179   1.637
 4680SOL     OW14938   3.604   1.333   0.066
 4680SOL    HW114939   3.651   1.277   0.134
 4680SOL    HW214940   3.644   1.425   0.065
 4681SOL     OW14941   5.032   4.861   0.306
 4681SOL    HW114942   5.047   4.798   0.382
 4681SOL    HW214943   5.013   4.952   0.341
 4682SOL     OW14944   5.061   4.108   5.888
 4682SOL    HW114945   5.114   4.140   5.810
 4682SOL    HW214946   4.966   4.092   5.860
 4683SOL     OW14947   5.852   5.476   2.107
 4683SOL    HW114948   5.891   5.418   2.036
 4683SOL    HW214949   5.831   5.421   2.188
 4684SOL     OW14950   4.116   6.779   5.774
 4684SOL    HW114951   4.128   6.854   5.710
 4684SOL    HW214952   4.192   6.714   5.765
 4685SOL     OW14953   2.184   4.735   5.878
 4685SOL    HW114954   2.138   4.648   5.862
 4685SOL    HW214955   2.200   4.747   5.976
 4686SOL     OW14956   4.338   5.660   0.532
 4686SOL    HW114957   4.285   5.740   0.559
 4686SOL    HW214958   4.416   5.649   0.594
 4687SOL     OW14959   4.937   2.645   4.418
 4687SOL    HW114960   4.951   2.548   4.400
 4687SOL    HW214961   4.863   2.657   4.483
 4688SOL     OW14962   5.541   2.783   5.481
 4688SOL    HW114963   5.493   2.709   5.433
 4688SOL    HW214964   5.495   2.870   5.464
 4689SOL     OW14965   5.847   1.101   0.994
 4689SOL    HW114966   5.829   1.007   1.026
 4689SOL    HW214967   5.777   1.127   0.928
 4690SOL     OW14968   2.001   0.898   1.016
 4690SOL    HW114969   2.099   0.918   1.011
 4690SOL    HW214970   1.954   0.945   0.941
 4691SOL     OW14971   3.819   4.055   0.507
 4691SOL    HW114972   3.729   4.032   0.471
 4691SOL    HW214973   3.809   4.127   0.577
 4692SOL     OW14974   5.671   5.075   2.800
 4692SOL    HW114975   5.651   5.001   2.863
 4692SOL    HW214976   5.605   5.149   2.813
 4693SOL     OW14977   1.239   0.808   3.298
 4693SOL    HW114978   1.235   0.763   3.387
 4693SOL    HW214979   1.259   0.905   3.311
 4694SOL     OW14980   1.993   2.631   0.128
 4694SOL    HW114981   1.961   2.685   0.050
 4694SOL    HW214982   1.918   2.618   0.192
 4695SOL     OW14983   1.939   5.848   0.426
 4695SOL    HW114984   1.980   5.852   0.517
 4695SOL    HW214985   1.885   5.930   0.410
 4696SOL     OW14986   0.424   5.477   6.296
 4696SOL    HW114987   0.418   5.421   6.212
 4696SOL    HW214988   0.404   5.572   6.274
 4697SOL     OW14989   0.950   3.903   2.061
 4697SOL    HW114990   0.903   3.974   2.115
 4697SOL    HW214991   1.000   3.842   2.122
 4698SOL     OW14992   4.215   6.397   3.146
 4698SOL    HW114993   4.226   6.449   3.061
 4698SOL    HW214994   4.211   6.299   3.125
 4699SOL     OW14995   0.331   6.455   2.943
 4699SOL    HW114996   0.430   6.450   2.929
 4699SOL    HW214997   0.290   6.515   2.874
 4700SOL     OW14998   6.335   1.635   2.294
 4700SOL    HW114999   6.245   1.668   2.266
 4700SOL    HW215000   6.370   1.693   2.368
 4701SOL     OW15001   3.775   1.882   0.579
 4701SOL    HW115002   3.689   1.926   0.553
 4701SOL    HW215003   3.781   1.876   0.678
 4702SOL     OW15004   4.438   4.699   0.836
 4702SOL    HW115005   4.452   4.713   0.738
 4702SOL    HW215006   4.513   4.742   0.887
 4703SOL     OW15007   1.056   6.446   2.990
 4703SOL    HW115008   1.113   6.473   3.067
 4703SOL    HW215009   1.055   6.520   2.922
 4704SOL     OW15010   6.786   6.023   6.021
 4704SOL    HW115011   6.838   6.100   6.059
 4704SOL    HW215012   6.737   6.053   5.939
 4705SOL     OW15013   3.236   2.373   0.650
 4705SOL    HW115014   3.184   2.303   0.602
 4705SOL    HW215015   3.333   2.348   0.652
 4706SOL     OW15016   1.603   0.855   0.670
 4706SOL    HW115017   1.603   0.771   0.724
 4706SOL    HW215018   1.671   0.848   0.597
 4707SOL     OW15019   1.110   6.239   1.453
 4707SOL    HW115020   1.036   6.192   1.502
 4707SOL    HW215021   1.094   6.338   1.456
 4708SOL     OW15022   1.138   1.933   5.724
 4708SOL    HW115023   1.058   1.880   5.753
 4708SOL    HW215024   1.114   1.988   5.644
 4709SOL     OW15025   4.912   5.124   4.695
 4709SOL    HW115026   4.969   5.075   4.628
 4709SOL    HW215027   4.971   5.178   4.755
 4710SOL     OW15028   5.970   6.887   6.147
 4710SOL    HW115029   5.886   6.834   6.159
 4710SOL    HW215030   5.947   6.975   6.105
 4711SOL     OW15031   6.608   1.554   2.594
 4711SOL    HW115032   6.645   1.467   2.562
 4711SOL    HW215033   6.613   1.621   2.520
 4712SOL     OW15034   3.393   5.212   6.346
 4712SOL    HW115035   3.416   5.131   6.292
 4712SOL    HW215036   3.379   5.186   6.441
 4713SOL     OW15037   4.584   5.596   0.641
 4713SOL    HW115038   4.605   5.644   0.726
 4713SOL    HW215039   4.664   5.545   0.610
 4714SOL     OW15040   0.249   1.173   6.138
 4714SOL    HW115041   0.193   1.222   6.071
 4714SOL    HW215042   0.216   1.191   6.230
 4715SOL     OW15043   6.287   3.040   1.666
 4715SOL    HW115044   6.191   3.015   1.672
 4715SOL    HW215045   6.320   3.025   1.572
 4716SOL     OW15046   4.830   6.490   5.649
 4716SOL    HW115047   4.847   6.499   5.551
 4716SOL    HW215048   4.731   6.488   5.665
 4717SOL     OW15049   1.335   5.220   5.176
 4717SOL    HW115050   1.263   5.261   5.119
 4717SOL    HW215051   1.415   5.201   5.119
 4718SOL     OW15052   5.201   2.425   1.202
 4718SOL    HW115053   5.140   2.379   1.138
 4718SOL    HW215054   5.290   2.379   1.202
 4719SOL     OW15055   5.141   3.934   2.733
 4719SOL    HW115056   5.092   3.872   2.794
 4719SOL    HW215057   5.121   4.029   2.758
 4720SOL     OW15058   2.072   4.574   6.242
 4720SOL    HW115059   2.001   4.596   6.309
 4720SOL    HW215060   2.064   4.478   6.215
 4721SOL     OW15061   6.042   2.230   1.875
 4721SOL    HW115062   5.972   2.160   1.858
 4721SOL    HW215063   6.131   2.195   1.846
 4722SOL     OW15064   1.186   6.261   6.897
 4722SOL    HW115065   1.253   6.212   6.842
 4722SOL    HW215066   1.232   6.326   6.956
 4723SOL     OW15067   3.212   3.757   5.011
 4723SOL    HW115068   3.144   3.684   5.019
 4723SOL    HW215069   3.182   3.836   5.065
 4724SOL     OW15070   0.179   0.033   4.116
 4724SOL    HW115071   0.174   0.064   4.211
 4724SOL    HW215072   0.275   0.027   4.088
 4725SOL     OW15073   5.992   4.880   0.337
 4725SOL    HW115074   5.963   4.975   0.345
 4725SOL    HW215075   5.912   4.822   0.318
 4726SOL     OW15076   1.073   3.462   5.846
 4726SOL    HW115077   1.010   3.410   5.903
 4726SOL    HW215078   1.145   3.502   5.902
 4727SOL     OW15079   0.284   6.005   1.146
 4727SOL    HW115080   0.262   5.951   1.064
 4727SOL    HW215081   0.328   6.090   1.119
 4728SOL     OW15082   6.665   1.149   2.898
 4728SOL    HW115083   6.570   1.132   2.873
 4728SOL    HW215084   6.671   1.228   2.958
 4729SOL     OW15085   4.785   1.042   0.227
 4729SOL    HW115086   4.877   1.035   0.190
 4729SOL    HW215087   4.765   0.963   0.285
 4730SOL     OW15088   3.402   5.943   5.650
 4730SOL    HW115089   3.385   6.042   5.646
 4730SOL    HW215090   3.328   5.899   5.699
 4731SOL     OW15091   3.262   1.005   1.138
 4731SOL    HW115092   3.193   1.062   1.182
 4731SOL    HW215093   3.245   1.004   1.039
 4732SOL     OW15094   0.466   3.126   5.054
 4732SOL    HW115095   0.441   3.029   5.047
 4732SOL    HW215096   0.502   3.145   5.145
 4733SOL     OW15097   1.279   4.147   3.107
 4733SOL    HW115098   1.330   4.061   3.111
 4733SOL    HW215099   1.208   4.147   3.177
 4734SOL     OW15100   4.773   3.567   0.393
 4734SOL    HW115101   4.753   3.501   0.320
 4734SOL    HW215102   4.714   3.548   0.471
 4735SOL     OW15103   6.249   5.491   4.081
 4735SOL    HW115104   6.306   5.419   4.041
 4735SOL    HW215105   6.307   5.567   4.111
 4736SOL     OW15106   6.004   1.839   5.133
 4736SOL    HW115107   5.977   1.770   5.200
 4736SOL    HW215108   6.025   1.794   5.046
 4737SOL     OW15109   2.488   4.552   0.664
 4737SOL    HW115110   2.553   4.485   0.629
 4737SOL    HW215111   2.448   4.518   0.749
 4738SOL     OW15112   3.094   6.372   3.441
 4738SOL    HW115113   2.997   6.352   3.449
 4738SOL    HW215114   3.114   6.460   3.484
 4739SOL     OW15115   5.320   1.599   3.353
 4739SOL    HW115116   5.419   1.606   3.364
 4739SOL    HW215117   5.276   1.682   3.388
 4740SOL     OW15118   1.023   0.274   0.780
 4740SOL    HW115119   0.993   0.363   0.746
 4740SOL    HW215120   1.043   0.213   0.704
 4741SOL     OW15121   4.744   3.263   1.484
 4741SOL    HW115122   4.665   3.291   1.540
 4741SOL    HW215123   4.766   3.168   1.504
 4742SOL     OW15124   3.291   6.324   1.838
 4742SOL    HW115125   3.348   6.276   1.771
 4742SOL    HW215126   3.337   6.408   1.867
 4743SOL     OW15127   1.359   2.271   5.489
 4743SOL    HW115128   1.407   2.311   5.567
 4743SOL    HW215129   1.266   2.308   5.483
 4744SOL     OW15130   2.710   3.264   5.653
 4744SOL    HW115131   2.711   3.165   5.649
 4744SOL    HW215132   2.625   3.296   5.693
 4745SOL     OW15133   2.422   5.418   5.471
 4745SOL    HW115134   2.483   5.340   5.462
 4745SOL    HW215135   2.339   5.402   5.418
 4746SOL     OW15136   5.996   6.199   1.907
 4746SOL    HW115137   5.965   6.106   1.886
 4746SOL    HW215138   6.048   6.198   1.993
 4747SOL     OW15139   1.408   3.650   6.157
 4747SOL    HW115140   1.374   3.578   6.097
 4747SOL    HW215141   1.358   3.735   6.139
 4748SOL     OW15142   1.563   5.572   1.183
 4748SOL    HW115143   1.559   5.530   1.093
 4748SOL    HW215144   1.613   5.512   1.246
 4749SOL     OW15145   3.083   6.247   5.862
 4749SOL    HW115146   3.042   6.218   5.948
 4749SOL    HW215147   3.165   6.301   5.880
 4750SOL     OW15148   0.412   2.657   4.018
 4750SOL    HW115149   0.390   2.702   3.931
 4750SOL    HW215150   0.406   2.558   4.007
 4751SOL     OW15151   1.786   3.477   0.415
 4751SOL    HW115152   1.723   3.401   0.398
 4751SOL    HW215153   1.742   3.562   0.388
 4752SOL     OW15154   3.008   0.201   0.539
 4752SOL    HW115155   3.039   0.173   0.448
 4752SOL    HW215156   3.087   0.215   0.598
 4753SOL     OW15157   5.270   0.074   4.169
 4753SOL    HW115158   5.177   0.040   4.185
 4753SOL    HW215159   5.310   0.028   4.090
 4754SOL     OW15160   5.955   0.358   5.228
 4754SOL    HW115161   5.947   0.320   5.320
 4754SOL    HW215162   5.980   0.286   5.163
 4755SOL     OW15163   2.632   0.995   0.255
 4755SOL    HW115164   2.714   0.939   0.264
 4755SOL    HW215165   2.626   1.033   0.162
 4756SOL     OW15166   6.017   2.362   1.057
 4756SOL    HW115167   6.047   2.431   0.991
 4756SOL    HW215168   5.920   2.374   1.077
 4757SOL     OW15169   1.674   1.967   2.423
 4757SOL    HW115170   1.675   2.020   2.338
 4757SOL    HW215171   1.645   1.873   2.403
 4758SOL     OW15172   3.411   5.763   5.021
 4758SOL    HW115173   3.495   5.810   5.049
 4758SOL    HW215174   3.344   5.768   5.095
 4759SOL     OW15175   5.980   5.182   4.965
 4759SOL    HW115176   6.043   5.111   4.933
 4759SOL    HW215177   5.887   5.145   4.965
 4760SOL     OW15178   3.594   2.237   0.992
 4760SOL    HW115179   3.592   2.314   1.056
 4760SOL    HW215180   3.588   2.152   1.043
 4761SOL     OW15181   0.207   0.424   6.674
 4761SOL    HW115182   0.181   0.457   6.583
 4761SOL    HW215183   0.162   0.336   6.691
 4762SOL     OW15184   2.731   4.984   2.795
 4762SOL    HW115185   2.747   5.073   2.751
 4762SOL    HW215186   2.633   4.968   2.802
 4763SOL     OW15187   5.836   6.116   3.417
 4763SOL    HW115188   5.857   6.170   3.499
 4763SOL    HW215189   5.738   6.099   3.413
 4764SOL     OW15190   4.811   4.045   5.798
 4764SOL    HW115191   4.781   4.017   5.706
 4764SOL    HW215192   4.801   3.968   5.861
 4765SOL     OW15193   5.203   6.844   4.432
 4765SOL    HW115194   5.233   6.836   4.527
 4765SOL    HW215195   5.283   6.852   4.372
 4766SOL     OW15196   4.357   0.054   3.447
 4766SOL    HW115197   4.316   7.014   3.507
 4766SOL    HW215198   4.293   0.129   3.433
 4767SOL     OW15199   4.111   5.758   6.224
 4767SOL    HW115200   4.147   5.705   6.147
 4767SOL    HW215201   4.130   5.855   6.210
 4768SOL     OW15202   4.813   2.189   4.978
 4768SOL    HW115203   4.831   2.106   5.031
 4768SOL    HW215204   4.898   2.221   4.936
 4769SOL     OW15205   4.289   5.023   1.091
 4769SOL    HW115206   4.298   5.091   1.018
 4769SOL    HW215207   4.254   5.068   1.174
 4770SOL     OW15208   1.673   6.892   3.792
 4770SOL    HW115209   1.766   6.896   3.754
 4770SOL    HW215210   1.626   6.812   3.755
 4771SOL     OW15211   3.420   5.388   5.570
 4771SOL    HW115212   3.493   5.325   5.597
 4771SOL    HW215213   3.350   5.390   5.641
 4772SOL     OW15214   2.398   5.601   2.167
 4772SOL    HW115215   2.312   5.642   2.137
 4772SOL    HW215216   2.467   5.612   2.096
 4773SOL     OW15217   6.530   5.195   4.617
 4773SOL    HW115218   6.497   5.192   4.523
 4773SOL    HW215219   6.623   5.233   4.618
 4774SOL     OW15220   1.193   2.660   1.866
 4774SOL    HW115221   1.198   2.749   1.821
 4774SOL    HW215222   1.285   2.619   1.869
 4775SOL     OW15223   5.249   6.904   2.832
 4775SOL    HW115224   5.254   6.931   2.928
 4775SOL    HW215225   5.177   6.836   2.821
 4776SOL     OW15226   1.291   6.632   4.285
 4776SOL    HW115227   1.366   6.688   4.250
 4776SOL    HW215228   1.259   6.670   4.372
 4777SOL     OW15229   2.823   4.689   1.489
 4777SOL    HW115230   2.848   4.611   1.547
 4777SOL    HW215231   2.737   4.670   1.443
 4778SOL     OW15232   5.174   2.003   2.145
 4778SOL    HW115233   5.106   1.965   2.083
 4778SOL    HW215234   5.131   2.075   2.200
 4779SOL     OW15235   6.635   6.267   2.088
 4779SOL    HW115236   6.715   6.313   2.049
 4779SOL    HW215237   6.649   6.168   2.085
 4780SOL     OW15238   7.005   0.264   6.761
 4780SOL    HW115239   6.906   0.272   6.748
 4780SOL    HW215240   7.027   0.173   6.797
 4781SOL     OW15241   2.983   6.446   1.566
 4781SOL    HW115242   3.001   6.541   1.538
 4781SOL    HW215243   3.006   6.384   1.491
 4782SOL     OW15244   4.630   6.464   0.421
 4782SOL    HW115245   4.730   6.460   0.426
 4782SOL    HW215246   4.601   6.560   0.422
 4783SOL     OW15247   4.631   4.341   0.000
 4783SOL    HW115248   4.643   4.244   0.022
 4783SOL    HW215249   4.703   4.371   6.967
 4784SOL     OW15250   6.495   3.901   6.858
 4784SOL    HW115251   6.575   3.859   6.901
 4784SOL    HW215252   6.471   3.851   6.775
 4785SOL     OW15253   6.502   5.508   1.361
 4785SOL    HW115254   6.588   5.486   1.315
 4785SOL    HW215255   6.520   5.570   1.438
 4786SOL     OW15256   2.543   2.265   2.086
 4786SOL    HW115257   2.629   2.229   2.050
 4786SOL    HW215258   2.508   2.202   2.156
 4787SOL     OW15259   3.492   2.134   3.625
 4787SOL    HW115260   3.571   2.115   3.683
 4787SOL    HW215261   3.491   2.231   3.601
 4788SOL     OW15262   0.811   5.189   6.404
 4788SOL    HW115263   0.857   5.277   6.408
 4788SOL    HW215264   0.719   5.197   6.444
 4789SOL     OW15265   5.352   0.977   0.203
 4789SOL    HW115266   5.388   0.903   0.259
 4789SOL    HW215267   5.420   1.049   0.195
 4790SOL     OW15268   0.274   2.678   6.513
 4790SOL    HW115269   0.367   2.685   6.550
 4790SOL    HW215270   0.209   2.672   6.589
 4791SOL     OW15271   5.795   2.099   1.691
 4791SOL    HW115272   5.788   1.999   1.681
 4791SOL    HW215273   5.797   2.140   1.600
 4792SOL     OW15274   1.793   3.643   2.707
 4792SOL    HW115275   1.846   3.726   2.693
 4792SOL    HW215276   1.726   3.658   2.781
 4793SOL     OW15277   1.129   2.401   6.111
 4793SOL    HW115278   1.170   2.330   6.054
 4793SOL    HW215279   1.180   2.410   6.196
 4794SOL     OW15280   4.593   0.922   3.102
 4794SOL    HW115281   4.689   0.895   3.111
 4794SOL    HW215282   4.542   0.892   3.182
 4795SOL     OW15283   6.239   1.344   2.946
 4795SOL    HW115284   6.231   1.349   2.847
 4795SOL    HW215285   6.272   1.254   2.973
 4796SOL     OW15286   5.432   2.536   6.420
 4796SOL    HW115287   5.444   2.472   6.496
 4796SOL    HW215288   5.519   2.580   6.398
 4797SOL     OW15289   1.556   6.188   5.448
 4797SOL    HW115290   1.642   6.189   5.500
 4797SOL    HW215291   1.563   6.252   5.371
 4798SOL     OW15292   0.158   3.104   5.350
 4798SOL    HW115293   0.215   3.022   5.359
 4798SOL    HW215294   0.173   3.145   5.260
 4799SOL     OW15295   5.046   1.980   6.413
 4799SOL    HW115296   4.964   2.037   6.423
 4799SOL    HW215297   5.054   1.952   6.317
 4800SOL     OW15298   2.379   3.757   5.600
 4800SOL    HW115299   2.458   3.699   5.621
 4800SOL    HW215300   2.345   3.735   5.508
 4801SOL     OW15301   2.755   2.764   0.553
 4801SOL    HW115302   2.699   2.745   0.634
 4801SOL    HW215303   2.698   2.756   0.471
 4802SOL     OW15304   1.022   6.515   1.876
 4802SOL    HW115305   0.938   6.511   1.930
 4802SOL    HW215306   1.100   6.530   1.937
 4803SOL     OW15307   1.235   6.360   0.538
 4803SOL    HW115308   1.137   6.341   0.529
 4803SOL    HW215309   1.284   6.275   0.557
 4804SOL     OW15310   4.768   5.483   6.370
 4804SOL    HW115311   4.679   5.508   6.332
 4804SOL    HW215312   4.833   5.558   6.355
 4805SOL     OW15313   6.163   6.832   1.044
 4805SOL    HW115314   6.136   6.911   1.100
 4805SOL    HW215315   6.261   6.839   1.022
 4806SOL     OW15316   0.236   4.549   2.878
 4806SOL    HW115317   0.181   4.571   2.959
 4806SOL    HW215318   0.192   4.588   2.797
 4807SOL     OW15319   1.411   5.181   0.687
 4807SOL    HW115320   1.311   5.180   0.690
 4807SOL    HW215321   1.447   5.151   0.775
 4808SOL     OW15322   6.329   3.845   6.640
 4808SOL    HW115323   6.283   3.931   6.616
 4808SOL    HW215324   6.260   3.774   6.657
 4809SOL     OW15325   3.565   4.040   6.731
 4809SOL    HW115326   3.562   3.975   6.807
 4809SOL    HW215327   3.475   4.081   6.719
 4810SOL     OW15328   1.172   5.401   2.343
 4810SOL    HW115329   1.242   5.437   2.403
 4810SOL    HW215330   1.182   5.302   2.336
 4811SOL     OW15331   1.740   4.831   2.037
 4811SOL    HW115332   1.663   4.770   2.021
 4811SOL    HW215333   1.744   4.856   2.134
 4812SOL     OW15334   0.428   5.175   5.130
 4812SOL    HW115335   0.401   5.260   5.085
 4812SOL    HW215336   0.457   5.108   5.062
 4813SOL     OW15337   5.291   1.999   1.016
 4813SOL    HW115338   5.342   2.001   1.102
 4813SOL    HW215339   5.317   1.918   0.963
 4814SOL     OW15340   5.864   4.342   0.658
 4814SOL    HW115341   5.820   4.328   0.747
 4814SOL    HW215342   5.951   4.291   0.655
 4815SOL     OW15343   5.660   4.368   2.898
 4815SOL    HW115344   5.582   4.413   2.942
 4815SOL    HW215345   5.651   4.269   2.911
 4816SOL     OW15346   6.918   5.094   2.728
 4816SOL    HW115347   6.850   5.139   2.785
 4816SOL    HW215348   7.008   5.135   2.745
 4817SOL     OW15349   1.111   1.854   6.402
 4817SOL    HW115350   1.053   1.875   6.481
 4817SOL    HW215351   1.129   1.756   6.398
 4818SOL     OW15352   0.504   0.070   4.418
 4818SOL    HW115353   0.521   0.004   4.345
 4818SOL    HW215354   0.526   0.162   4.385
 4819SOL     OW15355   0.870   2.548   0.289
 4819SOL    HW115356   0.842   2.467   0.238
 4819SOL    HW215357   0.872   2.627   0.228
 4820SOL     OW15358   6.763   2.701   1.302
 4820SOL    HW115359   6.763   2.659   1.393
 4820SOL    HW215360   6.775   2.630   1.233
 4821SOL     OW15361   0.697   6.100   2.821
 4821SOL    HW115362   0.723   6.175   2.881
 4821SOL    HW215363   0.675   6.135   2.730
 4822SOL     OW15364   1.046   3.516   4.852
 4822SOL    HW115365   0.997   3.522   4.765
 4822SOL    HW215366   1.143   3.536   4.836
 4823SOL     OW15367   2.096   1.490   3.850
 4823SOL    HW115368   2.058   1.531   3.767
 4823SOL    HW215369   2.049   1.527   3.930
 4824SOL     OW15370   5.060   2.053   5.412
 4824SOL    HW115371   5.130   2.088   5.473
 4824SOL    HW215372   5.083   1.960   5.383
 4825SOL     OW15373   1.211   2.193   4.747
 4825SOL    HW115374   1.305   2.199   4.714
 4825SOL    HW215375   1.149   2.181   4.669
 4826SOL     OW15376   5.601   0.465   0.579
 4826SOL    HW115377   5.677   0.408   0.547
 4826SOL    HW215378   5.526   0.462   0.512
 4827SOL     OW15379   6.297   2.004   0.942
 4827SOL    HW115380   6.380   1.951   0.957
 4827SOL    HW215381   6.258   1.982   0.852
 4828SOL     OW15382   5.148   1.028   1.370
 4828SOL    HW115383   5.091   0.971   1.312
 4828SOL    HW215384   5.105   1.117   1.383
 4829SOL     OW15385   3.771   0.720   6.287
 4829SOL    HW115386   3.852   0.682   6.241
 4829SOL    HW215387   3.729   0.648   6.343
 4830SOL     OW15388   3.594   5.811   4.050
 4830SOL    HW115389   3.502   5.774   4.064
 4830SOL    HW215390   3.629   5.848   4.136
 4831SOL     OW15391   1.756   4.766   5.243
 4831SOL    HW115392   1.701   4.845   5.270
 4831SOL    HW215393   1.800   4.727   5.324
 4832SOL     OW15394   3.153   3.886   3.614
 4832SOL    HW115395   3.196   3.949   3.550
 4832SOL    HW215396   3.207   3.883   3.699
 4833SOL     OW15397   6.121   1.792   2.650
 4833SOL    HW115398   6.120   1.775   2.551
 4833SOL    HW215399   6.093   1.709   2.698
 4834SOL     OW15400   2.502   5.870   2.242
 4834SOL    HW115401   2.467   5.784   2.279
 4834SOL    HW215402   2.430   5.939   2.244
 4835SOL     OW15403   6.434   3.460   6.024
 4835SOL    HW115404   6.491   3.478   6.104
 4835SOL    HW215405   6.489   3.413   5.955
 4836SOL     OW15406   5.432   1.243   4.953
 4836SOL    HW115407   5.463   1.320   5.010
 4836SOL    HW215408   5.439   1.268   4.857
 4837SOL     OW15409   6.997   3.973   2.930
 4837SOL    HW115410   7.000   4.067   2.895
 4837SOL    HW215411   6.962   3.912   2.859
 4838SOL     OW15412   2.313   5.815   0.089
 4838SOL    HW115413   2.234   5.779   0.040
 4838SOL    HW215414   2.288   5.833   0.184
 4839SOL     OW15415   1.358   3.212   7.007
 4839SOL    HW115416   1.408   3.129   6.981
 4839SOL    HW215417   1.260   3.194   7.000
 4840SOL     OW15418   6.522   4.094   5.923
 4840SOL    HW115419   6.494   4.057   5.834
 4840SOL    HW215420   6.476   4.043   5.996
 4841SOL     OW15421   2.647   4.920   3.075
 4841SOL    HW115422   2.550   4.918   3.097
 4841SOL    HW215423   2.659   4.949   2.980
 4842SOL     OW15424   2.464   5.137   3.763
 4842SOL    HW115425   2.428   5.132   3.670
 4842SOL    HW215426   2.549   5.084   3.770
 4843SOL     OW15427   6.661   2.624   1.940
 4843SOL    HW115428   6.669   2.524   1.942
 4843SOL    HW215429   6.581   2.652   1.994
 4844SOL     OW15430   0.210   4.117   4.988
 4844SOL    HW115431   0.124   4.167   4.979
 4844SOL    HW215432   0.193   4.029   5.033
 4845SOL     OW15433   4.456   4.894   5.753
 4845SOL    HW115434   4.445   4.991   5.734
 4845SOL    HW215435   4.383   4.843   5.707
 4846SOL     OW15436   0.189   1.890   3.470
 4846SOL    HW115437   0.193   1.981   3.511
 4846SOL    HW215438   0.217   1.894   3.374
 4847SOL     OW15439   2.250   1.958   5.588
 4847SOL    HW115440   2.215   2.027   5.652
 4847SOL    HW215441   2.303   1.890   5.638
 4848SOL     OW15442   2.475   1.330   4.599
 4848SOL    HW115443   2.479   1.404   4.666
 4848SOL    HW215444   2.567   1.290   4.589
 4849SOL     OW15445   2.040   6.257   0.663
 4849SOL    HW115446   2.110   6.208   0.612
 4849SOL    HW215447   1.981   6.306   0.600
 4850SOL     OW15448   4.982   0.749   1.335
 4850SOL    HW115449   4.929   0.759   1.251
 4850SOL    HW215450   4.924   0.712   1.407
 4851SOL     OW15451   3.834   5.552   6.134
 4851SOL    HW115452   3.850   5.609   6.215
 4851SOL    HW215453   3.883   5.589   6.056
 4852SOL     OW15454   2.859   5.445   4.618
 4852SOL    HW115455   2.913   5.402   4.545
 4852SOL    HW215456   2.763   5.416   4.610
 4853SOL     OW15457   3.812   1.887   3.757
 4853SOL    HW115458   3.898   1.844   3.785
 4853SOL    HW215459   3.832   1.966   3.699
 4854SOL     OW15460   4.836   0.110   1.514
 4854SOL    HW115461   4.874   0.104   1.421
 4854SOL    HW215462   4.743   0.147   1.510
 4855SOL     OW15463   6.001   3.889   5.031
 4855SOL    HW115464   5.976   3.812   4.972
 4855SOL    HW215465   6.017   3.970   4.974
 4856SOL     OW15466   0.999   3.115   2.853
 4856SOL    HW115467   0.947   3.036   2.886
 4856SOL    HW215468   1.057   3.088   2.776
 4857SOL     OW15469   3.481   1.547   3.117
 4857SOL    HW115470   3.474   1.627   3.177
 4857SOL    HW215471   3.395   1.497   3.118
 4858SOL     OW15472   0.451   6.953   5.040
 4858SOL    HW115473   0.542   6.972   5.004
 4858SOL    HW215474   0.459   6.919   5.134
 4859SOL     OW15475   0.818   5.319   1.993
 4859SOL    HW115476   0.880   5.369   2.053
 4859SOL    HW215477   0.808   5.225   2.026
 4860SOL     OW15478   3.894   4.555   0.145
 4860SOL    HW115479   3.978   4.512   0.111
 4860SOL    HW215480   3.864   4.624   0.079
 4861SOL     OW15481   5.878   5.432   6.673
 4861SOL    HW115482   5.800   5.430   6.736
 4861SOL    HW215483   5.961   5.455   6.724
 4862SOL     OW15484   2.466   4.442   4.268
 4862SOL    HW115485   2.438   4.516   4.330
 4862SOL    HW215486   2.534   4.477   4.203
 4863SOL     OW15487   4.906   3.508   2.935
 4863SOL    HW115488   4.876   3.422   2.894
 4863SOL    HW215489   4.888   3.583   2.871
 4864SOL     OW15490   3.573   1.776   1.643
 4864SOL    HW115491   3.591   1.678   1.655
 4864SOL    HW215492   3.625   1.828   1.712
 4865SOL     OW15493   2.561   5.549   5.001
 4865SOL    HW115494   2.561   5.636   5.050
 4865SOL    HW215495   2.648   5.538   4.952
 4866SOL     OW15496   6.090   4.794   1.368
 4866SOL    HW115497   6.190   4.795   1.368
 4866SOL    HW215498   6.057   4.725   1.433
 4867SOL     OW15499   4.469   5.454   3.708
 4867SOL    HW115500   4.463   5.460   3.608
 4867SOL    HW215501   4.377   5.448   3.746
 4868SOL     OW15502   0.552   6.020   1.798
 4868SOL    HW115503   0.469   5.965   1.788
 4868SOL    HW215504   0.606   5.985   1.874
 4869SOL     OW15505   6.976   2.469   1.051
 4869SOL    HW115506   7.013   2.455   1.143
 4869SOL    HW215507   6.931   2.385   1.021
 4870SOL     OW15508   4.691   5.041   1.549
 4870SOL    HW115509   4.658   5.131   1.578
 4870SOL    HW215510   4.662   5.024   1.454
 4871SOL     OW15511   0.935   0.445   3.952
 4871SOL    HW115512   0.962   0.418   3.859
 4871SOL    HW215513   1.008   0.500   3.993
 4872SOL     OW15514   1.102   6.848   3.680
 4872SOL    HW115515   1.099   6.849   3.580
 4872SOL    HW215516   1.009   6.852   3.715
 4873SOL     OW15517   0.233   4.910   3.779
 4873SOL    HW115518   0.330   4.891   3.771
 4873SOL    HW215519   0.182   4.856   3.712
 4874SOL     OW15520   5.927   3.575   2.070
 4874SOL    HW115521   6.005   3.635   2.090
 4874SOL    HW215522   5.869   3.567   2.151
 4875SOL     OW15523   5.964   2.656   0.926
 4875SOL    HW115524   5.983   2.676   0.829
 4875SOL    HW215525   5.872   2.688   0.949
 4876SOL     OW15526   5.494   0.575   5.317
 4876SOL    HW115527   5.470   0.610   5.408
 4876SOL    HW215528   5.594   0.572   5.308
 4877SOL     OW15529   6.893   1.413   0.771
 4877SOL    HW115530   6.861   1.328   0.811
 4877SOL    HW215531   6.951   1.394   0.693
 4878SOL     OW15532   6.950   1.339   2.507
 4878SOL    HW115533   6.943   1.371   2.601
 4878SOL    HW215534   6.932   1.415   2.444
 4879SOL     OW15535   4.422   4.788   2.841
 4879SOL    HW115536   4.482   4.859   2.879
 4879SOL    HW215537   4.355   4.830   2.779
 4880SOL     OW15538   4.895   2.540   6.760
 4880SOL    HW115539   4.875   2.465   6.697
 4880SOL    HW215540   4.869   2.626   6.718
 4881SOL     OW15541   2.079   5.801   6.776
 4881SOL    HW115542   2.069   5.738   6.852
 4881SOL    HW215543   2.154   5.771   6.717
 4882SOL     OW15544   6.212   1.553   5.236
 4882SOL    HW115545   6.123   1.570   5.278
 4882SOL    HW215546   6.258   1.478   5.283
 4883SOL     OW15547   4.917   4.830   2.512
 4883SOL    HW115548   4.832   4.793   2.474
 4883SOL    HW215549   4.965   4.759   2.562
 4884SOL     OW15550   4.510   0.210   1.180
 4884SOL    HW115551   4.515   0.154   1.098
 4884SOL    HW215552   4.531   0.305   1.156
 4885SOL     OW15553   2.530   6.157   2.536
 4885SOL    HW115554   2.490   6.237   2.579
 4885SOL    HW215555   2.489   6.143   2.446
 4886SOL     OW15556   0.178   6.668   5.803
 4886SOL    HW115557   0.140   6.671   5.895
 4886SOL    HW215558   0.113   6.624   5.741
 4887SOL     OW15559   6.934   1.475   3.223
 4887SOL    HW115560   6.997   1.488   3.299
 4887SOL    HW215561   6.839   1.481   3.256
 4888SOL     OW15562   1.891   6.491   3.978
 4888SOL    HW115563   1.919   6.580   3.943
 4888SOL    HW215564   1.964   6.452   4.034
 4889SOL     OW15565   0.520   1.459   0.258
 4889SOL    HW115566   0.619   1.463   0.275
 4889SOL    HW215567   0.490   1.364   0.260
 4890SOL     OW15568   0.284   1.381   4.341
 4890SOL    HW115569   0.256   1.395   4.436
 4890SOL    HW215570   0.362   1.440   4.320
 4891SOL     OW15571   1.185   5.703   0.079
 4891SOL    HW115572   1.090   5.675   0.089
 4891SOL    HW215573   1.191   5.802   0.066
 4892SOL     OW15574   2.166   5.863   2.420
 4892SOL    HW115575   2.138   5.888   2.513
 4892SOL    HW215576   2.123   5.776   2.395
 4893SOL     OW15577   6.813   4.383   6.744
 4893SOL    HW115578   6.888   4.425   6.694
 4893SOL    HW215579   6.812   4.285   6.727
 4894SOL     OW15580   2.711   0.131   2.602
 4894SOL    HW115581   2.720   0.036   2.633
 4894SOL    HW215582   2.710   0.192   2.682
 4895SOL     OW15583   0.887   4.344   1.360
 4895SOL    HW115584   0.980   4.377   1.345
 4895SOL    HW215585   0.842   4.331   1.272
 4896SOL     OW15586   2.759   5.202   2.574
 4896SOL    HW115587   2.848   5.225   2.614
 4896SOL    HW215588   2.731   5.275   2.511
 4897SOL     OW15589   3.102   5.186   6.186
 4897SOL    HW115590   3.021   5.127   6.190
 4897SOL    HW215591   3.179   5.139   6.230
 4898SOL     OW15592   5.636   2.339   5.143
 4898SOL    HW115593   5.733   2.333   5.163
 4898SOL    HW215594   5.619   2.304   5.050
 4899SOL     OW15595   6.818   4.869   2.861
 4899SOL    HW115596   6.751   4.848   2.790
 4899SOL    HW215597   6.886   4.934   2.826
 4900SOL     OW15598   1.482   6.485   5.849
 4900SOL    HW115599   1.552   6.479   5.778
 4900SOL    HW215600   1.483   6.403   5.905
 4901SOL     OW15601   2.553   6.560   4.804
 4901SOL    HW115602   2.549   6.494   4.879
 4901SOL    HW215603   2.475   6.544   4.742
 4902SOL     OW15604   2.333   2.794   3.886
 4902SOL    HW115605   2.318   2.803   3.787
 4902SOL    HW215606   2.391   2.715   3.903
 4903SOL     OW15607   3.590   6.225   0.533
 4903SOL    HW115608   3.519   6.295   0.529
 4903SOL    HW215609   3.675   6.265   0.566
 4904SOL     OW15610   2.237   6.836   4.034
 4904SOL    HW115611   2.180   6.912   4.067
 4904SOL    HW215612   2.296   6.869   3.961
 4905SOL     OW15613   4.104   2.268   2.364
 4905SOL    HW115614   4.064   2.346   2.413
 4905SOL    HW215615   4.045   2.243   2.287
 4906SOL     OW15616   3.473   0.476   0.182
 4906SOL    HW115617   3.468   0.527   0.095
 4906SOL    HW215618   3.421   0.525   0.252
 4907SOL     OW15619   4.304   6.379   2.376
 4907SOL    HW115620   4.298   6.292   2.425
 4907SOL    HW215621   4.213   6.419   2.368
 4908SOL     OW15622   3.942   5.396   0.095
 4908SOL    HW115623   3.943   5.396   7.023
 4908SOL    HW215624   3.987   5.479   0.128
 4909SOL     OW15625   6.016   0.569   6.503
 4909SOL    HW115626   5.952   0.493   6.516
 4909SOL    HW215627   6.105   0.533   6.474
 4910SOL     OW15628   5.535   6.816   5.262
 4910SOL    HW115629   5.571   6.828   5.170
 4910SOL    HW215630   5.555   6.898   5.316
 4911SOL     OW15631   6.974   2.202   5.551
 4911SOL    HW115632   6.979   2.251   5.638
 4911SOL    HW215633   6.890   2.148   5.548
 4912SOL     OW15634   5.123   1.548   1.513
 4912SOL    HW115635   5.103   1.505   1.425
 4912SOL    HW215636   5.198   1.499   1.558
 4913SOL     OW15637   3.872   3.534   3.958
 4913SOL    HW115638   3.903   3.489   3.874
 4913SOL    HW215639   3.934   3.610   3.980
 4914SOL     OW15640   3.015   0.654   4.817
 4914SOL    HW115641   3.044   0.748   4.799
 4914SOL    HW215642   3.028   0.634   4.914
 4915SOL     OW15643   4.418   0.120   4.276
 4915SOL    HW115644   4.450   0.197   4.221
 4915SOL    HW215645   4.490   0.091   4.339
 4916SOL     OW15646   2.510   1.491   2.916
 4916SOL    HW115647   2.599   1.445   2.918
 4916SOL    HW215648   2.522   1.583   2.879
 4917SOL     OW15649   1.698   3.848   0.754
 4917SOL    HW115650   1.644   3.845   0.670
 4917SOL    HW215651   1.701   3.757   0.795
 4918SOL     OW15652   3.319   0.043   2.907
 4918SOL    HW115653   3.406   0.079   2.939
 4918SOL    HW215654   3.253   0.118   2.898
 4919SOL     OW15655   2.155   2.165   2.918
 4919SOL    HW115656   2.230   2.144   2.981
 4919SOL    HW215657   2.070   2.173   2.970
 4920SOL     OW15658   4.636   0.223   0.116
 4920SOL    HW115659   4.696   0.145   0.094
 4920SOL    HW215660   4.547   0.210   0.072
 4921SOL     OW15661   2.511   4.321   1.435
 4921SOL    HW115662   2.558   4.235   1.412
 4921SOL    HW215663   2.413   4.306   1.433
 4922SOL     OW15664   0.916   3.421   5.060
 4922SOL    HW115665   0.827   3.455   5.030
 4922SOL    HW215666   0.987   3.453   4.997
 4923SOL     OW15667   4.825   0.646   1.559
 4923SOL    HW115668   4.748   0.708   1.577
 4923SOL    HW215669   4.813   0.563   1.614
 4924SOL     OW15670   2.068   3.272   5.136
 4924SOL    HW115671   2.134   3.258   5.210
 4924SOL    HW215672   2.075   3.197   5.070
 4925SOL     OW15673   5.855   6.096   0.791
 4925SOL    HW115674   5.855   6.016   0.732
 4925SOL    HW215675   5.835   6.178   0.737
 4926SOL     OW15676   4.923   2.597   1.576
 4926SOL    HW115677   4.953   2.504   1.553
 4926SOL    HW215678   4.843   2.592   1.636
 4927SOL     OW15679   3.947   3.333   3.294
 4927SOL    HW115680   3.870   3.395   3.291
 4927SOL    HW215681   3.999   3.348   3.379
 4928SOL     OW15682   0.134   0.123   6.487
 4928SOL    HW115683   0.206   0.179   6.447
 4928SOL    HW215684   0.165   0.028   6.493
 4929SOL     OW15685   0.901   4.183   4.908
 4929SOL    HW115686   0.943   4.192   4.998
 4929SOL    HW215687   0.883   4.273   4.869
 4930SOL     OW15688   0.321   0.472   0.711
 4930SOL    HW115689   0.336   0.453   0.808
 4930SOL    HW215690   0.327   0.571   0.695
 4931SOL     OW15691   0.917   6.738   0.045
 4931SOL    HW115692   0.858   6.780   0.114
 4931SOL    HW215693   0.945   6.647   0.076
 4932SOL     OW15694   1.981   3.322   1.911
 4932SOL    HW115695   2.049   3.394   1.924
 4932SOL    HW215696   2.018   3.234   1.941
 4933SOL     OW15697   1.932   0.586   4.156
 4933SOL    HW115698   1.970   0.665   4.204
 4933SOL    HW215699   1.976   0.502   4.189
 4934SOL     OW15700   1.157   4.924   4.213
 4934SOL    HW115701   1.218   5.002   4.198
 4934SOL    HW215702   1.197   4.864   4.282
 4935SOL     OW15703   2.266   0.568   0.015
 4935SOL    HW115704   2.186   0.627   0.024
 4935SOL    HW215705   2.349   0.623   0.018
 4936SOL     OW15706   2.153   6.286   2.205
 4936SOL    HW115707   2.191   6.378   2.206
 4936SOL    HW215708   2.074   6.282   2.267
 4937SOL     OW15709   0.884   4.012   5.793
 4937SOL    HW115710   0.885   3.969   5.884
 4937SOL    HW215711   0.977   4.041   5.770
 4938SOL     OW15712   3.455   4.906   1.800
 4938SOL    HW115713   3.527   4.873   1.861
 4938SOL    HW215714   3.369   4.915   1.851
 4939SOL     OW15715   0.850   2.367   2.525
 4939SOL    HW115716   0.753   2.386   2.511
 4939SOL    HW215717   0.905   2.434   2.475
 4940SOL     OW15718   0.069   1.611   5.429
 4940SOL    HW115719   0.076   1.705   5.463
 4940SOL    HW215720   0.157   1.583   5.390
 4941SOL     OW15721   3.977   2.715   5.338
 4941SOL    HW115722   4.030   2.796   5.314
 4941SOL    HW215723   4.006   2.638   5.280
 4942SOL     OW15724   5.166   3.358   4.006
 4942SOL    HW115725   5.217   3.435   3.968
 4942SOL    HW215726   5.223   3.310   4.072
 4943SOL     OW15727   5.535   3.898   6.464
 4943SOL    HW115728   5.626   3.900   6.423
 4943SOL    HW215729   5.529   3.969   6.535
 4944SOL     OW15730   2.394   4.467   1.190
 4944SOL    HW115731   2.430   4.446   1.281
 4944SOL    HW215732   2.303   4.507   1.199
 4945SOL     OW15733   1.447   0.983   4.512
 4945SOL    HW115734   1.360   0.990   4.463
 4945SOL    HW215735   1.521   1.018   4.454
 4946SOL     OW15736   1.001   5.234   0.266
 4946SOL    HW115737   1.073   5.292   0.304
 4946SOL    HW215738   0.960   5.180   0.340
 4947SOL     OW15739   2.592   1.394   2.290
 4947SOL    HW115740   2.587   1.480   2.341
 4947SOL    HW215741   2.666   1.337   2.328
 4948SOL     OW15742   1.610   2.464   3.183
 4948SOL    HW115743   1.531   2.483   3.243
 4948SOL    HW215744   1.597   2.375   3.139
 4949SOL     OW15745   0.114   3.844   5.942
 4949SOL    HW115746   0.144   3.937   5.963
 4949SOL    HW215747   0.120   3.788   6.025
 4950SOL     OW15748   2.036   4.005   5.445
 4950SOL    HW115749   1.942   4.037   5.432
 4950SOL    HW215750   2.083   4.064   5.510
 4951SOL     OW15751   6.181   6.619   4.526
 4951SOL    HW115752   6.251   6.629   4.455
 4951SOL    HW215753   6.223   6.636   4.616
 4952SOL     OW15754   6.950   0.042   6.143
 4952SOL    HW115755   6.963   0.105   6.220
 4952SOL    HW215756   0.010   0.005   6.115
 4953SOL     OW15757   2.487   0.414   3.933
 4953SOL    HW115758   2.499   0.462   4.020
 4953SOL    HW215759   2.480   0.481   3.859
 4954SOL     OW15760   2.091   3.807   6.553
 4954SOL    HW115761   2.098   3.782   6.457
 4954SOL    HW215762   2.102   3.906   6.563
 4955SOL     OW15763   3.668   6.065   6.838
 4955SOL    HW115764   3.651   6.015   6.754
 4955SOL    HW215765   3.754   6.032   6.879
 4956SOL     OW15766   2.493   0.333   5.658
 4956SOL    HW115767   2.533   0.352   5.567
 4956SOL    HW215768   2.475   0.235   5.667
 4957SOL     OW15769   5.745   3.411   0.605
 4957SOL    HW115770   5.665   3.423   0.547
 4957SOL    HW215771   5.827   3.408   0.548
 4958SOL     OW15772   2.001   6.114   5.949
 4958SOL    HW115773   1.975   6.047   5.880
 4958SOL    HW215774   1.927   6.126   6.015
 4959SOL     OW15775   6.635   1.355   1.384
 4959SOL    HW115776   6.577   1.273   1.386
 4959SOL    HW215777   6.579   1.436   1.403
 4960SOL     OW15778   4.529   4.499   3.810
 4960SOL    HW115779   4.509   4.445   3.728
 4960SOL    HW215780   4.464   4.475   3.882
 4961SOL     OW15781   2.756   0.719   6.162
 4961SOL    HW115782   2.733   0.661   6.084
 4961SOL    HW215783   2.854   0.736   6.162
 4962SOL     OW15784   5.737   2.804   1.036
 4962SOL    HW115785   5.701   2.867   0.968
 4962SOL    HW215786   5.665   2.782   1.102
 4963SOL     OW15787   1.770   5.169   1.367
 4963SOL    HW115788   1.767   5.102   1.293
 4963SOL    HW215789   1.865   5.183   1.395
 4964SOL     OW15790   2.258   0.079   4.872
 4964SOL    HW115791   2.231   0.010   4.939
 4964SOL    HW215792   2.219   0.168   4.899
 4965SOL     OW15793   0.829   6.726   2.482
 4965SOL    HW115794   0.912   6.725   2.425
 4965SOL    HW215795   0.813   6.818   2.517
 4966SOL     OW15796   2.285   6.509   4.648
 4966SOL    HW115797   2.309   6.436   4.712
 4966SOL    HW215798   2.186   6.522   4.649
 4967SOL     OW15799   3.005   5.392   6.345
 4967SOL    HW115800   3.075   5.424   6.409
 4967SOL    HW215801   3.049   5.347   6.267
 4968SOL     OW15802   6.930   1.288   3.595
 4968SOL    HW115803   6.835   1.269   3.568
 4968SOL    HW215804   6.934   1.376   3.641
 4969SOL     OW15805   0.590   5.832   2.730
 4969SOL    HW115806   0.534   5.787   2.799
 4969SOL    HW215807   0.665   5.881   2.775
 4970SOL     OW15808   2.499   1.141   1.285
 4970SOL    HW115809   2.587   1.166   1.246
 4970SOL    HW215810   2.430   1.139   1.213
 4971SOL     OW15811   6.262   5.764   3.096
 4971SOL    HW115812   6.178   5.710   3.110
 4971SOL    HW215813   6.268   5.835   3.165
 4972SOL     OW15814   0.971   4.105   0.506
 4972SOL    HW115815   1.051   4.095   0.565
 4972SOL    HW215816   0.910   4.174   0.544
 4973SOL     OW15817   0.517   0.318   1.543
 4973SOL    HW115818   0.528   0.219   1.540
 4973SOL    HW215819   0.423   0.340   1.570
 4974SOL     OW15820   6.049   4.859   0.870
 4974SOL    HW115821   5.967   4.858   0.927
 4974SOL    HW215822   6.067   4.767   0.835
 4975SOL     OW15823   5.478   3.955   0.240
 4975SOL    HW115824   5.536   4.009   0.301
 4975SOL    HW215825   5.505   3.859   0.245
 4976SOL     OW15826   0.991   0.875   4.825
 4976SOL    HW115827   1.072   0.854   4.879
 4976SOL    HW215828   0.970   0.798   4.765
 4977SOL     OW15829   3.619   5.160   6.894
 4977SOL    HW115830   3.702   5.106   6.905
 4977SOL    HW215831   3.539   5.104   6.915
 4978SOL     OW15832   5.777   4.879   4.441
 4978SOL    HW115833   5.795   4.945   4.369
 4978SOL    HW215834   5.728   4.801   4.403
 4979SOL     OW15835   0.021   6.728   6.489
 4979SOL    HW115836   0.065   6.662   6.428
 4979SOL    HW215837   6.951   6.730   6.470
 4980SOL     OW15838   5.298   5.146   2.712
 4980SOL    HW115839   5.283   5.156   2.614
 4980SOL    HW215840   5.292   5.049   2.737
 4981SOL     OW15841   3.646   5.665   2.111
 4981SOL    HW115842   3.686   5.587   2.062
 4981SOL    HW215843   3.720   5.724   2.144
 4982SOL     OW15844   3.032   2.425   5.737
 4982SOL    HW115845   3.110   2.469   5.693
 4982SOL    HW215846   2.958   2.416   5.670
 4983SOL     OW15847   5.651   4.632   4.372
 4983SOL    HW115848   5.644   4.533   4.363
 4983SOL    HW215849   5.604   4.661   4.455
 4984SOL     OW15850   4.753   4.139   2.797
 4984SOL    HW115851   4.737   4.221   2.852
 4984SOL    HW215852   4.697   4.142   2.714
 4985SOL     OW15853   5.519   6.130   3.123
 4985SOL    HW115854   5.491   6.137   3.218
 4985SOL    HW215855   5.611   6.168   3.112
 4986SOL     OW15856   6.359   4.978   0.365
 4986SOL    HW115857   6.362   4.885   0.402
 4986SOL    HW215858   6.419   4.984   0.285
 4987SOL     OW15859   1.513   6.545   2.382
 4987SOL    HW115860   1.550   6.566   2.291
 4987SOL    HW215861   1.531   6.622   2.443
 4988SOL     OW15862   6.214   0.748   3.295
 4988SOL    HW115863   6.259   0.728   3.208
 4988SOL    HW215864   6.284   0.764   3.365
 4989SOL     OW15865   5.198   0.018   1.763
 4989SOL    HW115866   5.225   0.033   1.668
 4989SOL    HW215867   5.146   0.098   1.796
 4990SOL     OW15868   3.498   2.244   6.731
 4990SOL    HW115869   3.434   2.315   6.760
 4990SOL    HW215870   3.587   2.285   6.714
 4991SOL     OW15871   6.696   5.084   3.568
 4991SOL    HW115872   6.671   5.003   3.515
 4991SOL    HW215873   6.774   5.129   3.524
 4992SOL     OW15874   5.692   0.652   2.321
 4992SOL    HW115875   5.668   0.729   2.263
 4992SOL    HW215876   5.741   0.684   2.402
 4993SOL     OW15877   4.061   6.119   5.087
 4993SOL    HW115878   4.007   6.150   5.166
 4993SOL    HW215879   4.070   6.019   5.089
 4994SOL     OW15880   2.571   5.812   4.715
 4994SOL    HW115881   2.527   5.723   4.710
 4994SOL    HW215882   2.670   5.800   4.717
 4995SOL     OW15883   1.103   0.866   5.433
 4995SOL    HW115884   1.165   0.807   5.485
 4995SOL    HW215885   1.154   0.946   5.400
 4996SOL     OW15886   6.859   0.740   3.303
 4996SOL    HW115887   6.817   0.816   3.253
 4996SOL    HW215888   6.907   0.680   3.239
 4997SOL     OW15889   4.265   2.465   1.519
 4997SOL    HW115890   4.205   2.408   1.575
 4997SOL    HW215891   4.307   2.410   1.447
 4998SOL     OW15892   2.150   3.711   4.350
 4998SOL    HW115893   2.127   3.809   4.348
 4998SOL    HW215894   2.118   3.672   4.436
 4999SOL     OW15895   6.987   3.305   4.250
 4999SOL    HW115896   6.955   3.210   4.248
 4999SOL    HW215897   6.987   3.342   4.157
 5000SOL     OW15898   3.376   0.035   3.227
 5000SOL    HW115899   3.472   0.061   3.211
 5000SOL    HW215900   3.372   6.969   3.257
 5001SOL     OW15901   1.072   5.895   2.128
 5001SOL    HW115902   1.078   5.816   2.188
 5001SOL    HW215903   1.108   5.871   2.038
 5002SOL     OW15904   0.283   5.298   1.989
 5002SOL    HW115905   0.371   5.276   1.946
 5002SOL    HW215906   0.269   5.240   2.069
 5003SOL     OW15907   4.189   6.128   3.115
 5003SOL    HW115908   4.102   6.091   3.083
 5003SOL    HW215909   4.199   6.110   3.212
 5004SOL     OW15910   2.282   4.284   5.896
 5004SOL    HW115911   2.328   4.241   5.818
 5004SOL    HW215912   2.332   4.367   5.921
 5005SOL     OW15913   2.873   2.843   6.126
 5005SOL    HW115914   2.918   2.928   6.153
 5005SOL    HW215915   2.849   2.791   6.208
 5006SOL     OW15916   5.638   0.609   1.586
 5006SOL    HW115917   5.546   0.601   1.625
 5006SOL    HW215918   5.704   0.566   1.647
 5007SOL     OW15919   0.069   0.266   1.094
 5007SOL    HW115920   0.140   0.334   1.104
 5007SOL    HW215921   0.002   0.297   1.027
 5008SOL     OW15922   5.684   5.710   1.534
 5008SOL    HW115923   5.692   5.704   1.634
 5008SOL    HW215924   5.720   5.626   1.493
 5009SOL     OW15925   0.034   2.095   0.132
 5009SOL    HW115926   0.127   2.094   0.094
 5009SOL    HW215927   0.025   2.023   0.201
 5010SOL     OW15928   4.163   2.827   0.923
 5010SOL    HW115929   4.195   2.773   1.001
 5010SOL    HW215930   4.178   2.775   0.839
 5011SOL     OW15931   1.745   4.525   1.817
 5011SOL    HW115932   1.680   4.592   1.852
 5011SOL    HW215933   1.787   4.476   1.894
 5012SOL     OW15934   5.901   2.396   5.189
 5012SOL    HW115935   5.915   2.471   5.124
 5012SOL    HW215936   5.924   2.309   5.145
 5013SOL     OW15937   5.481   1.370   6.381
 5013SOL    HW115938   5.522   1.434   6.317
 5013SOL    HW215939   5.522   1.279   6.369
 5014SOL     OW15940   6.458   4.137   0.401
 5014SOL    HW115941   6.441   4.085   0.484
 5014SOL    HW215942   6.468   4.234   0.423
 5015SOL     OW15943   4.803   0.595   4.573
 5015SOL    HW115944   4.714   0.558   4.597
 5015SOL    HW215945   4.806   0.693   4.595
 5016SOL     OW15946   1.192   3.069   5.134
 5016SOL    HW115947   1.239   3.151   5.100
 5016SOL    HW215948   1.258   2.995   5.143
 5017SOL     OW15949   1.308   2.775   1.340
 5017SOL    HW115950   1.329   2.844   1.410
 5017SOL    HW215951   1.392   2.728   1.314
 5018SOL     OW15952   1.163   5.219   2.774
 5018SOL    HW115953   1.179   5.120   2.775
 5018SOL    HW215954   1.249   5.267   2.757
 5019SOL     OW15955   2.251   6.219   5.928
 5019SOL    HW115956   2.293   6.154   5.865
 5019SOL    HW215957   2.154   6.199   5.937
 5020SOL     OW15958   6.606   6.988   6.416
 5020SOL    HW115959   6.640   0.035   6.360
 5020SOL    HW215960   6.554   6.925   6.358
 5021SOL     OW15961   1.234   1.509   0.993
 5021SOL    HW115962   1.182   1.530   1.075
 5021SOL    HW215963   1.173   1.507   0.913
 5022SOL     OW15964   1.678   2.705   1.501
 5022SOL    HW115965   1.632   2.777   1.553
 5022SOL    HW215966   1.777   2.724   1.499
 5023SOL     OW15967   0.575   4.003   1.902
 5023SOL    HW115968   0.602   3.911   1.875
 5023SOL    HW215969   0.650   4.067   1.887
 5024SOL     OW15970   6.051   5.663   1.304
 5024SOL    HW115971   6.053   5.619   1.214
 5024SOL    HW215972   6.064   5.762   1.293
 5025SOL     OW15973   4.224   2.215   3.983
 5025SOL    HW115974   4.268   2.142   3.931
 5025SOL    HW215975   4.252   2.209   4.079
 5026SOL     OW15976   6.931   5.635   5.521
 5026SOL    HW115977   6.925   5.571   5.598
 5026SOL    HW215978   6.850   5.625   5.464
 5027SOL     OW15979   5.823   6.615   1.149
 5027SOL    HW115980   5.875   6.534   1.122
 5027SOL    HW215981   5.745   6.588   1.205
 5028SOL     OW15982   6.961   1.294   3.026
 5028SOL    HW115983   6.918   1.341   3.103
 5028SOL    HW215984   6.976   1.198   3.050
 5029SOL     OW15985   6.158   2.186   2.645
 5029SOL    HW115986   6.073   2.177   2.697
 5029SOL    HW215987   6.183   2.283   2.641
 5030SOL     OW15988   6.899   6.267   6.988
 5030SOL    HW115989   6.961   6.251   0.036
 5030SOL    HW215990   6.883   6.365   6.978
 5031SOL     OW15991   6.945   1.197   6.223
 5031SOL    HW115992   6.932   1.208   6.322
 5031SOL    HW215993   6.859   1.166   6.182
 5032SOL     OW15994   2.779   1.609   6.223
 5032SOL    HW115995   2.850   1.599   6.153
 5032SOL    HW215996   2.753   1.705   6.231
 5033SOL     OW15997   2.117   0.136   6.630
 5033SOL    HW115998   2.087   0.158   6.723
 5033SOL    HW215999   2.178   0.208   6.597
 5034SOL     OW16000   6.460   0.112   3.620
 5034SOL    HW116001   6.381   0.154   3.666
 5034SOL    HW216002   6.527   0.084   3.688
 5035SOL     OW16003   0.023   3.939   5.423
 5035SOL    HW116004   0.078   3.886   5.488
 5035SOL    HW216005   7.011   3.877   5.356
 5036SOL     OW16006   0.310   5.041   0.029
 5036SOL    HW116007   0.237   5.084   7.006
 5036SOL    HW216008   0.272   4.966   0.083
 5037SOL     OW16009   5.294   4.506   1.852
 5037SOL    HW116010   5.301   4.418   1.899
 5037SOL    HW216011   5.383   4.551   1.852
 5038SOL     OW16012   3.272   3.053   5.376
 5038SOL    HW116013   3.273   3.095   5.467
 5038SOL    HW216014   3.365   3.029   5.349
 5039SOL     OW16015   2.164   3.279   5.650
 5039SOL    HW116016   2.247   3.266   5.597
 5039SOL    HW216017   2.135   3.375   5.645
 5040SOL     OW16018   1.168   6.491   6.237
 5040SOL    HW116019   1.113   6.415   6.273
 5040SOL    HW216020   1.145   6.505   6.141
 5041SOL     OW16021   1.433   1.953   1.902
 5041SOL    HW116022   1.444   2.016   1.979
 5041SOL    HW216023   1.403   1.864   1.935
 5042SOL     OW16024   6.164   3.478   0.690
 5042SOL    HW116025   6.106   3.490   0.610
 5042SOL    HW216026   6.175   3.381   0.709
 5043SOL     OW16027   3.849   0.125   0.079
 5043SOL    HW116028   3.792   0.043   0.089
 5043SOL    HW216029   3.794   0.199   0.040
 5044SOL     OW16030   0.339   6.466   0.875
 5044SOL    HW116031   0.287   6.440   0.956
 5044SOL    HW216032   0.294   6.431   0.793
 5045SOL     OW16033   5.784   6.311   6.517
 5045SOL    HW116034   5.759   6.370   6.441
 5045SOL    HW216035   5.855   6.247   6.487
 5046SOL     OW16036   3.415   4.035   2.743
 5046SOL    HW116037   3.337   4.015   2.802
 5046SOL    HW216038   3.384   4.089   2.664
 5047SOL     OW16039   1.269   3.876   2.531
 5047SOL    HW116040   1.278   3.849   2.435
 5047SOL    HW216041   1.227   3.802   2.583
 5048SOL     OW16042   0.737   1.028   2.862
 5048SOL    HW116043   0.740   0.964   2.939
 5048SOL    HW216044   0.797   0.994   2.789
 5049SOL     OW16045   4.938   2.229   6.828
 5049SOL    HW116046   4.980   2.291   6.894
 5049SOL    HW216047   5.005   2.160   6.799
 5050SOL     OW16048   1.702   0.288   1.122
 5050SOL    HW116049   1.690   0.206   1.065
 5050SOL    HW216050   1.779   0.273   1.184
 5051SOL     OW16051   4.652   4.108   1.352
 5051SOL    HW116052   4.556   4.079   1.344
 5051SOL    HW216053   4.687   4.132   1.261
 5052SOL     OW16054   2.475   1.322   5.720
 5052SOL    HW116055   2.401   1.325   5.654
 5052SOL    HW216056   2.550   1.266   5.683
 5053SOL     OW16057   1.437   4.071   3.499
 5053SOL    HW116058   1.373   4.115   3.562
 5053SOL    HW216059   1.496   4.008   3.549
 5054SOL     OW16060   3.074   5.167   3.937
 5054SOL    HW116061   3.095   5.072   3.912
 5054SOL    HW216062   3.076   5.176   4.036
 5055SOL     OW16063   1.062   2.148   5.892
 5055SOL    HW116064   1.019   2.109   5.973
 5055SOL    HW216065   1.116   2.078   5.845
 5056SOL     OW16066   5.747   4.178   6.796
 5056SOL    HW116067   5.727   4.247   6.726
 5056SOL    HW216068   5.666   4.164   6.853
 5057SOL     OW16069   0.828   6.859   3.322
 5057SOL    HW116070   0.798   6.924   3.392
 5057SOL    HW216071   0.830   6.767   3.361
 5058SOL     OW16072   3.238   4.074   5.281
 5058SOL    HW116073   3.326   4.050   5.321
 5058SOL    HW216074   3.165   4.035   5.337
 5059SOL     OW16075   6.632   0.723   3.111
 5059SOL    HW116076   6.628   0.662   3.191
 5059SOL    HW216077   6.653   0.816   3.141
 5060SOL     OW16078   0.586   1.993   6.315
 5060SOL    HW116079   0.490   1.968   6.321
 5060SOL    HW216080   0.594   2.092   6.300
 5061SOL     OW16081   4.686   2.886   0.677
 5061SOL    HW116082   4.594   2.897   0.714
 5061SOL    HW216083   4.748   2.859   0.751
 5062SOL     OW16084   6.052   6.968   3.402
 5062SOL    HW116085   6.147   6.943   3.386
 5062SOL    HW216086   5.992   6.915   3.342
 5063SOL     OW16087   0.921   0.107   2.318
 5063SOL    HW116088   0.982   0.031   2.295
 5063SOL    HW216089   0.970   0.194   2.304
 5064SOL     OW16090   5.322   3.762   0.609
 5064SOL    HW116091   5.288   3.812   0.689
 5064SOL    HW216092   5.317   3.821   0.529
 5065SOL     OW16093   2.603   0.395   5.416
 5065SOL    HW116094   2.681   0.336   5.396
 5065SOL    HW216095   2.635   0.484   5.446
 5066SOL     OW16096   5.210   4.553   2.183
 5066SOL    HW116097   5.121   4.527   2.146
 5066SOL    HW216098   5.269   4.584   2.109
 5067SOL     OW16099   4.715   1.189   1.896
 5067SOL    HW116100   4.636   1.205   1.837
 5067SOL    HW216101   4.686   1.179   1.991
 5068SOL     OW16102   2.952   4.328   0.858
 5068SOL    HW116103   2.933   4.426   0.869
 5068SOL    HW216104   2.866   4.279   0.844
 5069SOL     OW16105   1.567   3.638   4.592
 5069SOL    HW116106   1.556   3.737   4.582
 5069SOL    HW216107   1.598   3.599   4.505
 5070SOL     OW16108   5.084   3.935   4.241
 5070SOL    HW116109   4.993   3.898   4.221
 5070SOL    HW216110   5.129   3.878   4.310
 5071SOL     OW16111   4.826   1.956   4.731
 5071SOL    HW116112   4.896   1.946   4.802
 5071SOL    HW216113   4.738   1.975   4.774
 5072SOL     OW16114   0.933   6.284   0.520
 5072SOL    HW116115   0.836   6.296   0.541
 5072SOL    HW216116   0.943   6.224   0.440
 5073SOL     OW16117   0.169   6.559   2.498
 5073SOL    HW116118   0.190   6.605   2.584
 5073SOL    HW216119   0.249   6.508   2.467
 5074SOL     OW16120   3.360   3.491   7.021
 5074SOL    HW116121   3.412   3.461   6.940
 5074SOL    HW216122   3.396   3.446   0.073
 5075SOL     OW16123   0.976   1.557   6.654
 5075SOL    HW116124   0.945   1.475   6.703
 5075SOL    HW216125   0.973   1.636   6.716
 5076SOL     OW16126   3.749   0.633   1.041
 5076SOL    HW116127   3.683   0.707   1.056
 5076SOL    HW216128   3.735   0.595   0.950
 5077SOL     OW16129   0.213   3.212   5.121
 5077SOL    HW116130   0.297   3.194   5.069
 5077SOL    HW216131   0.134   3.209   5.060
 5078SOL     OW16132   1.074   1.874   3.360
 5078SOL    HW116133   1.095   1.968   3.384
 5078SOL    HW216134   0.984   1.869   3.317
 5079SOL     OW16135   2.401   4.545   5.699
 5079SOL    HW116136   2.420   4.604   5.620
 5079SOL    HW216137   2.382   4.602   5.779
 5080SOL     OW16138   6.277   6.186   6.101
 5080SOL    HW116139   6.238   6.094   6.108
 5080SOL    HW216140   6.373   6.184   6.127
 5081SOL     OW16141   4.046   3.209   4.756
 5081SOL    HW116142   4.143   3.184   4.764
 5081SOL    HW216143   4.009   3.173   4.671
 5082SOL     OW16144   5.793   5.324   5.760
 5082SOL    HW116145   5.875   5.267   5.759
 5082SOL    HW216146   5.733   5.295   5.834
 5083SOL     OW16147   2.584   6.957   3.012
 5083SOL    HW116148   2.650   7.026   2.980
 5083SOL    HW216149   2.624   6.866   3.003
 5084SOL     OW16150   1.014   4.994   4.463
 5084SOL    HW116151   1.039   4.984   4.366
 5084SOL    HW216152   1.041   5.085   4.495
 5085SOL     OW16153   5.313   3.127   6.834
 5085SOL    HW116154   5.227   3.075   6.829
 5085SOL    HW216155   5.293   3.220   6.864
 5086SOL     OW16156   6.985   5.979   3.402
 5086SOL    HW116157   7.005   6.002   3.307
 5086SOL    HW216158   0.036   5.999   3.459
 5087SOL     OW16159   6.924   5.707   3.528
 5087SOL    HW116160   6.832   5.672   3.547
 5087SOL    HW216161   6.918   5.783   3.464
 5088SOL     OW16162   5.388   1.457   5.349
 5088SOL    HW116163   5.433   1.458   5.438
 5088SOL    HW216164   5.313   1.391   5.350
 5089SOL     OW16165   5.298   2.747   3.271
 5089SOL    HW116166   5.304   2.802   3.355
 5089SOL    HW216167   5.203   2.719   3.257
 5090SOL     OW16168   2.025   3.462   3.191
 5090SOL    HW116169   2.062   3.553   3.169
 5090SOL    HW216170   1.940   3.473   3.242
 5091SOL     OW16171   2.003   6.300   2.580
 5091SOL    HW116172   1.959   6.297   2.491
 5091SOL    HW216173   1.943   6.257   2.648
 5092SOL     OW16174   2.929   3.082   1.309
 5092SOL    HW116175   2.962   3.155   1.369
 5092SOL    HW216176   2.908   3.001   1.362
 5093SOL     OW16177   3.226   1.615   1.385
 5093SOL    HW116178   3.292   1.540   1.392
 5093SOL    HW216179   3.173   1.605   1.301
 5094SOL     OW16180   1.181   6.360   4.685
 5094SOL    HW116181   1.241   6.310   4.748
 5094SOL    HW216182   1.112   6.409   4.738
 5095SOL     OW16183   0.266   2.068   4.465
 5095SOL    HW116184   0.306   2.049   4.555
 5095SOL    HW216185   0.330   2.123   4.412
 5096SOL     OW16186   4.257   3.738   0.674
 5096SOL    HW116187   4.243   3.836   0.663
 5096SOL    HW216188   4.191   3.688   0.617
 5097SOL     OW16189   1.829   0.153   0.197
 5097SOL    HW116190   1.898   0.085   0.173
 5097SOL    HW216191   1.741   0.108   0.215
 5098SOL     OW16192   1.202   0.768   1.009
 5098SOL    HW116193   1.233   0.688   0.958
 5098SOL    HW216194   1.110   0.752   1.044
 5099SOL     OW16195   0.374   0.029   6.015
 5099SOL    HW116196   0.324   0.062   5.935
 5099SOL    HW216197   0.404   6.964   6.000
 5100SOL     OW16198   4.370   6.719   5.327
 5100SOL    HW116199   4.295   6.660   5.359
 5100SOL    HW216200   4.454   6.665   5.321
 5101SOL     OW16201   4.793   6.896   0.311
 5101SOL    HW116202   4.775   6.806   0.350
 5101SOL    HW216203   4.714   6.927   0.258
 5102SOL     OW16204   5.544   0.532   5.641
 5102SOL    HW116205   5.528   0.569   5.733
 5102SOL    HW216206   5.621   0.469   5.643
 5103SOL     OW16207   0.682   1.093   3.955
 5103SOL    HW116208   0.705   1.117   3.860
 5103SOL    HW216209   0.616   1.018   3.955
 5104SOL     OW16210   2.554   6.441   2.334
 5104SOL    HW116211   2.539   6.387   2.251
 5104SOL    HW216212   2.479   6.506   2.346
 5105SOL     OW16213   4.163   3.370   0.193
 5105SOL    HW116214   4.177   3.449   0.252
 5105SOL    HW216215   4.098   3.307   0.237
 5106SOL     OW16216   3.591   0.237   1.384
 5106SOL    HW116217   3.534   0.261   1.463
 5106SOL    HW216218   3.614   0.320   1.333
 5107SOL     OW16219   4.090   0.974   0.448
 5107SOL    HW116220   4.092   1.047   0.517
 5107SOL    HW216221   4.183   0.954   0.417
 5108SOL     OW16222   2.892   3.496   3.778
 5108SOL    HW116223   2.923   3.418   3.724
 5108SOL    HW216224   2.857   3.568   3.718
 5109SOL     OW16225   0.998   1.257   0.939
 5109SOL    HW116226   0.987   1.319   1.017
 5109SOL    HW216227   1.044   1.306   0.865
 5110SOL     OW16228   0.592   0.034   6.528
 5110SOL    HW116229   0.575   0.090   6.610
 5110SOL    HW216230   0.634   0.090   6.457
 5111SOL     OW16231   0.645   0.784   6.030
 5111SOL    HW116232   0.695   0.807   6.113
 5111SOL    HW216233   0.552   0.821   6.037
 5112SOL     OW16234   0.414   0.464   2.393
 5112SOL    HW116235   0.330   0.445   2.444
 5112SOL    HW216236   0.399   0.543   2.333
 5113SOL     OW16237   1.868   6.755   1.796
 5113SOL    HW116238   1.929   6.829   1.768
 5113SOL    HW216239   1.836   6.706   1.714
 5114SOL     OW16240   3.825   2.968   0.419
 5114SOL    HW116241   3.844   2.902   0.345
 5114SOL    HW216242   3.784   2.920   0.496
 5115SOL     OW16243   2.331   4.628   5.259
 5115SOL    HW116244   2.269   4.626   5.181
 5115SOL    HW216245   2.366   4.536   5.277
 5116SOL     OW16246   5.743   6.474   6.283
 5116SOL    HW116247   5.670   6.407   6.271
 5116SOL    HW216248   5.831   6.431   6.266
 5117SOL     OW16249   1.720   4.875   4.320
 5117SOL    HW116250   1.780   4.929   4.261
 5117SOL    HW216251   1.659   4.937   4.370
 5118SOL     OW16252   4.654   6.328   0.794
 5118SOL    HW116253   4.672   6.236   0.830
 5118SOL    HW216254   4.729   6.389   0.820
 5119SOL     OW16255   4.993   0.338   1.592
 5119SOL    HW116256   5.064   0.403   1.563
 5119SOL    HW216257   5.008   0.250   1.546
 5120SOL     OW16258   5.328   1.130   3.564
 5120SOL    HW116259   5.356   1.064   3.634
 5120SOL    HW216260   5.391   1.207   3.564
 5121SOL     OW16261   2.352   2.560   0.055
 5121SOL    HW116262   2.296   2.643   0.052
 5121SOL    HW216263   2.294   2.481   0.072
 5122SOL     OW16264   3.302   0.753   4.179
 5122SOL    HW116265   3.337   0.674   4.128
 5122SOL    HW216266   3.361   0.832   4.162
 5123SOL     OW16267   6.023   3.468   4.833
 5123SOL    HW116268   6.079   3.502   4.758
 5123SOL    HW216269   5.928   3.460   4.803
 5124SOL     OW16270   2.541   5.368   6.023
 5124SOL    HW116271   2.571   5.303   5.953
 5124SOL    HW216272   2.616   5.386   6.086
 5125SOL     OW16273   6.329   3.155   4.548
 5125SOL    HW116274   6.314   3.057   4.558
 5125SOL    HW216275   6.317   3.200   4.636
 5126SOL     OW16276   6.342   4.816   6.136
 5126SOL    HW116277   6.432   4.839   6.101
 5126SOL    HW216278   6.302   4.896   6.182
 5127SOL     OW16279   6.415   3.944   0.221
 5127SOL    HW116280   6.427   4.023   0.280
 5127SOL    HW216281   6.393   3.974   0.129
 5128SOL     OW16282   0.656   0.105   0.351
 5128SOL    HW116283   0.608   0.190   0.370
 5128SOL    HW216284   0.626   0.068   0.263
 5129SOL     OW16285   4.761   0.543   2.264
 5129SOL    HW116286   4.848   0.566   2.308
 5129SOL    HW216287   4.708   0.626   2.249
 5130SOL     OW16288   1.687   5.855   4.281
 5130SOL    HW116289   1.669   5.950   4.309
 5130SOL    HW216290   1.779   5.829   4.309
 5131SOL     OW16291   2.985   4.882   3.416
 5131SOL    HW116292   2.923   4.829   3.475
 5131SOL    HW216293   2.935   4.913   3.336
 5132SOL     OW16294   3.189   1.483   5.946
 5132SOL    HW116295   3.260   1.554   5.942
 5132SOL    HW216296   3.147   1.473   5.856
 5133SOL     OW16297   3.008   5.707   6.166
 5133SOL    HW116298   2.934   5.669   6.222
 5133SOL    HW216299   3.082   5.739   6.225
 5134SOL     OW16300   6.837   0.138   2.372
 5134SOL    HW116301   6.739   0.132   2.353
 5134SOL    HW216302   6.856   0.101   2.463
 5135SOL     OW16303   6.269   4.120   3.518
 5135SOL    HW116304   6.188   4.174   3.537
 5135SOL    HW216305   6.250   4.024   3.537
 5136SOL     OW16306   6.119   1.087   5.902
 5136SOL    HW116307   6.102   1.106   5.805
 5136SOL    HW216308   6.202   1.032   5.911
 5137SOL     OW16309   5.104   3.311   5.416
 5137SOL    HW116310   5.032   3.341   5.353
 5137SOL    HW216311   5.187   3.363   5.399
 5138SOL     OW16312   3.950   3.894   3.828
 5138SOL    HW116313   3.892   3.966   3.867
 5138SOL    HW216314   3.944   3.898   3.728
 5139SOL     OW16315   1.194   6.792   4.522
 5139SOL    HW116316   1.228   6.880   4.491
 5139SOL    HW216317   1.227   6.774   4.615
 5140SOL     OW16318   3.144   2.148   5.717
 5140SOL    HW116319   3.123   2.243   5.742
 5140SOL    HW216320   3.153   2.141   5.618
 5141SOL     OW16321   6.559   3.233   1.344
 5141SOL    HW116322   6.599   3.222   1.253
 5141SOL    HW216323   6.484   3.300   1.339
 5142SOL     OW16324   5.963   6.795   5.405
 5142SOL    HW116325   5.884   6.736   5.388
 5142SOL    HW216326   5.931   6.887   5.429
 5143SOL     OW16327   0.858   4.099   5.276
 5143SOL    HW116328   0.796   4.055   5.211
 5143SOL    HW216329   0.920   4.160   5.227
 5144SOL     OW16330   1.647   3.657   6.302
 5144SOL    HW116331   1.560   3.655   6.252
 5144SOL    HW216332   1.660   3.747   6.343
 5145SOL     OW16333   4.216   6.442   6.833
 5145SOL    HW116334   4.233   6.520   6.893
 5145SOL    HW216335   4.132   6.395   6.861
 5146SOL     OW16336   3.547   4.245   5.062
 5146SOL    HW116337   3.540   4.342   5.039
 5146SOL    HW216338   3.635   4.227   5.106
 5147SOL     OW16339   6.032   5.112   3.521
 5147SOL    HW116340   6.085   5.167   3.457
 5147SOL    HW216341   5.945   5.085   3.478
 5148SOL     OW16342   0.642   0.541   2.200
 5148SOL    HW116343   0.647   0.593   2.285
 5148SOL    HW216344   0.554   0.559   2.155
 5149SOL     OW16345   5.809   5.090   4.235
 5149SOL    HW116346   5.905   5.082   4.211
 5149SOL    HW216347   5.787   5.186   4.255
 5150SOL     OW16348   2.329   4.386   3.872
 5150SOL    HW116349   2.260   4.459   3.879
 5150SOL    HW216350   2.362   4.381   3.778
 5151SOL     OW16351   5.952   3.630   1.498
 5151SOL    HW116352   5.884   3.639   1.425
 5151SOL    HW216353   5.917   3.674   1.581
 5152SOL     OW16354   1.034   6.044   6.439
 5152SOL    HW116355   1.094   5.992   6.378
 5152SOL    HW216356   1.017   6.135   6.401
 5153SOL     OW16357   1.101   1.885   0.841
 5153SOL    HW116358   1.106   1.979   0.875
 5153SOL    HW216359   1.044   1.883   0.759
 5154SOL     OW16360   1.532   3.201   6.694
 5154SOL    HW116361   1.466   3.268   6.728
 5154SOL    HW216362   1.530   3.200   6.594
 5155SOL     OW16363   3.892   1.185   0.952
 5155SOL    HW116364   3.890   1.123   0.874
 5155SOL    HW216365   3.856   1.138   1.033
 5156SOL     OW16366   5.518   4.741   4.572
 5156SOL    HW116367   5.556   4.773   4.659
 5156SOL    HW216368   5.475   4.818   4.524
 5157SOL     OW16369   3.281   2.049   2.353
 5157SOL    HW116370   3.238   2.090   2.273
 5157SOL    HW216371   3.273   1.949   2.348
 5158SOL     OW16372   3.033   2.140   0.735
 5158SOL    HW116373   3.092   2.190   0.799
 5158SOL    HW216374   2.941   2.134   0.773
 5159SOL     OW16375   6.338   4.258   6.521
 5159SOL    HW116376   6.421   4.216   6.483
 5159SOL    HW216377   6.277   4.187   6.555
 5160SOL     OW16378   6.473   5.809   3.581
 5160SOL    HW116379   6.438   5.889   3.628
 5160SOL    HW216380   6.549   5.769   3.634
 5161SOL     OW16381   0.919   3.224   0.185
 5161SOL    HW116382   0.912   3.321   0.204
 5161SOL    HW216383   0.828   3.185   0.172
 5162SOL     OW16384   0.689   5.926   2.487
 5162SOL    HW116385   0.648   5.910   2.577
 5162SOL    HW216386   0.713   6.023   2.478
 5163SOL     OW16387   3.445   0.004   0.634
 5163SOL    HW116388   3.385   0.023   0.557
 5163SOL    HW216389   3.485   0.090   0.668
 5164SOL     OW16390   2.779   3.360   6.625
 5164SOL    HW116391   2.809   3.433   6.687
 5164SOL    HW216392   2.684   3.377   6.598
 5165SOL     OW16393   1.056   4.212   6.519
 5165SOL    HW116394   1.072   4.275   6.595
 5165SOL    HW216395   1.104   4.126   6.536
 5166SOL     OW16396   1.791   4.897   2.892
 5166SOL    HW116397   1.853   4.848   2.954
 5166SOL    HW216398   1.757   4.833   2.822
 5167SOL     OW16399   6.453   4.478   4.926
 5167SOL    HW116400   6.429   4.571   4.896
 5167SOL    HW216401   6.425   4.465   5.021
 5168SOL     OW16402   4.932   2.134   2.968
 5168SOL    HW116403   4.873   2.069   2.920
 5168SOL    HW216404   4.926   2.118   3.066
 5169SOL     OW16405   4.705   2.055   3.524
 5169SOL    HW116406   4.739   2.112   3.450
 5169SOL    HW216407   4.782   2.018   3.576
 5170SOL     OW16408   1.115   3.601   5.319
 5170SOL    HW116409   1.043   3.546   5.276
 5170SOL    HW216410   1.130   3.569   5.412
 5171SOL     OW16411   0.250   4.707   5.052
 5171SOL    HW116412   0.216   4.616   5.027
 5171SOL    HW216413   0.343   4.698   5.089
 5172SOL     OW16414   1.531   4.902   3.087
 5172SOL    HW116415   1.539   4.873   3.182
 5172SOL    HW216416   1.614   4.952   3.060
 5173SOL     OW16417   4.203   4.010   6.323
 5173SOL    HW116418   4.167   4.094   6.281
 5173SOL    HW216419   4.225   4.027   6.419
 5174SOL     OW16420   2.416   6.392   3.956
 5174SOL    HW116421   2.366   6.448   3.890
 5174SOL    HW216422   2.505   6.434   3.973
 5175SOL     OW16423   2.322   3.729   6.744
 5175SOL    HW116424   2.353   3.810   6.793
 5175SOL    HW216425   2.261   3.757   6.670
 5176SOL     OW16426   4.887   5.223   6.651
 5176SOL    HW116427   4.923   5.230   6.558
 5176SOL    HW216428   4.808   5.161   6.652
 5177SOL     OW16429   4.931   6.600   1.323
 5177SOL    HW116430   4.860   6.671   1.326
 5177SOL    HW216431   4.944   6.562   1.415
 5178SOL     OW16432   0.811   4.714   1.719
 5178SOL    HW116433   0.781   4.638   1.777
 5178SOL    HW216434   0.853   4.785   1.775
 5179SOL     OW16435   4.814   4.515   3.549
 5179SOL    HW116436   4.859   4.494   3.636
 5179SOL    HW216437   4.871   4.483   3.473
 5180SOL     OW16438   3.642   0.468   1.281
 5180SOL    HW116439   3.653   0.521   1.197
 5180SOL    HW216440   3.574   0.512   1.340
 5181SOL     OW16441   6.949   0.198   0.459
 5181SOL    HW116442   6.992   0.233   0.542
 5181SOL    HW216443   7.014   0.202   0.383
 5182SOL     OW16444   4.707   4.430   1.853
 5182SOL    HW116445   4.692   4.384   1.765
 5182SOL    HW216446   4.650   4.388   1.923
 5183SOL     OW16447   3.985   1.624   2.562
 5183SOL    HW116448   4.060   1.584   2.615
 5183SOL    HW216449   3.898   1.605   2.609
 5184SOL     OW16450   2.321   1.867   3.248
 5184SOL    HW116451   2.252   1.837   3.183
 5184SOL    HW216452   2.397   1.910   3.199
 5185SOL     OW16453   4.491   0.228   2.580
 5185SOL    HW116454   4.563   0.250   2.646
 5185SOL    HW216455   4.527   0.165   2.512
 5186SOL     OW16456   6.239   2.898   5.648
 5186SOL    HW116457   6.319   2.852   5.610
 5186SOL    HW216458   6.161   2.886   5.587
 5187SOL     OW16459   1.641   5.455   4.930
 5187SOL    HW116460   1.731   5.422   4.902
 5187SOL    HW216461   1.594   5.496   4.852
 5188SOL     OW16462   6.382   5.955   1.597
 5188SOL    HW116463   6.380   6.004   1.684
 5188SOL    HW216464   6.373   6.020   1.522
 5189SOL     OW16465   4.976   6.035   6.876
 5189SOL    HW116466   4.898   6.043   6.939
 5189SOL    HW216467   5.001   6.126   6.843
 5190SOL     OW16468   1.833   3.372   2.771
 5190SOL    HW116469   1.851   3.312   2.693
 5190SOL    HW216470   1.835   3.468   2.741
 5191SOL     OW16471   3.382   5.739   2.986
 5191SOL    HW116472   3.316   5.742   3.061
 5191SOL    HW216473   3.414   5.832   2.966
 5192SOL     OW16474   2.135   6.167   1.361
 5192SOL    HW116475   2.220   6.207   1.396
 5192SOL    HW216476   2.128   6.072   1.391
 5193SOL     OW16477   4.248   6.227   6.098
 5193SOL    HW116478   4.170   6.288   6.085
 5193SOL    HW216479   4.328   6.266   6.052
 5194SOL     OW16480   2.813   2.518   6.900
 5194SOL    HW116481   2.751   2.506   6.978
 5194SOL    HW216482   2.770   2.577   6.832
 5195SOL     OW16483   0.411   0.320   3.941
 5195SOL    HW116484   0.335   0.357   3.996
 5195SOL    HW216485   0.410   0.363   3.851
 5196SOL     OW16486   4.356   6.760   2.158
 5196SOL    HW116487   4.402   6.671   2.160
 5196SOL    HW216488   4.411   6.827   2.207
 5197SOL     OW16489   1.459   3.875   6.807
 5197SOL    HW116490   1.368   3.834   6.797
 5197SOL    HW216491   1.518   3.815   6.861
 5198SOL     OW16492   4.421   5.432   3.455
 5198SOL    HW116493   4.461   5.492   3.386
 5198SOL    HW216494   4.322   5.439   3.453
 5199SOL     OW16495   0.143   5.668   0.909
 5199SOL    HW116496   0.045   5.682   0.894
 5199SOL    HW216497   0.190   5.757   0.905
 5200SOL     OW16498   6.663   3.439   5.416
 5200SOL    HW116499   6.749   3.453   5.368
 5200SOL    HW216500   6.681   3.409   5.509
 5201SOL     OW16501   0.544   0.001   2.966
 5201SOL    HW116502   0.587   6.988   3.046
 5201SOL    HW216503   0.612   0.055   2.916
 5202SOL     OW16504   6.139   3.061   6.429
 5202SOL    HW116505   6.120   3.157   6.449
 5202SOL    HW216506   6.119   3.005   6.510
 5203SOL     OW16507   1.983   2.319   6.921
 5203SOL    HW116508   1.954   2.286   6.832
 5203SOL    HW216509   2.033   2.246   6.969
 5204SOL     OW16510   4.108   5.548   0.495
 5204SOL    HW116511   4.203   5.574   0.479
 5204SOL    HW216512   4.060   5.623   0.540
 5205SOL     OW16513   1.885   0.032   0.861
 5205SOL    HW116514   1.891   0.075   0.771
 5205SOL    HW216515   1.964   0.058   0.916
 5206SOL     OW16516   0.495   3.551   6.020
 5206SOL    HW116517   0.474   3.463   6.061
 5206SOL    HW216518   0.510   3.540   5.922
 5207SOL     OW16519   1.165   5.399   4.215
 5207SOL    HW116520   1.228   5.324   4.237
 5207SOL    HW216521   1.218   5.480   4.189
 5208SOL     OW16522   3.791   1.204   0.490
 5208SOL    HW116523   3.734   1.122   0.503
 5208SOL    HW216524   3.738   1.285   0.514
 5209SOL     OW16525   6.157   5.827   4.094
 5209SOL    HW116526   6.154   5.787   4.185
 5209SOL    HW216527   6.223   5.778   4.038
 5210SOL     OW16528   5.744   3.016   5.641
 5210SOL    HW116529   5.838   3.027   5.674
 5210SOL    HW216530   5.682   3.011   5.719
 5211SOL     OW16531   4.047   3.619   4.496
 5211SOL    HW116532   4.022   3.523   4.507
 5211SOL    HW216533   3.981   3.676   4.546
 5212SOL     OW16534   6.867   1.889   0.930
 5212SOL    HW116535   6.851   1.792   0.949
 5212SOL    HW216536   6.917   1.931   1.006
 5213SOL     OW16537   5.098   3.336   6.642
 5213SOL    HW116538   5.036   3.259   6.630
 5213SOL    HW216539   5.138   3.361   6.553
 5214SOL     OW16540   5.533   1.514   6.611
 5214SOL    HW116541   5.629   1.543   6.611
 5214SOL    HW216542   5.517   1.451   6.535
 5215SOL     OW16543   5.154   5.407   3.242
 5215SOL    HW116544   5.205   5.489   3.215
 5215SOL    HW216545   5.078   5.433   3.301
 5216SOL     OW16546   4.504   6.175   1.616
 5216SOL    HW116547   4.578   6.127   1.567
 5216SOL    HW216548   4.451   6.230   1.550
 5217SOL     OW16549   3.410   5.186   4.014
 5217SOL    HW116550   3.481   5.134   3.966
 5217SOL    HW216551   3.450   5.235   4.091
 5218SOL     OW16552   1.796   0.517   3.324
 5218SOL    HW116553   1.888   0.493   3.354
 5218SOL    HW216554   1.801   0.585   3.251
 5219SOL     OW16555   3.738   0.650   6.701
 5219SOL    HW116556   3.820   0.595   6.716
 5219SOL    HW216557   3.690   0.662   6.788
 5220SOL     OW16558   1.864   5.428   2.917
 5220SOL    HW116559   1.779   5.479   2.905
 5220SOL    HW216560   1.942   5.488   2.900
 5221SOL     OW16561   5.693   2.321   4.405
 5221SOL    HW116562   5.765   2.347   4.341
 5221SOL    HW216563   5.724   2.340   4.498
 5222SOL     OW16564   2.426   0.193   3.776
 5222SOL    HW116565   2.450   0.273   3.830
 5222SOL    HW216566   2.488   0.185   3.698
 5223SOL     OW16567   5.135   0.543   1.443
 5223SOL    HW116568   5.075   0.618   1.415
 5223SOL    HW216569   5.182   0.506   1.364
 5224SOL     OW16570   1.084   1.623   3.451
 5224SOL    HW116571   1.091   1.583   3.360
 5224SOL    HW216572   1.078   1.722   3.444
 5225SOL     OW16573   6.284   0.576   2.840
 5225SOL    HW116574   6.377   0.549   2.816
 5225SOL    HW216575   6.231   0.495   2.862
 5226SOL     OW16576   0.424   5.515   5.221
 5226SOL    HW116577   0.361   5.474   5.154
 5226SOL    HW216578   0.449   5.446   5.289
 5227SOL     OW16579   1.691   4.388   3.525
 5227SOL    HW116580   1.683   4.359   3.621
 5227SOL    HW216581   1.608   4.362   3.476
 5228SOL     OW16582   6.405   3.020   1.416
 5228SOL    HW116583   6.450   2.939   1.377
 5228SOL    HW216584   6.470   3.096   1.418
 5229SOL     OW16585   1.580   4.425   6.642
 5229SOL    HW116586   1.525   4.507   6.626
 5229SOL    HW216587   1.660   4.426   6.581
 5230SOL     OW16588   0.128   6.636   1.072
 5230SOL    HW116589   0.182   6.695   1.013
 5230SOL    HW216590   0.188   6.571   1.119
 5231SOL     OW16591   3.156   3.979   4.094
 5231SOL    HW116592   3.171   4.035   4.176
 5231SOL    HW216593   3.088   3.908   4.114
 5232SOL     OW16594   2.867   2.215   6.124
 5232SOL    HW116595   2.891   2.144   6.191
 5232SOL    HW216596   2.843   2.172   6.037
 5233SOL     OW16597   6.259   0.191   1.474
 5233SOL    HW116598   6.343   0.156   1.432
 5233SOL    HW216599   6.194   0.116   1.485
 5234SOL     OW16600   3.117   0.467   6.343
 5234SOL    HW116601   3.187   0.516   6.396
 5234SOL    HW216602   3.028   0.476   6.388
 5235SOL     OW16603   1.276   3.175   1.110
 5235SOL    HW116604   1.358   3.217   1.070
 5235SOL    HW216605   1.213   3.149   1.038
 5236SOL     OW16606   5.710   3.255   2.283
 5236SOL    HW116607   5.655   3.195   2.341
 5236SOL    HW216608   5.807   3.242   2.304
 5237SOL     OW16609   2.789   0.991   5.355
 5237SOL    HW116610   2.810   1.079   5.312
 5237SOL    HW216611   2.691   0.973   5.346
 5238SOL     OW16612   1.939   5.020   0.708
 5238SOL    HW116613   1.872   4.960   0.665
 5238SOL    HW216614   2.030   5.000   0.672
 5239SOL     OW16615   4.105   3.682   3.760
 5239SOL    HW116616   4.114   3.723   3.851
 5239SOL    HW216617   4.078   3.752   3.694
 5240SOL     OW16618   2.778   1.347   5.689
 5240SOL    HW116619   2.829   1.417   5.638
 5240SOL    HW216620   2.701   1.391   5.735
 5241SOL     OW16621   0.789   5.917   6.423
 5241SOL    HW116622   0.724   5.972   6.371
 5241SOL    HW216623   0.879   5.961   6.422
 5242SOL     OW16624   6.573   6.159   5.875
 5242SOL    HW116625   6.630   6.219   5.819
 5242SOL    HW216626   6.550   6.205   5.961
 5243SOL     OW16627   1.581   6.558   1.748
 5243SOL    HW116628   1.651   6.514   1.804
 5243SOL    HW216629   1.492   6.515   1.764
 5244SOL     OW16630   4.047   3.615   6.447
 5244SOL    HW116631   4.033   3.709   6.415
 5244SOL    HW216632   4.122   3.613   6.513
 5245SOL     OW16633   4.128   4.474   0.043
 5245SOL    HW116634   4.094   4.494   6.980
 5245SOL    HW216635   4.194   4.399   0.038
 5246SOL     OW16636   5.877   4.542   2.966
 5246SOL    HW116637   5.783   4.508   2.970
 5246SOL    HW216638   5.895   4.601   3.044
 5247SOL     OW16639   1.441   5.726   0.346
 5247SOL    HW116640   1.486   5.640   0.325
 5247SOL    HW216641   1.399   5.721   0.437
 5248SOL     OW16642   6.199   0.520   5.321
 5248SOL    HW116643   6.179   0.563   5.409
 5248SOL    HW216644   6.171   0.581   5.247
 5249SOL     OW16645   0.529   5.328   5.399
 5249SOL    HW116646   0.483   5.318   5.487
 5249SOL    HW216647   0.594   5.253   5.386
 5250SOL     OW16648   0.177   0.938   5.865
 5250SOL    HW116649   0.169   1.037   5.854
 5250SOL    HW216650   0.236   0.918   5.943
 5251SOL     OW16651   0.353   3.004   1.533
 5251SOL    HW116652   0.269   3.013   1.587
 5251SOL    HW216653   0.427   2.975   1.593
 5252SOL     OW16654   2.116   5.984   0.828
 5252SOL    HW116655   2.054   5.959   0.903
 5252SOL    HW216656   2.074   6.056   0.773
 5253SOL     OW16657   5.578   3.817   5.508
 5253SOL    HW116658   5.492   3.853   5.471
 5253SOL    HW216659   5.652   3.881   5.490
 5254SOL     OW16660   6.083   1.066   3.821
 5254SOL    HW116661   6.176   1.070   3.784
 5254SOL    HW216662   6.086   1.070   3.921
 5255SOL     OW16663   4.611   0.394   5.492
 5255SOL    HW116664   4.526   0.411   5.443
 5255SOL    HW216665   4.686   0.381   5.426
 5256SOL     OW16666   4.569   1.310   2.848
 5256SOL    HW116667   4.585   1.212   2.849
 5256SOL    HW216668   4.610   1.351   2.929
 5257SOL     OW16669   4.191   0.341   1.937
 5257SOL    HW116670   4.153   0.249   1.952
 5257SOL    HW216671   4.141   0.386   1.863
 5258SOL     OW16672   5.507   4.096   2.063
 5258SOL    HW116673   5.578   4.137   2.120
 5258SOL    HW216674   5.507   3.997   2.075
 5259SOL     OW16675   4.430   6.059   0.974
 5259SOL    HW116676   4.413   5.984   1.039
 5259SOL    HW216677   4.405   6.146   1.017
 5260SOL     OW16678   5.619   3.225   0.925
 5260SOL    HW116679   5.691   3.176   0.975
 5260SOL    HW216680   5.534   3.221   0.977
 5261SOL     OW16681   1.075   2.922   6.229
 5261SOL    HW116682   1.087   2.839   6.175
 5261SOL    HW216683   0.978   2.942   6.240
 5262SOL     OW16684   3.223   0.150   2.313
 5262SOL    HW116685   3.300   0.198   2.271
 5262SOL    HW216686   3.138   0.177   2.268
 5263SOL     OW16687   0.915   0.576   5.958
 5263SOL    HW116688   0.947   0.533   5.874
 5263SOL    HW216689   0.855   0.652   5.936
 5264SOL     OW16690   5.892   0.248   1.838
 5264SOL    HW116691   5.883   0.250   1.938
 5264SOL    HW216692   5.987   0.228   1.814
 5265SOL     OW16693   5.068   4.170   2.845
 5265SOL    HW116694   5.014   4.147   2.926
 5265SOL    HW216695   5.013   4.227   2.784
 5266SOL     OW16696   2.583   0.343   1.788
 5266SOL    HW116697   2.670   0.389   1.808
 5266SOL    HW216698   2.565   0.274   1.858
 5267SOL     OW16699   4.609   4.571   5.756
 5267SOL    HW116700   4.585   4.636   5.684
 5267SOL    HW216701   4.597   4.614   5.845
 5268SOL     OW16702   6.393   5.682   6.331
 5268SOL    HW116703   6.408   5.613   6.260
 5268SOL    HW216704   6.403   5.773   6.291
 5269SOL     OW16705   2.890   6.326   4.066
 5269SOL    HW116706   2.904   6.309   4.163
 5269SOL    HW216707   2.977   6.316   4.017
 5270SOL     OW16708   4.378   1.853   1.859
 5270SOL    HW116709   4.320   1.819   1.786
 5270SOL    HW216710   4.340   1.938   1.895
 5271SOL     OW16711   4.209   5.414   4.878
 5271SOL    HW116712   4.171   5.424   4.786
 5271SOL    HW216713   4.201   5.318   4.907
 5272SOL     OW16714   1.906   5.432   3.185
 5272SOL    HW116715   1.892   5.403   3.090
 5272SOL    HW216716   1.824   5.412   3.238
 5273SOL     OW16717   0.573   3.633   3.091
 5273SOL    HW116718   0.627   3.574   3.150
 5273SOL    HW216719   0.538   3.580   3.014
 5274SOL     OW16720   5.949   5.023   2.241
 5274SOL    HW116721   5.892   5.047   2.320
 5274SOL    HW216722   6.045   5.043   2.262
 5275SOL     OW16723   3.502   1.494   6.321
 5275SOL    HW116724   3.409   1.484   6.357
 5275SOL    HW216725   3.540   1.582   6.351
 5276SOL     OW16726   1.112   6.088   0.881
 5276SOL    HW116727   1.149   6.179   0.899
 5276SOL    HW216728   1.013   6.089   0.896
 5277SOL     OW16729   1.119   2.113   2.999
 5277SOL    HW116730   1.136   2.163   2.915
 5277SOL    HW216731   1.183   2.143   3.070
 5278SOL     OW16732   5.210   6.209   4.687
 5278SOL    HW116733   5.184   6.112   4.690
 5278SOL    HW216734   5.283   6.222   4.620
 5279SOL     OW16735   1.682   6.066   6.981
 5279SOL    HW116736   1.619   6.089   0.026
 5279SOL    HW216737   1.774   6.051   7.019
 5280SOL     OW16738   3.083   5.408   5.412
 5280SOL    HW116739   2.999   5.362   5.382
 5280SOL    HW216740   3.163   5.354   5.385
 5281SOL     OW16741   1.442   1.241   3.624
 5281SOL    HW116742   1.364   1.267   3.680
 5281SOL    HW216743   1.468   1.147   3.645
 5282SOL     OW16744   1.709   0.789   2.153
 5282SOL    HW116745   1.775   0.743   2.094
 5282SOL    HW216746   1.629   0.730   2.164
 5283SOL     OW16747   2.679   0.324   2.788
 5283SOL    HW116748   2.589   0.345   2.825
 5283SOL    HW216749   2.720   0.407   2.750
 5284SOL     OW16750   4.882   3.093   3.058
 5284SOL    HW116751   4.845   3.010   3.016
 5284SOL    HW216752   4.852   3.173   3.006
 5285SOL     OW16753   0.823   3.847   4.217
 5285SOL    HW116754   0.896   3.914   4.203
 5285SOL    HW216755   0.772   3.870   4.300
 5286SOL     OW16756   6.572   3.767   1.041
 5286SOL    HW116757   6.561   3.669   1.060
 5286SOL    HW216758   6.651   3.780   0.981
 5287SOL     OW16759   2.511   5.929   1.628
 5287SOL    HW116760   2.471   5.887   1.547
 5287SOL    HW216761   2.593   5.879   1.655
 5288SOL     OW16762   3.972   0.637   2.782
 5288SOL    HW116763   3.995   0.723   2.736
 5288SOL    HW216764   3.921   0.578   2.721
 5289SOL     OW16765   1.733   6.331   5.713
 5289SOL    HW116766   1.765   6.363   5.802
 5289SOL    HW216767   1.795   6.260   5.679
 5290SOL     OW16768   1.072   4.564   5.970
 5290SOL    HW116769   1.057   4.476   6.016
 5290SOL    HW216770   1.091   4.635   6.038
 5291SOL     OW16771   2.848   4.813   6.233
 5291SOL    HW116772   2.933   4.826   6.283
 5291SOL    HW216773   2.843   4.719   6.199
 5292SOL     OW16774   5.818   4.531   6.502
 5292SOL    HW116775   5.812   4.615   6.448
 5292SOL    HW216776   5.908   4.525   6.545
 5293SOL     OW16777   2.031   6.923   4.963
 5293SOL    HW116778   1.998   6.995   4.902
 5293SOL    HW216779   1.965   6.848   4.965
 5294SOL     OW16780   5.753   2.464   5.444
 5294SOL    HW116781   5.682   2.500   5.384
 5294SOL    HW216782   5.818   2.411   5.390
 5295SOL     OW16783   4.246   1.258   3.102
 5295SOL    HW116784   4.189   1.308   3.166
 5295SOL    HW216785   4.326   1.313   3.077
 5296SOL     OW16786   3.331   5.135   6.610
 5296SOL    HW116787   3.374   5.200   6.673
 5296SOL    HW216788   3.232   5.151   6.608
 5297SOL     OW16789   1.706   3.192   0.953
 5297SOL    HW116790   1.705   3.094   0.971
 5297SOL    HW216791   1.786   3.234   0.997
 5298SOL     OW16792   1.197   5.981   0.034
 5298SOL    HW116793   1.106   6.007   0.065
 5298SOL    HW216794   1.224   6.038   6.986
 5299SOL     OW16795   2.676   3.036   0.603
 5299SOL    HW116796   2.683   3.049   0.702
 5299SOL    HW216797   2.713   2.947   0.579
 5300SOL     OW16798   0.902   5.950   1.045
 5300SOL    HW116799   0.954   5.972   1.127
 5300SOL    HW216800   0.819   5.899   1.071
 5301SOL     OW16801   3.290   2.154   6.153
 5301SOL    HW116802   3.207   2.140   6.099
 5301SOL    HW216803   3.358   2.203   6.099
 5302SOL     OW16804   5.592   5.783   3.845
 5302SOL    HW116805   5.689   5.759   3.835
 5302SOL    HW216806   5.569   5.788   3.942
 5303SOL     OW16807   6.993   5.194   4.072
 5303SOL    HW116808   0.057   5.158   4.081
 5303SOL    HW216809   6.940   5.136   4.011
 5304SOL     OW16810   5.611   0.895   0.720
 5304SOL    HW116811   5.562   0.894   0.807
 5304SOL    HW216812   5.652   0.805   0.704
 5305SOL     OW16813   0.860   4.363   3.236
 5305SOL    HW116814   0.858   4.352   3.336
 5305SOL    HW216815   0.770   4.342   3.199
 5306SOL     OW16816   1.199   4.231   4.827
 5306SOL    HW116817   1.099   4.233   4.828
 5306SOL    HW216818   1.233   4.299   4.762
 5307SOL     OW16819   4.133   1.870   0.356
 5307SOL    HW116820   4.117   1.968   0.367
 5307SOL    HW216821   4.205   1.840   0.418
 5308SOL     OW16822   1.282   4.622   3.446
 5308SOL    HW116823   1.259   4.584   3.536
 5308SOL    HW216824   1.217   4.588   3.378
 5309SOL     OW16825   3.962   4.718   1.544
 5309SOL    HW116826   3.862   4.724   1.535
 5309SOL    HW216827   3.993   4.627   1.516
 5310SOL     OW16828   5.900   3.345   1.589
 5310SOL    HW116829   5.915   3.437   1.625
 5310SOL    HW216830   5.912   3.278   1.663
 5311SOL     OW16831   6.417   6.538   6.882
 5311SOL    HW116832   6.477   6.497   6.814
 5311SOL    HW216833   6.466   6.544   6.970
 5312SOL     OW16834   0.340   5.847   1.776
 5312SOL    HW116835   0.304   5.833   1.868
 5312SOL    HW216836   0.297   5.783   1.712
 5313SOL     OW16837   1.260   3.130   5.834
 5313SOL    HW116838   1.194   3.160   5.902
 5313SOL    HW216839   1.312   3.208   5.802
 5314SOL     OW16840   3.440   6.517   0.206
 5314SOL    HW116841   3.391   6.583   0.263
 5314SOL    HW216842   3.418   6.424   0.237
 5315SOL     OW16843   4.827   3.549   1.937
 5315SOL    HW116844   4.821   3.542   2.037
 5315SOL    HW216845   4.784   3.634   1.907
 5316SOL     OW16846   0.749   3.702   4.809
 5316SOL    HW116847   0.729   3.653   4.893
 5316SOL    HW216848   0.781   3.794   4.830
 5317SOL     OW16849   5.800   0.175   4.818
 5317SOL    HW116850   5.702   0.189   4.829
 5317SOL    HW216851   5.817   0.083   4.782
 5318SOL     OW16852   0.643   3.483   6.776
 5318SOL    HW116853   0.720   3.529   6.820
 5318SOL    HW216854   0.558   3.507   6.824
 5319SOL     OW16855   3.299   6.299   0.334
 5319SOL    HW116856   3.306   6.332   0.428
 5319SOL    HW216857   3.317   6.201   0.331
 5320SOL     OW16858   4.890   5.051   0.056
 5320SOL    HW116859   4.890   5.006   0.145
 5320SOL    HW216860   4.956   5.127   0.058
 5321SOL     OW16861   1.611   5.246   4.612
 5321SOL    HW116862   1.519   5.216   4.638
 5321SOL    HW216863   1.614   5.346   4.610
 5322SOL     OW16864   5.584   6.235   6.283
 5322SOL    HW116865   5.541   6.149   6.309
 5322SOL    HW216866   5.614   6.230   6.188
 5323SOL     OW16867   3.948   2.034   0.069
 5323SOL    HW116868   4.021   1.967   0.085
 5323SOL    HW216869   3.977   2.123   0.103
 5324SOL     OW16870   3.534   2.011   0.487
 5324SOL    HW116871   3.520   2.102   0.528
 5324SOL    HW216872   3.488   1.942   0.543
 5325SOL     OW16873   4.500   0.689   4.425
 5325SOL    HW116874   4.416   0.725   4.466
 5325SOL    HW216875   4.538   0.618   4.484
 5326SOL     OW16876   6.257   4.972   2.649
 5326SOL    HW116877   6.326   5.036   2.617
 5326SOL    HW216878   6.287   4.932   2.736
 5327SOL     OW16879   5.817   2.850   5.370
 5327SOL    HW116880   5.735   2.794   5.363
 5327SOL    HW216881   5.802   2.922   5.438
 5328SOL     OW16882   4.066   2.979   5.281
 5328SOL    HW116883   4.071   3.068   5.236
 5328SOL    HW216884   4.102   2.987   5.374
 5329SOL     OW16885   0.443   4.826   0.356
 5329SOL    HW116886   0.405   4.738   0.329
 5329SOL    HW216887   0.458   4.882   0.274
 5330SOL     OW16888   3.509   4.647   5.729
 5330SOL    HW116889   3.460   4.699   5.799
 5330SOL    HW216890   3.591   4.697   5.701
 5331SOL     OW16891   5.289   1.171   0.471
 5331SOL    HW116892   5.382   1.204   0.453
 5331SOL    HW216893   5.294   1.078   0.509
 5332SOL     OW16894   0.731   3.167   1.102
 5332SOL    HW116895   0.643   3.210   1.119
 5332SOL    HW216896   0.774   3.143   1.190
 5333SOL     OW16897   0.774   0.448   3.663
 5333SOL    HW116898   0.785   0.434   3.565
 5333SOL    HW216899   0.808   0.539   3.688
 5334SOL     OW16900   3.763   0.294   4.535
 5334SOL    HW116901   3.708   0.377   4.524
 5334SOL    HW216902   3.759   0.265   4.631
 5335SOL     OW16903   6.688   6.019   2.155
 5335SOL    HW116904   6.741   5.942   2.120
 5335SOL    HW216905   6.750   6.086   2.196
 5336SOL     OW16906   2.197   2.495   2.954
 5336SOL    HW116907   2.208   2.404   2.914
 5336SOL    HW216908   2.286   2.542   2.954
 5337SOL     OW16909   5.090   4.298   1.720
 5337SOL    HW116910   5.151   4.344   1.785
 5337SOL    HW216911   5.136   4.289   1.632
 5338SOL     OW16912   5.921   1.990   6.448
 5338SOL    HW116913   5.972   2.075   6.433
 5338SOL    HW216914   5.828   2.011   6.477
 5339SOL     OW16915   6.725   2.448   4.434
 5339SOL    HW116916   6.786   2.455   4.513
 5339SOL    HW216917   6.778   2.461   4.350
 5340SOL     OW16918   5.029   3.447   1.147
 5340SOL    HW116919   5.107   3.473   1.204
 5340SOL    HW216920   4.944   3.464   1.197
 5341SOL     OW16921   3.246   3.340   6.651
 5341SOL    HW116922   3.209   3.390   6.573
 5341SOL    HW216923   3.287   3.255   6.621
 5342SOL     OW16924   3.201   6.977   4.094
 5342SOL    HW116925   3.150   6.895   4.119
 5342SOL    HW216926   3.178   0.022   4.157
 5343SOL     OW16927   3.731   3.756   4.416
 5343SOL    HW116928   3.788   3.837   4.425
 5343SOL    HW216929   3.773   3.693   4.351
 5344SOL     OW16930   2.311   2.609   2.655
 5344SOL    HW116931   2.366   2.541   2.704
 5344SOL    HW216932   2.304   2.692   2.710
 5345SOL     OW16933   3.872   6.604   1.449
 5345SOL    HW116934   3.809   6.658   1.505
 5345SOL    HW216935   3.842   6.509   1.447
 5346SOL     OW16936   3.239   6.133   4.078
 5346SOL    HW116937   3.169   6.063   4.082
 5346SOL    HW216938   3.231   6.193   4.158
 5347SOL     OW16939   0.473   2.514   2.036
 5347SOL    HW116940   0.504   2.465   2.117
 5347SOL    HW216941   0.528   2.487   1.957
 5348SOL     OW16942   6.839   2.222   0.966
 5348SOL    HW116943   6.747   2.187   0.947
 5348SOL    HW216944   6.874   2.180   1.049
 5349SOL     OW16945   1.985   3.057   0.552
 5349SOL    HW116946   1.937   3.005   0.482
 5349SOL    HW216947   1.950   3.150   0.555
 5350SOL     OW16948   1.859   0.252   5.427
 5350SOL    HW116949   1.909   0.167   5.441
 5350SOL    HW216950   1.912   0.313   5.369
 5351SOL     OW16951   6.667   5.292   2.254
 5351SOL    HW116952   6.727   5.306   2.176
 5351SOL    HW216953   6.715   5.242   2.325
 5352SOL     OW16954   2.790   4.706   3.529
 5352SOL    HW116955   2.753   4.677   3.440
 5352SOL    HW216956   2.720   4.696   3.599
 5353SOL     OW16957   4.213   4.742   3.480
 5353SOL    HW116958   4.260   4.822   3.516
 5353SOL    HW216959   4.269   4.660   3.496
 5354SOL     OW16960   2.727   5.493   2.190
 5354SOL    HW116961   2.810   5.456   2.233
 5354SOL    HW216962   2.653   5.494   2.257
 5355SOL     OW16963   6.602   3.674   4.006
 5355SOL    HW116964   6.515   3.714   4.036
 5355SOL    HW216965   6.674   3.743   4.011
 5356SOL     OW16966   5.836   4.577   1.922
 5356SOL    HW116967   5.905   4.605   1.988
 5356SOL    HW216968   5.871   4.499   1.869
 5357SOL     OW16969   4.166   6.652   1.023
 5357SOL    HW116970   4.125   6.739   0.996
 5357SOL    HW216971   4.150   6.584   0.952
 5358SOL     OW16972   4.586   1.702   6.995
 5358SOL    HW116973   4.579   1.789   0.014
 5358SOL    HW216974   4.678   1.692   6.957
 5359SOL     OW16975   1.151   1.291   6.089
 5359SOL    HW116976   1.110   1.380   6.108
 5359SOL    HW216977   1.153   1.275   5.990
 5360SOL     OW16978   3.997   6.384   5.325
 5360SOL    HW116979   3.950   6.388   5.237
 5360SOL    HW216980   3.939   6.336   5.391
 5361SOL     OW16981   2.552   1.261   5.335
 5361SOL    HW116982   2.537   1.201   5.414
 5361SOL    HW216983   2.517   1.217   5.253
 5362SOL     OW16984   6.900   5.302   3.193
 5362SOL    HW116985   6.925   5.227   3.254
 5362SOL    HW216986   6.833   5.270   3.127
 5363SOL     OW16987   0.509   0.731   6.798
 5363SOL    HW116988   0.570   0.810   6.789
 5363SOL    HW216989   0.515   0.695   6.891
 5364SOL     OW16990   6.364   6.812   1.870
 5364SOL    HW116991   6.380   6.788   1.966
 5364SOL    HW216992   6.337   6.730   1.820
 5365SOL     OW16993   3.546   3.726   6.760
 5365SOL    HW116994   3.542   3.750   6.857
 5365SOL    HW216995   3.611   3.652   6.747
 5366SOL     OW16996   5.260   5.869   2.052
 5366SOL    HW116997   5.302   5.924   2.124
 5366SOL    HW216998   5.287   5.906   1.963
 5367SOL     OW16999   0.971   6.444   0.755
 5367SOL    HW117000   0.944   6.360   0.709
 5367SOL    HW217001   1.057   6.428   0.805
 5368SOL     OW17002   5.130   0.276   2.940
 5368SOL    HW117003   5.156   0.283   2.844
 5368SOL    HW217004   5.195   0.328   2.996
 5369SOL     OW17005   2.929   6.910   1.813
 5369SOL    HW117006   2.905   6.956   1.899
 5369SOL    HW217007   2.853   6.853   1.784
 5370SOL     OW17008   4.399   3.140   1.684
 5370SOL    HW117009   4.422   3.097   1.597
 5370SOL    HW217010   4.454   3.101   1.757
 5371SOL     OW17011   0.983   3.844   5.026
 5371SOL    HW117012   0.899   3.851   5.079
 5371SOL    HW217013   0.967   3.874   4.932
 5372SOL     OW17014   2.568   6.378   3.705
 5372SOL    HW117015   2.613   6.461   3.739
 5372SOL    HW217016   2.629   6.300   3.715
 5373SOL     OW17017   3.834   6.844   4.601
 5373SOL    HW117018   3.926   6.804   4.604
 5373SOL    HW217019   3.822   6.892   4.514
 5374SOL     OW17020   1.499   4.120   7.023
 5374SOL    HW117021   1.406   4.151   7.006
 5374SOL    HW217022   1.535   4.074   6.942
 5375SOL     OW17023   1.399   4.901   4.802
 5375SOL    HW117024   1.421   4.810   4.768
 5375SOL    HW217025   1.442   4.915   4.891
 5376SOL     OW17026   1.097   2.924   0.983
 5376SOL    HW117027   1.067   2.866   0.907
 5376SOL    HW217028   1.079   2.877   1.069
 5377SOL     OW17029   0.181   0.214   2.233
 5377SOL    HW117030   0.147   0.307   2.217
 5377SOL    HW217031   0.279   0.210   2.212
 5378SOL     OW17032   6.837   0.626   1.635
 5378SOL    HW117033   6.752   0.582   1.663
 5378SOL    HW217034   6.832   0.649   1.538
 5379SOL     OW17035   1.466   4.422   4.998
 5379SOL    HW117036   1.404   4.441   5.075
 5379SOL    HW217037   1.448   4.331   4.962
 5380SOL     OW17038   2.548   1.934   3.124
 5380SOL    HW117039   2.613   2.004   3.093
 5380SOL    HW217040   2.594   1.871   3.186
 5381SOL     OW17041   6.510   4.269   1.848
 5381SOL    HW117042   6.539   4.187   1.797
 5381SOL    HW217043   6.579   4.341   1.837
 5382SOL     OW17044   3.017   1.213   2.176
 5382SOL    HW117045   3.034   1.253   2.086
 5382SOL    HW217046   3.022   1.285   2.246
 5383SOL     OW17047   2.223   2.416   5.299
 5383SOL    HW117048   2.130   2.395   5.271
 5383SOL    HW217049   2.279   2.433   5.218
 5384SOL     OW17050   5.825   6.841   4.812
 5384SOL    HW117051   5.913   6.797   4.830
 5384SOL    HW217052   5.778   6.793   4.738
 5385SOL     OW17053   3.085   3.505   4.259
 5385SOL    HW117054   3.066   3.461   4.171
 5385SOL    HW217055   3.183   3.521   4.268
 5386SOL     OW17056   4.757   0.620   4.070
 5386SOL    HW117057   4.809   0.596   4.153
 5386SOL    HW217058   4.663   0.643   4.096
 5387SOL     OW17059   2.209   6.559   3.527
 5387SOL    HW117060   2.250   6.630   3.585
 5387SOL    HW217061   2.126   6.524   3.572
 5388SOL     OW17062   0.100   1.010   3.785
 5388SOL    HW117063   0.138   1.059   3.706
 5388SOL    HW217064   0.167   1.008   3.859
 5389SOL     OW17065   4.430   1.116   2.484
 5389SOL    HW117066   4.466   1.201   2.521
 5389SOL    HW217067   4.369   1.136   2.407
 5390SOL     OW17068   4.713   4.364   2.945
 5390SOL    HW117069   4.794   4.421   2.964
 5390SOL    HW217070   4.638   4.423   2.913
 5391SOL     OW17071   1.988   2.456   0.823
 5391SOL    HW117072   2.084   2.437   0.844
 5391SOL    HW217073   1.969   2.553   0.840
 5392SOL     OW17074   5.351   2.927   1.139
 5392SOL    HW117075   5.435   2.873   1.150
 5392SOL    HW217076   5.374   3.021   1.115
 5393SOL     OW17077   4.870   6.767   6.299
 5393SOL    HW117078   4.949   6.754   6.239
 5393SOL    HW217079   4.838   6.862   6.293
 5394SOL     OW17080   0.062   4.769   6.711
 5394SOL    HW117081   6.993   4.783   6.727
 5394SOL    HW217082   0.075   4.725   6.622
 5395SOL     OW17083   5.457   1.176   1.411
 5395SOL    HW117084   5.432   1.082   1.437
 5395SOL    HW217085   5.397   1.207   1.338
 5396SOL     OW17086   4.346   4.623   1.983
 5396SOL    HW117087   4.368   4.661   2.073
 5396SOL    HW217088   4.346   4.523   1.988
 5397SOL     OW17089   0.239   2.500   1.457
 5397SOL    HW117090   0.252   2.594   1.424
 5397SOL    HW217091   0.305   2.440   1.411
 5398SOL     OW17092   3.682   2.174   3.811
 5398SOL    HW117093   3.717   2.166   3.905
 5398SOL    HW217094   3.759   2.176   3.748
 5399SOL     OW17095   2.716   5.865   0.581
 5399SOL    HW117096   2.649   5.803   0.622
 5399SOL    HW217097   2.777   5.813   0.522
 5400SOL     OW17098   2.514   4.062   0.738
 5400SOL    HW117099   2.498   4.129   0.666
 5400SOL    HW217100   2.535   3.973   0.697
 5401SOL     OW17101   5.673   3.643   1.038
 5401SOL    HW117102   5.656   3.608   0.946
 5401SOL    HW217103   5.607   3.716   1.059
 5402SOL     OW17104   2.795   5.323   1.703
 5402SOL    HW117105   2.756   5.310   1.794
 5402SOL    HW217106   2.810   5.234   1.660
 5403SOL     OW17107   5.895   2.795   6.470
 5403SOL    HW117108   5.848   2.883   6.484
 5403SOL    HW217109   5.909   2.751   6.558
 5404SOL     OW17110   0.614   1.015   2.131
 5404SOL    HW117111   0.684   1.021   2.059
 5404SOL    HW217112   0.533   0.969   2.095
 5405SOL     OW17113   5.827   6.240   0.140
 5405SOL    HW117114   5.814   6.336   0.168
 5405SOL    HW217115   5.918   6.229   0.101
 5406SOL     OW17116   2.763   0.102   6.530
 5406SOL    HW117117   2.845   0.120   6.586
 5406SOL    HW217118   2.719   0.188   6.507
 5407SOL     OW17119   4.649   2.498   1.321
 5407SOL    HW117120   4.656   2.589   1.362
 5407SOL    HW217121   4.741   2.460   1.306
 5408SOL     OW17122   3.293   1.205   5.899
 5408SOL    HW117123   3.269   1.289   5.948
 5408SOL    HW217124   3.300   1.129   5.964
 5409SOL     OW17125   5.927   1.693   4.110
 5409SOL    HW117126   5.890   1.651   4.193
 5409SOL    HW217127   6.026   1.698   4.117
 5410SOL     OW17128   1.441   3.165   0.888
 5410SOL    HW117129   1.539   3.182   0.896
 5410SOL    HW217130   1.403   3.224   0.817
 5411SOL     OW17131   6.555   4.480   6.025
 5411SOL    HW117132   6.561   4.578   6.006
 5411SOL    HW217133   6.597   4.429   5.950
 5412SOL     OW17134   4.131   0.708   6.729
 5412SOL    HW117135   4.196   0.708   6.805
 5412SOL    HW217136   4.137   0.794   6.680
 5413SOL     OW17137   1.333   0.072   0.829
 5413SOL    HW117138   1.306   0.052   0.923
 5413SOL    HW217139   1.257   0.052   0.768
 5414SOL     OW17140   5.803   2.730   4.839
 5414SOL    HW117141   5.738   2.805   4.831
 5414SOL    HW217142   5.872   2.738   4.768
 5415SOL     OW17143   1.351   6.396   1.379
 5415SOL    HW117144   1.278   6.334   1.408
 5415SOL    HW217145   1.418   6.404   1.453
 5416SOL     OW17146   3.525   4.817   6.373
 5416SOL    HW117147   3.577   4.745   6.419
 5416SOL    HW217148   3.546   4.816   6.275
 5417SOL     OW17149   3.837   6.391   5.093
 5417SOL    HW117150   3.858   6.461   5.025
 5417SOL    HW217151   3.740   6.393   5.116
 5418SOL     OW17152   4.340   6.936   4.565
 5418SOL    HW117153   4.395   7.011   4.602
 5418SOL    HW217154   4.372   6.912   4.474
 5419SOL     OW17155   3.260   5.687   0.333
 5419SOL    HW117156   3.349   5.688   0.378
 5419SOL    HW217157   3.205   5.765   0.365
 5420SOL     OW17158   1.673   2.740   1.907
 5420SOL    HW117159   1.767   2.710   1.924
 5420SOL    HW217160   1.630   2.764   1.994
 5421SOL     OW17161   2.194   4.170   2.721
 5421SOL    HW117162   2.180   4.073   2.739
 5421SOL    HW217163   2.144   4.224   2.789
 5422SOL     OW17164   0.866   5.909   6.126
 5422SOL    HW117165   0.814   5.977   6.179
 5422SOL    HW217166   0.821   5.820   6.133
 5423SOL     OW17167   5.577   3.236   6.853
 5423SOL    HW117168   5.501   3.181   6.820
 5423SOL    HW217169   5.570   3.328   6.816
 5424SOL     OW17170   5.168   2.760   4.308
 5424SOL    HW117171   5.151   2.856   4.283
 5424SOL    HW217172   5.083   2.718   4.338
 5425SOL     OW17173   4.674   1.949   4.150
 5425SOL    HW117174   4.624   2.035   4.160
 5425SOL    HW217175   4.739   1.939   4.226
 5426SOL     OW17176   6.917   5.462   3.832
 5426SOL    HW117177   6.832   5.494   3.791
 5426SOL    HW217178   6.899   5.435   3.927
 5427SOL     OW17179   5.164   5.297   0.716
 5427SOL    HW117180   5.174   5.260   0.808
 5427SOL    HW217181   5.180   5.224   0.649
 5428SOL     OW17182   0.033   0.513   1.876
 5428SOL    HW117183   0.120   0.560   1.862
 5428SOL    HW217184   6.995   0.547   1.810
 5429SOL     OW17185   1.543   1.431   5.614
 5429SOL    HW117186   1.455   1.427   5.661
 5429SOL    HW217187   1.598   1.505   5.652
 5430SOL     OW17188   0.800   3.194   4.946
 5430SOL    HW117189   0.847   3.270   4.992
 5430SOL    HW217190   0.704   3.193   4.975
 5431SOL     OW17191   3.649   5.950   6.587
 5431SOL    HW117192   3.653   5.855   6.557
 5431SOL    HW217193   3.657   6.011   6.508
 5432SOL     OW17194   3.990   6.589   6.394
 5432SOL    HW117195   3.975   6.674   6.443
 5432SOL    HW217196   4.039   6.524   6.453
 5433SOL     OW17197   0.053   1.595   3.480
 5433SOL    HW117198   0.084   1.690   3.484
 5433SOL    HW217199   0.015   1.569   3.569
 5434SOL     OW17200   3.540   1.110   4.854
 5434SOL    HW117201   3.521   1.153   4.942
 5434SOL    HW217202   3.608   1.038   4.866
 5435SOL     OW17203   5.945   1.603   1.455
 5435SOL    HW117204   6.000   1.550   1.519
 5435SOL    HW217205   5.861   1.553   1.433
 5436SOL     OW17206   5.245   4.122   4.552
 5436SOL    HW117207   5.260   4.186   4.628
 5436SOL    HW217208   5.213   4.034   4.587
 5437SOL     OW17209   2.679   5.068   5.793
 5437SOL    HW117210   2.583   5.054   5.769
 5437SOL    HW217211   2.701   5.019   5.877
 5438SOL     OW17212   5.581   3.595   2.925
 5438SOL    HW117213   5.618   3.616   3.015
 5438SOL    HW217214   5.650   3.611   2.855
 5439SOL     OW17215   0.426   2.261   0.660
 5439SOL    HW117216   0.512   2.219   0.690
 5439SOL    HW217217   0.445   2.341   0.605
 5440SOL     OW17218   0.759   0.309   2.087
 5440SOL    HW117219   0.714   0.381   2.140
 5440SOL    HW217220   0.709   0.223   2.097
 5441SOL     OW17221   4.766   2.871   3.236
 5441SOL    HW117222   4.708   2.817   3.175
 5441SOL    HW217223   4.800   2.952   3.187
 5442SOL     OW17224   3.637   6.383   3.234
 5442SOL    HW117225   3.666   6.287   3.228
 5442SOL    HW217226   3.539   6.386   3.256
 5443SOL     OW17227   2.703   0.486   3.582
 5443SOL    HW117228   2.683   0.427   3.504
 5443SOL    HW217229   2.741   0.573   3.549
 5444SOL     OW17230   1.232   0.657   3.533
 5444SOL    HW117231   1.174   0.576   3.526
 5444SOL    HW217232   1.211   0.705   3.619
 5445SOL     OW17233   5.950   4.329   4.304
 5445SOL    HW117234   5.940   4.423   4.336
 5445SOL    HW217235   5.923   4.322   4.208
 5446SOL     OW17236   6.241   5.090   5.054
 5446SOL    HW117237   6.199   5.098   5.145
 5446SOL    HW217238   6.330   5.135   5.054
 5447SOL     OW17239   1.594   2.013   0.227
 5447SOL    HW117240   1.569   2.064   0.309
 5447SOL    HW217241   1.572   2.067   0.146
 5448SOL     OW17242   5.262   3.193   4.810
 5448SOL    HW117243   5.261   3.163   4.714
 5448SOL    HW217244   5.169   3.199   4.844
 5449SOL     OW17245   1.701   2.099   6.538
 5449SOL    HW117246   1.723   2.017   6.486
 5449SOL    HW217247   1.672   2.073   6.630
 5450SOL     OW17248   1.909   0.258   2.221
 5450SOL    HW117249   1.880   0.200   2.296
 5450SOL    HW217250   1.980   0.321   2.252
 5451SOL     OW17251   1.293   5.745   3.499
 5451SOL    HW117252   1.327   5.652   3.483
 5451SOL    HW217253   1.348   5.809   3.446
 5452SOL     OW17254   1.780   4.291   0.288
 5452SOL    HW117255   1.684   4.294   0.314
 5452SOL    HW217256   1.788   4.256   0.194
 5453SOL     OW17257   5.373   3.903   1.394
 5453SOL    HW117258   5.275   3.887   1.381
 5453SOL    HW217259   5.388   3.947   1.482
 5454SOL     OW17260   6.704   4.063   5.618
 5454SOL    HW117261   6.616   4.017   5.620
 5454SOL    HW217262   6.714   4.113   5.532
 5455SOL     OW17263   6.037   2.902   1.754
 5455SOL    HW117264   5.973   2.977   1.770
 5455SOL    HW217265   5.991   2.830   1.702
 5456SOL     OW17266   2.676   0.140   6.862
 5456SOL    HW117267   2.713   0.104   6.777
 5456SOL    HW217268   2.703   0.081   6.938
 5457SOL     OW17269   6.637   2.372   0.705
 5457SOL    HW117270   6.596   2.295   0.754
 5457SOL    HW217271   6.573   2.406   0.636
 5458SOL     OW17272   0.519   4.009   0.513
 5458SOL    HW117273   0.433   4.034   0.469
 5458SOL    HW217274   0.517   3.913   0.539
 5459SOL     OW17275   1.852   3.948   6.938
 5459SOL    HW117276   1.804   4.034   6.956
 5459SOL    HW217277   1.894   3.916   7.023
 5460SOL     OW17278   4.348   0.371   3.125
 5460SOL    HW117279   4.334   0.468   3.102
 5460SOL    HW217280   4.356   0.318   3.041
 5461SOL     OW17281   6.503   0.242   5.429
 5461SOL    HW117282   6.463   0.270   5.342
 5461SOL    HW217283   6.463   0.155   5.458
 5462SOL     OW17284   0.299   6.793   0.932
 5462SOL    HW117285   0.320   6.884   0.968
 5462SOL    HW217286   0.384   6.745   0.909
 5463SOL     OW17287   6.987   1.440   0.488
 5463SOL    HW117288   7.009   1.531   0.524
 5463SOL    HW217289   6.907   1.446   0.428
 5464SOL     OW17290   0.814   0.987   4.640
 5464SOL    HW117291   0.861   0.951   4.720
 5464SOL    HW217292   0.851   0.944   4.558
 5465SOL     OW17293   4.230   0.032   4.089
 5465SOL    HW117294   4.144   0.062   4.130
 5465SOL    HW217295   4.306   0.071   4.140
 5466SOL     OW17296   5.024   2.814   5.004
 5466SOL    HW117297   5.116   2.826   4.966
 5466SOL    HW217298   4.992   2.721   4.986
 5467SOL     OW17299   5.152   3.584   3.597
 5467SOL    HW117300   5.111   3.579   3.506
 5467SOL    HW217301   5.081   3.581   3.667
 5468SOL     OW17302   6.128   2.789   3.932
 5468SOL    HW117303   6.174   2.781   3.844
 5468SOL    HW217304   6.088   2.701   3.957
 5469SOL     OW17305   3.025   6.118   6.126
 5469SOL    HW117306   3.120   6.108   6.097
 5469SOL    HW217307   3.022   6.159   6.217
 5470SOL     OW17308   3.323   5.476   2.977
 5470SOL    HW117309   3.331   5.438   3.070
 5470SOL    HW217310   3.361   5.569   2.976
 5471SOL     OW17311   5.232   6.982   3.094
 5471SOL    HW117312   5.228   0.051   3.112
 5471SOL    HW217313   5.295   6.939   3.159
 5472SOL     OW17314   3.922   3.965   5.884
 5472SOL    HW117315   3.847   3.921   5.834
 5472SOL    HW217316   3.892   4.055   5.916
 5473SOL     OW17317   0.304   3.059   2.351
 5473SOL    HW117318   0.403   3.072   2.343
 5473SOL    HW217319   0.262   3.077   2.262
 5474SOL     OW17320   0.888   4.809   4.211
 5474SOL    HW117321   0.978   4.852   4.214
 5474SOL    HW217322   0.885   4.731   4.273
 5475SOL     OW17323   2.223   3.254   1.471
 5475SOL    HW117324   2.316   3.278   1.498
 5475SOL    HW217325   2.165   3.251   1.552
 5476SOL     OW17326   2.242   4.910   5.446
 5476SOL    HW117327   2.311   4.838   5.462
 5476SOL    HW217328   2.151   4.873   5.465
 5477SOL     OW17329   2.500   4.596   2.861
 5477SOL    HW117330   2.598   4.613   2.875
 5477SOL    HW217331   2.488   4.529   2.788
 5478SOL     OW17332   3.430   5.288   5.108
 5478SOL    HW117333   3.421   5.340   5.023
 5478SOL    HW217334   3.457   5.194   5.087
 5479SOL     OW17335   5.528   1.536   6.000
 5479SOL    HW117336   5.580   1.464   5.955
 5479SOL    HW217337   5.562   1.626   5.972
 5480SOL     OW17338   6.049   4.082   2.670
 5480SOL    HW117339   5.959   4.043   2.684
 5480SOL    HW217340   6.068   4.090   2.572
 5481SOL     OW17341   4.600   1.762   4.556
 5481SOL    HW117342   4.634   1.854   4.534
 5481SOL    HW217343   4.623   1.700   4.481
 5482SOL     OW17344   3.663   4.325   1.749
 5482SOL    HW117345   3.641   4.422   1.764
 5482SOL    HW217346   3.642   4.272   1.831
 5483SOL     OW17347   0.713   1.746   5.698
 5483SOL    HW117348   0.781   1.780   5.633
 5483SOL    HW217349   0.622   1.779   5.672
 5484SOL     OW17350   4.293   1.432   4.421
 5484SOL    HW117351   4.267   1.527   4.435
 5484SOL    HW217352   4.327   1.394   4.507
 5485SOL     OW17353   3.639   0.109   5.610
 5485SOL    HW117354   3.593   0.089   5.696
 5485SOL    HW217355   3.611   0.043   5.541
 5486SOL     OW17356   2.528   5.792   5.105
 5486SOL    HW117357   2.626   5.797   5.087
 5486SOL    HW217358   2.511   5.802   5.203
 5487SOL     OW17359   4.344   2.521   6.844
 5487SOL    HW117360   4.278   2.595   6.861
 5487SOL    HW217361   4.310   2.462   6.771
 5488SOL     OW17362   6.674   0.289   0.974
 5488SOL    HW117363   6.600   0.255   0.917
 5488SOL    HW217364   6.762   0.255   0.939
 5489SOL     OW17365   0.616   5.037   1.627
 5489SOL    HW117366   0.699   5.051   1.572
 5489SOL    HW217367   0.641   4.999   1.716
 5490SOL     OW17368   3.484   0.395   2.686
 5490SOL    HW117369   3.559   0.330   2.701
 5490SOL    HW217370   3.414   0.381   2.755
 5491SOL     OW17371   0.497   3.283   0.123
 5491SOL    HW117372   0.530   3.208   0.180
 5491SOL    HW217373   0.505   3.258   0.027
 5492SOL     OW17374   0.778   4.201   6.541
 5492SOL    HW117375   0.872   4.170   6.554
 5492SOL    HW217376   0.739   4.156   6.461
 5493SOL     OW17377   3.038   3.392   4.012
 5493SOL    HW117378   3.122   3.360   3.969
 5493SOL    HW217379   2.974   3.422   3.942
 5494SOL     OW17380   0.561   3.740   5.684
 5494SOL    HW117381   0.543   3.778   5.593
 5494SOL    HW217382   0.659   3.724   5.695
 5495SOL     OW17383   6.036   1.045   0.513
 5495SOL    HW117384   6.018   1.081   0.422
 5495SOL    HW217385   5.975   0.967   0.531
 5496SOL     OW17386   4.233   0.547   3.485
 5496SOL    HW117387   4.278   0.594   3.409
 5496SOL    HW217388   4.278   0.570   3.571
 5497SOL     OW17389   0.576   0.798   4.657
 5497SOL    HW117390   0.503   0.865   4.644
 5497SOL    HW217391   0.664   0.843   4.646
 5498SOL     OW17392   0.009   5.351   1.632
 5498SOL    HW117393   6.971   5.393   1.570
 5498SOL    HW217394   6.993   5.330   1.719
 5499SOL     OW17395   1.285   0.599   4.745
 5499SOL    HW117396   1.214   0.534   4.715
 5499SOL    HW217397   1.249   0.654   4.820
 5500SOL     OW17398   0.834   0.535   0.001
 5500SOL    HW117399   0.821   0.604   6.958
 5500SOL    HW217400   0.906   0.472   7.003
 5501SOL     OW17401   3.813   1.774   0.031
 5501SOL    HW117402   3.772   1.712   0.097
 5501SOL    HW217403   3.891   1.822   0.073
 5502SOL     OW17404   5.459   4.176   6.603
 5502SOL    HW117405   5.521   4.253   6.590
 5502SOL    HW217406   5.451   4.155   6.700
 5503SOL     OW17407   6.932   4.674   1.026
 5503SOL    HW117408   6.857   4.732   0.992
 5503SOL    HW217409   7.012   4.732   1.045
 5504SOL     OW17410   4.597   1.153   5.163
 5504SOL    HW117411   4.565   1.061   5.186
 5504SOL    HW217412   4.684   1.171   5.209
 5505SOL     OW17413   1.980   4.740   4.065
 5505SOL    HW117414   2.051   4.735   4.135
 5505SOL    HW217415   1.946   4.834   4.060
 5506SOL     OW17416   0.636   3.812   1.068
 5506SOL    HW117417   0.537   3.820   1.081
 5506SOL    HW217418   0.655   3.783   0.974
 5507SOL     OW17419   3.854   1.186   4.969
 5507SOL    HW117420   3.947   1.198   4.934
 5507SOL    HW217421   3.821   1.094   4.948
 5508SOL     OW17422   1.260   1.268   0.291
 5508SOL    HW117423   1.195   1.335   0.256
 5508SOL    HW217424   1.253   1.264   0.391
 5509SOL     OW17425   0.623   6.215   6.560
 5509SOL    HW117426   0.707   6.262   6.531
 5509SOL    HW217427   0.647   6.132   6.610
 5510SOL     OW17428   4.094   5.315   6.388
 5510SOL    HW117429   4.096   5.266   6.475
 5510SOL    HW217430   4.164   5.387   6.389
 5511SOL     OW17431   1.238   0.324   4.403
 5511SOL    HW117432   1.296   0.382   4.460
 5511SOL    HW217433   1.142   0.335   4.431
 5512SOL     OW17434   4.750   2.107   0.850
 5512SOL    HW117435   4.816   2.163   0.799
 5512SOL    HW217436   4.697   2.165   0.912
 5513SOL     OW17437   3.760   5.294   5.890
 5513SOL    HW117438   3.801   5.365   5.832
 5513SOL    HW217439   3.698   5.336   5.956
 5514SOL     OW17440   3.441   0.522   4.893
 5514SOL    HW117441   3.389   0.497   4.974
 5514SOL    HW217442   3.426   0.454   4.821
 5515SOL     OW17443   0.835   5.824   1.785
 5515SOL    HW117444   0.791   5.856   1.869
 5515SOL    HW217445   0.772   5.762   1.736
 5516SOL     OW17446   1.599   2.495   4.666
 5516SOL    HW117447   1.503   2.523   4.668
 5516SOL    HW217448   1.658   2.576   4.671
 5517SOL     OW17449   2.090   3.694   2.031
 5517SOL    HW117450   2.016   3.719   1.969
 5517SOL    HW217451   2.139   3.615   1.994
 5518SOL     OW17452   5.697   5.485   6.876
 5518SOL    HW117453   5.611   5.451   6.915
 5518SOL    HW217454   5.747   5.537   6.945
 5519SOL     OW17455   5.361   2.956   2.930
 5519SOL    HW117456   5.295   2.994   2.995
 5519SOL    HW217457   5.433   3.022   2.914
 5520SOL     OW17458   5.808   6.778   2.611
 5520SOL    HW117459   5.864   6.718   2.554
 5520SOL    HW217460   5.724   6.802   2.562
 5521SOL     OW17461   4.960   6.435   1.943
 5521SOL    HW117462   4.863   6.447   1.922
 5521SOL    HW217463   5.012   6.511   1.905
 5522SOL     OW17464   6.368   5.163   1.053
 5522SOL    HW117465   6.316   5.080   1.074
 5522SOL    HW217466   6.334   5.204   0.969
 5523SOL     OW17467   4.166   0.756   1.890
 5523SOL    HW117468   4.140   0.727   1.798
 5523SOL    HW217469   4.103   0.828   1.922
 5524SOL     OW17470   3.779   6.879   4.862
 5524SOL    HW117471   3.817   6.870   4.770
 5524SOL    HW217472   3.823   6.956   4.908
 5525SOL     OW17473   1.137   2.436   0.323
 5525SOL    HW117474   1.195   2.481   0.255
 5525SOL    HW217475   1.041   2.447   0.297
 5526SOL     OW17476   4.927   4.543   2.874
 5526SOL    HW117477   4.895   4.620   2.930
 5526SOL    HW217478   4.861   4.525   2.801
 5527SOL     OW17479   4.878   3.665   3.992
 5527SOL    HW117480   4.921   3.586   4.034
 5527SOL    HW217481   4.846   3.727   4.063
 5528SOL     OW17482   1.642   0.811   1.127
 5528SOL    HW117483   1.657   0.715   1.105
 5528SOL    HW217484   1.686   0.869   1.058
 5529SOL     OW17485   3.294   6.870   4.637
 5529SOL    HW117486   3.373   6.810   4.639
 5529SOL    HW217487   3.228   6.841   4.707
 5530SOL     OW17488   6.361   1.676   1.111
 5530SOL    HW117489   6.410   1.593   1.139
 5530SOL    HW217490   6.425   1.752   1.106
 5531SOL     OW17491   3.439   3.435   1.321
 5531SOL    HW117492   3.364   3.482   1.367
 5531SOL    HW217493   3.516   3.496   1.310
 5532SOL     OW17494   1.120   3.170   0.886
 5532SOL    HW117495   1.107   3.073   0.909
 5532SOL    HW217496   1.033   3.218   0.891
 5533SOL     OW17497   4.726   1.476   3.689
 5533SOL    HW117498   4.816   1.453   3.653
 5533SOL    HW217499   4.708   1.423   3.772
 5534SOL     OW17500   1.080   1.481   0.242
 5534SOL    HW117501   1.080   1.577   0.217
 5534SOL    HW217502   1.029   1.429   0.174
 5535SOL     OW17503   1.319   1.379   3.119
 5535SOL    HW117504   1.412   1.366   3.155
 5535SOL    HW217505   1.322   1.378   3.019
 5536SOL     OW17506   3.633   0.529   4.134
 5536SOL    HW117507   3.690   0.492   4.060
 5536SOL    HW217508   3.669   0.498   4.222
 5537SOL     OW17509   3.507   1.591   2.016
 5537SOL    HW117510   3.537   1.674   2.063
 5537SOL    HW217511   3.554   1.511   2.054
 5538SOL     OW17512   4.291   5.646   5.261
 5538SOL    HW117513   4.284   5.671   5.357
 5538SOL    HW217514   4.230   5.703   5.207
 5539SOL     OW17515   1.248   3.987   1.746
 5539SOL    HW117516   1.317   3.917   1.729
 5539SOL    HW217517   1.157   3.949   1.734
 5540SOL     OW17518   4.716   4.752   4.080
 5540SOL    HW117519   4.650   4.678   4.070
 5540SOL    HW217520   4.725   4.801   3.993
 5541SOL     OW17521   5.081   0.209   6.348
 5541SOL    HW117522   5.077   0.298   6.395
 5541SOL    HW217523   5.071   0.136   6.416
 5542SOL     OW17524   4.110   3.617   6.172
 5542SOL    HW117525   4.094   3.622   6.271
 5542SOL    HW217526   4.043   3.672   6.124
 5543SOL     OW17527   4.781   4.190   6.698
 5543SOL    HW117528   4.768   4.091   6.692
 5543SOL    HW217529   4.878   4.211   6.685
 5544SOL     OW17530   4.416   5.695   6.735
 5544SOL    HW117531   4.493   5.718   6.675
 5544SOL    HW217532   4.409   5.595   6.742
 5545SOL     OW17533   5.089   0.643   2.900
 5545SOL    HW117534   5.135   0.580   2.837
 5545SOL    HW217535   5.024   0.699   2.849
 5546SOL     OW17536   0.549   4.551   4.532
 5546SOL    HW117537   0.516   4.611   4.605
 5546SOL    HW217538   0.644   4.574   4.510
 5547SOL     OW17539   2.805   6.443   5.142
 5547SOL    HW117540   2.826   6.347   5.160
 5547SOL    HW217541   2.708   6.452   5.121
 5548SOL     OW17542   6.241   3.467   5.826
 5548SOL    HW117543   6.286   3.474   5.915
 5548SOL    HW217544   6.280   3.389   5.776
 5549SOL     OW17545   3.997   4.910   0.250
 5549SOL    HW117546   4.075   4.970   0.228
 5549SOL    HW217547   3.986   4.906   0.349
 5550SOL     OW17548   3.049   5.623   2.373
 5550SOL    HW117549   2.972   5.685   2.388
 5550SOL    HW217550   3.107   5.658   2.299
 5551SOL     OW17551   1.551   0.775   3.048
 5551SOL    HW117552   1.487   0.700   3.060
 5551SOL    HW217553   1.628   0.766   3.112
 5552SOL     OW17554   6.851   1.156   6.921
 5552SOL    HW117555   6.845   1.105   6.835
 5552SOL    HW217556   6.853   1.254   6.901
 5553SOL     OW17557   3.425   6.447   0.556
 5553SOL    HW117558   3.442   6.455   0.654
 5553SOL    HW217559   3.433   6.538   0.514
 5554SOL     OW17560   2.425   1.814   5.760
 5554SOL    HW117561   2.397   1.833   5.854
 5554SOL    HW217562   2.497   1.878   5.732
 5555SOL     OW17563   0.965   5.660   3.487
 5555SOL    HW117564   0.998   5.737   3.432
 5555SOL    HW217565   0.869   5.673   3.509
 5556SOL     OW17566   0.317   2.453   4.600
 5556SOL    HW117567   0.286   2.367   4.641
 5556SOL    HW217568   0.260   2.474   4.521
 5557SOL     OW17569   3.037   5.605   4.201
 5557SOL    HW117570   2.953   5.633   4.249
 5557SOL    HW217571   3.014   5.576   4.108
 5558SOL     OW17572   4.792   3.224   5.375
 5558SOL    HW117573   4.779   3.244   5.277
 5558SOL    HW217574   4.840   3.137   5.385
 5559SOL     OW17575   2.506   6.707   2.167
 5559SOL    HW117576   2.578   6.667   2.110
 5559SOL    HW217577   2.433   6.639   2.181
 5560SOL     OW17578   0.171   6.895   3.260
 5560SOL    HW117579   0.132   6.929   3.175
 5560SOL    HW217580   0.137   6.950   3.337
 5561SOL     OW17581   1.532   2.465   4.261
 5561SOL    HW117582   1.436   2.493   4.260
 5561SOL    HW217583   1.588   2.539   4.224
 5562SOL     OW17584   1.731   2.563   6.251
 5562SOL    HW117585   1.686   2.522   6.172
 5562SOL    HW217586   1.729   2.499   6.327
 5563SOL     OW17587   4.458   6.523   2.192
 5563SOL    HW117588   4.448   6.484   2.101
 5563SOL    HW217589   4.402   6.472   2.257
 5564SOL     OW17590   5.019   2.803   1.448
 5564SOL    HW117591   5.114   2.812   1.480
 5564SOL    HW217592   4.976   2.727   1.497
 5565SOL     OW17593   4.322   2.643   5.950
 5565SOL    HW117594   4.331   2.707   6.027
 5565SOL    HW217595   4.280   2.559   5.983
 5566SOL     OW17596   1.414   5.785   1.264
 5566SOL    HW117597   1.481   5.716   1.238
 5566SOL    HW217598   1.406   5.853   1.191
 5567SOL     OW17599   0.980   4.992   0.853
 5567SOL    HW117600   0.887   4.955   0.857
 5567SOL    HW217601   1.043   4.920   0.821
 5568SOL     OW17602   4.481   2.638   1.040
 5568SOL    HW117603   4.567   2.587   1.038
 5568SOL    HW217604   4.463   2.675   0.949
 5569SOL     OW17605   4.183   1.806   1.653
 5569SOL    HW117606   4.090   1.784   1.685
 5569SOL    HW217607   4.230   1.721   1.630
 5570SOL     OW17608   6.426   4.744   4.823
 5570SOL    HW117609   6.340   4.756   4.873
 5570SOL    HW217610   6.480   4.828   4.830
 5571SOL     OW17611   0.189   6.432   0.654
 5571SOL    HW117612   0.173   6.444   0.556
 5571SOL    HW217613   0.111   6.467   0.706
 5572SOL     OW17614   3.814   2.661   6.413
 5572SOL    HW117615   3.730   2.612   6.389
 5572SOL    HW217616   3.807   2.695   6.507
 5573SOL     OW17617   1.026   3.236   0.469
 5573SOL    HW117618   0.966   3.283   0.534
 5573SOL    HW217619   0.970   3.184   0.404
 5574SOL     OW17620   0.293   0.022   4.544
 5574SOL    HW117621   0.383   0.037   4.504
 5574SOL    HW217622   0.223   0.038   4.475
 5575SOL     OW17623   1.685   1.001   1.315
 5575SOL    HW117624   1.717   0.955   1.398
 5575SOL    HW217625   1.656   0.933   1.248
 5576SOL     OW17626   6.000   5.052   1.381
 5576SOL    HW117627   6.035   4.958   1.379
 5576SOL    HW217628   6.058   5.109   1.323
 5577SOL     OW17629   2.201   3.510   5.122
 5577SOL    HW117630   2.119   3.452   5.123
 5577SOL    HW217631   2.282   3.453   5.137
 5578SOL     OW17632   3.022   2.568   0.078
 5578SOL    HW117633   3.112   2.552   0.119
 5578SOL    HW217634   3.030   2.562   7.008
 5579SOL     OW17635   5.193   3.644   6.099
 5579SOL    HW117636   5.175   3.734   6.059
 5579SOL    HW217637   5.153   3.641   6.191
 5580SOL     OW17638   4.788   2.260   0.357
 5580SOL    HW117639   4.882   2.239   0.384
 5580SOL    HW217640   4.789   2.305   0.268
 5581SOL     OW17641   2.506   0.401   6.921
 5581SOL    HW117642   2.465   0.371   7.007
 5581SOL    HW217643   2.446   0.379   6.845
 5582SOL     OW17644   3.445   3.823   4.050
 5582SOL    HW117645   3.460   3.912   4.009
 5582SOL    HW217646   3.415   3.834   4.145
 5583SOL     OW17647   3.807   6.028   2.487
 5583SOL    HW117648   3.811   5.933   2.456
 5583SOL    HW217649   3.712   6.057   2.494
 5584SOL     OW17650   5.518   4.264   3.248
 5584SOL    HW117651   5.602   4.210   3.244
 5584SOL    HW217652   5.468   4.242   3.332
 5585SOL     OW17653   5.586   0.737   3.729
 5585SOL    HW117654   5.569   0.640   3.743
 5585SOL    HW217655   5.667   0.750   3.672
 5586SOL     OW17656   1.408   1.490   6.422
 5586SOL    HW117657   1.418   1.440   6.337
 5586SOL    HW217658   1.472   1.452   6.490
 5587SOL     OW17659   3.486   0.277   3.304
 5587SOL    HW117660   3.566   0.218   3.293
 5587SOL    HW217661   3.431   0.245   3.381
 5588SOL     OW17662   2.516   6.618   5.152
 5588SOL    HW117663   2.454   6.660   5.219
 5588SOL    HW217664   2.573   6.690   5.111
 5589SOL     OW17665   4.913   3.171   5.903
 5589SOL    HW117666   4.977   3.199   5.832
 5589SOL    HW217667   4.846   3.244   5.919
 5590SOL     OW17668   6.220   5.714   3.832
 5590SOL    HW117669   6.189   5.635   3.778
 5590SOL    HW217670   6.160   5.792   3.814
 5591SOL     OW17671   5.927   0.744   0.527
 5591SOL    HW117672   5.972   0.702   0.448
 5591SOL    HW217673   5.904   0.673   0.593
 5592SOL     OW17674   2.149   3.583   3.843
 5592SOL    HW117675   2.233   3.637   3.841
 5592SOL    HW217676   2.113   3.582   3.937
 5593SOL     OW17677   0.543   2.332   5.878
 5593SOL    HW117678   0.554   2.361   5.783
 5593SOL    HW217679   0.581   2.403   5.938
 5594SOL     OW17680   2.158   0.847   0.323
 5594SOL    HW117681   2.118   0.880   0.408
 5594SOL    HW217682   2.202   0.923   0.275
 5595SOL     OW17683   6.322   0.741   5.935
 5595SOL    HW117684   6.332   0.720   6.032
 5595SOL    HW217685   6.375   0.676   5.881
 5596SOL     OW17686   6.145   0.427   2.395
 5596SOL    HW117687   6.161   0.384   2.484
 5596SOL    HW217688   6.072   0.378   2.347
 5597SOL     OW17689   5.483   2.129   6.262
 5597SOL    HW117690   5.506   2.221   6.232
 5597SOL    HW217691   5.400   2.132   6.318
 5598SOL     OW17692   5.178   1.700   4.079
 5598SOL    HW117693   5.139   1.737   3.995
 5598SOL    HW217694   5.116   1.631   4.116
 5599SOL     OW17695   5.728   3.844   1.525
 5599SOL    HW117696   5.632   3.822   1.507
 5599SOL    HW217697   5.748   3.826   1.621
 5600SOL     OW17698   2.283   0.238   3.129
 5600SOL    HW117699   2.308   0.143   3.108
 5600SOL    HW217700   2.322   0.264   3.217
 5601SOL     OW17701   5.331   3.349   5.840
 5601SOL    HW117702   5.416   3.397   5.864
 5601SOL    HW217703   5.282   3.324   5.923
 5602SOL     OW17704   0.542   2.240   3.202
 5602SOL    HW117705   0.622   2.296   3.182
 5602SOL    HW217706   0.569   2.144   3.212
 5603SOL     OW17707   4.494   2.859   5.441
 5603SOL    HW117708   4.516   2.855   5.344
 5603SOL    HW217709   4.473   2.767   5.474
 5604SOL     OW17710   1.219   0.002   4.759
 5604SOL    HW117711   1.217   6.934   4.736
 5604SOL    HW217712   1.153   0.020   4.832
 5605SOL     OW17713   1.530   6.713   4.636
 5605SOL    HW117714   1.432   6.699   4.653
 5605SOL    HW217715   1.543   6.801   4.590
 5606SOL     OW17716   4.987   1.614   0.109
 5606SOL    HW117717   4.944   1.645   0.194
 5606SOL    HW217718   4.960   1.673   0.034
 5607SOL     OW17719   5.940   2.250   3.567
 5607SOL    HW117720   6.015   2.196   3.529
 5607SOL    HW217721   5.939   2.341   3.525
 5608SOL     OW17722   5.737   0.373   3.417
 5608SOL    HW117723   5.813   0.310   3.402
 5608SOL    HW217724   5.754   0.458   3.368
 5609SOL     OW17725   5.291   6.892   6.987
 5609SOL    HW117726   5.309   6.875   0.055
 5609SOL    HW217727   5.312   6.809   6.935
 5610SOL     OW17728   5.345   3.733   6.903
 5610SOL    HW117729   5.255   3.700   6.930
 5610SOL    HW217730   5.416   3.684   6.955
 5611SOL     OW17731   0.807   5.054   1.443
 5611SOL    HW117732   0.855   5.136   1.415
 5611SOL    HW217733   0.738   5.030   1.373
 5612SOL     OW17734   2.671   2.443   0.089
 5612SOL    HW117735   2.659   2.471   0.184
 5612SOL    HW217736   2.601   2.375   0.065
 5613SOL     OW17737   0.036   5.461   4.854
 5613SOL    HW117738   6.971   5.457   4.820
 5613SOL    HW217739   0.100   5.454   4.778
 5614SOL     OW17740   5.682   1.880   5.147
 5614SOL    HW117741   5.756   1.828   5.105
 5614SOL    HW217742   5.720   1.955   5.201
 5615SOL     OW17743   0.369   2.654   2.452
 5615SOL    HW117744   0.296   2.603   2.496
 5615SOL    HW217745   0.332   2.739   2.414
 5616SOL     OW17746   1.776   2.725   4.391
 5616SOL    HW117747   1.852   2.660   4.400
 5616SOL    HW217748   1.730   2.709   4.304
 5617SOL     OW17749   1.686   5.174   5.819
 5617SOL    HW117750   1.762   5.237   5.807
 5617SOL    HW217751   1.600   5.225   5.817
 5618SOL     OW17752   6.861   4.956   3.947
 5618SOL    HW117753   6.833   5.006   3.865
 5618SOL    HW217754   6.788   4.961   4.015
 5619SOL     OW17755   3.194   2.986   3.477
 5619SOL    HW117756   3.279   2.945   3.444
 5619SOL    HW217757   3.206   3.016   3.572
 5620SOL     OW17758   4.187   4.064   6.024
 5620SOL    HW117759   4.120   4.118   6.076
 5620SOL    HW217760   4.263   4.040   6.084
 5621SOL     OW17761   1.441   2.967   5.927
 5621SOL    HW117762   1.478   3.031   5.995
 5621SOL    HW217763   1.358   3.006   5.887
 5622SOL     OW17764   4.609   5.744   4.692
 5622SOL    HW117765   4.648   5.653   4.703
 5622SOL    HW217766   4.603   5.768   4.595
 5623SOL     OW17767   4.996   6.258   4.358
 5623SOL    HW117768   4.914   6.222   4.313
 5623SOL    HW217769   4.979   6.268   4.456
 5624SOL     OW17770   0.325   5.238   3.553
 5624SOL    HW117771   0.284   5.212   3.466
 5624SOL    HW217772   0.254   5.244   3.623
 5625SOL     OW17773   1.608   5.515   4.643
 5625SOL    HW117774   1.518   5.549   4.615
 5625SOL    HW217775   1.676   5.586   4.628
 5626SOL     OW17776   2.037   4.275   4.064
 5626SOL    HW117777   2.046   4.371   4.037
 5626SOL    HW217778   2.125   4.229   4.053
 5627SOL     OW17779   1.067   5.819   6.806
 5627SOL    HW117780   1.023   5.904   6.833
 5627SOL    HW217781   0.998   5.747   6.797
 5628SOL     OW17782   2.982   3.349   0.915
 5628SOL    HW117783   2.925   3.276   0.878
 5628SOL    HW217784   2.962   3.435   0.867
 5629SOL     OW17785   4.128   3.651   1.154
 5629SOL    HW117786   4.178   3.690   1.232
 5629SOL    HW217787   4.193   3.624   1.084
 5630SOL     OW17788   1.463   4.139   6.639
 5630SOL    HW117789   1.494   4.234   6.629
 5630SOL    HW217790   1.539   4.077   6.619
 5631SOL     OW17791   5.051   0.913   1.634
 5631SOL    HW117792   5.053   0.928   1.536
 5631SOL    HW217793   4.958   0.927   1.668
 5632SOL     OW17794   5.116   1.002   5.586
 5632SOL    HW117795   5.072   0.944   5.655
 5632SOL    HW217796   5.190   1.053   5.628
 5633SOL     OW17797   0.193   4.471   4.882
 5633SOL    HW117798   0.139   4.392   4.910
 5633SOL    HW217799   0.144   4.522   4.811
 5634SOL     OW17800   2.903   5.403   5.873
 5634SOL    HW117801   2.886   5.344   5.794
 5634SOL    HW217802   2.993   5.381   5.912
 5635SOL     OW17803   2.953   0.219   6.700
 5635SOL    HW117804   2.879   0.285   6.696
 5635SOL    HW217805   2.990   0.215   6.793
 5636SOL     OW17806   6.241   1.379   5.621
 5636SOL    HW117807   6.230   1.293   5.571
 5636SOL    HW217808   6.192   1.452   5.574
 5637SOL     OW17809   5.698   5.987   4.960
 5637SOL    HW117810   5.709   5.902   5.012
 5637SOL    HW217811   5.609   6.027   4.982
 5638SOL     OW17812   5.038   5.967   1.338
 5638SOL    HW117813   5.060   5.907   1.415
 5638SOL    HW217814   5.063   6.061   1.361
 5639SOL     OW17815   1.744   0.388   2.027
 5639SOL    HW117816   1.799   0.375   2.109
 5639SOL    HW217817   1.758   0.311   1.964
 5640SOL     OW17818   2.718   6.717   3.014
 5640SOL    HW117819   2.723   6.632   2.962
 5640SOL    HW217820   2.805   6.733   3.060
 5641SOL     OW17821   1.327   4.292   5.377
 5641SOL    HW117822   1.351   4.196   5.363
 5641SOL    HW217823   1.273   4.301   5.460
 5642SOL     OW17824   0.675   4.992   5.927
 5642SOL    HW117825   0.699   5.063   5.994
 5642SOL    HW217826   0.724   4.908   5.949
 5643SOL     OW17827   3.590   2.061   4.914
 5643SOL    HW117828   3.543   2.112   4.843
 5643SOL    HW217829   3.644   2.124   4.970
 5644SOL     OW17830   4.958   1.501   4.496
 5644SOL    HW117831   4.889   1.440   4.456
 5644SOL    HW217832   5.048   1.480   4.456
 5645SOL     OW17833   5.242   4.477   2.460
 5645SOL    HW117834   5.235   4.498   2.363
 5645SOL    HW217835   5.156   4.438   2.492
 5646SOL     OW17836   0.929   5.606   3.770
 5646SOL    HW117837   0.910   5.629   3.675
 5646SOL    HW217838   0.851   5.632   3.827
 5647SOL     OW17839   0.054   6.121   6.850
 5647SOL    HW117840   0.006   6.041   6.887
 5647SOL    HW217841   7.023   6.200   6.853
 5648SOL     OW17842   2.085   1.488   3.380
 5648SOL    HW117843   2.118   1.407   3.331
 5648SOL    HW217844   2.158   1.524   3.438
 5649SOL     OW17845   1.749   0.304   4.892
 5649SOL    HW117846   1.722   0.399   4.876
 5649SOL    HW217847   1.694   0.265   4.965
 5650SOL     OW17848   0.054   4.917   0.962
 5650SOL    HW117849   0.094   4.972   0.888
 5650SOL    HW217850   7.027   4.976   1.020
 5651SOL     OW17851   0.599   2.294   1.587
 5651SOL    HW117852   0.535   2.217   1.583
 5651SOL    HW217853   0.688   2.261   1.620
 5652SOL     OW17854   4.972   5.979   1.984
 5652SOL    HW117855   4.989   6.059   2.041
 5652SOL    HW217856   4.887   5.991   1.933
 5653SOL     OW17857   6.782   6.472   5.960
 5653SOL    HW117858   6.790   6.407   5.883
 5653SOL    HW217859   6.798   6.423   6.046
 5654SOL     OW17860   0.153   6.950   6.125
 5654SOL    HW117861   0.209   6.924   6.204
 5654SOL    HW217862   0.212   6.979   6.050
 5655SOL     OW17863   1.046   2.894   4.394
 5655SOL    HW117864   1.102   2.824   4.438
 5655SOL    HW217865   1.049   2.882   4.295
 5656SOL     OW17866   3.215   4.299   0.914
 5656SOL    HW117867   3.236   4.391   0.947
 5656SOL    HW217868   3.122   4.297   0.876
 5657SOL     OW17869   4.943   6.529   1.583
 5657SOL    HW117870   4.885   6.468   1.638
 5657SOL    HW217871   4.919   6.624   1.604
 5658SOL     OW17872   3.084   6.749   6.145
 5658SOL    HW117873   3.024   6.797   6.080
 5658SOL    HW217874   3.126   6.816   6.206
 5659SOL     OW17875   2.887   3.280   2.872
 5659SOL    HW117876   2.907   3.346   2.944
 5659SOL    HW217877   2.792   3.291   2.842
 5660SOL     OW17878   5.221   0.635   0.103
 5660SOL    HW117879   5.246   0.673   0.193
 5660SOL    HW217880   5.300   0.587   0.064
 5661SOL     OW17881   0.147   5.519   5.219
 5661SOL    HW117882   0.159   5.454   5.293
 5661SOL    HW217883   0.196   5.603   5.240
 5662SOL     OW17884   2.685   5.118   4.286
 5662SOL    HW117885   2.704   5.064   4.204
 5662SOL    HW217886   2.608   5.077   4.335
 5663SOL     OW17887   1.340   3.851   0.047
 5663SOL    HW117888   1.383   3.941   0.041
 5663SOL    HW217889   1.411   3.781   0.057
 5664SOL     OW17890   0.352   4.269   3.440
 5664SOL    HW117891   0.300   4.185   3.427
 5664SOL    HW217892   0.448   4.246   3.459
 5665SOL     OW17893   1.478   1.787   6.482
 5665SOL    HW117894   1.444   1.699   6.450
 5665SOL    HW217895   1.427   1.814   6.563
 5666SOL     OW17896   4.753   5.605   1.107
 5666SOL    HW117897   4.800   5.523   1.072
 5666SOL    HW217898   4.818   5.661   1.159
 5667SOL     OW17899   1.255   4.902   3.483
 5667SOL    HW117900   1.172   4.920   3.536
 5667SOL    HW217901   1.269   4.803   3.476
 5668SOL     OW17902   5.692   2.122   6.497
 5668SOL    HW117903   5.701   2.216   6.530
 5668SOL    HW217904   5.610   2.115   6.439
 5669SOL     OW17905   0.780   4.477   6.109
 5669SOL    HW117906   0.690   4.470   6.151
 5669SOL    HW217907   0.789   4.407   6.037
 5670SOL     OW17908   6.907   2.914   3.771
 5670SOL    HW117909   6.974   2.933   3.842
 5670SOL    HW217910   6.822   2.962   3.791
 5671SOL     OW17911   1.423   6.812   6.517
 5671SOL    HW117912   1.354   6.752   6.557
 5671SOL    HW217913   1.407   6.906   6.547
 5672SOL     OW17914   4.474   4.097   6.185
 5672SOL    HW117915   4.494   4.093   6.087
 5672SOL    HW217916   4.405   4.168   6.202
 5673SOL     OW17917   0.240   6.883   1.941
 5673SOL    HW117918   0.141   6.874   1.957
 5673SOL    HW217919   0.288   6.882   2.028
 5674SOL     OW17920   6.827   4.101   2.032
 5674SOL    HW117921   6.779   4.090   2.119
 5674SOL    HW217922   6.925   4.084   2.046
 5675SOL     OW17923   4.238   2.332   5.512
 5675SOL    HW117924   4.296   2.341   5.593
 5675SOL    HW217925   4.143   2.321   5.540
 5676SOL     OW17926   1.976   1.222   1.495
 5676SOL    HW117927   1.888   1.260   1.524
 5676SOL    HW217928   1.972   1.201   1.397
 5677SOL     OW17929   0.771   1.639   3.563
 5677SOL    HW117930   0.759   1.607   3.657
 5677SOL    HW217931   0.856   1.602   3.526
 5678SOL     OW17932   3.762   6.143   3.192
 5678SOL    HW117933   3.827   6.183   3.257
 5678SOL    HW217934   3.812   6.090   3.124
 5679SOL     OW17935   2.029   6.235   4.692
 5679SOL    HW117936   1.966   6.160   4.670
 5679SOL    HW217937   2.055   6.283   4.608
 5680SOL     OW17938   1.684   5.711   0.000
 5680SOL    HW117939   1.748   5.762   0.057
 5680SOL    HW217940   1.602   5.766   7.014
 5681SOL     OW17941   1.034   3.200   6.345
 5681SOL    HW117942   1.114   3.169   6.397
 5681SOL    HW217943   1.046   3.176   6.249
 5682SOL     OW17944   2.051   3.532   5.659
 5682SOL    HW117945   2.085   3.591   5.732
 5682SOL    HW217946   1.981   3.581   5.607
 5683SOL     OW17947   4.125   2.469   5.826
 5683SOL    HW117948   4.054   2.533   5.855
 5683SOL    HW217949   4.209   2.520   5.805
 5684SOL     OW17950   3.841   3.645   4.717
 5684SOL    HW117951   3.751   3.683   4.697
 5684SOL    HW217952   3.900   3.717   4.753
 5685SOL     OW17953   0.842   4.980   1.845
 5685SOL    HW117954   0.887   4.949   1.929
 5685SOL    HW217955   0.900   5.047   1.799
 5686SOL     OW17956   3.438   0.773   0.403
 5686SOL    HW117957   3.443   0.739   0.496
 5686SOL    HW217958   3.529   0.806   0.374
 5687SOL     OW17959   6.230   4.164   4.617
 5687SOL    HW117960   6.143   4.148   4.569
 5687SOL    HW217961   6.287   4.082   4.610
 5688SOL     OW17962   6.527   1.616   0.560
 5688SOL    HW117963   6.427   1.615   0.552
 5688SOL    HW217964   6.552   1.608   0.657
 5689SOL     OW17965   4.021   1.190   0.639
 5689SOL    HW117966   3.928   1.202   0.604
 5689SOL    HW217967   4.061   1.280   0.657
 5690SOL     OW17968   3.133   6.345   1.117
 5690SOL    HW117969   3.049   6.318   1.069
 5690SOL    HW217970   3.212   6.317   1.064
 5691SOL     OW17971   3.114   6.286   2.158
 5691SOL    HW117972   3.180   6.216   2.130
 5691SOL    HW217973   3.045   6.245   2.218
 5692SOL     OW17974   0.006   2.162   6.094
 5692SOL    HW117975   0.015   2.079   6.038
 5692SOL    HW217976   0.085   2.221   6.078
 5693SOL     OW17977   5.097   2.781   2.024
 5693SOL    HW117978   5.028   2.835   2.072
 5693SOL    HW217979   5.084   2.684   2.045
 5694SOL     OW17980   0.682   1.634   3.952
 5694SOL    HW117981   0.713   1.592   3.867
 5694SOL    HW217982   0.654   1.729   3.935
 5695SOL     OW17983   1.298   2.163   3.229
 5695SOL    HW117984   1.263   2.138   3.319
 5695SOL    HW217985   1.373   2.102   3.205
 5696SOL     OW17986   2.842   1.079   3.858
 5696SOL    HW117987   2.864   1.108   3.765
 5696SOL    HW217988   2.852   0.980   3.866
 5697SOL     OW17989   6.291   2.189   1.766
 5697SOL    HW117990   6.318   2.273   1.720
 5697SOL    HW217991   6.297   2.112   1.703
 5698SOL     OW17992   0.064   2.322   2.354
 5698SOL    HW117993   0.111   2.252   2.409
 5698SOL    HW217994   0.128   2.362   2.289
 5699SOL     OW17995   6.381   1.445   3.857
 5699SOL    HW117996   6.338   1.498   3.783
 5699SOL    HW217997   6.317   1.436   3.933
 5700SOL     OW17998   0.029   5.747   4.478
 5700SOL    HW117999   6.997   5.740   4.557
 5700SOL    HW218000   0.008   5.830   4.427
 5701SOL     OW18001   0.901   5.416   3.315
 5701SOL    HW118002   0.919   5.423   3.217
 5701SOL    HW218003   0.984   5.441   3.366
 5702SOL     OW18004   2.077   6.956   5.712
 5702SOL    HW118005   2.073   6.858   5.731
 5702SOL    HW218006   2.168   6.980   5.678
 5703SOL     OW18007   4.790   4.609   0.517
 5703SOL    HW118008   4.817   4.676   0.448
 5703SOL    HW218009   4.690   4.610   0.526
 5704SOL     OW18010   4.072   5.648   2.743
 5704SOL    HW118011   3.990   5.634   2.798
 5704SOL    HW218012   4.124   5.725   2.780
 5705SOL     OW18013   5.996   1.535   0.308
 5705SOL    HW118014   5.953   1.454   0.347
 5705SOL    HW218015   5.939   1.615   0.325
 5706SOL     OW18016   1.810   1.713   0.429
 5706SOL    HW118017   1.859   1.628   0.451
 5706SOL    HW218018   1.719   1.690   0.395
 5707SOL     OW18019   1.184   6.737   7.012
 5707SOL    HW118020   1.199   6.676   6.934
 5707SOL    HW218021   1.085   6.749   7.025
 5708SOL     OW18022   5.470   6.994   1.872
 5708SOL    HW118023   5.493   0.052   1.915
 5708SOL    HW218024   5.380   7.001   1.829
 5709SOL     OW18025   1.013   6.071   3.362
 5709SOL    HW118026   0.956   6.120   3.296
 5709SOL    HW218027   0.996   5.973   3.353
 5710SOL     OW18028   2.478   3.458   5.348
 5710SOL    HW118029   2.506   3.457   5.444
 5710SOL    HW218030   2.441   3.548   5.325
 5711SOL     OW18031   4.872   0.337   2.982
 5711SOL    HW118032   4.957   0.297   2.949
 5711SOL    HW218033   4.877   0.437   2.973
 5712SOL     OW18034   0.942   6.562   5.393
 5712SOL    HW118035   0.880   6.574   5.316
 5712SOL    HW218036   0.999   6.643   5.403
 5713SOL     OW18037   0.844   2.395   1.434
 5713SOL    HW118038   0.833   2.309   1.385
 5713SOL    HW218039   0.778   2.399   1.509
 5714SOL     OW18040   1.498   6.816   6.895
 5714SOL    HW118041   1.499   6.748   6.822
 5714SOL    HW218042   1.428   6.792   6.962
 5715SOL     OW18043   0.874   5.692   2.899
 5715SOL    HW118044   0.792   5.686   2.955
 5715SOL    HW218045   0.912   5.785   2.904
 5716SOL     OW18046   0.729   3.845   5.138
 5716SOL    HW118047   0.685   3.782   5.202
 5716SOL    HW218048   0.661   3.911   5.104
 5717SOL     OW18049   1.843   5.173   0.065
 5717SOL    HW118050   1.778   5.099   0.049
 5717SOL    HW218051   1.924   5.160   0.008
 5718SOL     OW18052   1.756   4.650   6.327
 5718SOL    HW118053   1.733   4.747   6.320
 5718SOL    HW218054   1.754   4.608   6.236
 5719SOL     OW18055   2.564   1.066   5.583
 5719SOL    HW118056   2.496   1.000   5.550
 5719SOL    HW218057   2.590   1.042   5.677
 5720SOL     OW18058   0.256   5.393   4.698
 5720SOL    HW118059   0.195   5.351   4.630
 5720SOL    HW218060   0.349   5.359   4.685
 5721SOL     OW18061   0.974   4.021   0.101
 5721SOL    HW118062   0.900   3.986   0.158
 5721SOL    HW218063   0.976   4.121   0.107
 5722SOL     OW18064   5.491   1.459   5.089
 5722SOL    HW118065   5.460   1.474   5.184
 5722SOL    HW218066   5.465   1.538   5.033
 5723SOL     OW18067   4.495   4.332   0.616
 5723SOL    HW118068   4.478   4.235   0.605
 5723SOL    HW218069   4.441   4.368   0.692
 5724SOL     OW18070   3.929   2.318   5.348
 5724SOL    HW118071   3.959   2.399   5.296
 5724SOL    HW218072   3.931   2.339   5.445
 5725SOL     OW18073   5.180   5.922   3.125
 5725SOL    HW118074   5.242   5.997   3.103
 5725SOL    HW218075   5.091   5.940   3.083
 5726SOL     OW18076   6.426   2.947   4.007
 5726SOL    HW118077   6.464   2.867   4.054
 5726SOL    HW218078   6.376   2.918   3.926
 5727SOL     OW18079   6.000   3.394   3.218
 5727SOL    HW118080   6.095   3.371   3.237
 5727SOL    HW218081   5.943   3.363   3.294
 5728SOL     OW18082   4.800   2.096   6.367
 5728SOL    HW118083   4.801   2.122   6.463
 5728SOL    HW218084   4.708   2.109   6.330
 5729SOL     OW18085   0.994   1.493   1.137
 5729SOL    HW118086   1.021   1.454   1.225
 5729SOL    HW218087   0.934   1.572   1.154
 5730SOL     OW18088   4.738   5.702   5.387
 5730SOL    HW118089   4.759   5.624   5.447
 5730SOL    HW218090   4.644   5.733   5.404
 5731SOL     OW18091   1.988   6.698   3.848
 5731SOL    HW118092   1.958   6.780   3.799
 5731SOL    HW218093   2.085   6.682   3.829
 5732SOL     OW18094   6.217   4.807   4.960
 5732SOL    HW118095   6.251   4.887   5.009
 5732SOL    HW218096   6.213   4.729   5.023
 5733SOL     OW18097   3.532   1.067   5.733
 5733SOL    HW118098   3.507   0.992   5.795
 5733SOL    HW218099   3.576   1.029   5.652
 5734SOL     OW18100   0.868   6.711   6.024
 5734SOL    HW118101   0.929   6.676   5.952
 5734SOL    HW218102   0.795   6.644   6.041
 5735SOL     OW18103   3.776   1.024   2.129
 5735SOL    HW118104   3.785   0.977   2.217
 5735SOL    HW218105   3.686   1.003   2.090
 5736SOL     OW18106   5.226   4.544   6.888
 5736SOL    HW118107   5.242   4.608   6.963
 5736SOL    HW218108   5.217   4.451   6.924
 5737SOL     OW18109   5.357   6.031   0.867
 5737SOL    HW118110   5.389   6.068   0.954
 5737SOL    HW218111   5.385   6.091   0.792
 5738SOL     OW18112   3.830   1.372   6.494
 5738SOL    HW118113   3.813   1.308   6.420
 5738SOL    HW218114   3.755   1.439   6.498
 5739SOL     OW18115   1.520   6.844   5.834
 5739SOL    HW118116   1.437   6.794   5.854
 5739SOL    HW218117   1.591   6.781   5.802
 5740SOL     OW18118   4.422   3.353   1.134
 5740SOL    HW118119   4.373   3.308   1.209
 5740SOL    HW218120   4.360   3.365   1.056
 5741SOL     OW18121   6.695   3.420   3.909
 5741SOL    HW118122   6.673   3.406   3.812
 5741SOL    HW218123   6.640   3.495   3.945
 5742SOL     OW18124   4.416   6.596   3.357
 5742SOL    HW118125   4.375   6.620   3.445
 5742SOL    HW218126   4.382   6.658   3.286
 5743SOL     OW18127   3.434   5.705   5.465
 5743SOL    HW118128   3.394   5.657   5.543
 5743SOL    HW218129   3.454   5.799   5.490
 5744SOL     OW18130   5.503   0.890   2.593
 5744SOL    HW118131   5.598   0.861   2.589
 5744SOL    HW218132   5.490   0.954   2.668
 5745SOL     OW18133   2.382   1.000   4.491
 5745SOL    HW118134   2.354   0.929   4.426
 5745SOL    HW218135   2.360   1.090   4.453
 5746SOL     OW18136   4.859   6.970   2.283
 5746SOL    HW118137   4.793   7.011   2.219
 5746SOL    HW218138   4.952   6.992   2.253
 5747SOL     OW18139   0.448   6.253   1.916
 5747SOL    HW118140   0.495   6.188   1.857
 5747SOL    HW218141   0.358   6.274   1.877
 5748SOL     OW18142   1.419   0.225   1.449
 5748SOL    HW118143   1.328   0.260   1.470
 5748SOL    HW218144   1.475   0.298   1.410
 5749SOL     OW18145   1.606   6.077   4.913
 5749SOL    HW118146   1.583   6.013   4.840
 5749SOL    HW218147   1.609   6.028   5.001
 5750SOL     OW18148   6.201   5.400   5.683
 5750SOL    HW118149   6.259   5.391   5.764
 5750SOL    HW218150   6.128   5.332   5.686
 5751SOL     OW18151   1.683   3.498   4.831
 5751SOL    HW118152   1.676   3.406   4.791
 5751SOL    HW218153   1.651   3.566   4.765
 5752SOL     OW18154   5.504   0.128   0.912
 5752SOL    HW118155   5.544   0.194   0.977
 5752SOL    HW218156   5.469   0.049   0.962
 5753SOL     OW18157   2.948   3.197   4.828
 5753SOL    HW118158   2.851   3.174   4.826
 5753SOL    HW218159   2.971   3.239   4.917
 5754SOL     OW18160   0.925   6.094   1.602
 5754SOL    HW118161   0.850   6.153   1.630
 5754SOL    HW218162   0.902   5.998   1.621
 5755SOL     OW18163   1.604   2.051   5.528
 5755SOL    HW118164   1.587   2.070   5.431
 5755SOL    HW218165   1.585   2.134   5.581
 5756SOL     OW18166   0.332   0.390   2.877
 5756SOL    HW118167   0.320   0.456   2.804
 5756SOL    HW218168   0.294   0.302   2.849
 5757SOL     OW18169   0.408   5.360   4.295
 5757SOL    HW118170   0.335   5.415   4.253
 5757SOL    HW218171   0.475   5.420   4.337
 5758SOL     OW18172   2.387   0.762   2.843
 5758SOL    HW118173   2.418   0.791   2.934
 5758SOL    HW218174   2.465   0.762   2.780
 5759SOL     OW18175   4.817   0.873   0.645
 5759SOL    HW118176   4.721   0.867   0.617
 5759SOL    HW218177   4.874   0.889   0.564
 5760SOL     OW18178   6.396   2.451   1.684
 5760SOL    HW118179   6.353   2.542   1.685
 5760SOL    HW218180   6.491   2.460   1.657
 5761SOL     OW18181   5.641   5.211   5.550
 5761SOL    HW118182   5.699   5.143   5.505
 5761SOL    HW218183   5.698   5.269   5.609
 5762SOL     OW18184   4.630   4.177   0.848
 5762SOL    HW118185   4.534   4.195   0.871
 5762SOL    HW218186   4.689   4.217   0.918
 5763SOL     OW18187   5.769   6.342   0.707
 5763SOL    HW118188   5.709   6.402   0.760
 5763SOL    HW218189   5.829   6.398   0.649
 5764SOL     OW18190   4.312   5.371   4.052
 5764SOL    HW118191   4.261   5.290   4.023
 5764SOL    HW218192   4.338   5.360   4.149
 5765SOL     OW18193   6.558   3.293   0.870
 5765SOL    HW118194   6.547   3.201   0.906
 5765SOL    HW218195   6.523   3.359   0.936
 5766SOL     OW18196   1.923   1.593   4.965
 5766SOL    HW118197   1.889   1.499   4.967
 5766SOL    HW218198   1.846   1.656   4.953
 5767SOL     OW18199   2.791   0.368   0.524
 5767SOL    HW118200   2.869   0.305   0.528
 5767SOL    HW218201   2.825   0.462   0.519
 5768SOL     OW18202   0.869   0.009   3.779
 5768SOL    HW118203   0.840   6.984   3.857
 5768SOL    HW218204   0.815   0.093   3.775
 5769SOL     OW18205   2.984   6.009   4.655
 5769SOL    HW118206   2.947   6.056   4.735
 5769SOL    HW218207   2.924   5.932   4.631
 5770SOL     OW18208   6.686   6.837   6.626
 5770SOL    HW118209   6.647   6.893   6.553
 5770SOL    HW218210   6.729   6.756   6.586
 5771SOL     OW18211   1.919   7.019   4.201
 5771SOL    HW118212   1.906   0.042   4.116
 5771SOL    HW218213   1.843   0.010   4.263
 5772SOL     OW18214   5.338   1.303   1.184
 5772SOL    HW118215   5.322   1.274   1.089
 5772SOL    HW218216   5.424   1.354   1.189
 5773SOL     OW18217   4.036   0.808   3.162
 5773SOL    HW118218   4.024   0.768   3.253
 5773SOL    HW218219   4.101   0.884   3.167
 5774SOL     OW18220   2.800   0.471   4.484
 5774SOL    HW118221   2.732   0.422   4.539
 5774SOL    HW218222   2.871   0.407   4.454
 5775SOL     OW18223   1.096   6.905   2.743
 5775SOL    HW118224   1.155   6.983   2.723
 5775SOL    HW218225   1.033   6.891   2.667
 5776SOL     OW18226   1.495   0.430   3.740
 5776SOL    HW118227   1.470   0.485   3.660
 5776SOL    HW218228   1.467   0.335   3.725
 5777SOL     OW18229   0.769   6.922   4.047
 5777SOL    HW118230   0.866   6.931   4.072
 5777SOL    HW218231   0.713   6.965   4.118
 5778SOL     OW18232   1.464   0.165   0.465
 5778SOL    HW118233   1.524   0.187   0.542
 5778SOL    HW218234   1.468   0.067   0.447
 5779SOL     OW18235   4.366   2.679   0.243
 5779SOL    HW118236   4.372   2.580   0.238
 5779SOL    HW218237   4.448   2.716   0.288
 5780SOL     OW18238   6.280   6.045   4.294
 5780SOL    HW118239   6.284   5.996   4.381
 5780SOL    HW218240   6.185   6.048   4.263
 5781SOL     OW18241   6.848   4.620   4.225
 5781SOL    HW118242   6.803   4.538   4.261
 5781SOL    HW218243   6.785   4.698   4.230
 5782SOL     OW18244   1.886   1.900   0.627
 5782SOL    HW118245   1.852   1.826   0.569
 5782SOL    HW218246   1.982   1.883   0.650
 5783SOL     OW18247   0.924   0.783   2.044
 5783SOL    HW118248   0.908   0.744   2.134
 5783SOL    HW218249   0.856   0.748   1.980
 5784SOL     OW18250   0.756   6.590   5.178
 5784SOL    HW118251   0.782   6.663   5.115
 5784SOL    HW218252   0.724   6.511   5.126
 5785SOL     OW18253   1.625   2.729   0.372
 5785SOL    HW118254   1.674   2.642   0.373
 5785SOL    HW218255   1.596   2.752   0.465
 5786SOL     OW18256   0.152   3.800   0.764
 5786SOL    HW118257   0.178   3.729   0.829
 5786SOL    HW218258   0.188   3.888   0.794
 5787SOL     OW18259   2.376   2.232   4.901
 5787SOL    HW118260   2.473   2.244   4.918
 5787SOL    HW218261   2.331   2.197   4.984
 5788SOL     OW18262   3.034   1.438   1.987
 5788SOL    HW118263   3.054   1.527   1.946
 5788SOL    HW218264   2.935   1.422   1.987
 5789SOL     OW18265   3.703   4.803   0.557
 5789SOL    HW118266   3.776   4.871   0.553
 5789SOL    HW218267   3.722   4.730   0.491
 5790SOL     OW18268   1.409   4.307   4.603
 5790SOL    HW118269   1.441   4.239   4.670
 5790SOL    HW218270   1.469   4.305   4.523
 5791SOL     OW18271   4.023   1.004   2.015
 5791SOL    HW118272   4.073   0.991   2.100
 5791SOL    HW218273   3.931   1.038   2.036
 5792SOL     OW18274   6.888   2.806   2.771
 5792SOL    HW118275   6.826   2.810   2.849
 5792SOL    HW218276   6.845   2.754   2.697
 5793SOL     OW18277   4.969   0.663   3.610
 5793SOL    HW118278   5.035   0.587   3.611
 5793SOL    HW218279   4.922   0.668   3.698
 5794SOL     OW18280   3.423   1.667   0.314
 5794SOL    HW118281   3.422   1.707   0.405
 5794SOL    HW218282   3.343   1.699   0.262
 5795SOL     OW18283   6.977   6.658   0.319
 5795SOL    HW118284   6.925   6.744   0.320
 5795SOL    HW218285   6.928   6.590   0.373
 5796SOL     OW18286   3.962   1.433   0.118
 5796SOL    HW118287   3.943   1.521   0.163
 5796SOL    HW218288   4.035   1.385   0.166
 5797SOL     OW18289   4.995   2.339   5.726
 5797SOL    HW118290   5.025   2.375   5.815
 5797SOL    HW218291   5.037   2.393   5.653
 5798SOL     OW18292   0.704   4.411   5.191
 5798SOL    HW118293   0.660   4.326   5.163
 5798SOL    HW218294   0.760   4.395   5.273
 5799SOL     OW18295   6.355   0.737   3.031
 5799SOL    HW118296   6.333   0.683   2.950
 5799SOL    HW218297   6.452   0.727   3.052
 5800SOL     OW18298   5.973   6.317   1.250
 5800SOL    HW118299   5.926   6.244   1.201
 5800SOL    HW218300   5.906   6.382   1.286
 5801SOL     OW18301   2.086   1.884   3.741
 5801SOL    HW118302   1.992   1.853   3.757
 5801SOL    HW218303   2.111   1.867   3.646
 5802SOL     OW18304   1.522   4.474   1.249
 5802SOL    HW118305   1.438   4.524   1.267
 5802SOL    HW218306   1.577   4.470   1.332
 5803SOL     OW18307   1.584   5.102   2.370
 5803SOL    HW118308   1.605   5.117   2.273
 5803SOL    HW218309   1.503   5.045   2.379
 5804SOL     OW18310   0.466   5.196   4.065
 5804SOL    HW118311   0.446   5.256   4.143
 5804SOL    HW218312   0.556   5.218   4.028
 5805SOL     OW18313   2.357   3.851   6.142
 5805SOL    HW118314   2.344   3.761   6.101
 5805SOL    HW218315   2.316   3.853   6.233
 5806SOL     OW18316   0.277   5.734   5.288
 5806SOL    HW118317   0.361   5.680   5.275
 5806SOL    HW218318   0.279   5.775   5.379
 5807SOL     OW18319   0.415   3.701   1.992
 5807SOL    HW118320   0.348   3.758   1.945
 5807SOL    HW218321   0.423   3.730   2.087
 5808SOL     OW18322   5.522   5.204   4.861
 5808SOL    HW118323   5.478   5.277   4.913
 5808SOL    HW218324   5.591   5.160   4.919
 5809SOL     OW18325   5.982   1.967   4.832
 5809SOL    HW118326   5.999   1.876   4.869
 5809SOL    HW218327   5.938   1.959   4.743
 5810SOL     OW18328   3.741   1.854   4.390
 5810SOL    HW118329   3.807   1.799   4.442
 5810SOL    HW218330   3.712   1.932   4.446
 5811SOL     OW18331   2.966   0.224   6.003
 5811SOL    HW118332   3.022   0.173   5.938
 5811SOL    HW218333   2.882   0.255   5.958
 5812SOL     OW18334   6.079   2.175   3.959
 5812SOL    HW118335   5.979   2.175   3.967
 5812SOL    HW218336   6.113   2.083   3.980
 5813SOL     OW18337   1.730   2.041   0.815
 5813SOL    HW118338   1.773   2.015   0.729
 5813SOL    HW218339   1.650   1.982   0.831
 5814SOL     OW18340   6.568   4.482   0.921
 5814SOL    HW118341   6.624   4.565   0.920
 5814SOL    HW218342   6.503   4.486   0.845
 5815SOL     OW18343   3.713   2.088   4.510
 5815SOL    HW118344   3.696   2.129   4.420
 5815SOL    HW218345   3.756   2.155   4.570
 5816SOL     OW18346   4.479   6.056   6.981
 5816SOL    HW118347   4.450   6.014   6.895
 5816SOL    HW218348   4.399   6.091   0.000
 5817SOL     OW18349   5.825   3.776   6.083
 5817SOL    HW118350   5.735   3.752   6.046
 5817SOL    HW218351   5.856   3.862   6.043
 5818SOL     OW18352   6.881   5.809   4.670
 5818SOL    HW118353   6.910   5.889   4.724
 5818SOL    HW218354   6.786   5.788   4.692
 5819SOL     OW18355   4.174   6.545   0.267
 5819SOL    HW118356   4.113   6.478   0.225
 5819SOL    HW218357   4.122   6.603   0.330
 5820SOL     OW18358   3.801   5.849   3.866
 5820SOL    HW118359   3.713   5.868   3.910
 5820SOL    HW218360   3.875   5.869   3.930
 5821SOL     OW18361   0.080   7.028   1.683
 5821SOL    HW118362   0.007   6.961   1.694
 5821SOL    HW218363   0.102   0.009   1.585
 5822SOL     OW18364   0.884   2.517   2.181
 5822SOL    HW118365   0.850   2.451   2.114
 5822SOL    HW218366   0.969   2.557   2.149
 5823SOL     OW18367   1.181   1.247   5.817
 5823SOL    HW118368   1.231   1.165   5.790
 5823SOL    HW218369   1.184   1.314   5.743
 5824SOL     OW18370   5.978   4.958   2.574
 5824SOL    HW118371   5.928   4.876   2.544
 5824SOL    HW218372   6.076   4.937   2.578
 5825SOL     OW18373   2.249   2.100   5.131
 5825SOL    HW118374   2.236   2.002   5.117
 5825SOL    HW218375   2.283   2.116   5.223
 5826SOL     OW18376   6.830   4.989   5.507
 5826SOL    HW118377   6.844   4.924   5.581
 5826SOL    HW218378   6.889   4.966   5.430
 5827SOL     OW18379   1.834   4.484   4.680
 5827SOL    HW118380   1.826   4.577   4.716
 5827SOL    HW218381   1.900   4.484   4.604
 5828SOL     OW18382   6.747   2.922   1.514
 5828SOL    HW118383   6.678   2.914   1.586
 5828SOL    HW218384   6.752   2.835   1.464
 5829SOL     OW18385   2.332   1.226   3.280
 5829SOL    HW118386   2.342   1.326   3.281
 5829SOL    HW218387   2.333   1.194   3.185
 5830SOL     OW18388   4.912   0.046   5.461
 5830SOL    HW118389   5.002   0.053   5.418
 5830SOL    HW218390   4.906   6.989   5.512
 5831SOL     OW18391   0.220   0.649   4.756
 5831SOL    HW118392   0.177   0.715   4.694
 5831SOL    HW218393   0.247   0.568   4.704
 5832SOL     OW18394   3.578   4.832   6.118
 5832SOL    HW118395   3.499   4.817   6.059
 5832SOL    HW218396   3.645   4.890   6.071
 5833SOL     OW18397   4.276   3.626   5.152
 5833SOL    HW118398   4.330   3.647   5.070
 5833SOL    HW218399   4.325   3.558   5.207
 5834SOL     OW18400   6.347   3.297   6.968
 5834SOL    HW118401   6.305   3.230   6.907
 5834SOL    HW218402   6.311   3.286   0.032
 5835SOL     OW18403   4.819   3.097   4.140
 5835SOL    HW118404   4.817   3.148   4.227
 5835SOL    HW218405   4.834   3.160   4.065
 5836SOL     OW18406   3.512   6.292   2.878
 5836SOL    HW118407   3.525   6.365   2.812
 5836SOL    HW218408   3.587   6.291   2.943
 5837SOL     OW18409   4.076   4.733   6.507
 5837SOL    HW118410   4.015   4.662   6.542
 5837SOL    HW218411   4.165   4.692   6.486
 5838SOL     OW18412   2.724   2.739   6.680
 5838SOL    HW118413   2.773   2.662   6.638
 5838SOL    HW218414   2.767   2.825   6.653
 5839SOL     OW18415   6.912   1.943   2.454
 5839SOL    HW118416   6.972   1.941   2.375
 5839SOL    HW218417   6.967   1.939   2.538
 5840SOL     OW18418   0.847   5.626   6.347
 5840SOL    HW118419   0.755   5.598   6.376
 5840SOL    HW218420   0.856   5.725   6.354
 5841SOL     OW18421   4.757   1.951   2.566
 5841SOL    HW118422   4.703   1.890   2.624
 5841SOL    HW218423   4.816   1.898   2.507
 5842SOL     OW18424   4.667   3.194   0.950
 5842SOL    HW118425   4.625   3.103   0.947
 5842SOL    HW218426   4.623   3.248   1.021
 5843SOL     OW18427   2.159   3.686   2.813
 5843SOL    HW118428   2.136   3.784   2.816
 5843SOL    HW218429   2.120   3.645   2.731
 5844SOL     OW18430   1.312   6.645   5.963
 5844SOL    HW118431   1.327   6.682   6.055
 5844SOL    HW218432   1.390   6.587   5.937
 5845SOL     OW18433   0.822   0.639   2.424
 5845SOL    HW118434   0.757   0.572   2.460
 5845SOL    HW218435   0.777   0.728   2.414
 5846SOL     OW18436   0.050   2.106   3.626
 5846SOL    HW118437   0.138   2.144   3.654
 5846SOL    HW218438   0.016   2.047   3.699
 5847SOL     OW18439   2.405   2.077   1.843
 5847SOL    HW118440   2.414   2.115   1.751
 5847SOL    HW218441   2.421   2.149   1.911
 5848SOL     OW18442   2.485   5.004   2.853
 5848SOL    HW118443   2.430   5.079   2.816
 5848SOL    HW218444   2.440   4.966   2.933
 5849SOL     OW18445   0.325   0.102   6.856
 5849SOL    HW118446   0.382   0.027   6.822
 5849SOL    HW218447   0.229   0.084   6.835
 5850SOL     OW18448   0.112   4.035   2.128
 5850SOL    HW118449   0.199   4.065   2.089
 5850SOL    HW218450   0.111   3.935   2.132
 5851SOL     OW18451   6.034   3.735   3.253
 5851SOL    HW118452   5.996   3.704   3.165
 5851SOL    HW218453   6.134   3.737   3.246
 5852SOL     OW18454   6.020   6.276   3.295
 5852SOL    HW118455   5.966   6.212   3.350
 5852SOL    HW218456   5.999   6.370   3.323
 5853SOL     OW18457   3.682   5.910   4.494
 5853SOL    HW118458   3.599   5.951   4.457
 5853SOL    HW218459   3.762   5.959   4.460
 5854SOL     OW18460   6.256   4.715   5.881
 5854SOL    HW118461   6.288   4.732   5.974
 5854SOL    HW218462   6.166   4.672   5.884
 5855SOL     OW18463   0.366   0.948   4.575
 5855SOL    HW118464   0.277   0.970   4.614
 5855SOL    HW218465   0.398   1.026   4.520
 5856SOL     OW18466   2.205   5.706   4.052
 5856SOL    HW118467   2.301   5.679   4.043
 5856SOL    HW218468   2.154   5.671   3.973
 5857SOL     OW18469   6.434   2.664   5.677
 5857SOL    HW118470   6.470   2.741   5.729
 5857SOL    HW218471   6.485   2.581   5.701
 5858SOL     OW18472   1.955   2.033   1.959
 5858SOL    HW118473   2.000   1.989   1.881
 5858SOL    HW218474   2.021   2.043   2.033
 5859SOL     OW18475   5.595   6.270   1.528
 5859SOL    HW118476   5.531   6.251   1.603
 5859SOL    HW218477   5.623   6.184   1.485
 5860SOL     OW18478   1.768   3.921   2.163
 5860SOL    HW118479   1.824   4.003   2.173
 5860SOL    HW218480   1.737   3.913   2.069
 5861SOL     OW18481   4.638   1.337   4.623
 5861SOL    HW118482   4.726   1.307   4.587
 5861SOL    HW218483   4.652   1.406   4.694
 5862SOL     OW18484   4.897   5.074   2.624
 5862SOL    HW118485   4.895   4.989   2.571
 5862SOL    HW218486   4.908   5.152   2.562
 5863SOL     OW18487   2.753   0.625   4.724
 5863SOL    HW118488   2.826   0.624   4.793
 5863SOL    HW218489   2.792   0.604   4.634
 5864SOL     OW18490   3.747   3.567   1.451
 5864SOL    HW118491   3.840   3.546   1.423
 5864SOL    HW218492   3.733   3.666   1.452
 5865SOL     OW18493   5.981   0.289   5.489
 5865SOL    HW118494   6.019   0.382   5.488
 5865SOL    HW218495   5.943   0.271   5.580
 5866SOL     OW18496   4.415   5.397   0.747
 5866SOL    HW118497   4.382   5.337   0.674
 5866SOL    HW218498   4.450   5.482   0.707
 5867SOL     OW18499   0.486   3.955   1.326
 5867SOL    HW118500   0.501   3.867   1.372
 5867SOL    HW218501   0.573   3.988   1.289
 5868SOL     OW18502   0.126   1.209   5.004
 5868SOL    HW118503   0.053   1.188   5.069
 5868SOL    HW218504   0.115   1.152   4.922
 5869SOL     OW18505   3.221   6.101   3.540
 5869SOL    HW118506   3.134   6.148   3.555
 5869SOL    HW218507   3.285   6.124   3.614
 5870SOL     OW18508   5.140   5.926   4.725
 5870SOL    HW118509   5.144   5.957   4.820
 5870SOL    HW218510   5.233   5.906   4.693
 5871SOL     OW18511   4.454   3.172   0.679
 5871SOL    HW118512   4.395   3.120   0.741
 5871SOL    HW218513   4.530   3.212   0.731
 5872SOL     OW18514   4.194   5.349   0.928
 5872SOL    HW118515   4.274   5.371   0.872
 5872SOL    HW218516   4.114   5.397   0.893
 5873SOL     OW18517   2.468   2.596   1.209
 5873SOL    HW118518   2.416   2.664   1.158
 5873SOL    HW218519   2.517   2.640   1.284
 5874SOL     OW18520   3.273   3.925   0.324
 5874SOL    HW118521   3.253   4.016   0.288
 5874SOL    HW218522   3.262   3.924   0.423
 5875SOL     OW18523   4.251   1.478   0.437
 5875SOL    HW118524   4.194   1.419   0.378
 5875SOL    HW218525   4.209   1.484   0.528
 5876SOL     OW18526   3.252   2.982   6.917
 5876SOL    HW118527   3.218   2.945   7.004
 5876SOL    HW218528   3.188   3.050   6.883
 5877SOL     OW18529   0.559   6.754   0.855
 5877SOL    HW118530   0.568   6.689   0.780
 5877SOL    HW218531   0.647   6.766   0.901
 5878SOL     OW18532   5.517   4.712   3.341
 5878SOL    HW118533   5.487   4.748   3.429
 5878SOL    HW218534   5.497   4.778   3.269
 5879SOL     OW18535   1.813   3.126   5.972
 5879SOL    HW118536   1.757   3.208   5.959
 5879SOL    HW218537   1.799   3.064   5.895
 5880SOL     OW18538   4.788   4.802   6.672
 5880SOL    HW118539   4.715   4.735   6.684
 5880SOL    HW218540   4.831   4.821   6.760
 5881SOL     OW18541   1.096   0.060   1.854
 5881SOL    HW118542   1.163   0.134   1.851
 5881SOL    HW218543   1.004   0.098   1.844
 5882SOL     OW18544   1.139   6.965   6.062
 5882SOL    HW118545   1.107   6.916   6.144
 5882SOL    HW218546   1.095   0.025   6.058
 5883SOL     OW18547   0.928   1.290   0.123
 5883SOL    HW118548   0.941   1.235   0.040
 5883SOL    HW218549   0.894   1.231   0.196
 5884SOL     OW18550   5.295   0.581   5.020
 5884SOL    HW118551   5.271   0.594   4.923
 5884SOL    HW218552   5.214   0.553   5.071
 5885SOL     OW18553   0.228   5.809   2.299
 5885SOL    HW118554   0.313   5.857   2.323
 5885SOL    HW218555   0.245   5.711   2.297
 5886SOL     OW18556   1.397   2.225   4.189
 5886SOL    HW118557   1.459   2.296   4.222
 5886SOL    HW218558   1.369   2.168   4.267
 5887SOL     OW18559   2.311   2.395   1.997
 5887SOL    HW118560   2.254   2.414   2.077
 5887SOL    HW218561   2.387   2.336   2.024
 5888SOL     OW18562   2.289   6.497   1.626
 5888SOL    HW118563   2.253   6.407   1.603
 5888SOL    HW218564   2.368   6.517   1.568
 5889SOL     OW18565   6.077   1.968   6.759
 5889SOL    HW118566   6.096   1.971   6.660
 5889SOL    HW218567   6.152   1.921   6.805
 5890SOL     OW18568   2.151   6.972   3.107
 5890SOL    HW118569   2.094   0.014   3.148
 5890SOL    HW218570   2.182   6.909   3.178
 5891SOL     OW18571   2.286   4.562   0.460
 5891SOL    HW118572   2.325   4.527   0.545
 5891SOL    HW218573   2.342   4.637   0.425
 5892SOL     OW18574   6.793   5.383   2.023
 5892SOL    HW118575   6.835   5.469   1.995
 5892SOL    HW218576   6.766   5.331   1.942
 5893SOL     OW18577   2.646   4.937   1.497
 5893SOL    HW118578   2.673   4.983   1.582
 5893SOL    HW218579   2.640   4.838   1.513
 5894SOL     OW18580   1.075   5.563   5.517
 5894SOL    HW118581   1.054   5.473   5.477
 5894SOL    HW218582   0.991   5.616   5.526
 5895SOL     OW18583   5.817   3.690   3.469
 5895SOL    HW118584   5.869   3.690   3.384
 5895SOL    HW218585   5.879   3.677   3.546
 5896SOL     OW18586   5.123   1.861   0.555
 5896SOL    HW118587   5.192   1.795   0.585
 5896SOL    HW218588   5.156   1.909   0.474
 5897SOL     OW18589   3.822   1.401   1.537
 5897SOL    HW118590   3.844   1.303   1.530
 5897SOL    HW218591   3.743   1.421   1.479
 5898SOL     OW18592   2.314   1.568   5.464
 5898SOL    HW118593   2.245   1.568   5.392
 5898SOL    HW218594   2.308   1.484   5.517
 5899SOL     OW18595   6.297   6.170   6.745
 5899SOL    HW118596   6.316   6.103   6.817
 5899SOL    HW218597   6.206   6.209   6.759
 5900SOL     OW18598   6.977   4.829   3.158
 5900SOL    HW118599   6.952   4.837   3.062
 5900SOL    HW218600   6.918   4.762   3.203
 5901SOL     OW18601   2.590   1.606   0.603
 5901SOL    HW118602   2.565   1.514   0.574
 5901SOL    HW218603   2.688   1.620   0.590
 5902SOL     OW18604   5.455   3.652   5.779
 5902SOL    HW118605   5.548   3.619   5.790
 5902SOL    HW218606   5.454   3.733   5.720
 5903SOL     OW18607   4.631   3.619   6.733
 5903SOL    HW118608   4.669   3.531   6.705
 5903SOL    HW218609   4.570   3.653   6.661
 5904SOL     OW18610   1.199   4.721   1.579
 5904SOL    HW118611   1.228   4.699   1.672
 5904SOL    HW218612   1.126   4.790   1.582
 5905SOL     OW18613   6.358   1.101   4.098
 5905SOL    HW118614   6.403   1.106   4.009
 5905SOL    HW218615   6.261   1.081   4.085
 5906SOL     OW18616   4.666   1.859   5.039
 5906SOL    HW118617   4.584   1.826   4.992
 5906SOL    HW218618   4.739   1.792   5.030
 5907SOL     OW18619   1.727   6.754   0.518
 5907SOL    HW118620   1.810   6.809   0.518
 5907SOL    HW218621   1.724   6.698   0.435
 5908SOL     OW18622   6.549   4.496   6.760
 5908SOL    HW118623   6.527   4.467   6.853
 5908SOL    HW218624   6.622   4.437   6.724
 5909SOL     OW18625   6.661   5.497   6.750
 5909SOL    HW118626   6.656   5.398   6.767
 5909SOL    HW218627   6.756   5.527   6.756
 5910SOL     OW18628   0.663   4.714   1.070
 5910SOL    HW118629   0.688   4.632   1.019
 5910SOL    HW218630   0.630   4.688   1.161
 5911SOL     OW18631   6.877   5.486   6.452
 5911SOL    HW118632   6.938   5.507   6.528
 5911SOL    HW218633   6.835   5.396   6.467
 5912SOL     OW18634   5.802   3.430   7.010
 5912SOL    HW118635   5.792   3.343   0.030
 5912SOL    HW218636   5.827   3.411   6.915
 5913SOL     OW18637   2.687   2.578   5.983
 5913SOL    HW118638   2.652   2.656   6.035
 5913SOL    HW218639   2.783   2.562   6.006
 5914SOL     OW18640   2.485   5.578   6.392
 5914SOL    HW118641   2.491   5.677   6.399
 5914SOL    HW218642   2.431   5.541   6.468
 5915SOL     OW18643   6.364   3.661   2.183
 5915SOL    HW118644   6.394   3.566   2.176
 5915SOL    HW218645   6.353   3.700   2.092
 5916SOL     OW18646   4.387   6.606   5.959
 5916SOL    HW118647   4.313   6.540   5.946
 5916SOL    HW218648   4.365   6.664   6.038
 5917SOL     OW18649   4.080   3.214   4.245
 5917SOL    HW118650   4.175   3.245   4.250
 5917SOL    HW218651   4.057   3.164   4.329
 5918SOL     OW18652   2.360   3.705   5.316
 5918SOL    HW118653   2.273   3.668   5.283
 5918SOL    HW218654   2.379   3.792   5.269
 5919SOL     OW18655   2.954   2.572   0.358
 5919SOL    HW118656   2.938   2.543   0.264
 5919SOL    HW218657   2.974   2.670   0.359
 5920SOL     OW18658   3.476   0.193   0.216
 5920SOL    HW118659   3.492   0.291   0.229
 5920SOL    HW218660   3.458   0.175   0.119
 5921SOL     OW18661   3.654   5.533   5.447
 5921SOL    HW118662   3.698   5.617   5.479
 5921SOL    HW218663   3.560   5.530   5.480
 5922SOL     OW18664   6.362   4.971   4.161
 5922SOL    HW118665   6.355   4.889   4.217
 5922SOL    HW218666   6.389   4.946   4.068
 5923SOL     OW18667   5.520   0.721   1.982
 5923SOL    HW118668   5.609   0.756   2.012
 5923SOL    HW218669   5.450   0.791   1.997
 5924SOL     OW18670   6.336   2.155   5.464
 5924SOL    HW118671   6.250   2.172   5.512
 5924SOL    HW218672   6.380   2.243   5.443
 5925SOL     OW18673   4.041   5.904   3.367
 5925SOL    HW118674   3.972   5.900   3.439
 5925SOL    HW218675   4.108   5.975   3.389
 5926SOL     OW18676   3.906   5.254   2.060
 5926SOL    HW118677   3.993   5.255   2.109
 5926SOL    HW218678   3.871   5.160   2.055
 5927SOL     OW18679   1.482   4.317   3.352
 5927SOL    HW118680   1.408   4.367   3.307
 5927SOL    HW218681   1.447   4.232   3.391
 5928SOL     OW18682   3.279   0.350   1.834
 5928SOL    HW118683   3.284   0.355   1.934
 5928SOL    HW218684   3.370   0.338   1.796
 5929SOL     OW18685   0.850   6.533   5.696
 5929SOL    HW118686   0.929   6.548   5.756
 5929SOL    HW218687   0.873   6.563   5.603
 5930SOL     OW18688   6.710   0.964   3.196
 5930SOL    HW118689   6.773   1.042   3.189
 5930SOL    HW218690   6.617   0.995   3.181
 5931SOL     OW18691   5.418   4.881   3.178
 5931SOL    HW118692   5.392   4.885   3.082
 5931SOL    HW218693   5.337   4.896   3.235
 5932SOL     OW18694   2.860   6.212   1.020
 5932SOL    HW118695   2.811   6.167   1.094
 5932SOL    HW218696   2.859   6.153   0.939
 5933SOL     OW18697   0.198   5.157   3.347
 5933SOL    HW118698   0.212   5.084   3.280
 5933SOL    HW218699   0.214   5.246   3.303
 5934SOL     OW18700   4.077   3.708   4.070
 5934SOL    HW118701   4.165   3.664   4.051
 5934SOL    HW218702   4.082   3.755   4.159
 5935SOL     OW18703   3.994   3.848   4.827
 5935SOL    HW118704   3.936   3.917   4.870
 5935SOL    HW218705   4.076   3.834   4.882
 5936SOL     OW18706   4.125   3.620   0.030
 5936SOL    HW118707   4.088   3.545   0.085
 5936SOL    HW218708   4.145   3.587   6.967
 5937SOL     OW18709   0.680   4.848   2.161
 5937SOL    HW118710   0.682   4.763   2.214
 5937SOL    HW218711   0.612   4.841   2.088
 5938SOL     OW18712   1.414   5.321   3.956
 5938SOL    HW118713   1.497   5.371   3.929
 5938SOL    HW218714   1.333   5.372   3.927
 5939SOL     OW18715   3.330   0.493   3.664
 5939SOL    HW118716   3.372   0.402   3.675
 5939SOL    HW218717   3.232   0.486   3.681
 5940SOL     OW18718   4.457   5.703   2.406
 5940SOL    HW118719   4.361   5.695   2.434
 5940SOL    HW218720   4.511   5.735   2.484
 5941SOL     OW18721   6.506   3.719   2.422
 5941SOL    HW118722   6.588   3.662   2.426
 5941SOL    HW218723   6.467   3.714   2.330
 5942SOL     OW18724   4.818   2.774   6.645
 5942SOL    HW118725   4.798   2.790   6.549
 5942SOL    HW218726   4.779   2.848   6.700
 5943SOL     OW18727   3.597   5.250   0.824
 5943SOL    HW118728   3.626   5.156   0.805
 5943SOL    HW218729   3.561   5.255   0.917
 5944SOL     OW18730   5.364   1.802   1.487
 5944SOL    HW118731   5.282   1.808   1.544
 5944SOL    HW218732   5.443   1.837   1.537
 5945SOL     OW18733   6.929   5.372   5.275
 5945SOL    HW118734   6.964   5.282   5.250
 5945SOL    HW218735   7.001   5.441   5.266
 5946SOL     OW18736   3.315   3.139   5.666
 5946SOL    HW118737   3.312   3.053   5.718
 5946SOL    HW218738   3.409   3.170   5.657
 5947SOL     OW18739   3.989   2.957   1.852
 5947SOL    HW118740   3.968   2.972   1.948
 5947SOL    HW218741   4.035   3.038   1.815
 5948SOL     OW18742   3.620   5.016   3.900
 5948SOL    HW118743   3.615   4.969   3.989
 5948SOL    HW218744   3.700   4.983   3.850
 5949SOL     OW18745   3.718   3.484   1.200
 5949SOL    HW118746   3.736   3.526   1.289
 5949SOL    HW218747   3.751   3.390   1.200
 5950SOL     OW18748   5.759   3.256   5.506
 5950SOL    HW118749   5.686   3.320   5.529
 5950SOL    HW218750   5.734   3.165   5.539
 5951SOL     OW18751   1.067   5.601   4.705
 5951SOL    HW118752   1.022   5.513   4.689
 5951SOL    HW218753   1.025   5.645   4.785
 5952SOL     OW18754   5.373   5.030   3.985
 5952SOL    HW118755   5.462   5.042   3.940
 5952SOL    HW218756   5.343   5.117   4.023
 5953SOL     OW18757   0.140   2.755   5.702
 5953SOL    HW118758   0.136   2.840   5.650
 5953SOL    HW218759   0.220   2.757   5.763
 5954SOL     OW18760   0.097   4.711   5.756
 5954SOL    HW118761   0.082   4.649   5.679
 5954SOL    HW218762   0.194   4.734   5.761
 5955SOL     OW18763   5.166   5.695   2.493
 5955SOL    HW118764   5.240   5.751   2.529
 5955SOL    HW218765   5.167   5.605   2.537
 5956SOL     OW18766   3.785   1.632   0.437
 5956SOL    HW118767   3.796   1.710   0.498
 5956SOL    HW218768   3.711   1.573   0.471
 5957SOL     OW18769   4.858   0.360   5.337
 5957SOL    HW118770   4.883   0.455   5.319
 5957SOL    HW218771   4.837   0.314   5.250
 5958SOL     OW18772   6.482   6.240   2.783
 5958SOL    HW118773   6.503   6.268   2.689
 5958SOL    HW218774   6.400   6.288   2.814
 5959SOL     OW18775   3.711   1.580   5.472
 5959SOL    HW118776   3.655   1.515   5.422
 5959SOL    HW218777   3.653   1.653   5.509
 5960SOL     OW18778   3.941   6.387   4.746
 5960SOL    HW118779   4.024   6.359   4.795
 5960SOL    HW218780   3.893   6.457   4.799
 5961SOL     OW18781   4.899   0.984   3.840
 5961SOL    HW118782   4.825   0.934   3.795
 5961SOL    HW218783   4.897   0.965   3.938
 5962SOL     OW18784   5.137   5.587   2.233
 5962SOL    HW118785   5.146   5.611   2.329
 5962SOL    HW218786   5.226   5.558   2.197
 5963SOL     OW18787   3.240   2.899   5.006
 5963SOL    HW118788   3.255   2.846   5.089
 5963SOL    HW218789   3.323   2.897   4.950
 5964SOL     OW18790   0.433   5.290   5.677
 5964SOL    HW118791   0.515   5.233   5.685
 5964SOL    HW218792   0.354   5.232   5.657
 5965SOL     OW18793   1.665   2.081   6.149
 5965SOL    HW118794   1.614   2.043   6.226
 5965SOL    HW218795   1.603   2.099   6.073
 5966SOL     OW18796   3.084   5.558   5.163
 5966SOL    HW118797   3.184   5.563   5.167
 5966SOL    HW218798   3.050   5.516   5.247
 5967SOL     OW18799   4.328   6.336   1.390
 5967SOL    HW118800   4.384   6.412   1.423
 5967SOL    HW218801   4.340   6.326   1.291
 5968SOL     OW18802   4.951   0.893   2.768
 5968SOL    HW118803   4.886   0.878   2.693
 5968SOL    HW218804   5.043   0.896   2.731
 5969SOL     OW18805   6.398   1.233   6.057
 5969SOL    HW118806   6.412   1.262   5.962
 5969SOL    HW218807   6.483   1.196   6.094
 5970SOL     OW18808   0.540   4.534   2.615
 5970SOL    HW118809   0.495   4.514   2.702
 5970SOL    HW218810   0.492   4.608   2.569
 5971SOL     OW18811   2.061   0.745   3.077
 5971SOL    HW118812   2.042   0.823   3.017
 5971SOL    HW218813   2.123   0.681   3.031
 5972SOL     OW18814   5.412   6.403   0.461
 5972SOL    HW118815   5.507   6.390   0.432
 5972SOL    HW218816   5.372   6.314   0.485
 5973SOL     OW18817   1.991   5.148   2.547
 5973SOL    HW118818   1.928   5.154   2.470
 5973SOL    HW218819   2.052   5.228   2.546
 5974SOL     OW18820   5.482   4.747   6.512
 5974SOL    HW118821   5.383   4.744   6.526
 5974SOL    HW218822   5.516   4.838   6.536
 5975SOL     OW18823   3.131   1.927   0.352
 5975SOL    HW118824   3.137   1.949   0.449
 5975SOL    HW218825   3.035   1.929   0.323
 5976SOL     OW18826   3.026   3.863   4.417
 5976SOL    HW118827   2.971   3.831   4.340
 5976SOL    HW218828   2.995   3.819   4.501
 5977SOL     OW18829   1.859   5.031   1.897
 5977SOL    HW118830   1.808   4.959   1.945
 5977SOL    HW218831   1.903   4.992   1.816
 5978SOL     OW18832   5.128   5.111   3.473
 5978SOL    HW118833   5.095   5.017   3.479
 5978SOL    HW218834   5.199   5.117   3.403
 5979SOL     OW18835   6.522   0.106   3.093
 5979SOL    HW118836   6.583   0.179   3.062
 5979SOL    HW218837   6.559   0.017   3.067
 5980SOL     OW18838   3.903   3.759   0.119
 5980SOL    HW118839   3.995   3.753   0.081
 5980SOL    HW218840   3.905   3.809   0.206
 5981SOL     OW18841   6.450   0.474   2.412
 5981SOL    HW118842   6.459   0.430   2.323
 5981SOL    HW218843   6.353   0.489   2.432
 5982SOL     OW18844   6.457   2.218   0.372
 5982SOL    HW118845   6.473   2.309   0.334
 5982SOL    HW218846   6.408   2.226   0.459
 5983SOL     OW18847   2.008   1.314   4.830
 5983SOL    HW118848   2.047   1.389   4.776
 5983SOL    HW218849   1.919   1.288   4.792
 5984SOL     OW18850   6.462   6.722   4.972
 5984SOL    HW118851   6.489   6.679   5.058
 5984SOL    HW218852   6.414   6.808   4.992
 5985SOL     OW18853   5.703   3.056   4.090
 5985SOL    HW118854   5.629   2.998   4.124
 5985SOL    HW218855   5.752   3.008   4.017
 5986SOL     OW18856   2.968   3.306   3.556
 5986SOL    HW118857   2.916   3.268   3.479
 5986SOL    HW218858   3.066   3.308   3.533
 5987SOL     OW18859   4.113   1.262   4.791
 5987SOL    HW118860   4.118   1.329   4.865
 5987SOL    HW218861   4.195   1.269   4.734
 5988SOL     OW18862   4.437   6.408   5.238
 5988SOL    HW118863   4.433   6.503   5.206
 5988SOL    HW218864   4.419   6.347   5.161
 5989SOL     OW18865   2.801   5.680   6.602
 5989SOL    HW118866   2.876   5.659   6.665
 5989SOL    HW218867   2.714   5.659   6.646
 5990SOL     OW18868   3.745   4.425   0.827
 5990SOL    HW118869   3.653   4.410   0.789
 5990SOL    HW218870   3.798   4.340   0.820
 5991SOL     OW18871   4.259   5.057   5.398
 5991SOL    HW118872   4.199   5.065   5.318
 5991SOL    HW218873   4.232   5.123   5.467
 5992SOL     OW18874   3.688   0.951   3.758
 5992SOL    HW118875   3.712   0.856   3.736
 5992SOL    HW218876   3.622   0.984   3.691
 5993SOL     OW18877   3.469   6.648   6.272
 5993SOL    HW118878   3.504   6.730   6.317
 5993SOL    HW218879   3.517   6.568   6.306
 5994SOL     OW18880   6.285   1.546   1.953
 5994SOL    HW118881   6.302   1.582   2.045
 5994SOL    HW218882   6.229   1.464   1.959
 5995SOL     OW18883   6.323   3.998   2.693
 5995SOL    HW118884   6.356   3.912   2.732
 5995SOL    HW218885   6.233   4.020   2.732
 5996SOL     OW18886   0.886   5.751   0.647
 5996SOL    HW118887   0.969   5.713   0.605
 5996SOL    HW218888   0.867   5.702   0.732
 5997SOL     OW18889   0.612   6.719   2.802
 5997SOL    HW118890   0.566   6.712   2.890
 5997SOL    HW218891   0.564   6.786   2.745
 5998SOL     OW18892   5.678   2.885   1.785
 5998SOL    HW118893   5.729   2.960   1.742
 5998SOL    HW218894   5.715   2.867   1.876
 5999SOL     OW18895   1.078   2.181   2.541
 5999SOL    HW118896   1.012   2.256   2.541
 5999SOL    HW218897   1.167   2.215   2.509
 6000SOL     OW18898   4.020   6.825   1.918
 6000SOL    HW118899   3.923   6.802   1.909
 6000SOL    HW218900   4.072   6.782   1.843
 6001SOL     OW18901   0.554   4.012   6.038
 6001SOL    HW118902   0.455   4.018   6.048
 6001SOL    HW218903   0.576   3.956   5.958
 6002SOL     OW18904   0.262   0.026   1.420
 6002SOL    HW118905   0.329   0.065   1.356
 6002SOL    HW218906   0.190   0.092   1.438
 6003SOL     OW18907   6.606   1.905   4.547
 6003SOL    HW118908   6.666   1.980   4.523
 6003SOL    HW218909   6.640   1.861   4.631
 6004SOL     OW18910   6.831   4.453   2.929
 6004SOL    HW118911   6.745   4.505   2.927
 6004SOL    HW218912   6.902   4.504   2.880
 6005SOL     OW18913   4.666   5.038   4.958
 6005SOL    HW118914   4.660   5.135   4.935
 6005SOL    HW218915   4.761   5.008   4.952
 6006SOL     OW18916   3.320   0.061   6.993
 6006SOL    HW118917   3.336   7.018   0.031
 6006SOL    HW218918   3.238   0.040   6.940
 6007SOL     OW18919   5.125   3.581   4.297
 6007SOL    HW118920   5.163   3.591   4.205
 6007SOL    HW218921   5.194   3.540   4.357
 6008SOL     OW18922   2.136   5.544   6.311
 6008SOL    HW118923   2.124   5.449   6.341
 6008SOL    HW218924   2.214   5.549   6.248
 6009SOL     OW18925   3.040   0.928   4.715
 6009SOL    HW118926   3.095   0.954   4.636
 6009SOL    HW218927   2.949   0.901   4.685
 6010SOL     OW18928   1.538   4.142   2.147
 6010SOL    HW118929   1.576   4.207   2.213
 6010SOL    HW218930   1.586   4.055   2.155
 6011SOL     OW18931   4.384   2.434   2.660
 6011SOL    HW118932   4.300   2.381   2.666
 6011SOL    HW218933   4.393   2.473   2.568
 6012SOL     OW18934   6.263   1.666   0.501
 6012SOL    HW118935   6.225   1.717   0.424
 6012SOL    HW218936   6.192   1.654   0.571
 6013SOL     OW18937   5.139   1.773   3.197
 6013SOL    HW118938   5.222   1.828   3.189
 6013SOL    HW218939   5.163   1.677   3.202
 6014SOL     OW18940   4.193   1.986   0.608
 6014SOL    HW118941   4.289   1.962   0.622
 6014SOL    HW218942   4.188   2.065   0.546
 6015SOL     OW18943   5.680   2.310   5.938
 6015SOL    HW118944   5.655   2.338   5.845
 6015SOL    HW218945   5.735   2.381   5.981
 6016SOL     OW18946   0.172   1.148   6.832
 6016SOL    HW118947   0.188   1.178   6.926
 6016SOL    HW218948   0.088   1.191   6.797
 6017SOL     OW18949   6.281   4.551   2.297
 6017SOL    HW118950   6.328   4.484   2.354
 6017SOL    HW218951   6.199   4.584   2.344
 6018SOL     OW18952   3.377   1.411   0.226
 6018SOL    HW118953   3.465   1.411   0.180
 6018SOL    HW218954   3.359   1.502   0.264
 6019SOL     OW18955   5.563   1.664   4.438
 6019SOL    HW118956   5.497   1.645   4.365
 6019SOL    HW218957   5.654   1.633   4.409
 6020SOL     OW18958   1.719   6.332   2.130
 6020SOL    HW118959   1.638   6.279   2.103
 6020SOL    HW218960   1.759   6.375   2.049
 6021SOL     OW18961   3.936   0.379   2.284
 6021SOL    HW118962   3.903   0.306   2.224
 6021SOL    HW218963   3.903   0.467   2.250
 6022SOL     OW18964   4.642   0.511   4.925
 6022SOL    HW118965   4.723   0.565   4.948
 6022SOL    HW218966   4.565   0.571   4.907
 6023SOL     OW18967   5.695   1.508   2.333
 6023SOL    HW118968   5.686   1.597   2.377
 6023SOL    HW218969   5.672   1.436   2.398
 6024SOL     OW18970   0.580   4.353   3.129
 6024SOL    HW118971   0.572   4.254   3.140
 6024SOL    HW218972   0.560   4.379   3.035
 6025SOL     OW18973   3.537   0.939   2.023
 6025SOL    HW118974   3.482   1.022   2.032
 6025SOL    HW218975   3.480   0.865   1.989
 6026SOL     OW18976   7.010   3.752   3.944
 6026SOL    HW118977   7.007   3.736   4.042
 6026SOL    HW218978   0.075   3.740   3.911
 6027SOL     OW18979   1.771   4.361   5.646
 6027SOL    HW118980   1.789   4.280   5.701
 6027SOL    HW218981   1.719   4.336   5.565
 6028SOL     OW18982   1.125   3.645   0.385
 6028SOL    HW118983   1.190   3.720   0.391
 6028SOL    HW218984   1.168   3.560   0.415
 6029SOL     OW18985   2.090   6.127   5.361
 6029SOL    HW118986   2.115   6.200   5.298
 6029SOL    HW218987   2.141   6.044   5.338
 6030SOL     OW18988   3.588   6.708   2.864
 6030SOL    HW118989   3.567   6.715   2.962
 6030SOL    HW218990   3.549   6.787   2.817
 6031SOL     OW18991   4.076   4.817   4.141
 6031SOL    HW118992   3.986   4.773   4.143
 6031SOL    HW218993   4.148   4.748   4.143
 6032SOL     OW18994   1.968   3.273   2.998
 6032SOL    HW118995   1.994   3.354   3.050
 6032SOL    HW218996   1.945   3.300   2.904
 6033SOL     OW18997   2.571   2.027   2.533
 6033SOL    HW118998   2.564   2.106   2.595
 6033SOL    HW218999   2.649   1.971   2.560
 6034SOL     OW19000   1.661   6.011   5.196
 6034SOL    HW119001   1.747   6.038   5.239
 6034SOL    HW219002   1.587   6.015   5.264
 6035SOL     OW19003   6.189   1.076   3.506
 6035SOL    HW119004   6.259   1.067   3.576
 6035SOL    HW219005   6.099   1.082   3.549
 6036SOL     OW19006   0.162   6.073   4.204
 6036SOL    HW119007   0.255   6.109   4.193
 6036SOL    HW219008   0.126   6.046   4.115
 6037SOL     OW19009   4.307   4.747   6.378
 6037SOL    HW119010   4.398   4.714   6.402
 6037SOL    HW219011   4.305   4.775   6.282
 6038SOL     OW19012   1.133   3.527   6.130
 6038SOL    HW119013   1.146   3.491   6.223
 6038SOL    HW219014   1.043   3.570   6.124
 6039SOL     OW19015   3.113   3.090   2.852
 6039SOL    HW119016   3.136   3.101   2.756
 6039SOL    HW219017   3.023   3.131   2.870
 6040SOL     OW19018   0.542   1.723   6.665
 6040SOL    HW119019   0.466   1.779   6.700
 6040SOL    HW219020   0.506   1.656   6.600
 6041SOL     OW19021   2.564   1.517   5.403
 6041SOL    HW119022   2.561   1.432   5.350
 6041SOL    HW219023   2.472   1.555   5.411
 6042SOL     OW19024   4.919   5.218   2.121
 6042SOL    HW119025   4.910   5.314   2.093
 6042SOL    HW219026   4.883   5.159   2.048
 6043SOL     OW19027   0.908   5.003   5.154
 6043SOL    HW119028   0.924   4.920   5.207
 6043SOL    HW219029   0.965   5.001   5.071
 6044SOL     OW19030   1.042   2.313   1.125
 6044SOL    HW119031   0.999   2.403   1.119
 6044SOL    HW219032   0.979   2.250   1.171
 6045SOL     OW19033   5.706   5.836   1.248
 6045SOL    HW119034   5.737   5.788   1.330
 6045SOL    HW219035   5.706   5.774   1.170
 6046SOL     OW19036   2.988   1.705   0.727
 6046SOL    HW119037   2.932   1.723   0.808
 6046SOL    HW219038   2.928   1.688   0.648
 6047SOL     OW19039   6.281   1.350   2.336
 6047SOL    HW119040   6.277   1.449   2.346
 6047SOL    HW219041   6.192   1.310   2.359
 6048SOL     OW19042   4.849   6.557   3.727
 6048SOL    HW119043   4.769   6.580   3.672
 6048SOL    HW219044   4.898   6.641   3.752
 6049SOL     OW19045   5.217   4.164   5.572
 6049SOL    HW119046   5.278   4.223   5.625
 6049SOL    HW219047   5.125   4.205   5.569
 6050SOL     OW19048   3.247   4.337   5.460
 6050SOL    HW119049   3.320   4.354   5.527
 6050SOL    HW219050   3.284   4.285   5.383
 6051SOL     OW19051   2.614   1.609   3.937
 6051SOL    HW119052   2.640   1.512   3.938
 6051SOL    HW219053   2.688   1.663   3.897
 6052SOL     OW19054   6.528   6.673   0.349
 6052SOL    HW119055   6.598   6.701   0.415
 6052SOL    HW219056   6.438   6.673   0.393
 6053SOL     OW19057   3.512   0.920   6.779
 6053SOL    HW119058   3.598   0.955   6.742
 6053SOL    HW219059   3.532   0.848   6.846
 6054SOL     OW19060   2.749   4.360   0.507
 6054SOL    HW119061   2.846   4.379   0.514
 6054SOL    HW219062   2.709   4.416   0.435
 6055SOL     OW19063   5.440   1.166   5.686
 6055SOL    HW119064   5.484   1.194   5.600
 6055SOL    HW219065   5.413   1.248   5.737
 6056SOL     OW19066   5.280   3.253   5.080
 6056SOL    HW119067   5.214   3.184   5.111
 6056SOL    HW219068   5.286   3.250   4.981
 6057SOL     OW19069   5.102   2.689   4.634
 6057SOL    HW119070   5.187   2.712   4.587
 6057SOL    HW219071   5.067   2.602   4.601
 6058SOL     OW19072   5.084   2.803   2.779
 6058SOL    HW119073   4.998   2.752   2.778
 6058SOL    HW219074   5.071   2.890   2.828
 6059SOL     OW19075   4.760   5.976   5.611
 6059SOL    HW119076   4.788   5.986   5.515
 6059SOL    HW219077   4.816   5.906   5.655
 6060SOL     OW19078   2.801   4.017   6.089
 6060SOL    HW119079   2.715   3.990   6.046
 6060SOL    HW219080   2.833   3.944   6.149
 6061SOL     OW19081   4.279   2.337   0.040
 6061SOL    HW119082   4.342   2.373   0.108
 6061SOL    HW219083   4.295   2.382   6.981
 6062SOL     OW19084   1.969   0.611   4.532
 6062SOL    HW119085   1.900   0.539   4.537
 6062SOL    HW219086   1.978   0.642   4.437
 6063SOL     OW19087   4.070   1.490   6.810
 6063SOL    HW119088   3.977   1.524   6.825
 6063SOL    HW219089   4.067   1.405   6.758
 6064SOL     OW19090   2.721   5.965   2.120
 6064SOL    HW119091   2.720   6.064   2.131
 6064SOL    HW219092   2.633   5.927   2.148
 6065SOL     OW19093   5.911   0.247   2.376
 6065SOL    HW119094   5.859   0.314   2.429
 6065SOL    HW219095   5.871   0.156   2.389
 6066SOL     OW19096   4.535   1.819   0.309
 6066SOL    HW119097   4.560   1.861   0.222
 6066SOL    HW219098   4.508   1.724   0.294
 6067SOL     OW19099   5.464   2.441   6.691
 6067SOL    HW119100   5.420   2.392   6.767
 6067SOL    HW219101   5.561   2.415   6.687
 6068SOL     OW19102   5.509   2.733   4.836
 6068SOL    HW119103   5.569   2.668   4.881
 6068SOL    HW219104   5.542   2.750   4.743
 6069SOL     OW19105   0.260   3.541   5.135
 6069SOL    HW119106   0.308   3.453   5.137
 6069SOL    HW219107   0.318   3.611   5.178
 6070SOL     OW19108   1.960   1.698   5.995
 6070SOL    HW119109   1.985   1.776   5.937
 6070SOL    HW219110   2.018   1.620   5.971
 6071SOL     OW19111   4.930   5.619   4.912
 6071SOL    HW119112   4.903   5.619   5.008
 6071SOL    HW219113   4.878   5.549   4.863
 6072SOL     OW19114   0.156   0.852   1.887
 6072SOL    HW119115   0.158   0.939   1.837
 6072SOL    HW219116   0.067   0.810   1.876
 6073SOL     OW19117   6.732   3.979   0.463
 6073SOL    HW119118   6.810   3.948   0.518
 6073SOL    HW219119   6.671   4.034   0.520
 6074SOL     OW19120   1.051   6.425   4.460
 6074SOL    HW119121   1.065   6.522   4.476
 6074SOL    HW219122   1.092   6.372   4.534
 6075SOL     OW19123   0.255   2.235   6.641
 6075SOL    HW119124   0.197   2.298   6.694
 6075SOL    HW219125   0.228   2.141   6.661
 6076SOL     OW19126   2.794   5.850   5.014
 6076SOL    HW119127   2.882   5.809   4.989
 6076SOL    HW219128   2.773   5.924   4.950
 6077SOL     OW19129   4.703   5.455   1.873
 6077SOL    HW119130   4.774   5.521   1.898
 6077SOL    HW219131   4.627   5.461   1.937
 6078SOL     OW19132   3.869   4.813   1.864
 6078SOL    HW119133   3.776   4.790   1.891
 6078SOL    HW219134   3.886   4.778   1.772
 6079SOL     OW19135   2.948   3.592   5.941
 6079SOL    HW119136   2.900   3.664   5.891
 6079SOL    HW219137   2.972   3.518   5.878
 6080SOL     OW19138   0.230   1.396   2.081
 6080SOL    HW119139   0.181   1.349   2.155
 6080SOL    HW219140   0.245   1.491   2.107
 6081SOL     OW19141   6.242   3.661   4.707
 6081SOL    HW119142   6.252   3.728   4.780
 6081SOL    HW219143   6.307   3.587   4.720
 6082SOL     OW19144   3.585   1.799   3.633
 6082SOL    HW119145   3.605   1.791   3.535
 6082SOL    HW219146   3.667   1.832   3.681
 6083SOL     OW19147   0.448   6.071   6.237
 6083SOL    HW119148   0.442   6.051   6.335
 6083SOL    HW219149   0.358   6.093   6.201
 6084SOL     OW19150   0.384   5.592   3.787
 6084SOL    HW119151   0.406   5.664   3.853
 6084SOL    HW219152   0.285   5.587   3.775
 6085SOL     OW19153   6.976   4.618   0.115
 6085SOL    HW119154   6.916   4.575   0.047
 6085SOL    HW219155   0.017   4.553   0.144
 6086SOL     OW19156   2.995   1.644   5.254
 6086SOL    HW119157   2.901   1.649   5.222
 6086SOL    HW219158   3.049   1.717   5.212
 6087SOL     OW19159   5.115   6.330   6.759
 6087SOL    HW119160   5.137   6.420   6.799
 6087SOL    HW219161   5.117   6.337   6.660
 6088SOL     OW19162   6.627   6.000   4.464
 6088SOL    HW119163   6.553   5.956   4.515
 6088SOL    HW219164   6.699   5.932   4.445
 6089SOL     OW19165   0.681   3.543   1.360
 6089SOL    HW119166   0.652   3.452   1.391
 6089SOL    HW219167   0.778   3.555   1.380
 6090SOL     OW19168   1.439   6.273   6.049
 6090SOL    HW119169   1.469   6.320   6.132
 6090SOL    HW219170   1.362   6.213   6.070
 6091SOL     OW19171   1.403   1.879   2.500
 6091SOL    HW119172   1.477   1.946   2.496
 6091SOL    HW219173   1.341   1.894   2.423
 6092SOL     OW19174   2.917   0.295   3.108
 6092SOL    HW119175   2.865   0.222   3.063
 6092SOL    HW219176   3.008   0.262   3.130
 6093SOL     OW19177   1.266   2.524   2.904
 6093SOL    HW119178   1.250   2.435   2.860
 6093SOL    HW219179   1.346   2.568   2.863
 6094SOL     OW19180   3.901   0.986   0.767
 6094SOL    HW119181   3.919   0.889   0.749
 6094SOL    HW219182   3.974   1.041   0.729
 6095SOL     OW19183   5.135   2.730   6.665
 6095SOL    HW119184   5.086   2.649   6.698
 6095SOL    HW219185   5.088   2.766   6.585
 6096SOL     OW19186   5.822   0.552   3.688
 6096SOL    HW119187   5.849   0.464   3.728
 6096SOL    HW219188   5.875   0.625   3.731
 6097SOL     OW19189   1.490   0.630   2.198
 6097SOL    HW119190   1.498   0.576   2.282
 6097SOL    HW219191   1.451   0.573   2.126
 6098SOL     OW19192   1.528   2.346   6.187
 6098SOL    HW119193   1.582   2.290   6.250
 6098SOL    HW219194   1.436   2.359   6.225
 6099SOL     OW19195   6.728   5.958   0.141
 6099SOL    HW119196   6.711   5.994   0.050
 6099SOL    HW219197   6.648   5.975   0.199
 6100SOL     OW19198   5.479   2.920   6.895
 6100SOL    HW119199   5.404   2.982   6.871
 6100SOL    HW219200   5.490   2.851   6.823
 6101SOL     OW19201   6.252   1.856   5.607
 6101SOL    HW119202   6.162   1.872   5.566
 6101SOL    HW219203   6.246   1.869   5.706
 6102SOL     OW19204   4.154   0.994   4.298
 6102SOL    HW119205   4.149   1.051   4.379
 6102SOL    HW219206   4.177   0.900   4.324
 6103SOL     OW19207   0.109   1.243   3.431
 6103SOL    HW119208   0.159   1.325   3.404
 6103SOL    HW219209   0.028   1.269   3.484
 6104SOL     OW19210   6.562   2.747   6.081
 6104SOL    HW119211   6.591   2.756   5.986
 6104SOL    HW219212   6.594   2.661   6.118
 6105SOL     OW19213   2.799   6.808   6.182
 6105SOL    HW119214   2.858   6.866   6.238
 6105SOL    HW219215   2.754   6.740   6.240
 6106SOL     OW19216   1.196   4.739   5.732
 6106SOL    HW119217   1.179   4.660   5.792
 6106SOL    HW219218   1.144   4.817   5.765
 6107SOL     OW19219   2.452   5.139   4.467
 6107SOL    HW119220   2.354   5.156   4.479
 6107SOL    HW219221   2.504   5.211   4.513
 6108SOL     OW19222   0.562   2.305   3.475
 6108SOL    HW119223   0.550   2.297   3.376
 6108SOL    HW219224   0.645   2.359   3.493
 6109SOL     OW19225   5.471   3.067   6.559
 6109SOL    HW119226   5.450   2.990   6.499
 6109SOL    HW219227   5.400   3.076   6.629
 6110SOL     OW19228   3.686   3.310   6.988
 6110SOL    HW119229   3.597   3.301   6.945
 6110SOL    HW219230   3.706   3.407   7.003
 6111SOL     OW19231   1.921   4.850   2.596
 6111SOL    HW119232   2.001   4.818   2.545
 6111SOL    HW219233   1.863   4.772   2.619
 6112SOL     OW19234   3.329   1.298   3.169
 6112SOL    HW119235   3.385   1.290   3.251
 6112SOL    HW219236   3.232   1.302   3.194
 6113SOL     OW19237   0.051   0.608   5.809
 6113SOL    HW119238   0.083   0.579   5.900
 6113SOL    HW219239   0.110   0.682   5.775
 6114SOL     OW19240   5.063   4.521   1.302
 6114SOL    HW119241   5.072   4.618   1.280
 6114SOL    HW219242   5.063   4.468   1.217
 6115SOL     OW19243   5.607   5.998   2.782
 6115SOL    HW119244   5.615   5.921   2.845
 6115SOL    HW219245   5.690   6.005   2.727
 6116SOL     OW19246   2.913   1.273   1.390
 6116SOL    HW119247   2.882   1.354   1.441
 6116SOL    HW219248   2.838   1.240   1.333
 6117SOL     OW19249   0.041   0.283   5.717
 6117SOL    HW119250   7.005   0.247   5.650
 6117SOL    HW219251   0.001   0.280   5.808
 6118SOL     OW19252   6.972   1.249   1.866
 6118SOL    HW119253   6.913   1.168   1.865
 6118SOL    HW219254   6.933   1.320   1.808
 6119SOL     OW19255   0.897   3.500   3.837
 6119SOL    HW119256   0.965   3.435   3.870
 6119SOL    HW219257   0.810   3.485   3.885
 6120SOL     OW19258   3.667   6.827   3.674
 6120SOL    HW119259   3.766   6.830   3.688
 6120SOL    HW219260   3.637   6.912   3.632
 6121SOL     OW19261   0.151   2.945   4.233
 6121SOL    HW119262   0.108   2.960   4.322
 6121SOL    HW219263   0.234   2.891   4.244
 6122SOL     OW19264   3.420   6.710   1.755
 6122SOL    HW119265   3.411   6.644   1.680
 6122SOL    HW219266   3.330   6.751   1.774
 6123SOL     OW19267   6.455   0.242   0.050
 6123SOL    HW119268   6.495   0.316   0.105
 6123SOL    HW219269   6.527   0.193   0.001
 6124SOL     OW19270   3.402   0.385   5.619
 6124SOL    HW119271   3.390   0.290   5.590
 6124SOL    HW219272   3.476   0.391   5.686
 6125SOL     OW19273   2.697   5.861   1.191
 6125SOL    HW119274   2.650   5.863   1.102
 6125SOL    HW219275   2.681   5.772   1.234
 6126SOL     OW19276   5.969   6.615   4.372
 6126SOL    HW119277   6.037   6.629   4.444
 6126SOL    HW219278   5.966   6.518   4.349
 6127SOL     OW19279   2.315   0.351   2.337
 6127SOL    HW119280   2.411   0.331   2.320
 6127SOL    HW219281   2.292   0.329   2.432
 6128SOL     OW19282   6.738   3.610   0.614
 6128SOL    HW119283   6.752   3.519   0.652
 6128SOL    HW219284   6.665   3.606   0.545
 6129SOL     OW19285   6.076   4.560   3.498
 6129SOL    HW119286   6.087   4.594   3.592
 6129SOL    HW219287   5.985   4.519   3.488
 6130SOL     OW19288   5.786   1.925   4.057
 6130SOL    HW119289   5.711   1.865   4.029
 6130SOL    HW219290   5.870   1.871   4.064
 6131SOL     OW19291   6.806   1.650   5.500
 6131SOL    HW119292   6.807   1.648   5.600
 6131SOL    HW219293   6.898   1.635   5.465
 6132SOL     OW19294   4.757   1.230   0.628
 6132SOL    HW119295   4.827   1.239   0.557
 6132SOL    HW219296   4.676   1.282   0.602
 6133SOL     OW19297   0.798   2.945   2.747
 6133SOL    HW119298   0.739   3.017   2.710
 6133SOL    HW219299   0.837   2.892   2.671
 6134SOL     OW19300   3.610   4.325   0.298
 6134SOL    HW119301   3.539   4.346   0.366
 6134SOL    HW219302   3.632   4.228   0.303
 6135SOL     OW19303   0.082   6.816   2.178
 6135SOL    HW119304   0.037   6.905   2.178
 6135SOL    HW219305   0.173   6.824   2.218
 6136SOL     OW19306   0.540   2.149   2.006
 6136SOL    HW119307   0.571   2.225   2.064
 6136SOL    HW219308   0.619   2.104   1.966
 6137SOL     OW19309   4.477   1.621   5.142
 6137SOL    HW119310   4.409   1.552   5.121
 6137SOL    HW219311   4.553   1.580   5.192
 6138SOL     OW19312   3.921   6.674   3.029
 6138SOL    HW119313   3.923   6.579   3.059
 6138SOL    HW219314   3.897   6.678   2.932
 6139SOL     OW19315   2.083   3.288   4.621
 6139SOL    HW119316   1.993   3.289   4.665
 6139SOL    HW219317   2.141   3.221   4.666
 6140SOL     OW19318   0.328   6.308   1.488
 6140SOL    HW119319   0.257   6.265   1.433
 6140SOL    HW219320   0.405   6.245   1.499
 6141SOL     OW19321   6.116   6.041   5.176
 6141SOL    HW119322   6.168   6.104   5.118
 6141SOL    HW219323   6.178   5.998   5.243
 6142SOL     OW19324   0.009   5.292   0.957
 6142SOL    HW119325   0.069   5.337   1.023
 6142SOL    HW219326   6.974   5.232   1.006
 6143SOL     OW19327   6.097   5.003   6.952
 6143SOL    HW119328   6.164   4.934   6.924
 6143SOL    HW219329   6.135   5.058   7.026
 6144SOL     OW19330   6.222   4.962   2.351
 6144SOL    HW119331   6.291   4.915   2.294
 6144SOL    HW219332   6.252   5.055   2.369
 6145SOL     OW19333   4.776   6.117   4.240
 6145SOL    HW119334   4.841   6.042   4.240
 6145SOL    HW219335   4.687   6.085   4.208
 6146SOL     OW19336   3.826   1.195   3.742
 6146SOL    HW119337   3.762   1.122   3.767
 6146SOL    HW219338   3.789   1.283   3.772
 6147SOL     OW19339   1.656   4.296   4.129
 6147SOL    HW119340   1.709   4.215   4.155
 6147SOL    HW219341   1.717   4.362   4.084
 6148SOL     OW19342   6.861   0.257   4.811
 6148SOL    HW119343   6.929   0.185   4.797
 6148SOL    HW219344   6.883   0.308   4.895
 6149SOL     OW19345   3.188   4.938   2.867
 6149SOL    HW119346   3.264   4.988   2.824
 6149SOL    HW219347   3.127   4.902   2.796
 6150SOL     OW19348   3.874   5.047   6.866
 6150SOL    HW119349   3.924   5.133   6.861
 6150SOL    HW219350   3.889   4.995   6.781
 6151SOL     OW19351   6.005   4.110   4.477
 6151SOL    HW119352   5.994   4.018   4.441
 6151SOL    HW219353   5.948   4.173   4.424
 6152SOL     OW19354   5.766   5.019   5.351
 6152SOL    HW119355   5.839   5.067   5.400
 6152SOL    HW219356   5.807   4.951   5.290
 6153SOL     OW19357   4.374   3.760   1.621
 6153SOL    HW119358   4.286   3.752   1.667
 6153SOL    HW219359   4.430   3.830   1.665
 6154SOL     OW19360   5.159   1.607   2.619
 6154SOL    HW119361   5.149   1.698   2.579
 6154SOL    HW219362   5.138   1.538   2.550
 6155SOL     OW19363   1.740   2.374   4.431
 6155SOL    HW119364   1.666   2.384   4.364
 6155SOL    HW219365   1.701   2.367   4.523
 6156SOL     OW19366   4.634   5.004   2.483
 6156SOL    HW119367   4.632   4.904   2.480
 6156SOL    HW219368   4.710   5.037   2.426
 6157SOL     OW19369   1.283   1.522   4.340
 6157SOL    HW119370   1.352   1.571   4.286
 6157SOL    HW219371   1.229   1.587   4.393
 6158SOL     OW19372   4.490   0.638   6.351
 6158SOL    HW119373   4.506   0.711   6.284
 6158SOL    HW219374   4.481   0.678   6.443
 6159SOL     OW19375   4.610   2.319   0.569
 6159SOL    HW119376   4.663   2.287   0.491
 6159SOL    HW219377   4.595   2.243   0.633
 6160SOL     OW19378   5.559   6.051   0.505
 6160SOL    HW119379   5.535   6.067   0.409
 6160SOL    HW219380   5.594   5.958   0.515
 6161SOL     OW19381   6.236   2.143   5.871
 6161SOL    HW119382   6.225   2.183   5.961
 6161SOL    HW219383   6.220   2.044   5.876
 6162SOL     OW19384   0.682   5.646   4.113
 6162SOL    HW119385   0.619   5.674   4.186
 6162SOL    HW219386   0.742   5.574   4.147
 6163SOL     OW19387   5.129   6.034   1.708
 6163SOL    HW119388   5.164   6.053   1.800
 6163SOL    HW219389   5.055   6.098   1.687
 6164SOL     OW19390   1.800   3.453   1.677
 6164SOL    HW119391   1.851   3.373   1.709
 6164SOL    HW219392   1.775   3.510   1.756
 6165SOL     OW19393   3.738   6.966   6.304
 6165SOL    HW119394   3.669   6.919   6.358
 6165SOL    HW219395   3.812   6.998   6.363
 6166SOL     OW19396   3.834   0.814   5.360
 6166SOL    HW119397   3.895   0.786   5.435
 6166SOL    HW219398   3.888   0.856   5.287
 6167SOL     OW19399   6.819   4.575   2.199
 6167SOL    HW119400   6.841   4.572   2.101
 6167SOL    HW219401   6.724   4.604   2.210
 6168SOL     OW19402   0.213   4.040   0.900
 6168SOL    HW119403   0.236   4.136   0.911
 6168SOL    HW219404   0.258   3.987   0.972
 6169SOL     OW19405   0.884   3.642   2.629
 6169SOL    HW119406   0.945   3.685   2.562
 6169SOL    HW219407   0.793   3.683   2.622
 6170SOL     OW19408   0.395   3.514   4.677
 6170SOL    HW119409   0.420   3.493   4.582
 6170SOL    HW219410   0.343   3.600   4.678
 6171SOL     OW19411   0.558   1.386   7.028
 6171SOL    HW119412   0.544   1.388   0.098
 6171SOL    HW219413   0.575   1.291   6.999
 6172SOL     OW19414   1.230   3.115   2.622
 6172SOL    HW119415   1.233   3.029   2.673
 6172SOL    HW219416   1.249   3.097   2.525
 6173SOL     OW19417   6.695   5.570   3.558
 6173SOL    HW119418   6.693   5.505   3.482
 6173SOL    HW219419   6.637   5.536   3.632
 6174SOL     OW19420   4.640   5.141   3.987
 6174SOL    HW119421   4.637   5.219   3.926
 6174SOL    HW219422   4.735   5.115   4.003
 6175SOL     OW19423   3.511   0.790   4.426
 6175SOL    HW119424   3.438   0.826   4.368
 6175SOL    HW219425   3.507   0.833   4.516
 6176SOL     OW19426   4.475   4.030   5.336
 6176SOL    HW119427   4.514   3.939   5.349
 6176SOL    HW219428   4.378   4.029   5.359
 6177SOL     OW19429   4.945   2.198   1.899
 6177SOL    HW119430   4.985   2.220   1.809
 6177SOL    HW219431   4.871   2.261   1.919
 6178SOL     OW19432   4.929   3.645   2.217
 6178SOL    HW119433   4.942   3.742   2.240
 6178SOL    HW219434   5.010   3.612   2.169
 6179SOL     OW19435   6.592   4.686   1.866
 6179SOL    HW119436   6.613   4.589   1.853
 6179SOL    HW219437   6.541   4.698   1.951
 6180SOL     OW19438   3.368   4.985   0.864
 6180SOL    HW119439   3.272   4.975   0.836
 6180SOL    HW219440   3.425   4.997   0.782
 6181SOL     OW19441   5.018   6.358   6.050
 6181SOL    HW119442   5.074   6.390   6.127
 6181SOL    HW219443   4.998   6.435   5.989
 6182SOL     OW19444   4.698   3.017   6.490
 6182SOL    HW119445   4.744   2.948   6.436
 6182SOL    HW219446   4.618   3.051   6.441
 6183SOL     OW19447   2.210   1.883   1.822
 6183SOL    HW119448   2.227   1.799   1.771
 6183SOL    HW219449   2.297   1.926   1.845
 6184SOL     OW19450   3.105   0.184   6.247
 6184SOL    HW119451   3.044   0.171   6.169
 6184SOL    HW219452   3.105   0.280   6.273
 6185SOL     OW19453   1.521   4.720   5.842
 6185SOL    HW119454   1.614   4.720   5.880
 6185SOL    HW219455   1.463   4.779   5.898
 6186SOL     OW19456   6.796   1.039   1.901
 6186SOL    HW119457   6.748   1.060   1.816
 6186SOL    HW219458   6.730   1.003   1.968
 6187SOL     OW19459   4.977   3.257   4.994
 6187SOL    HW119460   4.951   3.298   5.082
 6187SOL    HW219461   4.967   3.325   4.921
 6188SOL     OW19462   1.512   1.841   5.664
 6188SOL    HW119463   1.564   1.908   5.612
 6188SOL    HW219464   1.573   1.769   5.697
 6189SOL     OW19465   3.510   5.424   2.562
 6189SOL    HW119466   3.413   5.437   2.582
 6189SOL    HW219467   3.521   5.366   2.481
 6190SOL     OW19468   6.423   3.047   5.369
 6190SOL    HW119469   6.513   3.012   5.346
 6190SOL    HW219470   6.432   3.139   5.407
 6191SOL     OW19471   2.528   3.119   6.104
 6191SOL    HW119472   2.556   3.119   6.200
 6191SOL    HW219473   2.429   3.110   6.098
 6192SOL     OW19474   2.587   2.216   6.316
 6192SOL    HW119475   2.548   2.155   6.247
 6192SOL    HW219476   2.517   2.278   6.350
 6193SOL     OW19477   4.974   6.080   1.061
 6193SOL    HW119478   5.015   6.054   1.148
 6193SOL    HW219479   4.874   6.071   1.067
 6194SOL     OW19480   6.487   0.317   6.337
 6194SOL    HW119481   6.411   0.261   6.305
 6194SOL    HW219482   6.463   0.360   6.424
 6195SOL     OW19483   5.769   6.473   4.713
 6195SOL    HW119484   5.751   6.504   4.806
 6195SOL    HW219485   5.778   6.553   4.653
 6196SOL     OW19486   4.546   4.420   2.441
 6196SOL    HW119487   4.580   4.394   2.351
 6196SOL    HW219488   4.473   4.488   2.431
 6197SOL     OW19489   2.567   5.134   2.344
 6197SOL    HW119490   2.642   5.076   2.375
 6197SOL    HW219491   2.485   5.114   2.397
 6198SOL     OW19492   5.277   6.691   0.156
 6198SOL    HW119493   5.198   6.753   0.162
 6198SOL    HW219494   5.264   6.628   0.079
 6199SOL     OW19495   0.440   1.000   0.413
 6199SOL    HW119496   0.437   0.990   0.512
 6199SOL    HW219497   0.475   0.916   0.371
 6200SOL     OW19498   0.628   1.890   3.889
 6200SOL    HW119499   0.542   1.915   3.935
 6200SOL    HW219500   0.652   1.961   3.823
 6201SOL     OW19501   0.660   3.451   4.012
 6201SOL    HW119502   0.678   3.550   4.012
 6201SOL    HW219503   0.563   3.435   3.995
 6202SOL     OW19504   5.599   1.306   2.513
 6202SOL    HW119505   5.631   1.261   2.597
 6202SOL    HW219506   5.502   1.285   2.499
 6203SOL     OW19507   5.898   5.343   1.891
 6203SOL    HW119508   5.962   5.366   1.817
 6203SOL    HW219509   5.815   5.304   1.852
 6204SOL     OW19510   1.102   6.158   5.258
 6204SOL    HW119511   1.097   6.249   5.300
 6204SOL    HW219512   1.193   6.119   5.274
 6205SOL     OW19513   5.487   4.323   1.530
 6205SOL    HW119514   5.393   4.304   1.504
 6205SOL    HW219515   5.510   4.270   1.612
 6206SOL     OW19516   5.666   1.393   3.211
 6206SOL    HW119517   5.715   1.310   3.236
 6206SOL    HW219518   5.623   1.432   3.293
 6207SOL     OW19519   1.910   6.039   4.865
 6207SOL    HW119520   1.865   5.952   4.883
 6207SOL    HW219521   1.894   6.102   4.941
 6208SOL     OW19522   3.261   2.517   5.604
 6208SOL    HW119523   3.273   2.478   5.513
 6208SOL    HW219524   3.241   2.615   5.595
 6209SOL     OW19525   3.307   5.263   0.805
 6209SOL    HW119526   3.225   5.206   0.802
 6209SOL    HW219527   3.386   5.208   0.831
 6210SOL     OW19528   5.424   3.818   2.884
 6210SOL    HW119529   5.374   3.811   2.797
 6210SOL    HW219530   5.493   3.745   2.888
 6211SOL     OW19531   4.326   5.990   5.933
 6211SOL    HW119532   4.389   6.022   5.862
 6211SOL    HW219533   4.307   6.066   5.997
 6212SOL     OW19534   2.390   4.715   4.355
 6212SOL    HW119535   2.428   4.765   4.276
 6212SOL    HW219536   2.451   4.726   4.433
 6213SOL     OW19537   5.016   6.793   0.155
 6213SOL    HW119538   4.939   6.830   0.207
 6213SOL    HW219539   4.985   6.773   0.061
 6214SOL     OW19540   5.837   5.538   5.581
 6214SOL    HW119541   5.774   5.615   5.593
 6214SOL    HW219542   5.836   5.481   5.663
 6215SOL     OW19543   4.048   3.268   6.058
 6215SOL    HW119544   4.006   3.278   5.967
 6215SOL    HW219545   4.144   3.297   6.054
 6216SOL     OW19546   5.811   2.618   3.131
 6216SOL    HW119547   5.771   2.707   3.153
 6216SOL    HW219548   5.762   2.579   3.053
 6217SOL     OW19549   1.020   5.443   2.123
 6217SOL    HW119550   1.065   5.452   2.211
 6217SOL    HW219551   1.088   5.450   2.050
 6218SOL     OW19552   3.795   6.569   0.362
 6218SOL    HW119553   3.819   6.549   0.267
 6218SOL    HW219554   3.798   6.667   0.378
 6219SOL     OW19555   1.771   0.797   5.427
 6219SOL    HW119556   1.844   0.831   5.486
 6219SOL    HW219557   1.706   0.871   5.409
 6220SOL     OW19558   3.276   1.090   6.729
 6220SOL    HW119559   3.359   1.038   6.748
 6220SOL    HW219560   3.201   1.056   6.785
 6221SOL     OW19561   6.163   6.507   6.969
 6221SOL    HW119562   6.249   6.536   6.927
 6221SOL    HW219563   6.152   6.553   0.028
 6222SOL     OW19564   6.227   0.620   2.219
 6222SOL    HW119565   6.215   0.557   2.295
 6222SOL    HW219566   6.304   0.590   2.162
 6223SOL     OW19567   1.124   5.435   3.482
 6223SOL    HW119568   1.224   5.439   3.480
 6223SOL    HW219569   1.088   5.526   3.503
 6224SOL     OW19570   4.135   1.444   5.632
 6224SOL    HW119571   4.159   1.450   5.729
 6224SOL    HW219572   4.131   1.536   5.594
 6225SOL     OW19573   4.012   2.092   6.530
 6225SOL    HW119574   4.069   2.081   6.611
 6225SOL    HW219575   3.918   2.066   6.551
 6226SOL     OW19576   1.255   1.657   3.700
 6226SOL    HW119577   1.335   1.717   3.702
 6226SOL    HW219578   1.236   1.630   3.605
 6227SOL     OW19579   2.983   4.452   5.458
 6227SOL    HW119580   3.074   4.409   5.452
 6227SOL    HW219581   2.944   4.459   5.366
 6228SOL     OW19582   0.657   2.146   4.188
 6228SOL    HW119583   0.732   2.111   4.134
 6228SOL    HW219584   0.581   2.173   4.128
 6229SOL     OW19585   7.027   2.887   5.257
 6229SOL    HW119586   0.064   2.960   5.272
 6229SOL    HW219587   0.004   2.819   5.330
 6230SOL     OW19588   1.129   2.097   3.495
 6230SOL    HW119589   1.042   2.140   3.467
 6230SOL    HW219590   1.131   2.089   3.594
 6231SOL     OW19591   5.472   5.401   0.422
 6231SOL    HW119592   5.513   5.442   0.340
 6231SOL    HW219593   5.471   5.468   0.496
 6232SOL     OW19594   5.608   1.159   0.612
 6232SOL    HW119595   5.633   1.210   0.695
 6232SOL    HW219596   5.592   1.063   0.636
 6233SOL     OW19597   0.144   3.467   2.127
 6233SOL    HW119598   0.230   3.422   2.102
 6233SOL    HW219599   0.087   3.477   2.046
 6234SOL     OW19600   0.458   0.233   5.370
 6234SOL    HW119601   0.492   0.264   5.459
 6234SOL    HW219602   0.379   0.174   5.384
 6235SOL     OW19603   6.926   0.787   1.878
 6235SOL    HW119604   6.901   0.737   1.796
 6235SOL    HW219605   6.870   0.869   1.886
 6236SOL     OW19606   6.772   4.422   0.465
 6236SOL    HW119607   6.800   4.363   0.390
 6236SOL    HW219608   6.810   4.388   0.551
 6237SOL     OW19609   3.070   6.904   0.115
 6237SOL    HW119610   3.126   6.830   0.078
 6237SOL    HW219611   2.981   6.906   0.070
 6238SOL     OW19612   3.762   6.537   3.628
 6238SOL    HW119613   3.692   6.600   3.659
 6238SOL    HW219614   3.850   6.585   3.620
 6239SOL     OW19615   3.466   0.284   1.641
 6239SOL    HW119616   3.516   0.363   1.677
 6239SOL    HW219617   3.481   0.205   1.701
 6240SOL     OW19618   3.272   4.150   4.667
 6240SOL    HW119619   3.235   4.233   4.710
 6240SOL    HW219620   3.221   4.070   4.699
 6241SOL     OW19621   4.043   0.419   3.985
 6241SOL    HW119622   4.067   0.355   3.912
 6241SOL    HW219623   4.087   0.389   4.070
 6242SOL     OW19624   2.508   1.333   3.614
 6242SOL    HW119625   2.539   1.243   3.644
 6242SOL    HW219626   2.414   1.348   3.646
 6243SOL     OW19627   6.658   0.965   5.389
 6243SOL    HW119628   6.622   0.894   5.328
 6243SOL    HW219629   6.739   0.929   5.437
 6244SOL     OW19630   5.082   4.097   3.108
 6244SOL    HW119631   5.154   4.033   3.081
 6244SOL    HW219632   5.121   4.188   3.123
 6245SOL     OW19633   1.007   5.243   1.782
 6245SOL    HW119634   1.106   5.250   1.775
 6245SOL    HW219635   0.975   5.299   1.859
 6246SOL     OW19636   0.561   0.335   4.330
 6246SOL    HW119637   0.602   0.403   4.391
 6246SOL    HW219638   0.598   0.347   4.237
 6247SOL     OW19639   1.230   5.758   3.096
 6247SOL    HW119640   1.273   5.821   3.032
 6247SOL    HW219641   1.260   5.665   3.076
 6248SOL     OW19642   3.690   3.583   0.041
 6248SOL    HW119643   3.710   3.544   0.131
 6248SOL    HW219644   3.749   3.662   0.025
 6249SOL     OW19645   6.837   2.590   1.569
 6249SOL    HW119646   6.897   2.670   1.574
 6249SOL    HW219647   6.890   2.511   1.538
 6250SOL     OW19648   7.010   6.439   0.843
 6250SOL    HW119649   0.005   6.534   0.866
 6250SOL    HW219650   6.947   6.403   0.911
 6251SOL     OW19651   3.978   5.937   4.481
 6251SOL    HW119652   3.989   5.982   4.393
 6251SOL    HW219653   3.988   6.004   4.554
 6252SOL     OW19654   2.765   5.058   0.279
 6252SOL    HW119655   2.682   5.114   0.280
 6252SOL    HW219656   2.843   5.115   0.254
 6253SOL     OW19657   2.493   4.875   4.820
 6253SOL    HW119658   2.495   4.961   4.869
 6253SOL    HW219659   2.522   4.801   4.880
 6254SOL     OW19660   0.745   6.217   1.123
 6254SOL    HW119661   0.754   6.308   1.083
 6254SOL    HW219662   0.806   6.153   1.076
 6255SOL     OW19663   1.716   2.695   0.830
 6255SOL    HW119664   1.648   2.661   0.765
 6255SOL    HW219665   1.806   2.700   0.786
 6256SOL     OW19666   4.751   5.250   2.795
 6256SOL    HW119667   4.796   5.195   2.726
 6256SOL    HW219668   4.813   5.322   2.827
 6257SOL     OW19669   4.222   3.602   0.301
 6257SOL    HW119670   4.188   3.619   0.394
 6257SOL    HW219671   4.228   3.689   0.252
 6258SOL     OW19672   3.346   0.129   5.547
 6258SOL    HW119673   3.346   0.057   5.617
 6258SOL    HW219674   3.315   0.090   5.460
 6259SOL     OW19675   1.665   1.450   5.938
 6259SOL    HW119676   1.611   1.525   5.975
 6259SOL    HW219677   1.648   1.367   5.992
 6260SOL     OW19678   1.904   0.406   0.878
 6260SOL    HW119679   1.971   0.413   0.952
 6260SOL    HW219680   1.950   0.385   0.792
 6261SOL     OW19681   5.177   6.872   1.220
 6261SOL    HW119682   5.138   6.808   1.154
 6261SOL    HW219683   5.220   6.949   1.173
 6262SOL     OW19684   0.540   6.659   3.063
 6262SOL    HW119685   0.557   6.567   3.099
 6262SOL    HW219686   0.495   6.714   3.133
 6263SOL     OW19687   6.741   6.402   4.856
 6263SOL    HW119688   6.699   6.462   4.788
 6263SOL    HW219689   6.731   6.307   4.828
 6264SOL     OW19690   0.950   6.921   1.260
 6264SOL    HW119691   0.859   6.943   1.224
 6264SOL    HW219692   1.002   7.005   1.273
 6265SOL     OW19693   4.188   2.480   0.562
 6265SOL    HW119694   4.126   2.448   0.491
 6265SOL    HW219695   4.135   2.501   0.645
 6266SOL     OW19696   3.753   6.662   3.290
 6266SOL    HW119697   3.848   6.649   3.264
 6266SOL    HW219698   3.709   6.573   3.303
 6267SOL     OW19699   1.354   6.502   5.211
 6267SOL    HW119700   1.369   6.595   5.244
 6267SOL    HW219701   1.313   6.447   5.283
 6268SOL     OW19702   3.472   0.272   2.182
 6268SOL    HW119703   3.512   0.239   2.267
 6268SOL    HW219704   3.439   0.366   2.195
 6269SOL     OW19705   5.451   6.343   1.332
 6269SOL    HW119706   5.384   6.412   1.356
 6269SOL    HW219707   5.503   6.317   1.413
 6270SOL     OW19708   0.697   6.229   0.021
 6270SOL    HW119709   0.672   6.312   7.000
 6270SOL    HW219710   0.638   6.219   0.101
 6271SOL     OW19711   5.980   2.637   6.694
 6271SOL    HW119712   6.011   2.556   6.644
 6271SOL    HW219713   6.003   2.627   6.791
 6272SOL     OW19714   0.556   0.211   6.743
 6272SOL    HW119715   0.552   0.288   6.679
 6272SOL    HW219716   0.471   0.205   6.794
 6273SOL     OW19717   0.894   6.325   3.273
 6273SOL    HW119718   0.981   6.348   3.229
 6273SOL    HW219719   0.908   6.316   3.372
 6274SOL     OW19720   2.481   6.631   4.457
 6274SOL    HW119721   2.439   6.687   4.385
 6274SOL    HW219722   2.419   6.625   4.535
 6275SOL     OW19723   2.574   6.269   0.473
 6275SOL    HW119724   2.580   6.343   0.540
 6275SOL    HW219725   2.661   6.259   0.425
 6276SOL     OW19726   3.609   5.746   3.561
 6276SOL    HW119727   3.675   5.675   3.585
 6276SOL    HW219728   3.548   5.713   3.489
 6277SOL     OW19729   5.029   2.033   1.559
 6277SOL    HW119730   4.996   1.980   1.480
 6277SOL    HW219731   5.071   1.971   1.625
 6278SOL     OW19732   3.595   0.362   5.800
 6278SOL    HW119733   3.625   0.317   5.884
 6278SOL    HW219734   3.623   0.306   5.721
 6279SOL     OW19735   3.580   5.992   0.678
 6279SOL    HW119736   3.609   6.075   0.630
 6279SOL    HW219737   3.637   5.978   0.758
 6280SOL     OW19738   0.003   1.326   6.626
 6280SOL    HW119739   6.950   1.285   6.586
 6280SOL    HW219740   0.029   1.407   6.573
 6281SOL     OW19741   5.657   4.926   3.712
 6281SOL    HW119742   5.674   5.022   3.690
 6281SOL    HW219743   5.735   4.888   3.762
 6282SOL     OW19744   5.824   3.514   5.208
 6282SOL    HW119745   5.734   3.498   5.166
 6282SOL    HW219746   5.848   3.610   5.199
 6283SOL     OW19747   0.966   5.292   4.583
 6283SOL    HW119748   0.893   5.357   4.564
 6283SOL    HW219749   0.951   5.249   4.672
 6284SOL     OW19750   1.242   5.392   6.606
 6284SOL    HW119751   1.323   5.430   6.649
 6284SOL    HW219752   1.172   5.374   6.676
 6285SOL     OW19753   1.686   3.573   3.679
 6285SOL    HW119754   1.774   3.589   3.634
 6285SOL    HW219755   1.696   3.503   3.749
 6286SOL     OW19756   6.553   3.425   4.431
 6286SOL    HW119757   6.564   3.516   4.393
 6286SOL    HW219758   6.490   3.429   4.509
 6287SOL     OW19759   4.224   4.821   5.583
 6287SOL    HW119760   4.202   4.724   5.596
 6287SOL    HW219761   4.227   4.841   5.485
 6288SOL     OW19762   4.052   3.929   0.885
 6288SOL    HW119763   4.024   3.922   0.981
 6288SOL    HW219764   4.029   3.845   0.837
 6289SOL     OW19765   2.353   4.214   6.872
 6289SOL    HW119766   2.436   4.253   6.834
 6289SOL    HW219767   2.312   4.279   6.937
 6290SOL     OW19768   6.821   5.156   6.446
 6290SOL    HW119769   6.916   5.134   6.425
 6290SOL    HW219770   6.791   5.104   6.525
 6291SOL     OW19771   3.883   2.967   3.078
 6291SOL    HW119772   3.805   2.916   3.114
 6291SOL    HW219773   3.953   2.974   3.148
 6292SOL     OW19774   2.104   2.636   4.826
 6292SOL    HW119775   2.182   2.676   4.872
 6292SOL    HW219776   2.082   2.688   4.744
 6293SOL     OW19777   4.430   1.829   0.589
 6293SOL    HW119778   4.497   1.859   0.657
 6293SOL    HW219779   4.476   1.817   0.501
 6294SOL     OW19780   4.219   0.305   3.354
 6294SOL    HW119781   4.224   0.393   3.403
 6294SOL    HW219782   4.257   0.316   3.263
 6295SOL     OW19783   5.435   5.072   4.632
 6295SOL    HW119784   5.465   5.107   4.720
 6295SOL    HW219785   5.462   5.135   4.559
 6296SOL     OW19786   0.750   3.948   5.563
 6296SOL    HW119787   0.773   3.948   5.660
 6296SOL    HW219788   0.832   3.965   5.509
 6297SOL     OW19789   6.039   6.890   5.149
 6297SOL    HW119790   5.985   6.827   5.205
 6297SOL    HW219791   6.046   6.853   5.056
 6298SOL     OW19792   6.465   5.052   6.771
 6298SOL    HW119793   6.416   5.003   6.843
 6298SOL    HW219794   6.454   5.005   6.684
 6299SOL     OW19795   5.671   2.607   2.468
 6299SOL    HW119796   5.585   2.650   2.441
 6299SOL    HW219797   5.652   2.515   2.503
 6300SOL     OW19798   4.413   1.241   6.519
 6300SOL    HW119799   4.344   1.293   6.469
 6300SOL    HW219800   4.377   1.215   6.609
 6301SOL     OW19801   3.256   6.606   6.467
 6301SOL    HW119802   3.324   6.663   6.421
 6301SOL    HW219803   3.293   6.515   6.483
 6302SOL     OW19804   1.995   1.893   5.228
 6302SOL    HW119805   2.071   1.861   5.172
 6302SOL    HW219806   2.019   1.978   5.273
 6303SOL     OW19807   1.145   6.992   5.544
 6303SOL    HW119808   1.141   6.925   5.470
 6303SOL    HW219809   1.168   6.945   5.630
 6304SOL     OW19810   3.976   1.938   3.388
 6304SOL    HW119811   3.942   2.027   3.356
 6304SOL    HW219812   4.076   1.936   3.381
 6305SOL     OW19813   6.086   5.987   0.130
 6305SOL    HW119814   6.091   6.086   0.115
 6305SOL    HW219815   6.035   5.945   0.055
 6306SOL     OW19816   0.676   3.243   3.739
 6306SOL    HW119817   0.740   3.298   3.685
 6306SOL    HW219818   0.583   3.259   3.706
 6307SOL     OW19819   3.725   3.188   4.256
 6307SOL    HW119820   3.800   3.244   4.291
 6307SOL    HW219821   3.645   3.245   4.241
 6308SOL     OW19822   0.696   1.850   6.077
 6308SOL    HW119823   0.652   1.870   6.165
 6308SOL    HW219824   0.703   1.935   6.023
 6309SOL     OW19825   0.470   6.635   4.144
 6309SOL    HW119826   0.551   6.585   4.175
 6309SOL    HW219827   0.395   6.619   4.209
 6310SOL     OW19828   1.995   6.852   2.883
 6310SOL    HW119829   2.029   6.900   2.964
 6310SOL    HW219830   1.907   6.891   2.856
 6311SOL     OW19831   5.055   1.170   6.978
 6311SOL    HW119832   5.088   1.136   6.889
 6311SOL    HW219833   5.070   1.100   0.019
 6312SOL     OW19834   1.935   6.788   6.584
 6312SOL    HW119835   1.932   6.842   6.500
 6312SOL    HW219836   1.962   6.846   6.661
 6313SOL     OW19837   5.795   7.014   3.742
 6313SOL    HW119838   5.773   6.980   3.833
 6313SOL    HW219839   5.894   7.018   3.731
 6314SOL     OW19840   3.561   0.023   1.235
 6314SOL    HW119841   3.576   0.096   1.302
 6314SOL    HW219842   3.546   6.965   1.283
 6315SOL     OW19843   2.257   2.293   4.661
 6315SOL    HW119844   2.327   2.271   4.729
 6315SOL    HW219845   2.187   2.351   4.703
 6316SOL     OW19846   4.846   1.878   5.996
 6316SOL    HW119847   4.934   1.867   6.041
 6316SOL    HW219848   4.799   1.958   6.034
 6317SOL     OW19849   5.539   4.068   2.804
 6317SOL    HW119850   5.518   3.976   2.837
 6317SOL    HW219851   5.458   4.125   2.810
 6318SOL     OW19852   5.902   0.466   6.963
 6318SOL    HW119853   5.918   0.547   6.906
 6318SOL    HW219854   5.990   0.432   6.997
 6319SOL     OW19855   5.489   2.046   4.715
 6319SOL    HW119856   5.550   2.052   4.636
 6319SOL    HW219857   5.410   2.105   4.701
 6320SOL     OW19858   7.007   0.400   3.474
 6320SOL    HW119859   6.943   0.465   3.433
 6320SOL    HW219860   6.957   0.334   3.530
 6321SOL     OW19861   5.249   3.938   0.394
 6321SOL    HW119862   5.185   4.010   0.368
 6321SOL    HW219863   5.329   3.941   0.334
 6322SOL     OW19864   2.426   1.848   0.563
 6322SOL    HW119865   2.464   1.756   0.556
 6322SOL    HW219866   2.482   1.902   0.626
 6323SOL     OW19867   1.844   3.459   1.404
 6323SOL    HW119868   1.873   3.364   1.390
 6323SOL    HW219869   1.825   3.474   1.500
 6324SOL     OW19870   4.404   1.573   0.724
 6324SOL    HW119871   4.353   1.643   0.674
 6324SOL    HW219872   4.476   1.617   0.778
 6325SOL     OW19873   1.422   2.743   2.723
 6325SOL    HW119874   1.433   2.840   2.746
 6325SOL    HW219875   1.479   2.721   2.644
 6326SOL     OW19876   4.601   5.330   5.550
 6326SOL    HW119877   4.552   5.336   5.463
 6326SOL    HW219878   4.639   5.238   5.560
 6327SOL     OW19879   0.325   1.438   3.391
 6327SOL    HW119880   0.390   1.457   3.465
 6327SOL    HW219881   0.317   1.519   3.333
 6328SOL     OW19882   5.214   3.966   6.838
 6328SOL    HW119883   5.168   4.009   6.916
 6328SOL    HW219884   5.248   3.876   6.865
 6329SOL     OW19885   0.847   2.698   4.397
 6329SOL    HW119886   0.867   2.793   4.374
 6329SOL    HW219887   0.748   2.684   4.400
 6330SOL     OW19888   5.954   0.813   3.274
 6330SOL    HW119889   6.046   0.795   3.309
 6330SOL    HW219890   5.956   0.812   3.174
 6331SOL     OW19891   6.492   2.918   4.935
 6331SOL    HW119892   6.466   2.987   5.003
 6331SOL    HW219893   6.511   2.832   4.981
 6332SOL     OW19894   1.320   2.152   1.522
 6332SOL    HW119895   1.287   2.209   1.447
 6332SOL    HW219896   1.417   2.133   1.509
 6333SOL     OW19897   5.286   0.097   6.763
 6333SOL    HW119898   5.300   0.132   6.855
 6333SOL    HW219899   5.262   0.172   6.702
 6334SOL     OW19900   2.228   1.626   1.729
 6334SOL    HW119901   2.150   1.576   1.691
 6334SOL    HW219902   2.308   1.566   1.730
 6335SOL     OW19903   4.811   1.475   0.939
 6335SOL    HW119904   4.858   1.415   1.004
 6335SOL    HW219905   4.876   1.508   0.871
 6336SOL     OW19906   0.030   4.101   6.449
 6336SOL    HW119907   0.114   4.146   6.419
 6336SOL    HW219908   0.048   4.048   6.532
 6337SOL     OW19909   4.137   5.884   5.255
 6337SOL    HW119910   4.094   5.969   5.287
 6337SOL    HW219911   4.076   5.807   5.274
 6338SOL     OW19912   2.775   1.318   4.610
 6338SOL    HW119913   2.803   1.285   4.520
 6338SOL    HW219914   2.796   1.249   4.679
 6339SOL     OW19915   1.267   3.711   3.150
 6339SOL    HW119916   1.261   3.743   3.055
 6339SOL    HW219917   1.193   3.647   3.169
 6340SOL     OW19918   2.221   3.946   1.393
 6340SOL    HW119919   2.174   3.861   1.416
 6340SOL    HW219920   2.203   3.968   1.297
 6341SOL     OW19921   0.963   3.599   3.381
 6341SOL    HW119922   1.051   3.612   3.425
 6341SOL    HW219923   0.976   3.567   3.287
 6342SOL     OW19924   3.375   1.315   1.241
 6342SOL    HW119925   3.440   1.348   1.173
 6342SOL    HW219926   3.302   1.264   1.194
 6343SOL     OW19927   4.076   6.857   6.826
 6343SOL    HW119928   4.035   6.774   6.864
 6343SOL    HW219929   4.104   6.917   6.901
 6344SOL     OW19930   6.052   2.593   3.714
 6344SOL    HW119931   6.060   2.561   3.620
 6344SOL    HW219932   6.101   2.531   3.775
 6345SOL     OW19933   4.915   3.150   1.833
 6345SOL    HW119934   4.835   3.122   1.886
 6345SOL    HW219935   4.914   3.103   1.744
 6346SOL     OW19936   6.667   4.179   5.137
 6346SOL    HW119937   6.697   4.269   5.105
 6346SOL    HW219938   6.728   4.108   5.103
 6347SOL     OW19939   2.853   1.904   2.178
 6347SOL    HW119940   2.766   1.953   2.169
 6347SOL    HW219941   2.882   1.873   2.087
 6348SOL     OW19942   1.018   1.703   5.868
 6348SOL    HW119943   1.091   1.706   5.937
 6348SOL    HW219944   1.050   1.652   5.788
 6349SOL     OW19945   1.425   0.437   0.187
 6349SOL    HW119946   1.398   0.529   0.158
 6349SOL    HW219947   1.522   0.423   0.167
 6350SOL     OW19948   0.872   5.122   2.873
 6350SOL    HW119949   0.940   5.184   2.835
 6350SOL    HW219950   0.919   5.049   2.924
 6351SOL     OW19951   6.174   4.013   4.004
 6351SOL    HW119952   6.124   4.098   3.986
 6351SOL    HW219953   6.126   3.936   3.960
 6352SOL     OW19954   2.878   1.171   4.120
 6352SOL    HW119955   2.974   1.144   4.116
 6352SOL    HW219956   2.837   1.159   4.029
 6353SOL     OW19957   2.495   5.130   0.340
 6353SOL    HW119958   2.450   5.066   0.278
 6353SOL    HW219959   2.426   5.173   0.399
 6354SOL     OW19960   4.622   5.600   2.736
 6354SOL    HW119961   4.539   5.648   2.707
 6354SOL    HW219962   4.649   5.536   2.664
 6355SOL     OW19963   3.191   5.602   0.902
 6355SOL    HW119964   3.264   5.578   0.838
 6355SOL    HW219965   3.208   5.558   0.990
 6356SOL     OW19966   5.429   4.915   7.005
 6356SOL    HW119967   5.467   4.838   0.028
 6356SOL    HW219968   5.352   4.954   0.025
 6357SOL     OW19969   5.831   3.085   1.696
 6357SOL    HW119970   5.752   3.138   1.726
 6357SOL    HW219971   5.820   3.060   1.600
 6358SOL     OW19972   0.896   2.050   6.980
 6358SOL    HW119973   0.851   1.998   6.907
 6358SOL    HW219974   0.847   2.035   0.037
 6359SOL     OW19975   5.729   6.822   0.407
 6359SOL    HW119976   5.763   6.904   0.361
 6359SOL    HW219977   5.782   6.806   0.490
 6360SOL     OW19978   0.275   3.116   3.695
 6360SOL    HW119979   0.316   3.029   3.725
 6360SOL    HW219980   0.216   3.151   3.767
 6361SOL     OW19981   0.738   0.897   0.656
 6361SOL    HW119982   0.711   0.896   0.559
 6361SOL    HW219983   0.658   0.879   0.713
 6362SOL     OW19984   1.584   6.400   6.934
 6362SOL    HW119985   1.594   6.326   6.868
 6362SOL    HW219986   1.562   6.485   6.886
 6363SOL     OW19987   2.430   4.790   3.897
 6363SOL    HW119988   2.343   4.838   3.911
 6363SOL    HW219989   2.497   4.821   3.965
 6364SOL     OW19990   2.031   1.953   4.833
 6364SOL    HW119991   2.059   1.956   4.737
 6364SOL    HW219992   2.059   1.866   4.873
 6365SOL     OW19993   6.275   5.732   5.112
 6365SOL    HW119994   6.311   5.642   5.089
 6365SOL    HW219995   6.190   5.721   5.163
 6366SOL     OW19996   6.651   6.619   4.729
 6366SOL    HW119997   6.602   6.645   4.813
 6366SOL    HW219998   6.606   6.661   4.650
 6367SOL     OW19999   3.259   1.725   2.943
 6367SOL    HW120000   3.345   1.749   2.899
 6367SOL    HW220001   3.190   1.794   2.921
 6368SOL     OW20002   4.399   4.621   4.536
 6368SOL    HW120003   4.387   4.672   4.621
 6368SOL    HW220004   4.364   4.674   4.459
 6369SOL     OW20005   2.258   6.491   5.441
 6369SOL    HW120006   2.177   6.463   5.493
 6369SOL    HW220007   2.310   6.410   5.414
 6370SOL     OW20008   4.802   3.981   3.629
 6370SOL    HW120009   4.820   4.063   3.575
 6370SOL    HW220010   4.839   3.901   3.582
 6371SOL     OW20011   5.576   4.207   1.815
 6371SOL    HW120012   5.663   4.164   1.791
 6371SOL    HW220013   5.551   4.182   1.909
 6372SOL     OW20014   0.372   0.939   2.407
 6372SOL    HW120015   0.327   0.924   2.495
 6372SOL    HW220016   0.398   1.035   2.398
 6373SOL     OW20017   6.098   4.099   2.376
 6373SOL    HW120018   6.005   4.065   2.370
 6373SOL    HW220019   6.162   4.022   2.382
 6374SOL     OW20020   4.057   3.105   0.278
 6374SOL    HW120021   3.980   3.043   0.297
 6374SOL    HW220022   4.142   3.053   0.279
 6375SOL     OW20023   0.937   2.854   2.518
 6375SOL    HW120024   0.937   2.929   2.452
 6375SOL    HW220025   1.024   2.853   2.567
 6376SOL     OW20026   4.232   1.757   5.933
 6376SOL    HW120027   4.223   1.834   5.869
 6376SOL    HW220028   4.314   1.705   5.912
 6377SOL     OW20029   6.781   0.994   5.945
 6377SOL    HW120030   6.818   1.074   5.900
 6377SOL    HW220031   6.735   0.935   5.877
 6378SOL     OW20032   4.744   5.726   3.413
 6378SOL    HW120033   4.729   5.807   3.356
 6378SOL    HW220034   4.666   5.713   3.474
 6379SOL     OW20035   1.318   4.515   5.210
 6379SOL    HW120036   1.305   4.433   5.265
 6379SOL    HW220037   1.358   4.588   5.266
 6380SOL     OW20038   0.587   2.994   4.159
 6380SOL    HW120039   0.647   3.069   4.188
 6380SOL    HW220040   0.620   2.958   4.071
 6381SOL     OW20041   3.962   2.553   0.391
 6381SOL    HW120042   3.974   2.614   0.469
 6381SOL    HW220043   4.012   2.588   0.312
 6382SOL     OW20044   2.470   1.464   1.257
 6382SOL    HW120045   2.386   1.419   1.288
 6382SOL    HW220046   2.461   1.488   1.160
 6383SOL     OW20047   1.207   2.786   2.538
 6383SOL    HW120048   1.249   2.807   2.450
 6383SOL    HW220049   1.277   2.765   2.605
 6384SOL     OW20050   5.922   2.393   2.424
 6384SOL    HW120051   5.856   2.403   2.350
 6384SOL    HW220052   5.970   2.480   2.438
 6385SOL     OW20053   6.637   4.129   1.347
 6385SOL    HW120054   6.586   4.087   1.273
 6385SOL    HW220055   6.574   4.157   1.420
 6386SOL     OW20056   1.607   4.357   0.783
 6386SOL    HW120057   1.700   4.322   0.772
 6386SOL    HW220058   1.572   4.330   0.873
 6387SOL     OW20059   6.241   1.390   0.375
 6387SOL    HW120060   6.315   1.448   0.342
 6387SOL    HW220061   6.153   1.429   0.348
 6388SOL     OW20062   6.610   4.801   2.693
 6388SOL    HW120063   6.604   4.703   2.679
 6388SOL    HW220064   6.630   4.846   2.605
 6389SOL     OW20065   1.918   6.759   0.851
 6389SOL    HW120066   2.000   6.784   0.903
 6389SOL    HW220067   1.845   6.824   0.870
 6390SOL     OW20068   6.276   0.488   7.019
 6390SOL    HW120069   6.369   0.469   0.022
 6390SOL    HW220070   6.276   0.494   6.919
 6391SOL     OW20071   1.416   1.445   6.138
 6391SOL    HW120072   1.350   1.393   6.083
 6391SOL    HW220073   1.421   1.538   6.103
 6392SOL     OW20074   3.290   6.016   3.828
 6392SOL    HW120075   3.204   6.047   3.868
 6392SOL    HW220076   3.366   6.046   3.886
 6393SOL     OW20077   5.490   6.229   1.792
 6393SOL    HW120078   5.451   6.322   1.790
 6393SOL    HW220079   5.588   6.235   1.811
 6394SOL     OW20080   1.507   4.833   1.107
 6394SOL    HW120081   1.456   4.859   1.025
 6394SOL    HW220082   1.487   4.738   1.129
 6395SOL     OW20083   0.018   3.555   2.513
 6395SOL    HW120084   0.117   3.566   2.501
 6395SOL    HW220085   7.022   3.576   2.607
 6396SOL     OW20086   6.551   3.557   6.260
 6396SOL    HW120087   6.544   3.504   6.345
 6396SOL    HW220088   6.490   3.636   6.266
 6397SOL     OW20089   6.046   1.030   2.238
 6397SOL    HW120090   5.988   0.962   2.283
 6397SOL    HW220091   6.040   1.019   2.139
 6398SOL     OW20092   1.262   6.706   1.611
 6398SOL    HW120093   1.341   6.680   1.555
 6398SOL    HW220094   1.288   6.706   1.707
 6399SOL     OW20095   1.671   0.408   0.076
 6399SOL    HW120096   1.770   0.417   0.082
 6399SOL    HW220097   1.647   0.314   0.053
 6400SOL     OW20098   2.172   5.359   2.532
 6400SOL    HW120099   2.241   5.407   2.587
 6400SOL    HW220100   2.141   5.418   2.458
 6401SOL     OW20101   4.789   4.634   3.162
 6401SOL    HW120102   4.847   4.679   3.094
 6401SOL    HW220103   4.697   4.674   3.158
 6402SOL     OW20104   1.520   2.749   3.423
 6402SOL    HW120105   1.590   2.758   3.353
 6402SOL    HW220106   1.481   2.839   3.444
 6403SOL     OW20107   5.514   6.325   4.754
 6403SOL    HW120108   5.602   6.369   4.736
 6403SOL    HW220109   5.484   6.275   4.673
 6404SOL     OW20110   3.926   1.359   2.440
 6404SOL    HW120111   3.893   1.311   2.522
 6404SOL    HW220112   3.957   1.450   2.466
 6405SOL     OW20113   4.761   1.597   3.967
 6405SOL    HW120114   4.790   1.601   3.871
 6405SOL    HW220115   4.697   1.520   3.978
 6406SOL     OW20116   1.141   3.404   2.656
 6406SOL    HW120117   1.183   3.313   2.656
 6406SOL    HW220118   1.044   3.396   2.637
 6407SOL     OW20119   1.715   6.255   3.331
 6407SOL    HW120120   1.794   6.316   3.331
 6407SOL    HW220121   1.636   6.302   3.369
 6408SOL     OW20122   6.557   0.684   1.233
 6408SOL    HW120123   6.563   0.629   1.150
 6408SOL    HW220124   6.468   0.731   1.235
 6409SOL     OW20125   6.638   4.860   3.451
 6409SOL    HW120126   6.566   4.806   3.495
 6409SOL    HW220127   6.652   4.826   3.358
 6410SOL     OW20128   2.214   1.308   6.325
 6410SOL    HW120129   2.242   1.334   6.233
 6410SOL    HW220130   2.116   1.290   6.326
 6411SOL     OW20131   0.479   2.938   1.998
 6411SOL    HW120132   0.525   2.986   2.072
 6411SOL    HW220133   0.400   2.992   1.967
 6412SOL     OW20134   3.149   0.884   6.424
 6412SOL    HW120135   3.147   0.925   6.515
 6412SOL    HW220136   3.084   0.932   6.365
 6413SOL     OW20137   4.099   5.005   4.374
 6413SOL    HW120138   4.040   5.023   4.296
 6413SOL    HW220139   4.132   4.910   4.370
 6414SOL     OW20140   6.981   6.824   6.733
 6414SOL    HW120141   6.888   6.788   6.731
 6414SOL    HW220142   0.007   6.778   6.662
 6415SOL     OW20143   1.457   3.059   3.191
 6415SOL    HW120144   1.357   3.069   3.191
 6415SOL    HW220145   1.483   2.985   3.130
 6416SOL     OW20146   3.161   6.864   6.561
 6416SOL    HW120147   3.201   6.899   6.476
 6416SOL    HW220148   3.184   6.768   6.573
 6417SOL     OW20149   5.445   2.223   0.952
 6417SOL    HW120150   5.461   2.260   1.043
 6417SOL    HW220151   5.386   2.143   0.958
 6418SOL     OW20152   5.278   4.180   2.498
 6418SOL    HW120153   5.296   4.176   2.596
 6418SOL    HW220154   5.289   4.274   2.465
 6419SOL     OW20155   0.735   5.887   5.397
 6419SOL    HW120156   0.719   5.825   5.474
 6419SOL    HW220157   0.694   5.848   5.314
 6420SOL     OW20158   1.601   2.006   3.963
 6420SOL    HW120159   1.577   2.103   3.965
 6420SOL    HW220160   1.558   1.963   3.884
 6421SOL     OW20161   5.179   0.479   0.870
 6421SOL    HW120162   5.258   0.514   0.820
 6421SOL    HW220163   5.097   0.493   0.814
 6422SOL     OW20164   6.946   1.671   5.773
 6422SOL    HW120165   0.014   1.695   5.782
 6422SOL    HW220166   6.895   1.706   5.852
 6423SOL     OW20167   4.249   5.809   4.950
 6423SOL    HW120168   4.269   5.719   4.912
 6423SOL    HW220169   4.151   5.816   4.970
 6424SOL     OW20170   0.779   3.161   4.667
 6424SOL    HW120171   0.811   3.173   4.761
 6424SOL    HW220172   0.683   3.135   4.668
 6425SOL     OW20173   0.621   5.066   2.756
 6425SOL    HW120174   0.700   5.059   2.816
 6425SOL    HW220175   0.624   5.154   2.708
 6426SOL     OW20176   5.534   5.011   4.212
 6426SOL    HW120177   5.631   4.995   4.197
 6426SOL    HW220178   5.482   4.974   4.135
 6427SOL     OW20179   3.287   4.037   3.399
 6427SOL    HW120180   3.298   4.095   3.479
 6427SOL    HW220181   3.351   4.066   3.328
 6428SOL     OW20182   5.395   2.874   0.111
 6428SOL    HW120183   5.442   2.901   0.027
 6428SOL    HW220184   5.391   2.952   0.174
 6429SOL     OW20185   1.382   0.516   5.125
 6429SOL    HW120186   1.287   0.527   5.094
 6429SOL    HW220187   1.384   0.514   5.225
 6430SOL     OW20188   6.710   0.545   5.218
 6430SOL    HW120189   6.705   0.554   5.317
 6430SOL    HW220190   6.643   0.477   5.188
 6431SOL     OW20191   4.471   5.289   2.826
 6431SOL    HW120192   4.561   5.316   2.790
 6431SOL    HW220193   4.484   5.232   2.907
 6432SOL     OW20194   3.661   3.756   6.233
 6432SOL    HW120195   3.652   3.827   6.302
 6432SOL    HW220196   3.571   3.736   6.193
 6433SOL     OW20197   3.020   5.526   0.283
 6433SOL    HW120198   3.109   5.532   0.326
 6433SOL    HW220199   3.030   5.494   0.189
 6434SOL     OW20200   2.515   6.675   6.332
 6434SOL    HW120201   2.422   6.677   6.370
 6434SOL    HW220202   2.582   6.682   6.406
 6435SOL     OW20203   6.303   0.040   0.463
 6435SOL    HW120204   6.393   0.021   0.423
 6435SOL    HW220205   6.286   0.138   0.463
 6436SOL     OW20206   0.817   3.290   3.512
 6436SOL    HW120207   0.912   3.287   3.543
 6436SOL    HW220208   0.808   3.237   3.428
 6437SOL     OW20209   0.878   1.890   5.540
 6437SOL    HW120210   0.788   1.931   5.524
 6437SOL    HW220211   0.936   1.904   5.460
 6438SOL     OW20212   0.990   5.117   6.044
 6438SOL    HW120213   0.911   5.086   6.098
 6438SOL    HW220214   1.025   5.202   6.083
 6439SOL     OW20215   6.337   1.087   2.952
 6439SOL    HW120216   6.260   1.025   2.935
 6439SOL    HW220217   6.387   1.101   2.866
 6440SOL     OW20218   2.403   0.976   6.735
 6440SOL    HW120219   2.472   0.917   6.693
 6440SOL    HW220220   2.320   0.923   6.751
 6441SOL     OW20221   6.899   1.020   2.782
 6441SOL    HW120222   6.836   1.091   2.814
 6441SOL    HW220223   6.867   0.931   2.812
 6442SOL     OW20224   2.416   1.955   4.741
 6442SOL    HW120225   2.512   1.949   4.767
 6442SOL    HW220226   2.365   2.006   4.810
 6443SOL     OW20227   3.504   2.236   5.907
 6443SOL    HW120228   3.563   2.174   5.959
 6443SOL    HW220229   3.510   2.215   5.810
 6444SOL     OW20230   0.265   2.801   5.052
 6444SOL    HW120231   0.359   2.825   5.076
 6444SOL    HW220232   0.225   2.746   5.126
 6445SOL     OW20233   3.342   3.245   2.873
 6445SOL    HW120234   3.311   3.150   2.866
 6445SOL    HW220235   3.361   3.268   2.968
 6446SOL     OW20236   1.114   1.740   0.138
 6446SOL    HW120237   1.210   1.711   0.140
 6446SOL    HW220238   1.108   1.835   0.167
 6447SOL     OW20239   6.923   4.286   1.826
 6447SOL    HW120240   6.965   4.259   1.740
 6447SOL    HW220241   6.876   4.207   1.866
 6448SOL     OW20242   4.977   5.172   1.341
 6448SOL    HW120243   4.922   5.104   1.292
 6448SOL    HW220244   4.920   5.251   1.363
 6449SOL     OW20245   2.243   5.234   1.585
 6449SOL    HW120246   2.230   5.328   1.616
 6449SOL    HW220247   2.326   5.197   1.626
 6450SOL     OW20248   1.302   4.130   0.295
 6450SOL    HW120249   1.311   4.035   0.324
 6450SOL    HW220250   1.258   4.133   0.205
 6451SOL     OW20251   3.331   1.885   6.159
 6451SOL    HW120252   3.315   1.982   6.176
 6451SOL    HW220253   3.251   1.832   6.190
 6452SOL     OW20254   4.979   4.026   2.507
 6452SOL    HW120255   4.913   4.077   2.562
 6452SOL    HW220256   5.050   3.987   2.566
 6453SOL     OW20257   3.331   6.755   1.027
 6453SOL    HW120258   3.423   6.751   1.068
 6453SOL    HW220259   3.338   6.788   0.933
 6454SOL     OW20260   0.211   1.666   2.125
 6454SOL    HW120261   0.280   1.738   2.121
 6454SOL    HW220262   0.189   1.646   2.221
 6455SOL     OW20263   6.262   3.885   3.677
 6455SOL    HW120264   6.309   3.802   3.646
 6455SOL    HW220265   6.176   3.859   3.721
 6456SOL     OW20266   0.942   0.592   3.214
 6456SOL    HW120267   0.909   0.537   3.137
 6456SOL    HW220268   0.953   0.687   3.186
 6457SOL     OW20269   4.610   6.832   1.894
 6457SOL    HW120270   4.692   6.881   1.864
 6457SOL    HW220271   4.627   6.792   1.984
 6458SOL     OW20272   1.509   4.883   4.524
 6458SOL    HW120273   1.424   4.895   4.574
 6458SOL    HW220274   1.539   4.788   4.531
 6459SOL     OW20275   5.778   2.275   2.847
 6459SOL    HW120276   5.787   2.193   2.903
 6459SOL    HW220277   5.737   2.348   2.901
 6460SOL     OW20278   6.052   5.606   6.065
 6460SOL    HW120279   5.996   5.638   6.141
 6460SOL    HW220280   6.122   5.542   6.099
 6461SOL     OW20281   3.372   4.660   0.364
 6461SOL    HW120282   3.447   4.625   0.308
 6461SOL    HW220283   3.363   4.758   0.350
 6462SOL     OW20284   1.051   3.073   4.159
 6462SOL    HW120285   1.001   3.002   4.109
 6462SOL    HW220286   1.019   3.076   4.254
 6463SOL     OW20287   5.270   0.111   0.552
 6463SOL    HW120288   5.248   0.017   0.527
 6463SOL    HW220289   5.265   0.122   0.651
 6464SOL     OW20290   0.950   5.798   4.889
 6464SOL    HW120291   0.927   5.776   4.984
 6464SOL    HW220292   1.028   5.860   4.888
 6465SOL     OW20293   5.869   2.501   2.043
 6465SOL    HW120294   5.843   2.469   1.953
 6465SOL    HW220295   5.965   2.479   2.060
 6466SOL     OW20296   0.003   2.612   6.534
 6466SOL    HW120297   6.956   2.553   6.563
 6466SOL    HW220298   0.051   2.570   6.457
 6467SOL     OW20299   4.334   1.067   0.629
 6467SOL    HW120300   4.329   0.999   0.702
 6467SOL    HW220301   4.341   1.158   0.669
 6468SOL     OW20302   3.794   6.088   1.195
 6468SOL    HW120303   3.724   6.045   1.252
 6468SOL    HW220304   3.883   6.049   1.217
 6469SOL     OW20305   3.306   2.156   4.064
 6469SOL    HW120306   3.225   2.175   4.007
 6469SOL    HW220307   3.359   2.083   4.022
 6470SOL     OW20308   5.720   2.498   0.661
 6470SOL    HW120309   5.743   2.506   0.758
 6470SOL    HW220310   5.641   2.437   0.651
 6471SOL     OW20311   0.759   6.452   4.784
 6471SOL    HW120312   0.715   6.362   4.792
 6471SOL    HW220313   0.856   6.444   4.804
 6472SOL     OW20314   6.347   5.863   2.324
 6472SOL    HW120315   6.342   5.942   2.384
 6472SOL    HW220316   6.365   5.893   2.230
 6473SOL     OW20317   1.721   1.766   4.904
 6473SOL    HW120318   1.624   1.786   4.916
 6473SOL    HW220319   1.775   1.847   4.928
 6474SOL     OW20320   3.861   5.452   5.681
 6474SOL    HW120321   3.945   5.446   5.628
 6474SOL    HW220322   3.786   5.483   5.622
 6475SOL     OW20323   5.625   5.193   3.982
 6475SOL    HW120324   5.606   5.251   3.903
 6475SOL    HW220325   5.707   5.139   3.965
 6476SOL     OW20326   4.197   2.722   6.530
 6476SOL    HW120327   4.144   2.759   6.607
 6476SOL    HW220328   4.264   2.790   6.500
 6477SOL     OW20329   6.880   5.423   0.750
 6477SOL    HW120330   6.939   5.387   0.823
 6477SOL    HW220331   6.813   5.354   0.725
 6478SOL     OW20332   2.630   6.344   1.944
 6478SOL    HW120333   2.618   6.441   1.928
 6478SOL    HW220334   2.695   6.307   1.878
 6479SOL     OW20335   3.046   5.180   4.204
 6479SOL    HW120336   3.124   5.205   4.261
 6479SOL    HW220337   2.972   5.246   4.218
 6480SOL     OW20338   2.353   1.449   0.164
 6480SOL    HW120339   2.267   1.493   0.190
 6480SOL    HW220340   2.336   1.382   0.092
 6481SOL     OW20341   3.262   2.629   1.681
 6481SOL    HW120342   3.166   2.603   1.695
 6481SOL    HW220343   3.286   2.618   1.584
 6482SOL     OW20344   6.812   2.045   5.829
 6482SOL    HW120345   6.715   2.071   5.826
 6482SOL    HW220346   6.825   1.971   5.894
 6483SOL     OW20347   1.152   6.347   4.018
 6483SOL    HW120348   1.144   6.258   3.974
 6483SOL    HW220349   1.109   6.417   3.961
 6484SOL     OW20350   2.601   1.668   2.387
 6484SOL    HW120351   2.681   1.692   2.443
 6484SOL    HW220352   2.610   1.708   2.296
 6485SOL     OW20353   2.320   5.873   4.407
 6485SOL    HW120354   2.407   5.912   4.436
 6485SOL    HW220355   2.262   5.945   4.370
 6486SOL     OW20356   0.798   4.654   2.942
 6486SOL    HW120357   0.859   4.660   2.863
 6486SOL    HW220358   0.726   4.723   2.933
 6487SOL     OW20359   1.296   6.090   4.302
 6487SOL    HW120360   1.310   6.175   4.250
 6487SOL    HW220361   1.318   6.012   4.244
 6488SOL     OW20362   4.762   5.966   5.324
 6488SOL    HW120363   4.773   5.867   5.320
 6488SOL    HW220364   4.739   6.001   5.233
 6489SOL     OW20365   2.985   3.085   6.241
 6489SOL    HW120366   2.915   3.105   6.309
 6489SOL    HW220367   2.958   3.125   6.153
 6490SOL     OW20368   2.467   1.662   6.401
 6490SOL    HW120369   2.443   1.604   6.478
 6490SOL    HW220370   2.468   1.758   6.430
 6491SOL     OW20371   2.317   0.504   1.387
 6491SOL    HW120372   2.365   0.544   1.465
 6491SOL    HW220373   2.236   0.560   1.367
 6492SOL     OW20374   3.898   4.046   4.217
 6492SOL    HW120375   3.932   3.952   4.214
 6492SOL    HW220376   3.974   4.108   4.238
 6493SOL     OW20377   1.421   4.797   6.318
 6493SOL    HW120378   1.343   4.855   6.297
 6493SOL    HW220379   1.501   4.854   6.338
 6494SOL     OW20380   6.221   6.465   2.333
 6494SOL    HW120381   6.196   6.369   2.347
 6494SOL    HW220382   6.206   6.516   2.417
 6495SOL     OW20383   6.855   7.004   4.580
 6495SOL    HW120384   6.874   6.912   4.614
 6495SOL    HW220385   6.771   0.009   4.623
 6496SOL     OW20386   5.186   6.785   1.475
 6496SOL    HW120387   5.193   6.803   1.377
 6496SOL    HW220388   5.092   6.802   1.504
 6497SOL     OW20389   1.103   1.074   1.176
 6497SOL    HW120390   1.141   1.005   1.237
 6497SOL    HW220391   1.170   1.147   1.163
 6498SOL     OW20392   0.733   3.716   3.979
 6498SOL    HW120393   0.778   3.749   3.896
 6498SOL    HW220394   0.763   3.771   4.057
 6499SOL     OW20395   5.451   3.689   4.577
 6499SOL    HW120396   5.409   3.742   4.503
 6499SOL    HW220397   5.437   3.735   4.664
 6500SOL     OW20398   0.352   4.381   2.067
 6500SOL    HW120399   0.410   4.440   2.123
 6500SOL    HW220400   0.256   4.402   2.084
 6501SOL     OW20401   0.082   1.167   1.002
 6501SOL    HW120402   0.098   1.212   1.090
 6501SOL    HW220403   0.017   1.092   1.013
 6502SOL     OW20404   6.562   3.659   1.455
 6502SOL    HW120405   6.592   3.619   1.542
 6502SOL    HW220406   6.636   3.716   1.419
 6503SOL     OW20407   6.022   0.842   4.524
 6503SOL    HW120408   5.988   0.756   4.486
 6503SOL    HW220409   6.093   0.824   4.591
 6504SOL     OW20410   4.857   6.437   6.643
 6504SOL    HW120411   4.800   6.406   6.719
 6504SOL    HW220412   4.935   6.489   6.679
 6505SOL     OW20413   5.299   6.702   6.766
 6505SOL    HW120414   5.231   6.768   6.733
 6505SOL    HW220415   5.391   6.738   6.747
 6506SOL     OW20416   0.011   3.422   3.415
 6506SOL    HW120417   7.025   3.331   3.378
 6506SOL    HW220418   0.108   3.436   3.432
 6507SOL     OW20419   2.783   5.605   6.329
 6507SOL    HW120420   2.703   5.549   6.308
 6507SOL    HW220421   2.766   5.656   6.414
 6508SOL     OW20422   2.007   0.223   2.679
 6508SOL    HW120423   2.018   0.262   2.770
 6508SOL    HW220424   2.093   0.183   2.649
 6509SOL     OW20425   5.218   1.257   5.406
 6509SOL    HW120426   5.123   1.276   5.430
 6509SOL    HW220427   5.225   1.168   5.361
 6510SOL     OW20428   4.268   5.621   6.993
 6510SOL    HW120429   4.315   5.533   6.979
 6510SOL    HW220430   4.266   5.671   6.907
 6511SOL     OW20431   4.088   0.547   5.665
 6511SOL    HW120432   4.022   0.473   5.673
 6511SOL    HW220433   4.045   0.625   5.619
 6512SOL     OW20434   3.269   6.471   2.864
 6512SOL    HW120435   3.313   6.547   2.912
 6512SOL    HW220436   3.304   6.384   2.898
 6513SOL     OW20437   2.568   6.147   3.917
 6513SOL    HW120438   2.571   6.096   4.003
 6513SOL    HW220439   2.543   6.242   3.935
 6514SOL     OW20440   5.661   0.614   4.618
 6514SOL    HW120441   5.690   0.567   4.535
 6514SOL    HW220442   5.686   0.558   4.698
 6515SOL     OW20443   1.909   3.832   2.543
 6515SOL    HW120444   1.812   3.853   2.557
 6515SOL    HW220445   1.924   3.802   2.449
 6516SOL     OW20446   6.497   3.404   2.154
 6516SOL    HW120447   6.593   3.377   2.150
 6516SOL    HW220448   6.443   3.329   2.193
 6517SOL     OW20449   0.342   1.854   1.021
 6517SOL    HW120450   0.347   1.872   1.120
 6517SOL    HW220451   0.408   1.911   0.974
 6518SOL     OW20452   6.730   0.579   2.412
 6518SOL    HW120453   6.722   0.677   2.392
 6518SOL    HW220454   6.640   0.543   2.437
 6519SOL     OW20455   0.550   0.840   3.296
 6519SOL    HW120456   0.555   0.803   3.389
 6519SOL    HW220457   0.473   0.799   3.248
 6520SOL     OW20458   0.117   5.610   6.582
 6520SOL    HW120459   0.167   5.529   6.553
 6520SOL    HW220460   0.110   5.674   6.506
 6521SOL     OW20461   1.542   2.823   2.999
 6521SOL    HW120462   1.494   2.885   2.938
 6521SOL    HW220463   1.498   2.733   2.996
 6522SOL     OW20464   2.387   4.349   5.200
 6522SOL    HW120465   2.477   4.375   5.233
 6522SOL    HW220466   2.351   4.275   5.257
 6523SOL     OW20467   4.422   6.844   7.021
 6523SOL    HW120468   4.377   6.757   0.009
 6523SOL    HW220469   4.420   6.863   6.923
 6524SOL     OW20470   2.636   2.396   1.750
 6524SOL    HW120471   2.678   2.404   1.840
 6524SOL    HW220472   2.687   2.329   1.696
 6525SOL     OW20473   2.595   5.594   3.553
 6525SOL    HW120474   2.577   5.518   3.490
 6525SOL    HW220475   2.693   5.597   3.573
 6526SOL     OW20476   0.430   0.166   1.269
 6526SOL    HW120477   0.370   0.244   1.254
 6526SOL    HW220478   0.476   0.141   1.184
 6527SOL     OW20479   0.541   2.030   0.452
 6527SOL    HW120480   0.525   1.980   0.367
 6527SOL    HW220481   0.530   2.128   0.435
 6528SOL     OW20482   6.767   1.445   6.287
 6528SOL    HW120483   6.814   1.412   6.205
 6528SOL    HW220484   6.686   1.497   6.261
 6529SOL     OW20485   0.652   0.454   2.503
 6529SOL    HW120486   0.570   0.468   2.448
 6529SOL    HW220487   0.633   0.478   2.598
 6530SOL     OW20488   0.740   1.974   0.941
 6530SOL    HW120489   0.756   2.071   0.960
 6530SOL    HW220490   0.704   1.965   0.848
 6531SOL     OW20491   4.426   3.715   5.601
 6531SOL    HW120492   4.329   3.735   5.615
 6531SOL    HW220493   4.440   3.683   5.507
 6532SOL     OW20494   2.384   1.233   1.025
 6532SOL    HW120495   2.394   1.323   1.067
 6532SOL    HW220496   2.295   1.227   0.979
 6533SOL     OW20497   4.116   6.075   0.417
 6533SOL    HW120498   4.049   6.084   0.490
 6533SOL    HW220499   4.208   6.090   0.454
 6534SOL     OW20500   4.797   5.261   1.709
 6534SOL    HW120501   4.876   5.293   1.655
 6534SOL    HW220502   4.792   5.314   1.793
 6535SOL     OW20503   6.128   4.682   4.566
 6535SOL    HW120504   6.220   4.657   4.596
 6535SOL    HW220505   6.105   4.773   4.599
 6536SOL     OW20506   0.334   2.024   5.241
 6536SOL    HW120507   0.275   2.102   5.220
 6536SOL    HW220508   0.423   2.036   5.198
 6537SOL     OW20509   6.861   4.780   4.594
 6537SOL    HW120510   6.928   4.720   4.552
 6537SOL    HW220511   6.775   4.775   4.543
 6538SOL     OW20512   1.470   3.942   5.714
 6538SOL    HW120513   1.516   3.999   5.782
 6538SOL    HW220514   1.539   3.903   5.652
 6539SOL     OW20515   4.737   0.402   6.925
 6539SOL    HW120516   4.700   0.492   6.947
 6539SOL    HW220517   4.704   0.335   6.992
 6540SOL     OW20518   2.223   2.683   6.131
 6540SOL    HW120519   2.309   2.723   6.163
 6540SOL    HW220520   2.166   2.659   6.209
 6541SOL     OW20521   5.510   2.652   5.993
 6541SOL    HW120522   5.422   2.621   5.957
 6541SOL    HW220523   5.513   2.752   5.994
 6542SOL     OW20524   1.222   3.329   4.580
 6542SOL    HW120525   1.195   3.425   4.573
 6542SOL    HW220526   1.143   3.271   4.566
 6543SOL     OW20527   3.892   2.594   5.786
 6543SOL    HW120528   3.809   2.539   5.796
 6543SOL    HW220529   3.874   2.687   5.818
 6544SOL     OW20530   0.406   6.436   2.384
 6544SOL    HW120531   0.464   6.518   2.384
 6544SOL    HW220532   0.390   6.407   2.289
 6545SOL     OW20533   3.849   0.047   0.589
 6545SOL    HW120534   3.921   7.015   0.623
 6545SOL    HW220535   3.868   0.141   0.617
 6546SOL     OW20536   3.923   4.214   6.462
 6546SOL    HW120537   4.008   4.257   6.492
 6546SOL    HW220538   3.901   4.138   6.523
 6547SOL     OW20539   4.755   0.858   5.836
 6547SOL    HW120540   4.716   0.918   5.906
 6547SOL    HW220541   4.719   0.765   5.848
 6548SOL     OW20542   1.105   3.099   0.027
 6548SOL    HW120543   1.072   3.118   0.120
 6548SOL    HW220544   1.142   3.006   0.023
 6549SOL     OW20545   4.830   0.036   1.830
 6549SOL    HW120546   4.745   0.075   1.795
 6549SOL    HW220547   4.907   0.095   1.804
 6550SOL     OW20548   0.456   0.056   3.589
 6550SOL    HW120549   0.373   0.105   3.616
 6550SOL    HW220550   0.474   7.012   3.654
 6551SOL     OW20551   2.659   3.511   1.736
 6551SOL    HW120552   2.666   3.583   1.666
 6551SOL    HW220553   2.565   3.509   1.771
 6552SOL     OW20554   2.428   0.191   0.653
 6552SOL    HW120555   2.389   0.102   0.677
 6552SOL    HW220556   2.356   0.261   0.656
 6553SOL     OW20557   0.777   1.500   3.168
 6553SOL    HW120558   0.705   1.478   3.102
 6553SOL    HW220559   0.808   1.417   3.213
 6554SOL     OW20560   2.497   0.919   5.328
 6554SOL    HW120561   2.437   0.988   5.289
 6554SOL    HW220562   2.512   0.846   5.261
 6555SOL     OW20563   5.804   1.598   3.886
 6555SOL    HW120564   5.712   1.568   3.911
 6555SOL    HW220565   5.836   1.667   3.951
 6556SOL     OW20566   6.248   3.078   2.726
 6556SOL    HW120567   6.236   3.106   2.821
 6556SOL    HW220568   6.174   3.017   2.699
 6557SOL     OW20569   2.614   1.002   2.550
 6557SOL    HW120570   2.640   1.097   2.533
 6557SOL    HW220571   2.520   0.999   2.585
 6558SOL     OW20572   5.635   5.519   0.209
 6558SOL    HW120573   5.701   5.450   0.178
 6558SOL    HW220574   5.682   5.604   0.229
 6559SOL     OW20575   0.069   3.408   6.074
 6559SOL    HW120576   0.098   3.364   5.989
 6559SOL    HW220577   0.105   3.501   6.077
 6560SOL     OW20578   3.785   4.977   0.831
 6560SOL    HW120579   3.878   4.943   0.812
 6560SOL    HW220580   3.719   4.922   0.780
 6561SOL     OW20581   3.820   4.589   1.293
 6561SOL    HW120582   3.750   4.564   1.226
 6561SOL    HW220583   3.861   4.676   1.267
 6562SOL     OW20584   5.471   2.358   1.180
 6562SOL    HW120585   5.519   2.444   1.163
 6562SOL    HW220586   5.494   2.325   1.271
 6563SOL     OW20587   5.351   0.311   5.580
 6563SOL    HW120588   5.417   0.386   5.570
 6563SOL    HW220589   5.290   0.331   5.657
 6564SOL     OW20590   6.391   2.986   1.964
 6564SOL    HW120591   6.347   3.053   2.024
 6564SOL    HW220592   6.377   3.012   1.868
 6565SOL     OW20593   6.165   6.227   2.900
 6565SOL    HW120594   6.197   6.196   2.989
 6565SOL    HW220595   6.201   6.318   2.881
 6566SOL     OW20596   3.240   5.280   2.039
 6566SOL    HW120597   3.256   5.370   1.998
 6566SOL    HW220598   3.271   5.281   2.134
 6567SOL     OW20599   4.781   0.982   1.739
 6567SOL    HW120600   4.774   0.902   1.798
 6567SOL    HW220601   4.761   1.065   1.792
 6568SOL     OW20602   3.889   2.169   3.301
 6568SOL    HW120603   3.798   2.141   3.332
 6568SOL    HW220604   3.925   2.242   3.360
 6569SOL     OW20605   1.540   3.504   6.568
 6569SOL    HW120606   1.615   3.501   6.634
 6569SOL    HW220607   1.555   3.579   6.504
 6570SOL     OW20608   3.291   0.998   2.718
 6570SOL    HW120609   3.337   0.946   2.790
 6570SOL    HW220610   3.292   1.095   2.741
 6571SOL     OW20611   2.808   4.816   2.450
 6571SOL    HW120612   2.788   4.799   2.353
 6571SOL    HW220613   2.752   4.755   2.507
 6572SOL     OW20614   0.253   3.793   3.872
 6572SOL    HW120615   0.298   3.704   3.869
 6572SOL    HW220616   0.203   3.809   3.787
 6573SOL     OW20617   2.021   1.131   3.257
 6573SOL    HW120618   2.108   1.142   3.306
 6573SOL    HW220619   2.027   1.177   3.168
 6574SOL     OW20620   2.357   6.157   3.183
 6574SOL    HW120621   2.404   6.138   3.096
 6574SOL    HW220622   2.400   6.104   3.255
 6575SOL     OW20623   0.468   6.807   3.275
 6575SOL    HW120624   0.489   6.774   3.367
 6575SOL    HW220625   0.472   6.907   3.273
 6576SOL     OW20626   3.128   5.840   0.768
 6576SOL    HW120627   3.031   5.861   0.778
 6576SOL    HW220628   3.149   5.756   0.819
 6577SOL     OW20629   1.491   1.715   3.541
 6577SOL    HW120630   1.588   1.695   3.530
 6577SOL    HW220631   1.479   1.813   3.556
 6578SOL     OW20632   0.929   6.122   2.123
 6578SOL    HW120633   0.995   6.048   2.134
 6578SOL    HW220634   0.938   6.162   2.032
 6579SOL     OW20635   0.199   2.608   4.374
 6579SOL    HW120636   0.164   2.591   4.282
 6579SOL    HW220637   0.237   2.700   4.380
 6580SOL     OW20638   0.820   1.517   0.524
 6580SOL    HW120639   0.738   1.468   0.555
 6580SOL    HW220640   0.830   1.601   0.577
 6581SOL     OW20641   1.737   0.568   1.048
 6581SOL    HW120642   1.702   0.477   1.069
 6581SOL    HW220643   1.833   0.562   1.021
 6582SOL     OW20644   7.007   0.273   2.693
 6582SOL    HW120645   0.004   0.307   2.784
 6582SOL    HW220646   6.921   0.316   2.665
 6583SOL     OW20647   5.117   6.056   5.193
 6583SOL    HW120648   5.027   6.096   5.207
 6583SOL    HW220649   5.145   6.007   5.276
 6584SOL     OW20650   3.518   2.241   0.667
 6584SOL    HW120651   3.558   2.252   0.758
 6584SOL    HW220652   3.570   2.295   0.601
 6585SOL     OW20653   6.645   6.472   6.730
 6585SOL    HW120654   6.577   6.424   6.674
 6585SOL    HW220655   6.736   6.441   6.705
 6586SOL     OW20656   6.875   1.823   6.001
 6586SOL    HW120657   6.973   1.820   6.022
 6586SOL    HW220658   6.824   1.772   6.071
 6587SOL     OW20659   1.811   4.433   6.456
 6587SOL    HW120660   1.854   4.376   6.386
 6587SOL    HW220661   1.803   4.527   6.423
 6588SOL     OW20662   0.492   3.721   1.435
 6588SOL    HW120663   0.554   3.650   1.403
 6588SOL    HW220664   0.455   3.695   1.525
 6589SOL     OW20665   4.685   1.050   2.378
 6589SOL    HW120666   4.593   1.049   2.417
 6589SOL    HW220667   4.749   1.089   2.444
 6590SOL     OW20668   0.727   6.939   5.254
 6590SOL    HW120669   0.777   6.964   5.337
 6590SOL    HW220670   0.644   6.890   5.279
 6591SOL     OW20671   5.476   6.297   3.473
 6591SOL    HW120672   5.392   6.258   3.511
 6591SOL    HW220673   5.540   6.318   3.547
 6592SOL     OW20674   4.719   0.053   2.525
 6592SOL    HW120675   4.772   0.048   2.440
 6592SOL    HW220676   4.656   7.005   2.530
 6593SOL     OW20677   2.811   2.259   2.330
 6593SOL    HW120678   2.827   2.283   2.234
 6593SOL    HW220679   2.779   2.164   2.335
 6594SOL     OW20680   3.545   1.725   5.642
 6594SOL    HW120681   3.507   1.768   5.724
 6594SOL    HW220682   3.472   1.681   5.590
 6595SOL     OW20683   1.389   3.319   5.684
 6595SOL    HW120684   1.474   3.347   5.640
 6595SOL    HW220685   1.316   3.312   5.616
 6596SOL     OW20686   3.834   6.291   3.571
 6596SOL    HW120687   3.791   6.381   3.580
 6596SOL    HW220688   3.770   6.228   3.526
 6597SOL     OW20689   1.848   5.233   2.313
 6597SOL    HW120690   1.853   5.289   2.231
 6597SOL    HW220691   1.753   5.204   2.327
 6598SOL     OW20692   1.869   4.641   4.324
 6598SOL    HW120693   1.809   4.721   4.332
 6598SOL    HW220694   1.965   4.671   4.327
 6599SOL     OW20695   4.510   6.084   6.576
 6599SOL    HW120696   4.465   6.164   6.616
 6599SOL    HW220697   4.595   6.066   6.625
 6600SOL     OW20698   4.141   6.779   4.648
 6600SOL    HW120699   4.223   6.832   4.628
 6600SOL    HW220700   4.154   6.726   4.732
 6601SOL     OW20701   0.484   1.976   3.542
 6601SOL    HW120702   0.505   1.991   3.445
 6601SOL    HW220703   0.561   1.931   3.586
 6602SOL     OW20704   1.993   0.588   1.585
 6602SOL    HW120705   1.959   0.526   1.515
 6602SOL    HW220706   1.917   0.623   1.639
 6603SOL     OW20707   0.685   2.880   3.915
 6603SOL    HW120708   0.606   2.861   3.857
 6603SOL    HW220709   0.729   2.964   3.884
 6604SOL     OW20710   1.836   0.119   1.500
 6604SOL    HW120711   1.882   0.068   1.572
 6604SOL    HW220712   1.743   0.084   1.489
 6605SOL     OW20713   5.983   5.991   2.427
 6605SOL    HW120714   6.021   5.923   2.490
 6605SOL    HW220715   5.893   6.020   2.461
 6606SOL     OW20716   6.618   4.525   2.654
 6606SOL    HW120717   6.669   4.441   2.670
 6606SOL    HW220718   6.532   4.503   2.608
 6607SOL     OW20719   6.924   5.173   3.482
 6607SOL    HW120720   6.998   5.108   3.465
 6607SOL    HW220721   6.962   5.266   3.489
 6608SOL     OW20722   0.060   6.996   0.441
 6608SOL    HW120723   0.111   6.993   0.526
 6608SOL    HW220724   7.004   0.018   0.455
 6609SOL     OW20725   5.420   1.066   6.500
 6609SOL    HW120726   5.435   1.118   6.585
 6609SOL    HW220727   5.322   1.060   6.482
 6610SOL     OW20728   2.430   6.914   0.082
 6610SOL    HW120729   2.465   6.962   0.163
 6610SOL    HW220730   2.387   6.829   0.110
 6611SOL     OW20731   5.234   3.254   3.309
 6611SOL    HW120732   5.203   3.339   3.266
 6611SOL    HW220733   5.216   3.258   3.407
 6612SOL     OW20734   0.138   2.549   6.288
 6612SOL    HW120735   0.191   2.618   6.338
 6612SOL    HW220736   0.187   2.462   6.292
 6613SOL     OW20737   5.764   6.618   5.331
 6613SOL    HW120738   5.674   6.655   5.306
 6613SOL    HW220739   5.752   6.530   5.376
 6614SOL     OW20740   4.575   6.734   0.439
 6614SOL    HW120741   4.517   6.779   0.372
 6614SOL    HW220742   4.548   6.763   0.531
 6615SOL     OW20743   1.885   5.606   0.861
 6615SOL    HW120744   1.789   5.580   0.867
 6615SOL    HW220745   1.924   5.608   0.953
 6616SOL     OW20746   4.691   0.329   6.092
 6616SOL    HW120747   4.789   0.332   6.073
 6616SOL    HW220748   4.645   0.274   6.022
 6617SOL     OW20749   4.544   6.373   3.620
 6617SOL    HW120750   4.563   6.354   3.716
 6617SOL    HW220751   4.624   6.351   3.565
 6618SOL     OW20752   1.169   1.571   2.395
 6618SOL    HW120753   1.114   1.604   2.471
 6618SOL    HW220754   1.266   1.575   2.419
 6619SOL     OW20755   4.594   7.013   3.682
 6619SOL    HW120756   4.499   0.015   3.682
 6619SOL    HW220757   4.645   0.033   3.612
 6620SOL     OW20758   2.073   3.582   4.577
 6620SOL    HW120759   2.061   3.630   4.663
 6620SOL    HW220760   2.092   3.485   4.594
 6621SOL     OW20761   3.765   2.561   5.445
 6621SOL    HW120762   3.684   2.603   5.484
 6621SOL    HW220763   3.825   2.632   5.407
 6622SOL     OW20764   6.360   5.532   1.929
 6622SOL    HW120765   6.309   5.576   1.855
 6622SOL    HW220766   6.315   5.550   2.017
 6623SOL     OW20767   3.475   3.951   4.655
 6623SOL    HW120768   3.412   3.889   4.609
 6623SOL    HW220769   3.427   4.033   4.684
 6624SOL     OW20770   0.652   3.601   5.317
 6624SOL    HW120771   0.604   3.513   5.319
 6624SOL    HW220772   0.723   3.603   5.387
 6625SOL     OW20773   5.273   1.712   5.200
 6625SOL    HW120774   5.312   1.635   5.251
 6625SOL    HW220775   5.332   1.792   5.211
 6626SOL     OW20776   3.341   6.996   5.769
 6626SOL    HW120777   3.385   7.012   5.857
 6626SOL    HW220778   3.307   6.902   5.766
 6627SOL     OW20779   2.216   6.728   4.332
 6627SOL    HW120780   2.214   6.629   4.344
 6627SOL    HW220781   2.211   6.750   4.235
 6628SOL     OW20782   5.187   4.814   3.760
 6628SOL    HW120783   5.182   4.907   3.798
 6628SOL    HW220784   5.096   4.785   3.730
 6629SOL     OW20785   4.964   5.742   6.277
 6629SOL    HW120786   4.983   5.788   6.364
 6629SOL    HW220787   4.894   5.793   6.227
 6630SOL     OW20788   3.541   1.982   1.481
 6630SOL    HW120789   3.543   1.916   1.556
 6630SOL    HW220790   3.550   2.075   1.518
 6631SOL     OW20791   2.317   5.597   4.384
 6631SOL    HW120792   2.312   5.696   4.373
 6631SOL    HW220793   2.278   5.571   4.472
 6632SOL     OW20794   1.539   1.244   1.030
 6632SOL    HW120795   1.607   1.308   1.065
 6632SOL    HW220796   1.531   1.254   0.930
 6633SOL     OW20797   2.602   4.693   5.910
 6633SOL    HW120798   2.538   4.748   5.856
 6633SOL    HW220799   2.672   4.655   5.850
 6634SOL     OW20800   4.850   1.640   5.352
 6634SOL    HW120801   4.761   1.673   5.381
 6634SOL    HW220802   4.851   1.630   5.253
 6635SOL     OW20803   4.855   4.171   3.418
 6635SOL    HW120804   4.827   4.109   3.346
 6635SOL    HW220805   4.898   4.252   3.377
 6636SOL     OW20806   4.026   1.537   0.637
 6636SOL    HW120807   3.949   1.546   0.573
 6636SOL    HW220808   3.994   1.490   0.719
 6637SOL     OW20809   2.480   6.979   6.204
 6637SOL    HW120810   2.477   6.980   6.304
 6637SOL    HW220811   2.501   6.887   6.172
 6638SOL     OW20812   3.254   3.597   3.063
 6638SOL    HW120813   3.308   3.664   3.012
 6638SOL    HW220814   3.157   3.617   3.051
 6639SOL     OW20815   3.307   3.824   6.671
 6639SOL    HW120816   3.305   3.917   6.707
 6639SOL    HW220817   3.398   3.785   6.682
 6640SOL     OW20818   0.026   2.108   4.774
 6640SOL    HW120819   0.015   2.151   4.685
 6640SOL    HW220820   0.050   2.011   4.762
 6641SOL     OW20821   3.487   1.632   6.960
 6641SOL    HW120822   3.520   1.639   0.026
 6641SOL    HW220823   3.441   1.717   6.935
 6642SOL     OW20824   2.375   5.569   6.136
 6642SOL    HW120825   2.432   5.575   6.218
 6642SOL    HW220826   2.408   5.495   6.078
 6643SOL     OW20827   6.832   6.895   0.279
 6643SOL    HW120828   6.788   6.945   0.353
 6643SOL    HW220829   6.763   6.867   0.212
 6644SOL     OW20830   2.191   6.081   2.747
 6644SOL    HW120831   2.135   6.125   2.818
 6644SOL    HW220832   2.226   6.150   2.685
 6645SOL     OW20833   5.443   3.429   0.831
 6645SOL    HW120834   5.359   3.378   0.811
 6645SOL    HW220835   5.517   3.364   0.849
 6646SOL     OW20836   4.215   1.255   5.402
 6646SOL    HW120837   4.156   1.278   5.479
 6646SOL    HW220838   4.277   1.181   5.428
 6647SOL     OW20839   4.525   6.679   0.718
 6647SOL    HW120840   4.546   6.708   0.811
 6647SOL    HW220841   4.489   6.586   0.720
 6648SOL     OW20842   3.249   6.412   4.780
 6648SOL    HW120843   3.203   6.335   4.824
 6648SOL    HW220844   3.225   6.497   4.827
 6649SOL     OW20845   5.713   3.077   6.359
 6649SOL    HW120846   5.693   3.087   6.456
 6649SOL    HW220847   5.681   2.988   6.326
 6650SOL     OW20848   3.844   1.291   4.707
 6650SOL    HW120849   3.837   1.262   4.803
 6650SOL    HW220850   3.934   1.332   4.691
 6651SOL     OW20851   1.768   1.874   6.388
 6651SOL    HW120852   1.758   1.827   6.300
 6651SOL    HW220853   1.712   1.828   6.457
 6652SOL     OW20854   0.569   4.910   7.011
 6652SOL    HW120855   0.634   4.940   0.051
 6652SOL    HW220856   0.483   4.960   7.022
 6653SOL     OW20857   4.449   3.016   0.460
 6653SOL    HW120858   4.470   3.077   0.536
 6653SOL    HW220859   4.365   2.965   0.480
 6654SOL     OW20860   0.755   5.654   2.595
 6654SOL    HW120861   0.845   5.692   2.616
 6654SOL    HW220862   0.684   5.715   2.627
 6655SOL     OW20863   0.238   6.133   2.258
 6655SOL    HW120864   0.139   6.128   2.247
 6655SOL    HW220865   0.268   6.228   2.244
 6656SOL     OW20866   5.319   1.883   2.933
 6656SOL    HW120867   5.333   1.912   3.027
 6656SOL    HW220868   5.322   1.784   2.928
 6657SOL     OW20869   5.928   3.127   4.979
 6657SOL    HW120870   5.923   3.037   5.022
 6657SOL    HW220871   5.869   3.191   5.027
 6658SOL     OW20872   6.045   6.815   5.888
 6658SOL    HW120873   6.026   6.824   5.986
 6658SOL    HW220874   6.009   6.728   5.854
 6659SOL     OW20875   1.127   3.386   1.242
 6659SOL    HW120876   1.100   3.291   1.253
 6659SOL    HW220877   1.146   3.405   1.146
 6660SOL     OW20878   2.009   4.899   1.674
 6660SOL    HW120879   2.080   4.836   1.705
 6660SOL    HW220880   2.019   4.916   1.576
 6661SOL     OW20881   2.427   0.754   5.552
 6661SOL    HW120882   2.470   0.812   5.484
 6661SOL    HW220883   2.374   0.682   5.507
 6662SOL     OW20884   1.714   0.612   0.758
 6662SOL    HW120885   1.794   0.569   0.715
 6662SOL    HW220886   1.713   0.590   0.855
 6663SOL     OW20887   0.258   6.108   5.040
 6663SOL    HW120888   0.257   6.181   5.108
 6663SOL    HW220889   0.346   6.107   4.993
 6664SOL     OW20890   2.328   0.064   0.952
 6664SOL    HW120891   2.382   7.018   0.990
 6664SOL    HW220892   2.307   0.045   0.856
 6665SOL     OW20893   1.826   6.833   5.462
 6665SOL    HW120894   1.841   6.797   5.555
 6665SOL    HW220895   1.887   6.910   5.446
 6666SOL     OW20896   6.336   5.379   5.922
 6666SOL    HW120897   6.434   5.375   5.942
 6666SOL    HW220898   6.296   5.458   5.970
 6667SOL     OW20899   0.035   6.854   5.429
 6667SOL    HW120900   7.022   6.863   5.339
 6667SOL    HW220901   7.002   6.806   5.491
 6668SOL     OW20902   6.608   6.121   1.009
 6668SOL    HW120903   6.525   6.106   1.062
 6668SOL    HW220904   6.685   6.135   1.072
 6669SOL     OW20905   3.279   2.248   1.487
 6669SOL    HW120906   3.277   2.149   1.502
 6669SOL    HW220907   3.297   2.294   1.574
 6670SOL     OW20908   3.446   0.857   5.884
 6670SOL    HW120909   3.382   0.873   5.959
 6670SOL    HW220910   3.485   0.765   5.892
 6671SOL     OW20911   5.608   6.727   6.983
 6671SOL    HW120912   5.558   6.773   0.027
 6671SOL    HW220913   5.706   6.740   6.997
 6672SOL     OW20914   0.501   2.884   0.001
 6672SOL    HW120915   0.410   2.891   6.989
 6672SOL    HW220916   0.569   2.876   6.958
 6673SOL     OW20917   4.840   3.961   3.882
 6673SOL    HW120918   4.819   3.981   3.786
 6673SOL    HW220919   4.788   3.881   3.912
 6674SOL     OW20920   0.729   3.798   0.102
 6674SOL    HW120921   0.634   3.779   0.128
 6674SOL    HW220922   0.767   3.866   0.163
 6675SOL     OW20923   6.301   2.823   0.122
 6675SOL    HW120924   6.355   2.903   0.096
 6675SOL    HW220925   6.320   2.798   0.217
 6676SOL     OW20926   0.429   3.340   3.596
 6676SOL    HW120927   0.443   3.351   3.498
 6676SOL    HW220928   0.368   3.262   3.612
 6677SOL     OW20929   0.809   0.728   6.857
 6677SOL    HW120930   0.894   0.706   6.809
 6677SOL    HW220931   0.780   0.821   6.833
 6678SOL     OW20932   2.823   4.827   0.648
 6678SOL    HW120933   2.868   4.791   0.729
 6678SOL    HW220934   2.892   4.869   0.588
 6679SOL     OW20935   3.901   1.003   4.157
 6679SOL    HW120936   3.987   1.023   4.202
 6679SOL    HW220937   3.869   0.912   4.185
 6680SOL     OW20938   4.431   6.301   6.678
 6680SOL    HW120939   4.370   6.357   6.734
 6680SOL    HW220940   4.526   6.330   6.692
 6681SOL     OW20941   4.872   5.365   1.008
 6681SOL    HW120942   4.833   5.277   0.979
 6681SOL    HW220943   4.969   5.352   1.030
 6682SOL     OW20944   2.344   5.041   6.911
 6682SOL    HW120945   2.317   5.130   6.875
 6682SOL    HW220946   2.388   4.988   6.838
 6683SOL     OW20947   6.414   3.356   5.449
 6683SOL    HW120948   6.340   3.366   5.383
 6683SOL    HW220949   6.498   3.395   5.411
 6684SOL     OW20950   4.074   6.483   2.287
 6684SOL    HW120951   4.052   6.577   2.263
 6684SOL    HW220952   3.998   6.443   2.339
 6685SOL     OW20953   5.183   2.881   5.946
 6685SOL    HW120954   5.137   2.807   5.897
 6685SOL    HW220955   5.120   2.957   5.958
 6686SOL     OW20956   5.426   5.676   3.671
 6686SOL    HW120957   5.476   5.730   3.738
 6686SOL    HW220958   5.485   5.656   3.593
 6687SOL     OW20959   0.609   2.416   2.233
 6687SOL    HW120960   0.594   2.439   2.329
 6687SOL    HW220961   0.701   2.444   2.205
 6688SOL     OW20962   4.025   4.567   0.726
 6688SOL    HW120963   3.935   4.523   0.729
 6688SOL    HW220964   4.091   4.512   0.777
 6689SOL     OW20965   4.197   3.557   5.900
 6689SOL    HW120966   4.167   3.562   5.995
 6689SOL    HW220967   4.145   3.486   5.853
 6690SOL     OW20968   0.851   6.621   0.911
 6690SOL    HW120969   0.902   6.559   0.850
 6690SOL    HW220970   0.782   6.569   0.961
 6691SOL     OW20971   1.807   0.524   2.307
 6691SOL    HW120972   1.747   0.446   2.328
 6691SOL    HW220973   1.901   0.502   2.332
 6692SOL     OW20974   4.041   3.764   2.825
 6692SOL    HW120975   4.130   3.726   2.799
 6692SOL    HW220976   4.050   3.820   2.907
 6693SOL     OW20977   4.437   2.507   4.817
 6693SOL    HW120978   4.482   2.418   4.825
 6693SOL    HW220979   4.373   2.519   4.893
 6694SOL     OW20980   4.404   6.643   1.398
 6694SOL    HW120981   4.384   6.657   1.495
 6694SOL    HW220982   4.320   6.618   1.350
 6695SOL     OW20983   2.974   2.309   6.815
 6695SOL    HW120984   3.030   2.264   6.884
 6695SOL    HW220985   2.929   2.389   6.855
 6696SOL     OW20986   3.736   2.903   3.761
 6696SOL    HW120987   3.639   2.881   3.769
 6696SOL    HW220988   3.783   2.880   3.846
 6697SOL     OW20989   4.625   2.246   3.164
 6697SOL    HW120990   4.584   2.188   3.093
 6697SOL    HW220991   4.713   2.208   3.191
 6698SOL     OW20992   3.215   3.134   1.081
 6698SOL    HW120993   3.184   3.218   1.124
 6698SOL    HW220994   3.135   3.078   1.056
 6699SOL     OW20995   2.304   6.824   5.577
 6699SOL    HW120996   2.379   6.766   5.611
 6699SOL    HW220997   2.240   6.767   5.526
 6700SOL     OW20998   6.868   1.402   1.238
 6700SOL    HW120999   6.796   1.351   1.285
 6700SOL    HW221000   6.953   1.350   1.239
 6701SOL     OW21001   5.493   5.929   1.853
 6701SOL    HW121002   5.526   5.960   1.942
 6701SOL    HW221003   5.482   6.008   1.793
 6702SOL     OW21004   1.938   2.345   2.228
 6702SOL    HW121005   1.954   2.248   2.245
 6702SOL    HW221006   2.025   2.393   2.219
 6703SOL     OW21007   0.488   0.268   0.664
 6703SOL    HW121008   0.431   0.186   0.658
 6703SOL    HW221009   0.430   0.349   0.669
 6704SOL     OW21010   3.957   2.185   4.352
 6704SOL    HW121011   3.862   2.168   4.326
 6704SOL    HW221012   3.994   2.260   4.297
 6705SOL     OW21013   6.219   2.721   0.688
 6705SOL    HW121014   6.231   2.820   0.690
 6705SOL    HW221015   6.122   2.699   0.690
 6706SOL     OW21016   1.160   5.489   0.658
 6706SOL    HW121017   1.124   5.450   0.573
 6706SOL    HW221018   1.140   5.427   0.734
 6707SOL     OW21019   5.222   6.543   3.248
 6707SOL    HW121020   5.132   6.524   3.288
 6707SOL    HW221021   5.247   6.638   3.267
 6708SOL     OW21022   5.659   5.330   1.228
 6708SOL    HW121023   5.697   5.370   1.312
 6708SOL    HW221024   5.604   5.398   1.180
 6709SOL     OW21025   0.685   5.312   3.012
 6709SOL    HW121026   0.753   5.252   2.970
 6709SOL    HW221027   0.651   5.376   2.943
 6710SOL     OW21028   3.977   0.787   0.020
 6710SOL    HW121029   4.004   0.839   6.968
 6710SOL    HW221030   3.968   0.848   0.098
 6711SOL     OW21031   4.481   6.320   5.971
 6711SOL    HW121032   4.556   6.367   6.018
 6711SOL    HW221033   4.451   6.375   5.894
 6712SOL     OW21034   5.911   3.374   0.930
 6712SOL    HW121035   5.887   3.438   1.004
 6712SOL    HW221036   5.836   3.372   0.864
 6713SOL     OW21037   1.478   0.537   3.217
 6713SOL    HW121038   1.381   0.547   3.236
 6713SOL    HW221039   1.531   0.575   3.293
 6714SOL     OW21040   5.917   1.828   0.313
 6714SOL    HW121041   5.941   1.896   0.383
 6714SOL    HW221042   5.831   1.855   0.269
 6715SOL     OW21043   1.560   0.636   1.572
 6715SOL    HW121044   1.594   0.730   1.566
 6715SOL    HW221045   1.555   0.596   1.480
 6716SOL     OW21046   0.714   5.751   2.250
 6716SOL    HW121047   0.693   5.805   2.331
 6716SOL    HW221048   0.630   5.729   2.201
 6717SOL     OW21049   2.545   2.474   6.540
 6717SOL    HW121050   2.511   2.510   6.627
 6717SOL    HW221051   2.477   2.490   6.468
 6718SOL     OW21052   4.855   0.122   0.712
 6718SOL    HW121053   4.810   0.042   0.751
 6718SOL    HW221054   4.921   0.093   0.642
 6719SOL     OW21055   2.385   0.093   0.289
 6719SOL    HW121056   2.403   0.122   0.383
 6719SOL    HW221057   2.434   0.152   0.225
 6720SOL     OW21058   2.690   0.825   3.242
 6720SOL    HW121059   2.741   0.794   3.162
 6720SOL    HW221060   2.750   0.880   3.301
 6721SOL     OW21061   0.126   6.772   0.697
 6721SOL    HW121062   0.177   6.741   0.777
 6721SOL    HW221063   0.165   6.730   0.615
 6722SOL     OW21064   6.984   3.050   0.120
 6722SOL    HW121065   6.918   2.985   0.160
 6722SOL    HW221066   6.946   3.087   0.035
 6723SOL     OW21067   1.443   6.726   5.322
 6723SOL    HW121068   1.522   6.744   5.263
 6723SOL    HW221069   1.451   6.780   5.406
 6724SOL     OW21070   2.184   2.899   6.362
 6724SOL    HW121071   2.097   2.857   6.333
 6724SOL    HW221072   2.191   2.990   6.322
 6725SOL     OW21073   6.828   2.295   2.229
 6725SOL    HW121074   6.801   2.388   2.205
 6725SOL    HW221075   6.908   2.297   2.289
 6726SOL     OW21076   0.426   2.381   3.843
 6726SOL    HW121077   0.360   2.314   3.810
 6726SOL    HW221078   0.428   2.459   3.781
 6727SOL     OW21079   0.368   4.709   5.462
 6727SOL    HW121080   0.432   4.663   5.401
 6727SOL    HW221081   0.319   4.779   5.412
 6728SOL     OW21082   3.954   2.186   2.825
 6728SOL    HW121083   3.983   2.107   2.771
 6728SOL    HW221084   3.854   2.192   2.824
 6729SOL     OW21085   0.179   1.152   0.325
 6729SOL    HW121086   0.095   1.140   0.378
 6729SOL    HW221087   0.250   1.091   0.362
 6730SOL     OW21088   2.207   0.093   1.400
 6730SOL    HW121089   2.194   0.119   1.495
 6730SOL    HW221090   2.299   0.055   1.388
 6731SOL     OW21091   1.619   6.754   0.766
 6731SOL    HW121092   1.681   6.727   0.692
 6731SOL    HW221093   1.603   6.853   0.761
 6732SOL     OW21094   5.764   4.875   4.736
 6732SOL    HW121095   5.722   4.787   4.758
 6732SOL    HW221096   5.777   4.882   4.637
 6733SOL     OW21097   3.869   5.744   6.345
 6733SOL    HW121098   3.964   5.752   6.314
 6733SOL    HW221099   3.866   5.692   6.430
 6734SOL     OW21100   5.922   2.574   5.699
 6734SOL    HW121101   5.900   2.487   5.656
 6734SOL    HW221102   5.838   2.617   5.732
 6735SOL     OW21103   5.734   3.421   4.839
 6735SOL    HW121104   5.656   3.405   4.899
 6735SOL    HW221105   5.702   3.451   4.749
 6736SOL     OW21106   2.356   3.575   6.032
 6736SOL    HW121107   2.441   3.528   6.011
 6736SOL    HW221108   2.294   3.513   6.080
 6737SOL     OW21109   1.329   2.932   0.828
 6737SOL    HW121110   1.248   2.909   0.882
 6737SOL    HW221111   1.360   3.024   0.851
 6738SOL     OW21112   2.119   5.370   4.195
 6738SOL    HW121113   2.019   5.369   4.196
 6738SOL    HW221114   2.153   5.447   4.249
 6739SOL     OW21115   5.797   5.987   3.872
 6739SOL    HW121116   5.708   5.993   3.827
 6739SOL    HW221117   5.869   5.984   3.804
 6740SOL     OW21118   6.707   0.594   5.473
 6740SOL    HW121119   6.758   0.609   5.558
 6740SOL    HW221120   6.622   0.546   5.493
 6741SOL     OW21121   3.577   2.349   5.349
 6741SOL    HW121122   3.651   2.416   5.363
 6741SOL    HW221123   3.598   2.293   5.269
 6742SOL     OW21124   5.871   5.408   3.283
 6742SOL    HW121125   5.893   5.338   3.215
 6742SOL    HW221126   5.955   5.454   3.312
 6743SOL     OW21127   3.582   4.196   6.234
 6743SOL    HW121128   3.586   4.241   6.144
 6743SOL    HW221129   3.523   4.115   6.228
 6744SOL     OW21130   0.372   6.184   5.335
 6744SOL    HW121131   0.323   6.105   5.372
 6744SOL    HW221132   0.408   6.239   5.410
 6745SOL     OW21133   6.761   6.344   3.466
 6745SOL    HW121134   6.741   6.298   3.380
 6745SOL    HW221135   6.757   6.277   3.541
 6746SOL     OW21136   1.374   0.192   3.726
 6746SOL    HW121137   1.280   0.224   3.739
 6746SOL    HW221138   1.375   0.092   3.726
 6747SOL     OW21139   5.931   0.762   6.883
 6747SOL    HW121140   5.885   0.766   6.972
 6747SOL    HW221141   5.863   0.755   6.810
 6748SOL     OW21142   3.635   1.466   2.898
 6748SOL    HW121143   3.569   1.513   2.957
 6748SOL    HW221144   3.723   1.460   2.946
 6749SOL     OW21145   3.660   4.502   1.074
 6749SOL    HW121146   3.697   4.472   0.986
 6749SOL    HW221147   3.599   4.580   1.060
 6750SOL     OW21148   3.426   1.658   4.339
 6750SOL    HW121149   3.329   1.646   4.360
 6750SOL    HW221150   3.440   1.748   4.298
 6751SOL     OW21151   5.020   0.928   3.549
 6751SOL    HW121152   5.119   0.945   3.556
 6751SOL    HW221153   5.002   0.831   3.567
 6752SOL     OW21154   2.389   0.374   2.601
 6752SOL    HW121155   2.384   0.382   2.701
 6752SOL    HW221156   2.469   0.425   2.568
 6753SOL     OW21157   3.540   1.391   6.069
 6753SOL    HW121158   3.637   1.411   6.056
 6753SOL    HW221159   3.506   1.443   6.147
 6754SOL     OW21160   6.691   0.860   0.916
 6754SOL    HW121161   6.666   0.804   0.995
 6754SOL    HW221162   6.609   0.896   0.873
 6755SOL     OW21163   3.971   3.248   1.242
 6755SOL    HW121164   3.896   3.181   1.243
 6755SOL    HW221165   4.052   3.208   1.286
 6756SOL     OW21166   3.912   6.599   5.812
 6756SOL    HW121167   3.897   6.569   5.718
 6756SOL    HW221168   4.002   6.640   5.820
 6757SOL     OW21169   3.302   2.135   0.193
 6757SOL    HW121170   3.396   2.104   0.204
 6757SOL    HW221171   3.250   2.114   0.276
 6758SOL     OW21172   6.091   2.861   2.044
 6758SOL    HW121173   6.137   2.773   2.063
 6758SOL    HW221174   6.083   2.874   1.945
 6759SOL     OW21175   0.554   3.419   2.835
 6759SOL    HW121176   0.481   3.417   2.767
 6759SOL    HW221177   0.634   3.371   2.799
 6760SOL     OW21178   6.666   3.309   2.592
 6760SOL    HW121179   6.690   3.279   2.685
 6760SOL    HW221180   6.572   3.283   2.572
 6761SOL     OW21181   6.325   2.638   5.011
 6761SOL    HW121182   6.261   2.692   4.957
 6761SOL    HW221183   6.281   2.553   5.039
 6762SOL     OW21184   0.632   4.067   4.073
 6762SOL    HW121185   0.564   4.089   4.003
 6762SOL    HW221186   0.719   4.047   4.029
 6763SOL     OW21187   6.423   5.236   4.146
 6763SOL    HW121188   6.404   5.254   4.242
 6763SOL    HW221189   6.422   5.137   4.129
 6764SOL     OW21190   2.191   5.939   1.502
 6764SOL    HW121191   2.115   5.877   1.521
 6764SOL    HW221192   2.267   5.887   1.462
 6765SOL     OW21193   5.770   4.825   3.354
 6765SOL    HW121194   5.832   4.774   3.295
 6765SOL    HW221195   5.683   4.776   3.361
 6766SOL     OW21196   5.360   6.316   5.525
 6766SOL    HW121197   5.270   6.339   5.564
 6766SOL    HW221198   5.348   6.278   5.434
 6767SOL     OW21199   2.850   0.865   1.611
 6767SOL    HW121200   2.831   0.767   1.612
 6767SOL    HW221201   2.764   0.916   1.606
 6768SOL     OW21202   1.943   0.679   5.249
 6768SOL    HW121203   2.028   0.730   5.261
 6768SOL    HW221204   1.872   0.719   5.308
 6769SOL     OW21205   3.445   1.140   7.026
 6769SOL    HW121206   3.499   1.214   0.037
 6769SOL    HW221207   3.503   1.083   6.969
 6770SOL     OW21208   6.767   0.838   2.338
 6770SOL    HW121209   6.840   0.807   2.278
 6770SOL    HW221210   6.781   0.935   2.361
 6771SOL     OW21211   4.858   2.109   3.267
 6771SOL    HW121212   4.930   2.160   3.315
 6771SOL    HW221213   4.870   2.011   3.284
 6772SOL     OW21214   3.893   1.748   3.096
 6772SOL    HW121215   3.850   1.680   3.155
 6772SOL    HW221216   3.982   1.773   3.133
 6773SOL     OW21217   7.010   4.889   2.517
 6773SOL    HW121218   6.967   4.937   2.593
 6773SOL    HW221219   6.949   4.893   2.437
 6774SOL     OW21220   0.898   2.719   5.631
 6774SOL    HW121221   0.995   2.746   5.633
 6774SOL    HW221222   0.869   2.693   5.722
 6775SOL     OW21223   2.135   2.367   1.799
 6775SOL    HW121224   2.143   2.431   1.723
 6775SOL    HW221225   2.204   2.388   1.868
 6776SOL     OW21226   4.620   5.093   0.050
 6776SOL    HW121227   4.596   5.005   0.008
 6776SOL    HW221228   4.719   5.099   0.060
 6777SOL     OW21229   4.496   4.476   0.375
 6777SOL    HW121230   4.493   4.440   0.468
 6777SOL    HW221231   4.407   4.461   0.331
 6778SOL     OW21232   5.953   5.093   1.647
 6778SOL    HW121233   5.946   5.086   1.547
 6778SOL    HW221234   5.969   5.002   1.686
 6779SOL     OW21235   6.169   5.660   6.742
 6779SOL    HW121236   6.078   5.682   6.777
 6779SOL    HW221237   6.219   5.607   6.811
 6780SOL     OW21238   1.258   3.011   2.321
 6780SOL    HW121239   1.166   2.995   2.287
 6780SOL    HW221240   1.299   3.088   2.272
 6781SOL     OW21241   6.730   1.516   4.321
 6781SOL    HW121242   6.699   1.534   4.227
 6781SOL    HW221243   6.818   1.469   4.319
 6782SOL     OW21244   0.026   0.748   3.734
 6782SOL    HW121245   0.118   0.767   3.698
 6782SOL    HW221246   7.020   0.830   3.780
 6783SOL     OW21247   6.510   2.100   5.765
 6783SOL    HW121248   6.512   2.111   5.666
 6783SOL    HW221249   6.424   2.138   5.801
 6784SOL     OW21250   2.365   3.486   1.045
 6784SOL    HW121251   2.371   3.566   0.985
 6784SOL    HW221252   2.445   3.427   1.030
 6785SOL     OW21253   5.710   5.201   3.674
 6785SOL    HW121254   5.725   5.173   3.579
 6785SOL    HW221255   5.632   5.263   3.678
 6786SOL     OW21256   1.818   2.033   7.008
 6786SOL    HW121257   1.772   2.120   7.023
 6786SOL    HW221258   1.915   2.042   0.001
 6787SOL     OW21259   1.559   2.743   1.245
 6787SOL    HW121260   1.603   2.743   1.335
 6787SOL    HW221261   1.580   2.828   1.198
 6788SOL     OW21262   2.156   4.616   1.246
 6788SOL    HW121263   2.083   4.556   1.279
 6788SOL    HW221264   2.188   4.674   1.321
 6789SOL     OW21265   6.994   5.433   3.556
 6789SOL    HW121266   6.989   5.533   3.547
 6789SOL    HW221267   6.941   5.404   3.636
 6790SOL     OW21268   0.772   3.904   1.487
 6790SOL    HW121269   0.674   3.885   1.500
 6790SOL    HW221270   0.802   3.862   1.401
 6791SOL     OW21271   4.011   2.487   1.327
 6791SOL    HW121272   4.005   2.388   1.341
 6791SOL    HW221273   4.102   2.519   1.354
 6792SOL     OW21274   6.517   5.899   5.212
 6792SOL    HW121275   6.446   5.836   5.182
 6792SOL    HW221276   6.575   5.924   5.134
 6793SOL     OW21277   1.129   2.142   0.927
 6793SOL    HW121278   1.131   2.201   1.008
 6793SOL    HW221279   1.142   2.198   0.845
 6794SOL     OW21280   5.073   1.881   6.165
 6794SOL    HW121281   5.160   1.832   6.156
 6794SOL    HW221282   5.008   1.824   6.216
 6795SOL     OW21283   2.527   6.938   1.795
 6795SOL    HW121284   2.455   6.952   1.727
 6795SOL    HW221285   2.606   6.994   1.772
 6796SOL     OW21286   6.528   0.411   2.152
 6796SOL    HW121287   6.489   0.399   2.060
 6796SOL    HW221288   6.600   0.480   2.149
 6797SOL     OW21289   5.688   2.388   1.763
 6797SOL    HW121290   5.602   2.392   1.812
 6797SOL    HW221291   5.694   2.300   1.715
 6798SOL     OW21292   4.745   6.723   2.102
 6798SOL    HW121293   4.784   6.647   2.153
 6798SOL    HW221294   4.811   6.798   2.097
 6799SOL     OW21295   6.080   6.149   1.433
 6799SOL    HW121296   6.019   6.120   1.507
 6799SOL    HW221297   6.033   6.214   1.374
 6800SOL     OW21298   2.000   3.751   1.633
 6800SOL    HW121299   2.073   3.723   1.695
 6800SOL    HW221300   2.032   3.742   1.538
 6801SOL     OW21301   0.824   0.089   2.866
 6801SOL    HW121302   0.894   0.155   2.839
 6801SOL    HW221303   0.842   0.057   2.959
 6802SOL     OW21304   3.261   5.984   0.942
 6802SOL    HW121305   3.203   5.935   0.877
 6802SOL    HW221306   3.325   5.919   0.985
 6803SOL     OW21307   4.764   2.662   5.882
 6803SOL    HW121308   4.717   2.583   5.841
 6803SOL    HW221309   4.701   2.712   5.940
 6804SOL     OW21310   3.350   5.226   3.743
 6804SOL    HW121311   3.340   5.205   3.841
 6804SOL    HW221312   3.432   5.282   3.730
 6805SOL     OW21313   7.003   4.898   6.145
 6805SOL    HW121314   6.904   4.886   6.152
 6805SOL    HW221315   0.015   4.815   6.109
 6806SOL     OW21316   5.893   0.314   3.763
 6806SOL    HW121317   5.949   0.298   3.682
 6806SOL    HW221318   5.906   0.239   3.828
 6807SOL     OW21319   3.247   2.856   0.371
 6807SOL    HW121320   3.162   2.861   0.423
 6807SOL    HW221321   3.284   2.764   0.376
 6808SOL     OW21322   6.908   2.108   5.164
 6808SOL    HW121323   6.844   2.133   5.237
 6808SOL    HW221324   6.868   2.130   5.075
 6809SOL     OW21325   1.007   2.754   1.581
 6809SOL    HW121326   0.936   2.821   1.605
 6809SOL    HW221327   0.981   2.707   1.496
 6810SOL     OW21328   1.851   0.959   2.366
 6810SOL    HW121329   1.875   1.029   2.299
 6810SOL    HW221330   1.825   0.875   2.318
 6811SOL     OW21331   5.881   3.837   1.091
 6811SOL    HW121332   5.960   3.785   1.124
 6811SOL    HW221333   5.807   3.774   1.068
 6812SOL     OW21334   3.249   3.277   3.477
 6812SOL    HW121335   3.340   3.315   3.460
 6812SOL    HW221336   3.250   3.179   3.459
 6813SOL     OW21337   4.987   2.520   2.532
 6813SOL    HW121338   4.955   2.443   2.477
 6813SOL    HW221339   5.032   2.487   2.615
 6814SOL     OW21340   3.063   1.421   6.191
 6814SOL    HW121341   3.122   1.462   6.260
 6814SOL    HW221342   3.109   1.423   6.102
 6815SOL     OW21343   3.516   6.732   1.262
 6815SOL    HW121344   3.559   6.757   1.349
 6815SOL    HW221345   3.429   6.685   1.280
 6816SOL     OW21346   0.058   0.032   6.865
 6816SOL    HW121347   0.023   6.975   6.826
 6816SOL    HW221348   0.034   0.037   6.962
 6817SOL     OW21349   1.901   2.256   3.097
 6817SOL    HW121350   1.960   2.323   3.142
 6817SOL    HW221351   1.837   2.303   3.037
 6818SOL     OW21352   3.289   5.868   2.187
 6818SOL    HW121353   3.219   5.924   2.229
 6818SOL    HW221354   3.353   5.836   2.257
 6819SOL     OW21355   5.575   0.863   4.056
 6819SOL    HW121356   5.488   0.874   4.007
 6819SOL    HW221357   5.634   0.941   4.038
 6820SOL     OW21358   2.381   5.482   2.692
 6820SOL    HW121359   2.406   5.564   2.640
 6820SOL    HW221360   2.411   5.493   2.787
 6821SOL     OW21361   4.179   2.281   4.630
 6821SOL    HW121362   4.176   2.323   4.721
 6821SOL    HW221363   4.230   2.195   4.635
 6822SOL     OW21364   5.761   2.539   6.833
 6822SOL    HW121365   5.670   2.549   6.872
 6822SOL    HW221366   5.789   2.624   6.789
 6823SOL     OW21367   4.099   3.222   5.146
 6823SOL    HW121368   4.099   3.292   5.218
 6823SOL    HW221369   4.182   3.231   5.092
 6824SOL     OW21370   0.871   2.302   6.451
 6824SOL    HW121371   0.860   2.398   6.475
 6824SOL    HW221372   0.852   2.289   6.353
 6825SOL     OW21373   5.198   6.560   1.872
 6825SOL    HW121374   5.221   6.487   1.808
 6825SOL    HW221375   5.221   6.532   1.965
 6826SOL     OW21376   1.866   3.975   2.991
 6826SOL    HW121377   1.886   3.910   3.064
 6826SOL    HW221378   1.877   4.068   3.025
 6827SOL     OW21379   4.648   5.585   5.841
 6827SOL    HW121380   4.630   5.676   5.878
 6827SOL    HW221381   4.653   5.519   5.916
 6828SOL     OW21382   2.735   1.890   1.434
 6828SOL    HW121383   2.662   1.822   1.441
 6828SOL    HW221384   2.763   1.919   1.525
 6829SOL     OW21385   4.466   6.821   4.333
 6829SOL    HW121386   4.473   6.913   4.295
 6829SOL    HW221387   4.556   6.792   4.369
 6830SOL     OW21388   5.286   0.857   3.991
 6830SOL    HW121389   5.203   0.808   3.965
 6830SOL    HW221390   5.264   0.928   4.058
 6831SOL     OW21391   1.672   0.732   0.079
 6831SOL    HW121392   1.661   0.695   0.171
 6831SOL    HW221393   1.632   0.668   0.013
 6832SOL     OW21394   2.980   4.203   1.295
 6832SOL    HW121395   2.898   4.197   1.238
 6832SOL    HW221396   2.961   4.260   1.375
 6833SOL     OW21397   3.536   4.467   6.333
 6833SOL    HW121398   3.628   4.498   6.357
 6833SOL    HW221399   3.542   4.381   6.283
 6834SOL     OW21400   5.128   6.591   0.912
 6834SOL    HW121401   5.081   6.646   0.844
 6834SOL    HW221402   5.204   6.542   0.869
 6835SOL     OW21403   4.157   0.198   4.550
 6835SOL    HW121404   4.065   0.166   4.575
 6835SOL    HW221405   4.217   0.119   4.538
 6836SOL     OW21406   2.655   5.414   0.020
 6836SOL    HW121407   2.556   5.428   0.019
 6836SOL    HW221408   2.689   5.422   0.114
 6837SOL     OW21409   0.703   2.003   2.467
 6837SOL    HW121410   0.711   1.925   2.406
 6837SOL    HW221411   0.779   2.066   2.451
 6838SOL     OW21412   3.010   6.386   0.241
 6838SOL    HW121413   3.083   6.363   0.305
 6838SOL    HW221414   2.934   6.429   0.291
 6839SOL     OW21415   5.118   0.836   6.946
 6839SOL    HW121416   5.198   0.896   6.938
 6839SOL    HW221417   5.136   0.766   7.015
 6840SOL     OW21418   3.247   0.663   5.076
 6840SOL    HW121419   3.296   0.747   5.055
 6840SOL    HW221420   3.268   0.635   5.170
 6841SOL     OW21421   4.336   4.268   6.789
 6841SOL    HW121422   4.366   4.173   6.788
 6841SOL    HW221423   4.323   4.298   6.884
 6842SOL     OW21424   2.218   4.276   0.654
 6842SOL    HW121425   2.286   4.224   0.602
 6842SOL    HW221426   2.130   4.274   0.606
 6843SOL     OW21427   6.425   6.892   0.984
 6843SOL    HW121428   6.437   6.864   0.889
 6843SOL    HW221429   6.504   6.863   1.038
 6844SOL     OW21430   5.488   0.406   4.113
 6844SOL    HW121431   5.552   0.468   4.067
 6844SOL    HW221432   5.425   0.460   4.170
 6845SOL     OW21433   6.531   3.404   3.064
 6845SOL    HW121434   6.456   3.346   3.097
 6845SOL    HW221435   6.525   3.412   2.964
 6846SOL     OW21436   3.823   3.228   0.179
 6846SOL    HW121437   3.787   3.253   0.089
 6846SOL    HW221438   3.915   3.190   0.169
 6847SOL     OW21439   0.219   3.282   4.400
 6847SOL    HW121440   0.304   3.239   4.367
 6847SOL    HW221441   0.147   3.270   4.331
 6848SOL     OW21442   4.653   4.730   3.583
 6848SOL    HW121443   4.716   4.652   3.582
 6848SOL    HW221444   4.571   4.707   3.531
 6849SOL     OW21445   4.776   4.287   5.400
 6849SOL    HW121446   4.731   4.279   5.312
 6849SOL    HW221447   4.722   4.346   5.460
 6850SOL     OW21448   5.614   3.529   3.195
 6850SOL    HW121449   5.574   3.584   3.269
 6850SOL    HW221450   5.566   3.441   3.189
 6851SOL     OW21451   6.872   1.869   3.489
 6851SOL    HW121452   6.966   1.849   3.462
 6851SOL    HW221453   6.833   1.937   3.426
 6852SOL     OW21454   2.599   4.569   1.425
 6852SOL    HW121455   2.504   4.599   1.429
 6852SOL    HW221456   2.605   4.472   1.448
 6853SOL     OW21457   5.462   4.788   0.266
 6853SOL    HW121458   5.553   4.750   0.247
 6853SOL    HW221459   5.444   4.783   0.364
 6854SOL     OW21460   4.877   0.650   5.384
 6854SOL    HW121461   4.868   0.637   5.483
 6854SOL    HW221462   4.900   0.746   5.365
 6855SOL     OW21463   4.241   6.603   4.021
 6855SOL    HW121464   4.255   6.612   4.120
 6855SOL    HW221465   4.330   6.591   3.977
 6856SOL     OW21466   0.081   2.308   4.968
 6856SOL    HW121467   0.030   2.384   4.929
 6856SOL    HW221468   0.078   2.230   4.905
 6857SOL     OW21469   1.589   2.730   6.436
 6857SOL    HW121470   1.490   2.719   6.421
 6857SOL    HW221471   1.638   2.670   6.373
 6858SOL     OW21472   4.097   3.943   1.782
 6858SOL    HW121473   4.166   4.015   1.792
 6858SOL    HW221474   4.029   3.951   1.854
 6859SOL     OW21475   0.991   1.362   1.393
 6859SOL    HW121476   0.934   1.284   1.367
 6859SOL    HW221477   1.073   1.329   1.439
 6860SOL     OW21478   0.256   5.407   1.549
 6860SOL    HW121479   0.331   5.359   1.595
 6860SOL    HW221480   0.169   5.364   1.575
 6861SOL     OW21481   4.345   4.324   0.034
 6861SOL    HW121482   4.327   4.231   0.063
 6861SOL    HW221483   4.443   4.343   0.039
 6862SOL     OW21484   0.851   5.693   5.614
 6862SOL    HW121485   0.856   5.772   5.675
 6862SOL    HW221486   0.756   5.674   5.592
 6863SOL     OW21487   6.237   6.445   6.047
 6863SOL    HW121488   6.237   6.345   6.058
 6863SOL    HW221489   6.226   6.468   5.950
 6864SOL     OW21490   2.235   4.622   4.984
 6864SOL    HW121491   2.325   4.598   4.946
 6864SOL    HW221492   2.173   4.544   4.974
 6865SOL     OW21493   0.724   6.493   4.439
 6865SOL    HW121494   0.774   6.410   4.464
 6865SOL    HW221495   0.723   6.503   4.340
 6866SOL     OW21496   5.629   5.495   2.872
 6866SOL    HW121497   5.695   5.420   2.880
 6866SOL    HW221498   5.673   5.574   2.831
 6867SOL     OW21499   2.005   3.755   2.299
 6867SOL    HW121500   2.032   3.734   2.205
 6867SOL    HW221501   2.060   3.831   2.333
 6868SOL     OW21502   1.954   6.446   6.314
 6868SOL    HW121503   2.011   6.410   6.241
 6868SOL    HW221504   1.903   6.526   6.281
 6869SOL     OW21505   4.579   0.867   6.209
 6869SOL    HW121506   4.518   0.923   6.266
 6869SOL    HW221507   4.588   0.908   6.119
 6870SOL     OW21508   0.274   4.477   1.087
 6870SOL    HW121509   0.263   4.571   1.053
 6870SOL    HW221510   0.305   4.480   1.182
 6871SOL     OW21511   6.085   4.344   3.016
 6871SOL    HW121512   6.039   4.433   3.021
 6871SOL    HW221513   6.112   4.326   2.921
 6872SOL     OW21514   7.013   2.400   1.486
 6872SOL    HW121515   0.061   2.463   1.480
 6872SOL    HW221516   0.010   2.320   1.539
 6873SOL     OW21517   0.402   3.549   3.779
 6873SOL    HW121518   0.415   3.474   3.714
 6873SOL    HW221519   0.413   3.515   3.872
 6874SOL     OW21520   6.661   5.136   3.093
 6874SOL    HW121521   6.581   5.142   3.034
 6874SOL    HW221522   6.682   5.040   3.112
 6875SOL     OW21523   2.265   2.196   2.393
 6875SOL    HW121524   2.247   2.191   2.491
 6875SOL    HW221525   2.325   2.273   2.373
 6876SOL     OW21526   4.233   6.931   3.632
 6876SOL    HW121527   4.174   6.871   3.577
 6876SOL    HW221528   4.233   6.898   3.727
 6877SOL     OW21529   2.951   4.328   1.534
 6877SOL    HW121530   3.009   4.396   1.488
 6877SOL    HW221531   3.000   4.292   1.614
 6878SOL     OW21532   3.507   1.410   4.476
 6878SOL    HW121533   3.482   1.494   4.428
 6878SOL    HW221534   3.607   1.402   4.480
 6879SOL     OW21535   1.307   2.914   0.513
 6879SOL    HW121536   1.389   2.889   0.563
 6879SOL    HW221537   1.237   2.944   0.578
 6880SOL     OW21538   1.659   5.511   5.667
 6880SOL    HW121539   1.592   5.458   5.720
 6880SOL    HW221540   1.748   5.505   5.711
 6881SOL     OW21541   1.545   3.913   1.651
 6881SOL    HW121542   1.624   3.865   1.611
 6881SOL    HW221543   1.525   3.994   1.597
 6882SOL     OW21544   2.871   0.807   0.250
 6882SOL    HW121545   2.936   0.773   0.182
 6882SOL    HW221546   2.784   0.761   0.238
 6883SOL     OW21547   5.245   2.436   0.350
 6883SOL    HW121548   5.280   2.529   0.341
 6883SOL    HW221549   5.294   2.376   0.287
 6884SOL     OW21550   1.146   4.478   3.261
 6884SOL    HW121551   1.104   4.526   3.184
 6884SOL    HW221552   1.104   4.388   3.271
 6885SOL     OW21553   4.630   4.983   3.519
 6885SOL    HW121554   4.655   4.889   3.547
 6885SOL    HW221555   4.661   4.999   3.426
 6886SOL     OW21556   6.659   1.326   4.576
 6886SOL    HW121557   6.648   1.389   4.498
 6886SOL    HW221558   6.650   1.232   4.544
 6887SOL     OW21559   4.425   5.418   6.693
 6887SOL    HW121560   4.397   5.353   6.763
 6887SOL    HW221561   4.524   5.414   6.680
 6888SOL     OW21562   5.475   5.359   6.518
 6888SOL    HW121563   5.560   5.308   6.529
 6888SOL    HW221564   5.441   5.348   6.425
 6889SOL     OW21565   0.779   3.240   5.666
 6889SOL    HW121566   0.708   3.198   5.722
 6889SOL    HW221567   0.746   3.325   5.626
 6890SOL     OW21568   4.108   6.170   2.227
 6890SOL    HW121569   4.113   6.248   2.164
 6890SOL    HW221570   4.089   6.203   2.319
 6891SOL     OW21571   2.140   4.421   2.175
 6891SOL    HW121572   2.041   4.431   2.182
 6891SOL    HW221573   2.176   4.492   2.114
 6892SOL     OW21574   3.524   1.896   4.226
 6892SOL    HW121575   3.608   1.933   4.268
 6892SOL    HW221576   3.547   1.852   4.140
 6893SOL     OW21577   4.392   4.024   0.297
 6893SOL    HW121578   4.465   4.048   0.234
 6893SOL    HW221579   4.304   4.047   0.257
 6894SOL     OW21580   6.051   4.539   1.188
 6894SOL    HW121581   5.961   4.509   1.219
 6894SOL    HW221582   6.066   4.633   1.219
 6895SOL     OW21583   2.565   5.091   1.272
 6895SOL    HW121584   2.612   5.070   1.186
 6895SOL    HW221585   2.579   5.016   1.336
 6896SOL     OW21586   2.811   1.845   4.250
 6896SOL    HW121587   2.739   1.853   4.181
 6896SOL    HW221588   2.793   1.909   4.325
 6897SOL     OW21589   4.986   3.842   4.808
 6897SOL    HW121590   5.070   3.868   4.854
 6897SOL    HW221591   4.939   3.771   4.860
 6898SOL     OW21592   3.996   1.585   1.405
 6898SOL    HW121593   3.997   1.500   1.458
 6898SOL    HW221594   3.919   1.641   1.434
 6899SOL     OW21595   4.506   6.113   2.146
 6899SOL    HW121596   4.560   6.148   2.223
 6899SOL    HW221597   4.485   6.188   2.083
 6900SOL     OW21598   6.279   5.352   4.646
 6900SOL    HW121599   6.366   5.306   4.665
 6900SOL    HW221600   6.225   5.357   4.729
 6901SOL     OW21601   6.346   6.350   6.344
 6901SOL    HW121602   6.254   6.344   6.381
 6901SOL    HW221603   6.343   6.334   6.245
 6902SOL     OW21604   6.716   5.539   5.998
 6902SOL    HW121605   6.778   5.469   6.035
 6902SOL    HW221606   6.732   5.625   6.046
 6903SOL     OW21607   3.171   5.007   5.196
 6903SOL    HW121608   3.138   5.102   5.205
 6903SOL    HW221609   3.238   4.989   5.268
 6904SOL     OW21610   6.059   0.590   5.852
 6904SOL    HW121611   6.138   0.647   5.872
 6904SOL    HW221612   5.975   0.644   5.865
 6905SOL     OW21613   5.629   5.950   7.006
 6905SOL    HW121614   5.559   5.879   7.002
 6905SOL    HW221615   5.625   6.007   6.924
 6906SOL     OW21616   3.696   1.827   4.000
 6906SOL    HW121617   3.735   1.762   4.065
 6906SOL    HW221618   3.752   1.830   3.917
 6907SOL     OW21619   5.644   2.464   1.431
 6907SOL    HW121620   5.690   2.550   1.453
 6907SOL    HW221621   5.549   2.467   1.462
 6908SOL     OW21622   1.593   5.752   6.746
 6908SOL    HW121623   1.666   5.818   6.726
 6908SOL    HW221624   1.510   5.801   6.773
 6909SOL     OW21625   5.262   3.877   0.854
 6909SOL    HW121626   5.169   3.906   0.878
 6909SOL    HW221627   5.278   3.786   0.892
 6910SOL     OW21628   1.486   3.586   3.475
 6910SOL    HW121629   1.476   3.681   3.446
 6910SOL    HW221630   1.548   3.582   3.553
 6911SOL     OW21631   4.206   6.855   3.886
 6911SOL    HW121632   4.212   6.922   3.960
 6911SOL    HW221633   4.223   6.763   3.923
 6912SOL     OW21634   2.597   3.376   5.983
 6912SOL    HW121635   2.672   3.422   6.031
 6912SOL    HW221636   2.573   3.292   6.031
 6913SOL     OW21637   5.688   6.067   4.408
 6913SOL    HW121638   5.749   6.020   4.344
 6913SOL    HW221639   5.709   6.037   4.501
 6914SOL     OW21640   5.502   4.357   3.802
 6914SOL    HW121641   5.554   4.324   3.882
 6914SOL    HW221642   5.479   4.453   3.815
 6915SOL     OW21643   6.297   2.692   1.648
 6915SOL    HW121644   6.261   2.684   1.555
 6915SOL    HW221645   6.326   2.786   1.664
 6916SOL     OW21646   5.323   1.653   0.293
 6916SOL    HW121647   5.336   1.725   0.226
 6916SOL    HW221648   5.380   1.574   0.269
 6917SOL     OW21649   4.060   6.923   0.962
 6917SOL    HW121650   3.965   6.939   0.991
 6917SOL    HW221651   4.123   6.959   1.030
 6918SOL     OW21652   0.623   2.184   4.485
 6918SOL    HW121653   0.663   2.270   4.517
 6918SOL    HW221654   0.664   2.158   4.398
 6919SOL     OW21655   5.618   5.498   4.416
 6919SOL    HW121656   5.645   5.446   4.335
 6919SOL    HW221657   5.687   5.486   4.487
 6920SOL     OW21658   4.686   0.105   5.594
 6920SOL    HW121659   4.653   0.200   5.595
 6920SOL    HW221660   4.778   0.102   5.555
 6921SOL     OW21661   4.512   6.027   4.166
 6921SOL    HW121662   4.468   5.939   4.151
 6921SOL    HW221663   4.443   6.097   4.181
 6922SOL     OW21664   2.037   5.664   5.672
 6922SOL    HW121665   2.083   5.590   5.722
 6922SOL    HW221666   1.971   5.625   5.608
 6923SOL     OW21667   5.177   5.421   2.617
 6923SOL    HW121668   5.111   5.432   2.691
 6923SOL    HW221669   5.160   5.335   2.569
 6924SOL     OW21670   1.846   4.539   0.269
 6924SOL    HW121671   1.808   4.554   0.178
 6924SOL    HW221672   1.850   4.441   0.288
 6925SOL     OW21673   4.820   5.893   4.524
 6925SOL    HW121674   4.841   5.961   4.594
 6925SOL    HW221675   4.851   5.803   4.554
 6926SOL     OW21676   2.574   2.780   0.748
 6926SOL    HW121677   2.542   2.847   0.682
 6926SOL    HW221678   2.541   2.805   0.839
 6927SOL     OW21679   3.562   2.789   6.144
 6927SOL    HW121680   3.468   2.783   6.176
 6927SOL    HW221681   3.576   2.724   6.069
 6928SOL     OW21682   5.617   5.628   1.059
 6928SOL    HW121683   5.597   5.715   1.014
 6928SOL    HW221684   5.696   5.585   1.016
 6929SOL     OW21685   4.838   5.728   2.186
 6929SOL    HW121686   4.743   5.758   2.193
 6929SOL    HW221687   4.854   5.651   2.248
 6930SOL     OW21688   1.766   0.952   1.585
 6930SOL    HW121689   1.791   0.887   1.657
 6930SOL    HW221690   1.736   1.038   1.626
 6931SOL     OW21691   1.656   1.242   2.510
 6931SOL    HW121692   1.657   1.145   2.536
 6931SOL    HW221693   1.571   1.262   2.461
 6932SOL     OW21694   4.383   0.081   0.350
 6932SOL    HW121695   4.320   0.131   0.290
 6932SOL    HW221696   4.444   0.145   0.395
 6933SOL     OW21697   3.756   6.509   5.590
 6933SOL    HW121698   3.778   6.425   5.540
 6933SOL    HW221699   3.691   6.488   5.663
 6934SOL     OW21700   4.323   3.358   6.087
 6934SOL    HW121701   4.333   3.332   5.991
 6934SOL    HW221702   4.393   3.425   6.111
 6935SOL     OW21703   4.830   5.807   2.726
 6935SOL    HW121704   4.755   5.751   2.762
 6935SOL    HW221705   4.910   5.749   2.711
 6936SOL     OW21706   6.256   3.309   4.345
 6936SOL    HW121707   6.298   3.262   4.422
 6936SOL    HW221708   6.327   3.339   4.281
 6937SOL     OW21709   6.162   5.994   0.970
 6937SOL    HW121710   6.177   5.953   0.880
 6937SOL    HW221711   6.064   6.009   0.984
 6938SOL     OW21712   6.539   2.514   4.879
 6938SOL    HW121713   6.452   2.561   4.891
 6938SOL    HW221714   6.605   2.546   4.947
 6939SOL     OW21715   0.281   5.187   2.231
 6939SOL    HW121716   0.249   5.106   2.280
 6939SOL    HW221717   0.377   5.205   2.255
 6940SOL     OW21718   4.007   0.513   0.059
 6940SOL    HW121719   3.935   0.458   0.016
 6940SOL    HW221720   3.976   0.607   0.068
 6941SOL     OW21721   3.036   3.870   1.956
 6941SOL    HW121722   3.036   3.880   2.056
 6941SOL    HW221723   2.971   3.935   1.916
 6942SOL     OW21724   6.102   6.617   2.563
 6942SOL    HW121725   6.048   6.640   2.482
 6942SOL    HW221726   6.117   6.700   2.617
 6943SOL     OW21727   3.961   5.929   0.937
 6943SOL    HW121728   3.953   5.829   0.944
 6943SOL    HW221729   3.870   5.970   0.938
 6944SOL     OW21730   1.238   5.001   6.308
 6944SOL    HW121731   1.162   5.013   6.372
 6944SOL    HW221732   1.279   5.089   6.287
 6945SOL     OW21733   6.995   1.687   0.609
 6945SOL    HW121734   6.904   1.715   0.578
 6945SOL    HW221735   6.992   1.664   0.706
 6946SOL     OW21736   4.284   6.922   1.292
 6946SOL    HW121737   4.359   6.897   1.352
 6946SOL    HW221738   4.198   6.885   1.328
 6947SOL     OW21739   3.603   5.419   7.000
 6947SOL    HW121740   3.547   5.494   6.965
 6947SOL    HW221741   3.587   5.337   6.945
 6948SOL     OW21742   1.236   6.361   0.845
 6948SOL    HW121743   1.270   6.411   0.765
 6948SOL    HW221744   1.286   6.391   0.926
 6949SOL     OW21745   3.877   0.093   3.488
 6949SOL    HW121746   3.917   0.059   3.404
 6949SOL    HW221747   3.852   0.189   3.477
 6950SOL     OW21748   1.838   1.320   5.092
 6950SOL    HW121749   1.865   1.233   5.050
 6950SOL    HW221750   1.740   1.320   5.109
 6951SOL     OW21751   0.018   5.416   5.824
 6951SOL    HW121752   0.111   5.413   5.859
 6951SOL    HW221753   7.026   5.331   5.776
 6952SOL     OW21754   1.110   5.202   3.113
 6952SOL    HW121755   1.139   5.167   3.202
 6952SOL    HW221756   1.024   5.158   3.087
 6953SOL     OW21757   4.874   6.644   1.040
 6953SOL    HW121758   4.849   6.739   1.025
 6953SOL    HW221759   4.893   6.629   1.137
 6954SOL     OW21760   0.774   4.160   1.848
 6954SOL    HW121761   0.843   4.143   1.777
 6954SOL    HW221762   0.819   4.180   1.935
 6955SOL     OW21763   5.350   0.956   2.035
 6955SOL    HW121764   5.401   1.015   1.972
 6955SOL    HW221765   5.260   0.995   2.051
 6956SOL     OW21766   4.978   5.789   3.551
 6956SOL    HW121767   4.880   5.777   3.534
 6956SOL    HW221768   5.014   5.708   3.597
 6957SOL     OW21769   6.528   6.242   0.506
 6957SOL    HW121770   6.581   6.303   0.565
 6957SOL    HW221771   6.565   6.244   0.414
 6958SOL     OW21772   3.842   3.392   4.876
 6958SOL    HW121773   3.912   3.328   4.844
 6958SOL    HW221774   3.856   3.481   4.832
 6959SOL     OW21775   2.084   3.084   2.874
 6959SOL    HW121776   2.016   3.011   2.868
 6959SOL    HW221777   2.045   3.161   2.924
 6960SOL     OW21778   2.172   4.100   1.608
 6960SOL    HW121779   2.192   4.019   1.552
 6960SOL    HW221780   2.220   4.092   1.695
 6961SOL     OW21781   5.963   0.420   4.678
 6961SOL    HW121782   5.883   0.363   4.662
 6961SOL    HW221783   5.962   0.455   4.771
 6962SOL     OW21784   4.355   5.810   1.500
 6962SOL    HW121785   4.347   5.848   1.592
 6962SOL    HW221786   4.439   5.758   1.493
 6963SOL     OW21787   5.229   5.731   1.048
 6963SOL    HW121788   5.278   5.740   1.135
 6963SOL    HW221789   5.233   5.818   0.999
 6964SOL     OW21790   3.715   1.432   5.833
 6964SOL    HW121791   3.762   1.407   5.748
 6964SOL    HW221792   3.746   1.522   5.862
 6965SOL     OW21793   2.291   1.234   7.018
 6965SOL    HW121794   2.205   1.262   6.974
 6965SOL    HW221795   2.352   1.195   6.949
 6966SOL     OW21796   0.446   1.089   2.803
 6966SOL    HW121797   0.528   1.085   2.860
 6966SOL    HW221798   0.463   1.147   2.723
 6967SOL     OW21799   3.061   1.094   6.224
 6967SOL    HW121800   3.135   1.156   6.199
 6967SOL    HW221801   2.975   1.145   6.231
 6968SOL     OW21802   3.670   1.089   4.004
 6968SOL    HW121803   3.734   1.075   4.080
 6968SOL    HW221804   3.689   1.023   3.932
 6969SOL     OW21805   2.802   2.362   1.503
 6969SOL    HW121806   2.757   2.319   1.425
 6969SOL    HW221807   2.790   2.461   1.498
 6970SOL     OW21808   3.809   3.824   5.619
 6970SOL    HW121809   3.900   3.795   5.590
 6970SOL    HW221810   3.773   3.890   5.553
 6971SOL     OW21811   6.430   4.731   0.584
 6971SOL    HW121812   6.334   4.754   0.570
 6971SOL    HW221813   6.438   4.637   0.616
 6972SOL     OW21814   5.127   4.497   3.167
 6972SOL    HW121815   5.193   4.528   3.235
 6972SOL    HW221816   5.163   4.416   3.120
 6973SOL     OW21817   0.535   2.803   3.211
 6973SOL    HW121818   0.601   2.864   3.165
 6973SOL    HW221819   0.473   2.765   3.143
 6974SOL     OW21820   2.919   3.664   2.438
 6974SOL    HW121821   2.827   3.692   2.409
 6974SOL    HW221822   2.985   3.688   2.367
 6975SOL     OW21823   1.631   6.383   5.263
 6975SOL    HW121824   1.548   6.436   5.250
 6975SOL    HW221825   1.667   6.355   5.174
 6976SOL     OW21826   6.701   4.752   5.950
 6976SOL    HW121827   6.708   4.694   5.869
 6976SOL    HW221828   6.732   4.845   5.927
 6977SOL     OW21829   3.376   3.043   0.644
 6977SOL    HW121830   3.418   3.060   0.733
 6977SOL    HW221831   3.345   2.948   0.640
 6978SOL     OW21832   5.017   2.529   2.081
 6978SOL    HW121833   5.083   2.471   2.130
 6978SOL    HW221834   4.971   2.475   2.010
 6979SOL     OW21835   1.178   4.166   1.474
 6979SOL    HW121836   1.271   4.129   1.482
 6979SOL    HW221837   1.167   4.210   1.385
 6980SOL     OW21838   2.262   0.707   3.284
 6980SOL    HW121839   2.242   0.644   3.359
 6980SOL    HW221840   2.176   0.737   3.242
 6981SOL     OW21841   3.320   3.998   5.622
 6981SOL    HW121842   3.275   3.941   5.553
 6981SOL    HW221843   3.266   4.080   5.639
 6982SOL     OW21844   1.266   1.211   4.620
 6982SOL    HW121845   1.236   1.230   4.713
 6982SOL    HW221846   1.349   1.155   4.623
 6983SOL     OW21847   4.660   1.537   4.840
 6983SOL    HW121848   4.608   1.623   4.838
 6983SOL    HW221849   4.746   1.552   4.889
 6984SOL     OW21850   2.453   1.506   3.354
 6984SOL    HW121851   2.482   1.428   3.409
 6984SOL    HW221852   2.410   1.574   3.412
 6985SOL     OW21853   5.921   5.507   0.945
 6985SOL    HW121854   5.906   5.416   0.983
 6985SOL    HW221855   6.010   5.542   0.977
 6986SOL     OW21856   3.206   0.449   6.621
 6986SOL    HW121857   3.128   0.443   6.684
 6986SOL    HW221858   3.214   0.362   6.571
 6987SOL     OW21859   6.349   1.418   6.246
 6987SOL    HW121860   6.395   1.344   6.199
 6987SOL    HW221861   6.337   1.394   6.343
 6988SOL     OW21862   1.135   0.061   6.748
 6988SOL    HW121863   1.231   0.042   6.765
 6988SOL    HW221864   1.110   0.030   6.657
 6989SOL     OW21865   0.494   4.420   2.870
 6989SOL    HW121866   0.489   4.345   2.805
 6989SOL    HW221867   0.401   4.452   2.891
 6990SOL     OW21868   4.256   3.071   0.862
 6990SOL    HW121869   4.218   2.986   0.898
 6990SOL    HW221870   4.184   3.138   0.851
 6991SOL     OW21871   4.572   4.370   3.585
 6991SOL    HW121872   4.666   4.406   3.582
 6991SOL    HW221873   4.573   4.272   3.565
 6992SOL     OW21874   5.854   0.288   6.528
 6992SOL    HW121875   5.836   0.232   6.447
 6992SOL    HW221876   5.902   0.232   6.596
 6993SOL     OW21877   6.001   6.845   2.132
 6993SOL    HW121878   5.987   6.843   2.032
 6993SOL    HW221879   6.037   6.934   2.159
 6994SOL     OW21880   0.180   2.128   3.866
 6994SOL    HW121881   0.261   2.072   3.852
 6994SOL    HW221882   0.151   2.121   3.962
 6995SOL     OW21883   0.826   3.774   6.416
 6995SOL    HW121884   0.827   3.761   6.515
 6995SOL    HW221885   0.735   3.807   6.389
 6996SOL     OW21886   2.479   0.343   0.192
 6996SOL    HW121887   2.520   0.364   0.281
 6996SOL    HW221888   2.380   0.361   0.196
 6997SOL     OW21889   0.498   5.022   4.906
 6997SOL    HW121890   0.549   5.090   4.853
 6997SOL    HW221891   0.407   5.011   4.867
 6998SOL     OW21892   1.508   1.858   1.361
 6998SOL    HW121893   1.506   1.766   1.322
 6998SOL    HW221894   1.508   1.853   1.461
 6999SOL     OW21895   1.417   3.245   6.096
 6999SOL    HW121896   1.487   3.281   6.158
 6999SOL    HW221897   1.416   3.299   6.012
 7000SOL     OW21898   5.916   6.344   2.254
 7000SOL    HW121899   5.852   6.292   2.197
 7000SOL    HW221900   5.939   6.429   2.207
 7001SOL     OW21901   0.990   3.229   5.248
 7001SOL    HW121902   0.963   3.295   5.178
 7001SOL    HW221903   1.044   3.156   5.206
 7002SOL     OW21904   1.972   5.389   4.511
 7002SOL    HW121905   1.892   5.393   4.451
 7002SOL    HW221906   1.942   5.407   4.605
 7003SOL     OW21907   4.341   5.951   1.289
 7003SOL    HW121908   4.403   6.028   1.303
 7003SOL    HW221909   4.337   5.896   1.373
 7004SOL     OW21910   0.662   5.815   1.120
 7004SOL    HW121911   0.682   5.728   1.165
 7004SOL    HW221912   0.563   5.829   1.115
 7005SOL     OW21913   1.025   0.270   1.070
 7005SOL    HW121914   1.035   0.284   0.972
 7005SOL    HW221915   0.939   0.310   1.102
 7006SOL     OW21916   5.466   5.526   3.449
 7006SOL    HW121917   5.404   5.460   3.491
 7006SOL    HW221918   5.509   5.485   3.368
 7007SOL     OW21919   3.878   0.879   4.609
 7007SOL    HW121920   3.824   0.947   4.559
 7007SOL    HW221921   3.967   0.918   4.633
 7008SOL     OW21922   0.667   4.319   4.238
 7008SOL    HW121923   0.639   4.228   4.208
 7008SOL    HW221924   0.601   4.354   4.306
 7009SOL     OW21925   3.986   6.437   2.659
 7009SOL    HW121926   3.976   6.405   2.754
 7009SOL    HW221927   3.950   6.529   2.651
 7010SOL     OW21928   5.380   4.027   3.694
 7010SOL    HW121929   5.403   3.930   3.682
 7010SOL    HW221930   5.444   4.068   3.759
 7011SOL     OW21931   3.490   6.812   6.833
 7011SOL    HW121932   3.481   6.732   6.774
 7011SOL    HW221933   3.417   6.877   6.813
 7012SOL     OW21934   1.123   1.826   1.097
 7012SOL    HW121935   1.145   1.826   0.999
 7012SOL    HW221936   1.028   1.853   1.110
 7013SOL     OW21937   1.227   6.636   6.772
 7013SOL    HW121938   1.320   6.609   6.746
 7013SOL    HW221939   1.185   6.687   6.697
 7014SOL     OW21940   4.864   3.360   0.610
 7014SOL    HW121941   4.890   3.292   0.678
 7014SOL    HW221942   4.889   3.451   0.643
 7015SOL     OW21943   5.845   4.300   1.208
 7015SOL    HW121944   5.753   4.322   1.239
 7015SOL    HW221945   5.899   4.267   1.286
 7016SOL     OW21946   3.926   4.831   1.176
 7016SOL    HW121947   3.958   4.878   1.093
 7016SOL    HW221948   3.960   4.879   1.257
 7017SOL     OW21949   3.068   5.410   3.308
 7017SOL    HW121950   3.167   5.410   3.299
 7017SOL    HW221951   3.043   5.432   3.403
 7018SOL     OW21952   5.258   3.711   4.068
 7018SOL    HW121953   5.259   3.756   4.157
 7018SOL    HW221954   5.341   3.655   4.059
 7019SOL     OW21955   3.539   4.707   0.764
 7019SOL    HW121956   3.617   4.739   0.710
 7019SOL    HW221957   3.506   4.620   0.727
 7020SOL     OW21958   6.926   3.681   4.980
 7020SOL    HW121959   6.905   3.775   4.952
 7020SOL    HW221960   7.008   3.649   4.932
 7021SOL     OW21961   2.002   2.509   4.412
 7021SOL    HW121962   2.064   2.492   4.488
 7021SOL    HW221963   1.925   2.446   4.415
 7022SOL     OW21964   4.722   6.704   6.640
 7022SOL    HW121965   4.752   6.788   6.595
 7022SOL    HW221966   4.716   6.630   6.574
 7023SOL     OW21967   0.730   2.964   2.158
 7023SOL    HW121968   0.722   2.900   2.234
 7023SOL    HW221969   0.761   2.915   2.076
 7024SOL     OW21970   2.969   3.526   4.493
 7024SOL    HW121971   2.993   3.436   4.530
 7024SOL    HW221972   3.001   3.533   4.399
 7025SOL     OW21973   4.045   1.016   1.169
 7025SOL    HW121974   4.082   1.101   1.132
 7025SOL    HW221975   3.957   1.034   1.212
 7026SOL     OW21976   3.571   2.084   2.225
 7026SOL    HW121977   3.624   2.134   2.156
 7026SOL    HW221978   3.483   2.056   2.187
 7027SOL     OW21979   2.805   5.698   4.351
 7027SOL    HW121980   2.781   5.794   4.367
 7027SOL    HW221981   2.722   5.646   4.331
 7028SOL     OW21982   3.691   1.098   3.399
 7028SOL    HW121983   3.616   1.132   3.455
 7028SOL    HW221984   3.679   1.000   3.384
 7029SOL     OW21985   4.295   4.255   5.495
 7029SOL    HW121986   4.262   4.166   5.463
 7029SOL    HW221987   4.269   4.267   5.591
 7030SOL     OW21988   6.943   0.947   4.398
 7030SOL    HW121989   0.003   0.952   4.354
 7030SOL    HW221990   6.897   0.863   4.371
 7031SOL     OW21991   3.916   6.439   0.135
 7031SOL    HW121992   3.906   6.346   0.171
 7031SOL    HW221993   3.829   6.468   0.093
 7032SOL     OW21994   3.772   1.378   3.479
 7032SOL    HW121995   3.781   1.286   3.516
 7032SOL    HW221996   3.836   1.439   3.526
 7033SOL     OW21997   1.344   2.586   3.282
 7033SOL    HW121998   1.322   2.648   3.206
 7033SOL    HW221999   1.414   2.627   3.340
 7034SOL     OW22000   6.922   1.402   2.756
 7034SOL    HW122001   6.828   1.435   2.751
 7034SOL    HW222002   6.938   1.358   2.844
 7035SOL     OW22003   1.594   7.013   0.750
 7035SOL    HW122004   1.634   0.072   0.724
 7035SOL    HW222005   1.502   7.028   0.786
 7036SOL     OW22006   6.640   1.302   2.107
 7036SOL    HW122007   6.630   1.227   2.172
 7036SOL    HW222008   6.737   1.325   2.097
 7037SOL     OW22009   1.144   0.997   6.882
 7037SOL    HW122010   1.206   1.053   6.826
 7037SOL    HW222011   1.141   0.904   6.844
 7038SOL     OW22012   2.452   4.478   4.795
 7038SOL    HW122013   2.489   4.385   4.793
 7038SOL    HW222014   2.375   4.485   4.731
 7039SOL     OW22015   0.284   6.200   3.077
 7039SOL    HW122016   0.284   6.117   3.021
 7039SOL    HW222017   0.298   6.280   3.019
 7040SOL     OW22018   5.435   2.927   6.065
 7040SOL    HW122019   5.338   2.934   6.041
 7040SOL    HW222020   5.490   2.971   5.995
 7041SOL     OW22021   0.131   1.557   2.377
 7041SOL    HW122022   0.034   1.579   2.366
 7041SOL    HW222023   0.143   1.457   2.380
 7042SOL     OW22024   4.614   6.202   4.448
 7042SOL    HW122025   4.679   6.175   4.377
 7042SOL    HW222026   4.660   6.198   4.537
 7043SOL     OW22027   2.280   4.794   3.587
 7043SOL    HW122028   2.314   4.848   3.510
 7043SOL    HW222029   2.357   4.757   3.638
 7044SOL     OW22030   5.649   5.328   5.305
 7044SOL    HW122031   5.635   5.290   5.396
 7044SOL    HW222032   5.600   5.415   5.297
 7045SOL     OW22033   5.095   5.886   2.332
 7045SOL    HW122034   5.099   5.811   2.398
 7045SOL    HW222035   4.999   5.910   2.315
 7046SOL     OW22036   3.751   1.513   3.190
 7046SOL    HW122037   3.661   1.548   3.166
 7046SOL    HW222038   3.754   1.494   3.288
 7047SOL     OW22039   6.609   0.902   2.062
 7047SOL    HW122040   6.517   0.937   2.075
 7047SOL    HW222041   6.605   0.809   2.024
 7048SOL     OW22042   5.769   6.727   4.561
 7048SOL    HW122043   5.835   6.726   4.486
 7048SOL    HW222044   5.677   6.732   4.524
 7049SOL     OW22045   3.835   2.158   0.911
 7049SOL    HW122046   3.860   2.255   0.915
 7049SOL    HW222047   3.736   2.149   0.917
 7050SOL     OW22048   3.977   3.499   1.344
 7050SOL    HW122049   4.049   3.558   1.305
 7050SOL    HW222050   3.974   3.413   1.294
 7051SOL     OW22051   6.803   6.525   1.286
 7051SOL    HW122052   6.716   6.546   1.330
 7051SOL    HW222053   6.845   6.447   1.333
 7052SOL     OW22054   6.530   0.975   4.283
 7052SOL    HW122055   6.586   0.934   4.211
 7052SOL    HW222056   6.449   1.016   4.242
 7053SOL     OW22057   1.315   3.680   4.369
 7053SOL    HW122058   1.410   3.687   4.337
 7053SOL    HW222059   1.310   3.710   4.464
 7054SOL     OW22060   6.876   6.845   0.777
 7054SOL    HW122061   6.970   6.814   0.764
 7054SOL    HW222062   6.850   6.834   0.873
 7055SOL     OW22063   2.733   0.540   6.951
 7055SOL    HW122064   2.792   0.468   6.986
 7055SOL    HW222065   2.646   0.501   6.921
 7056SOL     OW22066   6.696   5.193   1.424
 7056SOL    HW122067   6.735   5.285   1.433
 7056SOL    HW222068   6.742   5.132   1.488
 7057SOL     OW22069   2.712   5.013   3.753
 7057SOL    HW122070   2.790   5.074   3.743
 7057SOL    HW222071   2.743   4.921   3.771
 7058SOL     OW22072   5.459   2.394   6.156
 7058SOL    HW122073   5.496   2.471   6.104
 7058SOL    HW222074   5.399   2.427   6.228
 7059SOL     OW22075   1.246   1.013   3.849
 7059SOL    HW122076   1.219   1.044   3.940
 7059SOL    HW222077   1.211   0.920   3.834
 7060SOL     OW22078   3.477   0.221   0.791
 7060SOL    HW122079   3.483   0.140   0.849
 7060SOL    HW222080   3.381   0.241   0.771
 7061SOL     OW22081   0.129   2.680   3.521
 7061SOL    HW122082   0.043   2.646   3.558
 7061SOL    HW222083   0.115   2.770   3.481
 7062SOL     OW22084   3.750   2.212   5.136
 7062SOL    HW122085   3.800   2.236   5.219
 7062SOL    HW222086   3.814   2.203   5.060
 7063SOL     OW22087   1.309   0.233   1.806
 7063SOL    HW122088   1.293   0.323   1.765
 7063SOL    HW222089   1.397   0.197   1.775
 7064SOL     OW22090   4.164   2.054   6.743
 7064SOL    HW122091   4.125   1.964   6.760
 7064SOL    HW222092   4.254   2.060   6.786
 7065SOL     OW22093   2.984   4.045   5.036
 7065SOL    HW122094   2.943   3.988   4.965
 7065SOL    HW222095   3.033   4.121   4.993
 7066SOL     OW22096   4.224   6.906   5.981
 7066SOL    HW122097   4.172   6.878   5.900
 7066SOL    HW222098   4.284   6.982   5.957
 7067SOL     OW22099   0.821   3.621   5.534
 7067SOL    HW122100   0.835   3.710   5.492
 7067SOL    HW222101   0.910   3.579   5.555
 7068SOL     OW22102   5.687   4.140   4.426
 7068SOL    HW122103   5.591   4.167   4.416
 7068SOL    HW222104   5.702   4.052   4.381
 7069SOL     OW22105   5.916   1.408   5.439
 7069SOL    HW122106   5.955   1.366   5.521
 7069SOL    HW222107   5.894   1.336   5.373
 7070SOL     OW22108   1.318   6.367   4.220
 7070SOL    HW122109   1.251   6.354   4.147
 7070SOL    HW222110   1.317   6.462   4.251
 7071SOL     OW22111   3.768   5.697   0.151
 7071SOL    HW122112   3.867   5.684   0.162
 7071SOL    HW222113   3.723   5.608   0.154
 7072SOL     OW22114   2.472   4.920   0.108
 7072SOL    HW122115   2.422   4.960   0.032
 7072SOL    HW222116   2.564   4.895   0.079
 7073SOL     OW22117   3.889   0.276   3.225
 7073SOL    HW122118   3.958   0.332   3.179
 7073SOL    HW222119   3.868   0.315   3.315
 7074SOL     OW22120   6.420   2.904   2.905
 7074SOL    HW122121   6.487   2.835   2.878
 7074SOL    HW222122   6.381   2.947   2.823
 7075SOL     OW22123   2.542   4.864   4.545
 7075SOL    HW122124   2.536   4.855   4.644
 7075SOL    HW222125   2.500   4.950   4.516
 7076SOL     OW22126   5.462   2.930   0.511
 7076SOL    HW122127   5.504   3.009   0.556
 7076SOL    HW222128   5.362   2.942   0.508
 7077SOL     OW22129   2.247   4.051   3.637
 7077SOL    HW122130   2.237   3.956   3.607
 7077SOL    HW222131   2.261   4.053   3.736
 7078SOL     OW22132   6.340   6.152   1.114
 7078SOL    HW122133   6.293   6.090   1.050
 7078SOL    HW222134   6.310   6.246   1.096
 7079SOL     OW22135   1.063   6.776   3.395
 7079SOL    HW122136   0.988   6.829   3.355
 7079SOL    HW222137   1.123   6.743   3.322
 7080SOL     OW22138   4.045   1.858   4.108
 7080SOL    HW122139   3.989   1.781   4.140
 7080SOL    HW222140   4.070   1.843   4.012
 7081SOL     OW22141   1.131   5.456   0.378
 7081SOL    HW122142   1.159   5.549   0.354
 7081SOL    HW222143   1.210   5.395   0.369
 7082SOL     OW22144   6.839   4.183   0.309
 7082SOL    HW122145   6.790   4.109   0.355
 7082SOL    HW222146   6.795   4.203   0.222
 7083SOL     OW22147   0.122   1.246   2.284
 7083SOL    HW122148   0.132   1.200   2.373
 7083SOL    HW222149   0.071   1.187   2.222
 7084SOL     OW22150   0.883   5.313   5.693
 7084SOL    HW122151   0.855   5.391   5.637
 7084SOL    HW222152   0.932   5.346   5.774
 7085SOL     OW22153   6.713   2.355   2.490
 7085SOL    HW122154   6.733   2.328   2.396
 7085SOL    HW222155   6.730   2.278   2.551
 7086SOL     OW22156   5.773   0.940   5.916
 7086SOL    HW122157   5.767   0.844   5.888
 7086SOL    HW222158   5.781   0.945   6.016
 7087SOL     OW22159   5.781   3.985   2.719
 7087SOL    HW122160   5.696   4.031   2.745
 7087SOL    HW222161   5.816   3.931   2.796
 7088SOL     OW22162   5.278   2.709   5.670
 7088SOL    HW122163   5.286   2.662   5.758
 7088SOL    HW222164   5.181   2.721   5.648
 7089SOL     OW22165   2.132   3.312   3.385
 7089SOL    HW122166   2.124   3.373   3.306
 7089SOL    HW222167   2.145   3.366   3.468
 7090SOL     OW22168   2.454   1.702   0.080
 7090SOL    HW122169   2.443   1.605   0.060
 7090SOL    HW222170   2.441   1.755   7.026
 7091SOL     OW22171   0.610   0.917   1.305
 7091SOL    HW122172   0.675   0.843   1.286
 7091SOL    HW222173   0.557   0.894   1.386
 7092SOL     OW22174   3.576   3.182   5.564
 7092SOL    HW122175   3.623   3.162   5.650
 7092SOL    HW222176   3.644   3.200   5.493
 7093SOL     OW22177   3.295   4.231   1.683
 7093SOL    HW122178   3.303   4.187   1.594
 7093SOL    HW222179   3.354   4.184   1.749
 7094SOL     OW22180   0.990   0.463   5.721
 7094SOL    HW122181   0.939   0.499   5.642
 7094SOL    HW222182   1.055   0.394   5.690
 7095SOL     OW22183   3.179   4.654   5.843
 7095SOL    HW122184   3.099   4.639   5.901
 7095SOL    HW222185   3.149   4.686   5.753
 7096SOL     OW22186   6.382   0.293   1.718
 7096SOL    HW122187   6.364   0.287   1.620
 7096SOL    HW222188   6.476   0.324   1.733
 7097SOL     OW22189   5.415   0.895   1.440
 7097SOL    HW122190   5.421   0.865   1.535
 7097SOL    HW222191   5.319   0.915   1.418
 7098SOL     OW22192   1.457   5.730   5.703
 7098SOL    HW122193   1.523   5.684   5.644
 7098SOL    HW222194   1.489   5.823   5.722
 7099SOL     OW22195   3.475   2.111   4.665
 7099SOL    HW122196   3.458   2.169   4.585
 7099SOL    HW222197   3.558   2.056   4.648
 7100SOL     OW22198   6.186   2.828   0.387
 7100SOL    HW122199   6.255   2.901   0.390
 7100SOL    HW222200   6.208   2.759   0.455
 7101SOL     OW22201   2.109   0.905   5.182
 7101SOL    HW122202   2.136   0.835   5.116
 7101SOL    HW222203   2.183   0.972   5.192
 7102SOL     OW22204   5.583   0.045   0.645
 7102SOL    HW122205   5.525   0.076   0.569
 7102SOL    HW222206   5.535   0.062   0.732
 7103SOL     OW22207   5.462   5.336   1.594
 7103SOL    HW122208   5.467   5.430   1.628
 7103SOL    HW222209   5.504   5.275   1.660
 7104SOL     OW22210   6.136   3.687   2.711
 7104SOL    HW122211   6.234   3.700   2.693
 7104SOL    HW222212   6.125   3.647   2.802
 7105SOL     OW22213   3.448   3.227   4.876
 7105SOL    HW122214   3.432   3.129   4.892
 7105SOL    HW222215   3.367   3.267   4.833
 7106SOL     OW22216   3.458   2.900   1.371
 7106SOL    HW122217   3.401   2.979   1.350
 7106SOL    HW222218   3.469   2.891   1.470
 7107SOL     OW22219   4.248   0.637   0.569
 7107SOL    HW122220   4.154   0.614   0.541
 7107SOL    HW222221   4.312   0.595   0.505
 7108SOL     OW22222   3.047   5.713   2.797
 7108SOL    HW122223   3.116   5.642   2.782
 7108SOL    HW222224   2.963   5.688   2.749
 7109SOL     OW22225   1.859   1.104   6.842
 7109SOL    HW122226   1.897   1.169   6.776
 7109SOL    HW222227   1.853   1.014   6.800
 7110SOL     OW22228   3.042   5.958   4.130
 7110SOL    HW122229   2.953   5.961   4.086
 7110SOL    HW222230   3.032   5.924   4.224
 7111SOL     OW22231   1.828   2.033   4.171
 7111SOL    HW122232   1.764   2.046   4.095
 7111SOL    HW222233   1.918   2.006   4.135
 7112SOL     OW22234   1.725   4.994   4.652
 7112SOL    HW122235   1.661   4.934   4.604
 7112SOL    HW222236   1.697   5.089   4.639
 7113SOL     OW22237   3.360   4.079   5.007
 7113SOL    HW122238   3.318   4.047   5.091
 7113SOL    HW222239   3.443   4.131   5.029
 7114SOL     OW22240   4.588   5.078   1.253
 7114SOL    HW122241   4.491   5.061   1.235
 7114SOL    HW222242   4.602   5.175   1.276
 7115SOL     OW22243   5.406   3.443   6.733
 7115SOL    HW122244   5.481   3.396   6.686
 7115SOL    HW222245   5.392   3.534   6.692
 7116SOL     OW22246   5.286   4.274   3.096
 7116SOL    HW122247   5.299   4.339   3.022
 7116SOL    HW222248   5.374   4.248   3.135
 7117SOL     OW22249   0.169   6.855   4.713
 7117SOL    HW122250   0.196   6.914   4.637
 7117SOL    HW222251   0.237   6.782   4.723
 7118SOL     OW22252   3.824   4.255   5.641
 7118SOL    HW122253   3.810   4.236   5.738
 7118SOL    HW222254   3.758   4.204   5.587
 7119SOL     OW22255   5.428   0.767   5.148
 7119SOL    HW122256   5.366   0.712   5.093
 7119SOL    HW222257   5.460   0.714   5.227
 7120SOL     OW22258   3.805   1.778   1.464
 7120SOL    HW122259   3.715   1.820   1.474
 7120SOL    HW222260   3.869   1.821   1.528
 7121SOL     OW22261   0.398   6.921   2.767
 7121SOL    HW122262   0.457   6.968   2.833
 7121SOL    HW222263   0.364   6.988   2.700
 7122SOL     OW22264   1.481   0.657   5.626
 7122SOL    HW122265   1.470   0.656   5.726
 7122SOL    HW222266   1.487   0.751   5.594
 7123SOL     OW22267   0.668   5.668   3.801
 7123SOL    HW122268   0.586   5.635   3.753
 7123SOL    HW222269   0.648   5.675   3.899
 7124SOL     OW22270   0.841   2.593   1.743
 7124SOL    HW122271   0.859   2.645   1.659
 7124SOL    HW222272   0.913   2.526   1.758
 7125SOL     OW22273   1.278   1.265   1.116
 7125SOL    HW122274   1.376   1.250   1.100
 7125SOL    HW222275   1.244   1.335   1.052
 7126SOL     OW22276   4.346   6.127   0.562
 7126SOL    HW122277   4.408   6.049   0.574
 7126SOL    HW222278   4.393   6.211   0.591
 7127SOL     OW22279   2.661   6.209   6.284
 7127SOL    HW122280   2.572   6.218   6.329
 7127SOL    HW222281   2.650   6.158   6.199
 7128SOL     OW22282   3.790   4.012   6.595
 7128SOL    HW122283   3.700   4.020   6.638
 7128SOL    HW222284   3.796   3.925   6.547
 7129SOL     OW22285   1.737   1.393   1.147
 7129SOL    HW122286   1.700   1.429   1.232
 7129SOL    HW222287   1.797   1.315   1.167
 7130SOL     OW22288   3.776   6.685   4.300
 7130SOL    HW122289   3.860   6.636   4.323
 7130SOL    HW222290   3.699   6.621   4.303
 7131SOL     OW22291   3.275   0.914   1.609
 7131SOL    HW122292   3.208   0.988   1.618
 7131SOL    HW222293   3.296   0.900   1.513
 7132SOL     OW22294   4.649   4.126   0.166
 7132SOL    HW122295   4.673   4.208   0.217
 7132SOL    HW222296   4.725   4.062   0.168
 7133SOL     OW22297   3.947   4.958   4.911
 7133SOL    HW122298   3.851   4.984   4.909
 7133SOL    HW222299   3.984   4.961   4.818
 7134SOL     OW22300   5.013   6.502   2.421
 7134SOL    HW122301   4.974   6.586   2.458
 7134SOL    HW222302   5.045   6.444   2.496
 7135SOL     OW22303   2.244   2.827   2.801
 7135SOL    HW122304   2.156   2.807   2.843
 7135SOL    HW222305   2.267   2.923   2.817
 7136SOL     OW22306   3.190   2.235   0.921
 7136SOL    HW122307   3.258   2.283   0.865
 7136SOL    HW222308   3.219   2.238   1.017
 7137SOL     OW22309   2.803   1.875   0.292
 7137SOL    HW122310   2.704   1.884   0.298
 7137SOL    HW222311   2.832   1.891   0.197
 7138SOL     OW22312   2.023   1.533   1.095
 7138SOL    HW122313   1.926   1.507   1.093
 7138SOL    HW222314   2.036   1.615   1.040
 7139SOL     OW22315   5.513   4.746   2.298
 7139SOL    HW122316   5.533   4.791   2.211
 7139SOL    HW222317   5.465   4.810   2.358
 7140SOL     OW22318   6.274   4.159   0.860
 7140SOL    HW122319   6.352   4.221   0.866
 7140SOL    HW222320   6.306   4.064   0.869
 7141SOL     OW22321   4.408   6.966   1.068
 7141SOL    HW122322   4.355   6.938   1.148
 7141SOL    HW222323   4.356   0.004   1.015
 7142SOL     OW22324   3.732   0.098   4.060
 7142SOL    HW122325   3.655   0.087   4.123
 7142SOL    HW222326   3.764   0.008   4.030
 7143SOL     OW22327   1.930   3.892   0.207
 7143SOL    HW122328   1.909   3.980   0.249
 7143SOL    HW222329   1.847   3.837   0.202
 7144SOL     OW22330   0.984   0.882   3.104
 7144SOL    HW122331   1.039   0.877   3.020
 7144SOL    HW222332   1.029   0.942   3.170
 7145SOL     OW22333   4.399   0.962   6.636
 7145SOL    HW122334   4.498   0.958   6.619
 7145SOL    HW222335   4.376   1.051   6.674
 7146SOL     OW22336   1.641   1.273   6.152
 7146SOL    HW122337   1.555   1.310   6.189
 7146SOL    HW222338   1.696   1.237   6.227
 7147SOL     OW22339   6.573   6.018   3.197
 7147SOL    HW122340   6.634   6.095   3.217
 7147SOL    HW222341   6.612   5.963   3.124
 7148SOL     OW22342   5.931   6.027   1.606
 7148SOL    HW122343   6.006   5.962   1.618
 7148SOL    HW222344   5.861   6.009   1.675
 7149SOL     OW22345   0.754   5.336   3.898
 7149SOL    HW122346   0.803   5.332   3.810
 7149SOL    HW222347   0.693   5.415   3.899
 7150SOL     OW22348   3.412   3.116   0.364
 7150SOL    HW122349   3.396   3.090   0.460
 7150SOL    HW222350   3.368   3.049   0.304
 7151SOL     OW22351   3.122   6.620   1.134
 7151SOL    HW122352   3.123   6.523   1.109
 7151SOL    HW222353   3.200   6.667   1.092
 7152SOL     OW22354   6.293   0.493   6.742
 7152SOL    HW122355   6.223   0.522   6.677
 7152SOL    HW222356   6.329   0.404   6.714
 7153SOL     OW22357   3.673   5.296   1.823
 7153SOL    HW122358   3.694   5.215   1.878
 7153SOL    HW222359   3.757   5.348   1.807
 7154SOL     OW22360   4.369   6.784   3.098
 7154SOL    HW122361   4.388   6.881   3.111
 7154SOL    HW222362   4.430   6.747   3.028
 7155SOL     OW22363   3.344   3.149   1.326
 7155SOL    HW122364   3.360   3.248   1.334
 7155SOL    HW222365   3.305   3.129   1.236
 7156SOL     OW22366   5.008   3.652   2.684
 7156SOL    HW122367   4.949   3.731   2.702
 7156SOL    HW222368   4.981   3.611   2.597
 7157SOL     OW22369   6.718   4.455   1.766
 7157SOL    HW122370   6.787   4.386   1.791
 7157SOL    HW222371   6.726   4.474   1.668
 7158SOL     OW22372   0.246   6.680   2.751
 7158SOL    HW122373   0.303   6.762   2.738
 7158SOL    HW222374   0.162   6.705   2.800
 7159SOL     OW22375   1.129   4.521   4.190
 7159SOL    HW122376   1.145   4.432   4.148
 7159SOL    HW222377   1.216   4.558   4.222
 7160SOL     OW22378   6.095   6.237   2.451
 7160SOL    HW122379   6.060   6.150   2.488
 7160SOL    HW222380   6.024   6.281   2.397
 7161SOL     OW22381   3.262   3.985   2.978
 7161SOL    HW122382   3.196   3.997   3.051
 7161SOL    HW222383   3.313   3.899   2.992
 7162SOL     OW22384   0.683   4.877   6.580
 7162SOL    HW122385   0.696   4.837   6.671
 7162SOL    HW222386   0.764   4.859   6.524
 7163SOL     OW22387   2.675   0.548   2.583
 7163SOL    HW122388   2.619   0.565   2.502
 7163SOL    HW222389   2.765   0.514   2.555
 7164SOL     OW22390   1.639   0.420   5.115
 7164SOL    HW122391   1.542   0.439   5.097
 7164SOL    HW222392   1.649   0.326   5.146
 7165SOL     OW22393   5.809   5.969   1.858
 7165SOL    HW122394   5.813   5.996   1.954
 7165SOL    HW222395   5.828   5.871   1.850
 7166SOL     OW22396   5.103   1.158   6.704
 7166SOL    HW122397   5.145   1.125   6.620
 7166SOL    HW222398   5.132   1.252   6.722
 7167SOL     OW22399   4.889   2.987   5.401
 7167SOL    HW122400   4.844   2.914   5.349
 7167SOL    HW222401   4.978   3.007   5.361
 7168SOL     OW22402   2.994   1.903   2.886
 7168SOL    HW122403   3.065   1.970   2.864
 7168SOL    HW222404   2.987   1.893   2.985
 7169SOL     OW22405   0.442   4.034   4.353
 7169SOL    HW122406   0.439   4.104   4.425
 7169SOL    HW222407   0.357   4.039   4.299
 7170SOL     OW22408   3.913   6.303   2.449
 7170SOL    HW122409   3.877   6.213   2.476
 7170SOL    HW222410   3.945   6.352   2.530
 7171SOL     OW22411   6.342   3.905   0.915
 7171SOL    HW122412   6.407   3.848   0.965
 7171SOL    HW222413   6.284   3.847   0.858
 7172SOL     OW22414   1.896   1.623   5.358
 7172SOL    HW122415   1.931   1.703   5.310
 7172SOL    HW222416   1.946   1.611   5.444
 7173SOL     OW22417   6.395   5.330   6.820
 7173SOL    HW122418   6.403   5.230   6.823
 7173SOL    HW222419   6.411   5.361   6.726
 7174SOL     OW22420   6.958   4.957   0.671
 7174SOL    HW122421   7.021   5.034   0.672
 7174SOL    HW222422   7.008   4.873   0.651
 7175SOL     OW22423   0.036   3.525   5.321
 7175SOL    HW122424   0.114   3.542   5.261
 7175SOL    HW222425   0.009   3.429   5.316
 7176SOL     OW22426   6.850   1.373   4.751
 7176SOL    HW122427   6.792   1.372   4.832
 7176SOL    HW222428   6.794   1.377   4.668
 7177SOL     OW22429   1.442   5.121   5.395
 7177SOL    HW122430   1.381   5.047   5.421
 7177SOL    HW222431   1.398   5.178   5.325
 7178SOL     OW22432   0.587   1.296   6.068
 7178SOL    HW122433   0.528   1.220   6.094
 7178SOL    HW222434   0.570   1.320   5.972
 7179SOL     OW22435   1.838   3.717   4.457
 7179SOL    HW122436   1.829   3.659   4.376
 7179SOL    HW222437   1.930   3.706   4.496
 7180SOL     OW22438   2.356   3.670   0.821
 7180SOL    HW122439   2.436   3.638   0.771
 7180SOL    HW222440   2.287   3.703   0.756
 7181SOL     OW22441   2.212   1.349   6.617
 7181SOL    HW122442   2.225   1.320   6.522
 7181SOL    HW222443   2.284   1.310   6.674
 7182SOL     OW22444   0.775   3.761   3.503
 7182SOL    HW122445   0.756   3.847   3.456
 7182SOL    HW222446   0.826   3.700   3.442
 7183SOL     OW22447   1.858   6.542   2.309
 7183SOL    HW122448   1.947   6.545   2.264
 7183SOL    HW222449   1.789   6.514   2.242
 7184SOL     OW22450   6.532   0.839   3.854
 7184SOL    HW122451   6.518   0.747   3.891
 7184SOL    HW222452   6.579   0.895   3.921
 7185SOL     OW22453   5.342   0.860   5.509
 7185SOL    HW122454   5.409   0.895   5.573
 7185SOL    HW222455   5.250   0.886   5.538
 7186SOL     OW22456   0.075   1.261   1.273
 7186SOL    HW122457   0.169   1.281   1.301
 7186SOL    HW222458   0.056   1.164   1.288
 7187SOL     OW22459   2.777   3.667   5.438
 7187SOL    HW122460   2.706   3.625   5.495
 7187SOL    HW222461   2.741   3.748   5.393
 7188SOL     OW22462   4.798   5.447   0.152
 7188SOL    HW122463   4.719   5.457   0.090
 7188SOL    HW222464   4.769   5.398   0.235
 7189SOL     OW22465   6.355   3.215   5.690
 7189SOL    HW122466   6.306   3.136   5.653
 7189SOL    HW222467   6.370   3.282   5.618
 7190SOL     OW22468   6.136   5.928   1.261
 7190SOL    HW122469   6.115   5.998   1.329
 7190SOL    HW222470   6.120   5.963   1.169
 7191SOL     OW22471   0.312   4.390   3.181
 7191SOL    HW122472   0.297   4.341   3.267
 7191SOL    HW222473   0.406   4.425   3.178
 7192SOL     OW22474   1.499   3.965   6.235
 7192SOL    HW122475   1.435   4.000   6.303
 7192SOL    HW222476   1.449   3.924   6.159
 7193SOL     OW22477   2.578   1.715   2.763
 7193SOL    HW122478   2.606   1.810   2.747
 7193SOL    HW222479   2.660   1.658   2.769
 7194SOL     OW22480   1.857   2.923   0.371
 7194SOL    HW122481   1.892   2.944   0.280
 7194SOL    HW222482   1.773   2.868   0.363
 7195SOL     OW22483   6.396   4.710   6.665
 7195SOL    HW122484   6.423   4.751   6.578
 7195SOL    HW222485   6.453   4.629   6.683
 7196SOL     OW22486   2.924   4.011   1.764
 7196SOL    HW122487   2.986   4.087   1.787
 7196SOL    HW222488   2.971   3.948   1.702
 7197SOL     OW22489   0.649   3.547   5.031
 7197SOL    HW122490   0.654   3.562   5.129
 7197SOL    HW222491   0.576   3.482   5.010
 7198SOL     OW22492   0.718   0.892   0.034
 7198SOL    HW122493   0.714   0.892   0.134
 7198SOL    HW222494   0.725   0.798   0.001
 7199SOL     OW22495   1.380   0.057   2.987
 7199SOL    HW122496   1.438   0.138   2.996
 7199SOL    HW222497   1.307   0.062   3.055
 7200SOL     OW22498   1.761   3.213   0.018
 7200SOL    HW122499   1.830   3.161   0.068
 7200SOL    HW222500   1.724   3.157   6.973
 7201SOL     OW22501   0.404   5.814   4.242
 7201SOL    HW122502   0.376   5.894   4.295
 7201SOL    HW222503   0.452   5.750   4.301
 7202SOL     OW22504   5.197   6.333   6.499
 7202SOL    HW122505   5.282   6.384   6.485
 7202SOL    HW222506   5.199   6.249   6.446
 7203SOL     OW22507   0.173   1.115   1.780
 7203SOL    HW122508   0.083   1.149   1.807
 7203SOL    HW222509   0.238   1.191   1.781
 7204SOL     OW22510   6.805   1.238   6.465
 7204SOL    HW122511   6.738   1.164   6.465
 7204SOL    HW222512   6.765   1.319   6.421
 7205SOL     OW22513   1.716   3.731   4.972
 7205SOL    HW122514   1.720   3.644   4.923
 7205SOL    HW222515   1.774   3.798   4.926
 7206SOL     OW22516   1.307   1.446   1.499
 7206SOL    HW122517   1.232   1.393   1.539
 7206SOL    HW222518   1.373   1.383   1.458
 7207SOL     OW22519   2.752   0.894   4.784
 7207SOL    HW122520   2.745   0.796   4.768
 7207SOL    HW222521   2.660   0.934   4.787
 7208SOL     OW22522   4.685   0.582   3.768
 7208SOL    HW122523   4.680   0.675   3.733
 7208SOL    HW222524   4.697   0.584   3.867
 7209SOL     OW22525   2.246   2.835   1.858
 7209SOL    HW122526   2.297   2.890   1.793
 7209SOL    HW222527   2.305   2.764   1.896
 7210SOL     OW22528   3.673   2.156   4.253
 7210SOL    HW122529   3.716   2.152   4.163
 7210SOL    HW222530   3.585   2.204   4.246
 7211SOL     OW22531   2.846   6.166   5.113
 7211SOL    HW122532   2.929   6.109   5.115
 7211SOL    HW222533   2.808   6.172   5.205
 7212SOL     OW22534   0.634   6.242   5.960
 7212SOL    HW122535   0.704   6.293   6.010
 7212SOL    HW222536   0.635   6.270   5.864
 7213SOL     OW22537   3.532   6.211   6.037
 7213SOL    HW122538   3.606   6.237   5.975
 7213SOL    HW222539   3.505   6.117   6.018
 7214SOL     OW22540   6.627   1.241   5.372
 7214SOL    HW122541   6.630   1.143   5.353
 7214SOL    HW222542   6.656   1.291   5.290
 7215SOL     OW22543   5.351   2.737   4.521
 7215SOL    HW122544   5.307   2.731   4.432
 7215SOL    HW222545   5.415   2.814   4.520
 7216SOL     OW22546   3.158   6.476   2.605
 7216SOL    HW122547   3.183   6.498   2.699
 7216SOL    HW222548   3.143   6.377   2.597
 7217SOL     OW22549   1.796   3.161   3.190
 7217SOL    HW122550   1.858   3.196   3.120
 7217SOL    HW222551   1.726   3.104   3.148
 7218SOL     OW22552   6.658   2.702   4.389
 7218SOL    HW122553   6.710   2.623   4.357
 7218SOL    HW222554   6.721   2.771   4.425
 7219SOL     OW22555   2.773   0.240   2.041
 7219SOL    HW122556   2.734   0.158   1.999
 7219SOL    HW222557   2.779   0.313   1.972
 7220SOL     OW22558   6.405   4.102   4.125
 7220SOL    HW122559   6.447   4.183   4.084
 7220SOL    HW222560   6.324   4.076   4.072
 7221SOL     OW22561   3.867   6.066   4.767
 7221SOL    HW122562   3.893   6.143   4.826
 7221SOL    HW222563   3.770   6.074   4.743
 7222SOL     OW22564   5.876   6.261   3.636
 7222SOL    HW122565   5.947   6.332   3.643
 7222SOL    HW222566   5.794   6.291   3.683
 7223SOL     OW22567   2.876   0.818   1.212
 7223SOL    HW122568   2.780   0.807   1.237
 7223SOL    HW222569   2.918   0.889   1.268
 7224SOL     OW22570   4.852   3.002   5.084
 7224SOL    HW122571   4.893   3.081   5.039
 7224SOL    HW222572   4.906   2.921   5.064
 7225SOL     OW22573   1.891   6.502   0.887
 7225SOL    HW122574   1.865   6.594   0.858
 7225SOL    HW222575   1.821   6.436   0.858
 7226SOL     OW22576   5.727   6.854   1.026
 7226SOL    HW122577   5.641   6.884   1.066
 7226SOL    HW222578   5.765   6.780   1.081
 7227SOL     OW22579   2.609   1.905   1.956
 7227SOL    HW122580   2.513   1.909   1.929
 7227SOL    HW222581   2.648   1.997   1.951
 7228SOL     OW22582   1.288   1.406   2.848
 7228SOL    HW122583   1.326   1.323   2.807
 7228SOL    HW222584   1.193   1.417   2.818
 7229SOL     OW22585   0.898   6.909   4.518
 7229SOL    HW122586   0.992   6.913   4.553
 7229SOL    HW222587   0.853   6.828   4.555
 7230SOL     OW22588   3.131   5.832   3.550
 7230SOL    HW122589   3.200   5.893   3.589
 7230SOL    HW222590   3.170   5.740   3.542
 7231SOL     OW22591   4.425   0.614   6.626
 7231SOL    HW122592   4.385   0.528   6.657
 7231SOL    HW222593   4.371   0.691   6.660
 7232SOL     OW22594   4.904   5.992   3.039
 7232SOL    HW122595   4.805   6.006   3.029
 7232SOL    HW222596   4.950   6.015   2.953
 7233SOL     OW22597   1.219   0.758   4.948
 7233SOL    HW122598   1.161   0.732   5.025
 7233SOL    HW222599   1.300   0.806   4.982
 7234SOL     OW22600   5.700   2.863   3.240
 7234SOL    HW122601   5.690   2.963   3.236
 7234SOL    HW222602   5.627   2.821   3.186
 7235SOL     OW22603   6.309   3.923   2.034
 7235SOL    HW122604   6.363   3.903   2.116
 7235SOL    HW222605   6.347   3.873   1.956
 7236SOL     OW22606   2.754   2.325   2.670
 7236SOL    HW122607   2.743   2.234   2.710
 7236SOL    HW222608   2.851   2.348   2.668
 7237SOL     OW22609   4.277   0.016   6.299
 7237SOL    HW122610   4.203   6.979   6.285
 7237SOL    HW222611   4.363   6.995   6.315
 7238SOL     OW22612   4.454   2.288   5.988
 7238SOL    HW122613   4.446   2.192   6.013
 7238SOL    HW222614   4.536   2.327   6.029
 7239SOL     OW22615   0.847   2.795   1.933
 7239SOL    HW122616   0.836   2.715   1.874
 7239SOL    HW222617   0.911   2.774   2.007
 7240SOL     OW22618   0.177   1.181   6.407
 7240SOL    HW122619   0.102   1.235   6.443
 7240SOL    HW222620   0.223   1.132   6.481
 7241SOL     OW22621   2.649   0.278   0.808
 7241SOL    HW122622   2.572   0.265   0.746
 7241SOL    HW222623   2.733   0.290   0.756
 7242SOL     OW22624   6.907   5.746   6.351
 7242SOL    HW122625   6.877   5.762   6.257
 7242SOL    HW222626   6.900   5.648   6.371
 7243SOL     OW22627   6.976   4.416   5.979
 7243SOL    HW122628   6.956   4.436   5.883
 7243SOL    HW222629   6.905   4.355   6.015
 7244SOL     OW22630   0.283   0.408   1.182
 7244SOL    HW122631   0.232   0.487   1.217
 7244SOL    HW222632   0.363   0.439   1.131
 7245SOL     OW22633   1.191   3.260   5.486
 7245SOL    HW122634   1.152   3.268   5.394
 7245SOL    HW222635   1.165   3.172   5.526
 7246SOL     OW22636   1.881   7.012   3.450
 7246SOL    HW122637   1.800   0.026   3.489
 7246SOL    HW222638   1.865   6.914   3.439
 7247SOL     OW22639   2.697   1.438   5.027
 7247SOL    HW122640   2.719   1.523   5.075
 7247SOL    HW222641   2.781   1.387   5.009
 7248SOL     OW22642   3.110   0.897   2.519
 7248SOL    HW122643   3.177   0.942   2.579
 7248SOL    HW222644   3.135   0.914   2.424
 7249SOL     OW22645   5.059   5.121   1.605
 7249SOL    HW122646   5.074   5.140   1.509
 7249SOL    HW222647   5.147   5.121   1.654
 7250SOL     OW22648   5.469   5.576   5.842
 7250SOL    HW122649   5.523   5.632   5.905
 7250SOL    HW222650   5.507   5.583   5.750
 7251SOL     OW22651   1.082   6.757   4.969
 7251SOL    HW122652   0.986   6.782   4.976
 7251SOL    HW222653   1.134   6.804   5.041
 7252SOL     OW22654   3.295   3.615   1.809
 7252SOL    HW122655   3.315   3.557   1.731
 7252SOL    HW222656   3.196   3.616   1.826
 7253SOL     OW22657   1.834   5.587   6.748
 7253SOL    HW122658   1.849   5.520   6.821
 7253SOL    HW222659   1.764   5.652   6.775
 7254SOL     OW22660   5.738   5.369   4.732
 7254SOL    HW122661   5.818   5.419   4.764
 7254SOL    HW222662   5.693   5.325   4.810
 7255SOL     OW22663   4.582   3.970   6.921
 7255SOL    HW122664   4.602   3.951   6.825
 7255SOL    HW222665   4.544   3.888   6.963
 7256SOL     OW22666   3.064   6.024   5.135
 7256SOL    HW122667   3.094   6.021   5.230
 7256SOL    HW222668   3.056   5.931   5.100
 7257SOL     OW22669   6.900   1.933   3.758
 7257SOL    HW122670   6.813   1.958   3.801
 7257SOL    HW222671   6.888   1.931   3.659
 7258SOL     OW22672   4.847   2.457   2.964
 7258SOL    HW122673   4.829   2.524   3.037
 7258SOL    HW222674   4.801   2.371   2.986
 7259SOL     OW22675   1.707   3.578   1.980
 7259SOL    HW122676   1.770   3.654   1.968
 7259SOL    HW222677   1.616   3.613   2.000
 7260SOL     OW22678   5.473   1.659   1.913
 7260SOL    HW122679   5.570   1.636   1.922
 7260SOL    HW222680   5.422   1.577   1.889
 7261SOL     OW22681   1.367   4.459   2.014
 7261SOL    HW122682   1.371   4.448   2.113
 7261SOL    HW222683   1.352   4.370   1.971
 7262SOL     OW22684   5.758   2.363   6.626
 7262SOL    HW122685   5.815   2.375   6.544
 7262SOL    HW222686   5.782   2.433   6.693
 7263SOL     OW22687   0.703   7.005   6.926
 7263SOL    HW122688   0.778   6.951   6.888
 7263SOL    HW222689   0.670   0.041   6.857
 7264SOL     OW22690   5.173   1.394   0.660
 7264SOL    HW122691   5.237   1.471   0.661
 7264SOL    HW222692   5.212   1.319   0.606
 7265SOL     OW22693   5.186   4.954   6.400
 7265SOL    HW122694   5.131   4.876   6.429
 7265SOL    HW222695   5.138   5.039   6.421
 7266SOL     OW22696   5.485   0.383   2.959
 7266SOL    HW122697   5.509   0.408   3.052
 7266SOL    HW222698   5.518   0.453   2.896
 7267SOL     OW22699   6.377   6.126   4.914
 7267SOL    HW122700   6.470   6.091   4.904
 7267SOL    HW222701   6.312   6.053   4.893
 7268SOL     OW22702   6.527   5.613   4.079
 7268SOL    HW122703   6.533   5.684   4.009
 7268SOL    HW222704   6.572   5.530   4.047
 7269SOL     OW22705   1.606   6.091   5.920
 7269SOL    HW122706   1.526   6.031   5.913
 7269SOL    HW222707   1.579   6.177   5.963
 7270SOL     OW22708   0.907   2.702   5.091
 7270SOL    HW122709   1.007   2.707   5.085
 7270SOL    HW222710   0.867   2.726   5.002
 7271SOL     OW22711   1.601   5.050   3.877
 7271SOL    HW122712   1.620   5.012   3.968
 7271SOL    HW222713   1.532   5.122   3.886
 7272SOL     OW22714   6.226   5.470   2.507
 7272SOL    HW122715   6.326   5.468   2.502
 7272SOL    HW222716   6.198   5.540   2.573
 7273SOL     OW22717   6.541   4.210   0.820
 7273SOL    HW122718   6.573   4.292   0.867
 7273SOL    HW222719   6.617   4.145   0.812
 7274SOL     OW22720   0.559   5.295   6.504
 7274SOL    HW122721   0.501   5.242   6.566
 7274SOL    HW222722   0.505   5.325   6.426
 7275SOL     OW22723   0.084   5.810   2.865
 7275SOL    HW122724   0.013   5.876   2.839
 7275SOL    HW222725   0.107   5.753   2.787
 7276SOL     OW22726   4.964   0.653   3.304
 7276SOL    HW122727   4.921   0.669   3.393
 7276SOL    HW222728   5.037   0.585   3.314
 7277SOL     OW22729   5.165   0.541   4.347
 7277SOL    HW122730   5.260   0.535   4.377
 7277SOL    HW222731   5.149   0.473   4.275
 7278SOL     OW22732   4.031   2.822   1.194
 7278SOL    HW122733   4.117   2.771   1.204
 7278SOL    HW222734   3.954   2.759   1.206
 7279SOL     OW22735   3.960   4.953   6.612
 7279SOL    HW122736   4.006   4.875   6.570
 7279SOL    HW222737   3.873   4.970   6.566
 7280SOL     OW22738   0.284   1.791   3.734
 7280SOL    HW122739   0.189   1.762   3.747
 7280SOL    HW222740   0.292   1.841   3.648
 7281SOL     OW22741   2.549   1.782   6.681
 7281SOL    HW122742   2.494   1.807   6.761
 7281SOL    HW222743   2.518   1.834   6.602
 7282SOL     OW22744   5.559   5.162   3.171
 7282SOL    HW122745   5.497   5.178   3.095
 7282SOL    HW222746   5.572   5.063   3.184
 7283SOL     OW22747   4.535   1.354   2.579
 7283SOL    HW122748   4.498   1.446   2.566
 7283SOL    HW222749   4.518   1.324   2.673
 7284SOL     OW22750   0.432   2.626   6.278
 7284SOL    HW122751   0.527   2.603   6.298
 7284SOL    HW222752   0.386   2.651   6.364
 7285SOL     OW22753   5.205   3.333   2.338
 7285SOL    HW122754   5.210   3.427   2.371
 7285SOL    HW222755   5.189   3.334   2.239
 7286SOL     OW22756   2.634   1.080   0.663
 7286SOL    HW122757   2.612   1.143   0.589
 7286SOL    HW222758   2.699   1.012   0.631
 7287SOL     OW22759   0.308   2.593   6.021
 7287SOL    HW122760   0.263   2.511   6.055
 7287SOL    HW222761   0.353   2.640   6.097
 7288SOL     OW22762   2.706   1.040   0.911
 7288SOL    HW122763   2.646   0.970   0.950
 7288SOL    HW222764   2.685   1.051   0.814
 7289SOL     OW22765   4.766   2.972   4.687
 7289SOL    HW122766   4.844   2.910   4.688
 7289SOL    HW222767   4.797   3.065   4.673
 7290SOL     OW22768   3.665   0.080   5.193
 7290SOL    HW122769   3.633   0.174   5.190
 7290SOL    HW222770   3.764   0.078   5.202
 7291SOL     OW22771   2.320   6.550   0.601
 7291SOL    HW122772   2.222   6.551   0.582
 7291SOL    HW222773   2.334   6.532   0.698
 7292SOL     OW22774   3.517   1.129   3.619
 7292SOL    HW122775   3.491   1.217   3.581
 7292SOL    HW222776   3.468   1.114   3.705
 7293SOL     OW22777   1.356   1.874   4.773
 7293SOL    HW122778   1.321   1.965   4.797
 7293SOL    HW222779   1.312   1.805   4.830
 7294SOL     OW22780   2.567   4.926   6.719
 7294SOL    HW122781   2.665   4.910   6.725
 7294SOL    HW222782   2.534   4.895   6.630
 7295SOL     OW22783   0.258   3.018   0.912
 7295SOL    HW122784   0.172   3.007   0.862
 7295SOL    HW222785   0.284   2.931   0.954
 7296SOL     OW22786   3.329   5.575   2.070
 7296SOL    HW122787   3.376   5.614   2.149
 7296SOL    HW222788   3.243   5.623   2.055
 7297SOL     OW22789   3.874   0.185   1.774
 7297SOL    HW122790   3.851   0.281   1.787
 7297SOL    HW222791   3.807   0.128   1.822
 7298SOL     OW22792   5.403   4.738   5.350
 7298SOL    HW122793   5.401   4.822   5.295
 7298SOL    HW222794   5.334   4.744   5.423
 7299SOL     OW22795   1.061   2.104   0.170
 7299SOL    HW122796   1.058   2.204   0.164
 7299SOL    HW222797   1.021   2.065   0.088
 7300SOL     OW22798   0.487   6.138   3.244
 7300SOL    HW122799   0.462   6.127   3.340
 7300SOL    HW222800   0.411   6.179   3.194
 7301SOL     OW22801   5.242   1.077   4.856
 7301SOL    HW122802   5.308   1.135   4.904
 7301SOL    HW222803   5.289   0.997   4.819
 7302SOL     OW22804   0.858   2.106   5.099
 7302SOL    HW122805   0.916   2.025   5.093
 7302SOL    HW222806   0.866   2.159   5.014
 7303SOL     OW22807   3.786   0.499   0.394
 7303SOL    HW122808   3.715   0.547   0.342
 7303SOL    HW222809   3.826   0.562   0.462
 7304SOL     OW22810   3.811   5.280   1.385
 7304SOL    HW122811   3.848   5.260   1.294
 7304SOL    HW222812   3.834   5.374   1.411
 7305SOL     OW22813   4.653   1.264   0.154
 7305SOL    HW122814   4.723   1.324   0.115
 7305SOL    HW222815   4.698   1.187   0.200
 7306SOL     OW22816   4.954   1.542   0.740
 7306SOL    HW122817   4.914   1.613   0.681
 7306SOL    HW222818   4.990   1.468   0.683
 7307SOL     OW22819   2.377   6.767   2.524
 7307SOL    HW122820   2.422   6.775   2.613
 7307SOL    HW222821   2.442   6.791   2.452
 7308SOL     OW22822   0.052   3.071   5.622
 7308SOL    HW122823   0.094   3.050   5.534
 7308SOL    HW222824   6.994   3.119   5.607
 7309SOL     OW22825   4.486   5.772   1.744
 7309SOL    HW122826   4.531   5.849   1.788
 7309SOL    HW222827   4.418   5.733   1.806
 7310SOL     OW22828   2.658   4.194   1.131
 7310SOL    HW122829   2.684   4.290   1.128
 7310SOL    HW222830   2.650   4.164   1.227
 7311SOL     OW22831   2.516   1.746   1.427
 7311SOL    HW122832   2.435   1.803   1.411
 7311SOL    HW222833   2.499   1.653   1.395
 7312SOL     OW22834   0.360   3.714   4.384
 7312SOL    HW122835   0.408   3.735   4.299
 7312SOL    HW222836   0.412   3.647   4.436
 7313SOL     OW22837   2.426   1.236   6.780
 7313SOL    HW122838   2.524   1.253   6.771
 7313SOL    HW222839   2.408   1.138   6.772
 7314SOL     OW22840   7.025   5.678   5.892
 7314SOL    HW122841   7.024   5.585   5.856
 7314SOL    HW222842   7.001   5.742   5.819
 7315SOL     OW22843   6.503   7.023   2.441
 7315SOL    HW122844   6.488   0.034   2.351
 7315SOL    HW222845   6.432   6.955   2.459
 7316SOL     OW22846   2.624   4.103   6.483
 7316SOL    HW122847   2.710   4.141   6.450
 7316SOL    HW222848   2.598   4.026   6.424
 7317SOL     OW22849   5.026   1.345   3.031
 7317SOL    HW122850   5.020   1.247   3.047
 7317SOL    HW222851   5.108   1.382   3.075
 7318SOL     OW22852   2.263   0.810   1.424
 7318SOL    HW122853   2.196   0.801   1.350
 7318SOL    HW222854   2.221   0.859   1.501
 7319SOL     OW22855   0.297   3.882   6.464
 7319SOL    HW122856   0.263   3.914   6.553
 7319SOL    HW222857   0.238   3.810   6.430
 7320SOL     OW22858   6.742   3.544   2.462
 7320SOL    HW122859   6.718   3.462   2.515
 7320SOL    HW222860   6.773   3.516   2.371
 7321SOL     OW22861   2.025   0.827   6.027
 7321SOL    HW122862   2.052   0.916   6.064
 7321SOL    HW222863   2.086   0.757   6.065
 7322SOL     OW22864   6.743   2.687   3.174
 7322SOL    HW122865   6.750   2.777   3.217
 7322SOL    HW222866   6.733   2.617   3.245
 7323SOL     OW22867   1.500   2.159   2.077
 7323SOL    HW122868   1.432   2.229   2.058
 7323SOL    HW222869   1.573   2.164   2.009
 7324SOL     OW22870   4.835   6.034   2.288
 7324SOL    HW122871   4.874   6.099   2.223
 7324SOL    HW222872   4.777   6.083   2.353
 7325SOL     OW22873   3.400   6.704   0.451
 7325SOL    HW122874   3.435   6.768   0.382
 7325SOL    HW222875   3.320   6.744   0.495
 7326SOL     OW22876   3.406   6.216   5.669
 7326SOL    HW122877   3.380   6.273   5.591
 7326SOL    HW222878   3.347   6.238   5.747
 7327SOL     OW22879   6.045   1.441   6.564
 7327SOL    HW122880   5.958   1.473   6.600
 7327SOL    HW222881   6.041   1.437   6.465
 7328SOL     OW22882   3.014   0.838   6.137
 7328SOL    HW122883   3.041   0.932   6.158
 7328SOL    HW222884   3.000   0.828   6.038
 7329SOL     OW22885   6.383   3.795   1.638
 7329SOL    HW122886   6.326   3.864   1.593
 7329SOL    HW222887   6.415   3.730   1.569
 7330SOL     OW22888   2.428   2.581   0.327
 7330SOL    HW122889   2.406   2.578   0.229
 7330SOL    HW222890   2.362   2.526   0.378
 7331SOL     OW22891   5.407   6.469   1.721
 7331SOL    HW122892   5.441   6.563   1.730
 7331SOL    HW222893   5.370   6.456   1.629
 7332SOL     OW22894   2.425   6.241   0.185
 7332SOL    HW122895   2.404   6.186   0.105
 7332SOL    HW222896   2.509   6.208   0.228
 7333SOL     OW22897   0.575   3.108   2.332
 7333SOL    HW122898   0.549   3.203   2.312
 7333SOL    HW222899   0.629   3.071   2.257
 7334SOL     OW22900   2.795   5.371   6.154
 7334SOL    HW122901   2.814   5.401   6.061
 7334SOL    HW222902   2.845   5.429   6.219
 7335SOL     OW22903   1.842   2.459   2.759
 7335SOL    HW122904   1.934   2.439   2.727
 7335SOL    HW222905   1.786   2.376   2.752
 7336SOL     OW22906   1.697   6.545   2.722
 7336SOL    HW122907   1.761   6.544   2.645
 7336SOL    HW222908   1.748   6.563   2.807
 7337SOL     OW22909   6.872   3.108   2.017
 7337SOL    HW122910   6.862   3.017   2.057
 7337SOL    HW222911   6.877   3.100   1.918
 7338SOL     OW22912   6.260   1.595   1.662
 7338SOL    HW122913   6.197   1.672   1.675
 7338SOL    HW222914   6.277   1.551   1.750
 7339SOL     OW22915   5.809   6.546   4.122
 7339SOL    HW122916   5.896   6.562   4.169
 7339SOL    HW222917   5.737   6.531   4.189
 7340SOL     OW22918   3.088   1.667   1.129
 7340SOL    HW122919   2.993   1.657   1.158
 7340SOL    HW222920   3.099   1.752   1.078
 7341SOL     OW22921   0.287   3.434   6.413
 7341SOL    HW122922   0.309   3.366   6.343
 7341SOL    HW222923   0.371   3.474   6.449
 7342SOL     OW22924   0.566   2.089   1.317
 7342SOL    HW122925   0.517   2.149   1.253
 7342SOL    HW222926   0.501   2.053   1.384
 7343SOL     OW22927   6.109   3.720   1.163
 7343SOL    HW122928   6.135   3.662   1.085
 7343SOL    HW222929   6.118   3.667   1.248
 7344SOL     OW22930   0.865   1.217   6.397
 7344SOL    HW122931   0.766   1.222   6.390
 7344SOL    HW222932   0.906   1.217   6.306
 7345SOL     OW22933   4.048   4.454   5.997
 7345SOL    HW122934   4.131   4.476   5.945
 7345SOL    HW222935   3.998   4.382   5.950
 7346SOL     OW22936   4.198   5.342   2.155
 7346SOL    HW122937   4.146   5.357   2.238
 7346SOL    HW222938   4.259   5.264   2.167
 7347SOL     OW22939   1.056   1.565   0.803
 7347SOL    HW122940   1.003   1.506   0.742
 7347SOL    HW222941   1.001   1.644   0.830
 7348SOL     OW22942   1.426   4.195   4.013
 7348SOL    HW122943   1.420   4.115   4.072
 7348SOL    HW222944   1.490   4.261   4.053
 7349SOL     OW22945   4.740   1.219   1.385
 7349SOL    HW122946   4.742   1.122   1.411
 7349SOL    HW222947   4.645   1.248   1.375
 7350SOL     OW22948   2.854   2.320   5.539
 7350SOL    HW122949   2.867   2.364   5.450
 7350SOL    HW222950   2.782   2.369   5.590
 7351SOL     OW22951   5.374   5.843   4.608
 7351SOL    HW122952   5.347   5.814   4.516
 7351SOL    HW222953   5.456   5.899   4.603
 7352SOL     OW22954   1.735   1.446   2.986
 7352SOL    HW122955   1.689   1.436   2.898
 7352SOL    HW222956   1.817   1.388   2.987
 7353SOL     OW22957   6.942   0.278   5.959
 7353SOL    HW122958   6.943   0.247   6.054
 7353SOL    HW222959   6.848   0.294   5.930
 7354SOL     OW22960   0.993   1.743   4.278
 7354SOL    HW122961   0.910   1.793   4.301
 7354SOL    HW222962   1.065   1.764   4.345
 7355SOL     OW22963   1.263   0.512   0.868
 7355SOL    HW122964   1.284   0.458   0.949
 7355SOL    HW222965   1.307   0.471   0.788
 7356SOL     OW22966   3.767   3.528   6.358
 7356SOL    HW122967   3.854   3.552   6.401
 7356SOL    HW222968   3.731   3.607   6.308
 7357SOL     OW22969   3.175   6.860   1.706
 7357SOL    HW122970   3.095   6.887   1.760
 7357SOL    HW222971   3.222   6.943   1.674
 7358SOL     OW22972   6.413   3.235   2.565
 7358SOL    HW122973   6.373   3.163   2.622
 7358SOL    HW222974   6.372   3.233   2.474
 7359SOL     OW22975   4.190   1.978   5.730
 7359SOL    HW122976   4.137   2.055   5.766
 7359SOL    HW222977   4.215   1.997   5.635
 7360SOL     OW22978   2.955   3.163   5.414
 7360SOL    HW122979   3.008   3.126   5.337
 7360SOL    HW222980   2.926   3.088   5.473
 7361SOL     OW22981   5.089   0.850   2.381
 7361SOL    HW122982   5.146   0.908   2.439
 7361SOL    HW222983   5.063   0.900   2.299
 7362SOL     OW22984   1.469   5.850   6.512
 7362SOL    HW122985   1.509   5.774   6.564
 7362SOL    HW222986   1.376   5.867   6.545
 7363SOL     OW22987   4.636   1.865   1.274
 7363SOL    HW122988   4.616   1.770   1.249
 7363SOL    HW222989   4.554   1.921   1.259
 7364SOL     OW22990   4.709   0.575   1.896
 7364SOL    HW122991   4.633   0.585   1.960
 7364SOL    HW222992   4.695   0.494   1.839
 7365SOL     OW22993   0.522   6.095   2.202
 7365SOL    HW122994   0.525   6.110   2.104
 7365SOL    HW222995   0.427   6.099   2.234
 7366SOL     OW22996   2.074   6.441   6.049
 7366SOL    HW122997   2.118   6.380   5.982
 7366SOL    HW222998   2.144   6.496   6.095
 7367SOL     OW22999   4.709   2.922   1.184
 7367SOL    HW123000   4.631   2.971   1.145
 7367SOL    HW223001   4.762   2.985   1.241
 7368SOL     OW23002   3.854   3.036   2.822
 7368SOL    HW123003   3.893   3.010   2.910
 7368SOL    HW223004   3.913   3.104   2.779
 7369SOL     OW23005   3.125   1.911   0.627
 7369SOL    HW123006   3.060   1.847   0.668
 7369SOL    HW223007   3.116   2.000   0.671
 7370SOL     OW23008   2.174   1.322   5.296
 7370SOL    HW123009   2.078   1.317   5.323
 7370SOL    HW223010   2.185   1.390   5.223
 7371SOL     OW23011   2.785   6.903   3.482
 7371SOL    HW123012   2.737   6.816   3.472
 7371SOL    HW223013   2.883   6.886   3.491
 7372SOL     OW23014   4.303   0.702   3.995
 7372SOL    HW123015   4.224   0.752   3.960
 7372SOL    HW223016   4.310   0.614   3.948
 7373SOL     OW23017   5.911   1.344   3.908
 7373SOL    HW123018   5.878   1.292   3.829
 7373SOL    HW223019   5.889   1.440   3.897
 7374SOL     OW23020   2.545   1.850   5.009
 7374SOL    HW123021   2.617   1.851   4.940
 7374SOL    HW223022   2.571   1.911   5.084
 7375SOL     OW23023   2.071   2.090   2.227
 7375SOL    HW123024   2.142   2.125   2.287
 7375SOL    HW223025   2.009   2.030   2.278
 7376SOL     OW23026   1.510   1.927   0.946
 7376SOL    HW123027   1.453   1.974   1.013
 7376SOL    HW223028   1.515   1.830   0.969
 7377SOL     OW23029   5.215   5.075   0.544
 7377SOL    HW123030   5.127   5.101   0.506
 7377SOL    HW223031   5.288   5.092   0.477
 7378SOL     OW23032   0.289   0.466   5.276
 7378SOL    HW123033   0.199   0.467   5.319
 7378SOL    HW223034   0.338   0.383   5.304
 7379SOL     OW23035   3.354   1.646   2.342
 7379SOL    HW123036   3.323   1.569   2.287
 7379SOL    HW223037   3.363   1.727   2.285
 7380SOL     OW23038   0.123   4.378   3.761
 7380SOL    HW123039   0.122   4.477   3.746
 7380SOL    HW223040   0.045   4.337   3.713
 7381SOL     OW23041   4.316   3.387   0.585
 7381SOL    HW123042   4.350   3.455   0.651
 7381SOL    HW223043   4.386   3.317   0.572
 7382SOL     OW23044   0.426   1.192   5.025
 7382SOL    HW123045   0.346   1.246   4.999
 7382SOL    HW223046   0.467   1.153   4.942
 7383SOL     OW23047   3.033   6.444   0.727
 7383SOL    HW123048   3.126   6.448   0.763
 7383SOL    HW223049   3.027   6.372   0.658
 7384SOL     OW23050   6.474   6.557   2.382
 7384SOL    HW123051   6.398   6.505   2.343
 7384SOL    HW223052   6.559   6.534   2.335
 7385SOL     OW23053   3.396   5.193   2.273
 7385SOL    HW123054   3.329   5.204   2.346
 7385SOL    HW223055   3.406   5.096   2.252
 7386SOL     OW23056   6.867   2.527   0.043
 7386SOL    HW123057   6.878   2.433   0.073
 7386SOL    HW223058   6.956   2.574   0.047
 7387SOL     OW23059   6.569   5.254   5.686
 7387SOL    HW123060   6.547   5.211   5.773
 7387SOL    HW223061   6.552   5.352   5.691
 7388SOL     OW23062   1.216   5.474   1.940
 7388SOL    HW123063   1.298   5.519   1.975
 7388SOL    HW223064   1.241   5.389   1.894
 7389SOL     OW23065   6.066   3.895   6.332
 7389SOL    HW123066   6.058   3.972   6.269
 7389SOL    HW223067   5.976   3.871   6.367
 7390SOL     OW23068   1.759   2.569   2.187
 7390SOL    HW123069   1.811   2.486   2.170
 7390SOL    HW223070   1.802   2.622   2.260
 7391SOL     OW23071   4.125   3.421   3.596
 7391SOL    HW123072   4.148   3.489   3.665
 7391SOL    HW223073   4.109   3.333   3.640
 7392SOL     OW23074   3.259   5.957   6.435
 7392SOL    HW123075   3.165   5.982   6.415
 7392SOL    HW223076   3.288   6.000   6.521
 7393SOL     OW23077   6.584   4.590   2.940
 7393SOL    HW123078   6.490   4.610   2.966
 7393SOL    HW223079   6.601   4.624   2.848
 7394SOL     OW23080   1.815   2.951   5.769
 7394SOL    HW123081   1.794   2.863   5.811
 7394SOL    HW223082   1.759   2.963   5.687
 7395SOL     OW23083   2.078   3.723   1.372
 7395SOL    HW123084   1.993   3.723   1.319
 7395SOL    HW223085   2.133   3.644   1.345
 7396SOL     OW23086   2.210   6.611   1.292
 7396SOL    HW123087   2.248   6.520   1.310
 7396SOL    HW223088   2.154   6.607   1.209
 7397SOL     OW23089   4.835   5.853   4.846
 7397SOL    HW123090   4.766   5.831   4.778
 7397SOL    HW223091   4.876   5.768   4.881
 7398SOL     OW23092   1.221   4.941   3.183
 7398SOL    HW123093   1.207   4.966   3.279
 7398SOL    HW223094   1.300   4.879   3.176
 7399SOL     OW23095   0.566   2.683   4.474
 7399SOL    HW123096   0.507   2.622   4.526
 7399SOL    HW223097   0.524   2.703   4.385
 7400SOL     OW23098   3.900   2.824   5.907
 7400SOL    HW123099   3.974   2.787   5.963
 7400SOL    HW223100   3.825   2.854   5.966
 7401SOL     OW23101   1.037   2.663   3.476
 7401SOL    HW123102   0.986   2.633   3.395
 7401SOL    HW223103   1.117   2.604   3.488
 7402SOL     OW23104   3.343   4.487   5.982
 7402SOL    HW123105   3.304   4.563   5.929
 7402SOL    HW223106   3.321   4.400   5.938
 7403SOL     OW23107   1.338   4.366   2.278
 7403SOL    HW123108   1.291   4.429   2.340
 7403SOL    HW223109   1.398   4.307   2.331
 7404SOL     OW23110   3.094   4.682   1.737
 7404SOL    HW123111   3.170   4.618   1.735
 7404SOL    HW223112   3.014   4.637   1.777
 7405SOL     OW23113   3.288   5.162   4.325
 7405SOL    HW123114   3.334   5.168   4.413
 7405SOL    HW223115   3.333   5.093   4.268
 7406SOL     OW23116   0.447   2.230   4.057
 7406SOL    HW123117   0.424   2.305   3.995
 7406SOL    HW223118   0.416   2.143   4.018
 7407SOL     OW23119   0.832   6.828   4.994
 7407SOL    HW123120   0.805   6.855   5.086
 7407SOL    HW223121   0.763   6.859   4.928
 7408SOL     OW23122   3.399   3.996   6.243
 7408SOL    HW123123   3.352   4.037   6.322
 7408SOL    HW223124   3.332   3.949   6.185
 7409SOL     OW23125   5.251   3.387   6.940
 7409SOL    HW123126   5.208   3.475   6.963
 7409SOL    HW223127   5.316   3.401   6.865
 7410SOL     OW23128   0.546   0.608   0.557
 7410SOL    HW123129   0.600   0.691   0.564
 7410SOL    HW223130   0.606   0.529   0.547
 7411SOL     OW23131   2.364   1.029   0.189
 7411SOL    HW123132   2.455   1.019   0.229
 7411SOL    HW223133   2.365   1.103   0.121
 7412SOL     OW23134   4.049   0.351   1.299
 7412SOL    HW123135   4.115   0.276   1.312
 7412SOL    HW223136   4.098   0.438   1.295
 7413SOL     OW23137   4.431   4.933   3.969
 7413SOL    HW123138   4.496   5.006   3.990
 7413SOL    HW223139   4.338   4.968   3.979
 7414SOL     OW23140   1.794   0.745   3.176
 7414SOL    HW123141   1.795   0.824   3.238
 7414SOL    HW223142   1.880   0.741   3.125
 7415SOL     OW23143   2.042   4.471   4.471
 7415SOL    HW123144   1.969   4.520   4.424
 7415SOL    HW223145   2.063   4.386   4.423
 7416SOL     OW23146   2.130   0.635   2.087
 7416SOL    HW123147   2.169   0.721   2.120
 7416SOL    HW223148   2.201   0.581   2.043
 7417SOL     OW23149   2.202   2.076   1.106
 7417SOL    HW123150   2.187   2.089   1.204
 7417SOL    HW223151   2.114   2.079   1.058
 7418SOL     OW23152   1.624   5.179   0.226
 7418SOL    HW123153   1.553   5.147   0.163
 7418SOL    HW223154   1.708   5.197   0.176
 7419SOL     OW23155   6.616   3.947   4.207
 7419SOL    HW123156   6.544   4.008   4.175
 7419SOL    HW223157   6.675   3.922   4.130
 7420SOL     OW23158   0.249   6.620   1.526
 7420SOL    HW123159   0.214   6.591   1.615
 7420SOL    HW223160   0.274   6.540   1.472
 7421SOL     OW23161   4.554   3.604   1.058
 7421SOL    HW123162   4.586   3.649   1.141
 7421SOL    HW223163   4.524   3.511   1.080
 7422SOL     OW23164   7.004   4.514   1.971
 7422SOL    HW123165   6.996   4.418   1.945
 7422SOL    HW223166   0.029   4.522   2.054
 7423SOL     OW23167   5.816   2.851   5.984
 7423SOL    HW123168   5.801   2.781   5.914
 7423SOL    HW223169   5.836   2.939   5.939
 7424SOL     OW23170   6.807   1.485   5.936
 7424SOL    HW123171   6.852   1.536   5.863
 7424SOL    HW223172   6.708   1.502   5.933
 7425SOL     OW23173   5.068   0.150   0.240
 7425SOL    HW123174   5.029   0.226   0.188
 7425SOL    HW223175   5.113   0.086   0.177
 7426SOL     OW23176   3.135   1.853   5.164
 7426SOL    HW123177   3.232   1.848   5.188
 7426SOL    HW223178   3.106   1.948   5.160
 7427SOL     OW23179   5.018   1.054   4.171
 7427SOL    HW123180   5.063   0.980   4.222
 7427SOL    HW223181   4.936   1.019   4.126
 7428SOL     OW23182   4.160   1.158   5.071
 7428SOL    HW123183   4.230   1.212   5.118
 7428SOL    HW223184   4.200   1.118   4.989
 7429SOL     OW23185   0.689   6.213   3.869
 7429SOL    HW123186   0.708   6.310   3.883
 7429SOL    HW223187   0.773   6.167   3.841
 7430SOL     OW23188   0.875   3.792   1.229
 7430SOL    HW123189   0.950   3.841   1.186
 7430SOL    HW223190   0.792   3.803   1.175
 7431SOL     OW23191   0.785   2.327   3.128
 7431SOL    HW123192   0.809   2.230   3.119
 7431SOL    HW223193   0.813   2.376   3.046
 7432SOL     OW23194   2.116   0.586   3.510
 7432SOL    HW123195   2.044   0.653   3.530
 7432SOL    HW223196   2.074   0.496   3.498
 7433SOL     OW23197   3.866   6.262   6.539
 7433SOL    HW123198   3.956   6.301   6.521
 7433SOL    HW223199   3.852   6.254   6.638
 7434SOL     OW23200   4.968   5.232   5.499
 7434SOL    HW123201   5.009   5.160   5.443
 7434SOL    HW223202   4.868   5.226   5.491
 7435SOL     OW23203   4.605   6.310   1.113
 7435SOL    HW123204   4.658   6.286   1.031
 7435SOL    HW223205   4.512   6.336   1.086
 7436SOL     OW23206   4.348   4.426   6.318
 7436SOL    HW123207   4.301   4.513   6.306
 7436SOL    HW223208   4.440   4.432   6.279
 7437SOL     OW23209   2.707   6.039   0.225
 7437SOL    HW123210   2.660   5.951   0.212
 7437SOL    HW223211   2.722   6.082   0.137
 7438SOL     OW23212   0.966   6.480   0.196
 7438SOL    HW123213   0.957   6.531   0.282
 7438SOL    HW223214   1.048   6.424   0.199
 7439SOL     OW23215   1.681   6.564   6.223
 7439SOL    HW123216   1.587   6.536   6.199
 7439SOL    HW223217   1.681   6.608   6.313
 7440SOL     OW23218   6.878   2.668   3.638
 7440SOL    HW123219   6.870   2.593   3.704
 7440SOL    HW223220   6.864   2.755   3.684
 7441SOL     OW23221   5.740   0.566   4.356
 7441SOL    HW123222   5.704   0.594   4.268
 7441SOL    HW223223   5.840   0.578   4.357
 7442SOL     OW23224   5.874   1.856   6.887
 7442SOL    HW123225   5.826   1.929   6.935
 7442SOL    HW223226   5.945   1.895   6.829
 7443SOL     OW23227   6.419   5.843   1.234
 7443SOL    HW123228   6.454   5.807   1.320
 7443SOL    HW223229   6.320   5.861   1.244
 7444SOL     OW23230   5.336   2.406   6.943
 7444SOL    HW123231   5.316   2.334   7.009
 7444SOL    HW223232   5.252   2.455   6.920
 7445SOL     OW23233   3.333   0.535   1.201
 7445SOL    HW123234   3.386   0.557   1.283
 7445SOL    HW223235   3.275   0.456   1.219
 7446SOL     OW23236   5.622   2.972   0.278
 7446SOL    HW123237   5.711   2.932   0.301
 7446SOL    HW223238   5.555   2.945   0.348
 7447SOL     OW23239   6.818   4.767   6.758
 7447SOL    HW123240   6.826   4.703   6.834
 7447SOL    HW223241   6.723   4.772   6.727
 7448SOL     OW23242   6.309   6.639   4.766
 7448SOL    HW123243   6.373   6.658   4.840
 7448SOL    HW223244   6.290   6.540   4.762
 7449SOL     OW23245   0.697   5.004   1.217
 7449SOL    HW123246   0.628   4.967   1.156
 7449SOL    HW223247   0.731   5.091   1.180
 7450SOL     OW23248   5.219   2.409   4.494
 7450SOL    HW123249   5.293   2.423   4.561
 7450SOL    HW223250   5.259   2.391   4.404
 7451SOL     OW23251   6.498   6.341   2.541
 7451SOL    HW123252   6.497   6.432   2.500
 7451SOL    HW223253   6.458   6.275   2.477
 7452SOL     OW23254   5.575   5.776   4.119
 7452SOL    HW123255   5.555   5.872   4.136
 7452SOL    HW223256   5.652   5.748   4.177
 7453SOL     OW23257   5.263   4.971   4.823
 7453SOL    HW123258   5.204   4.920   4.761
 7453SOL    HW223259   5.337   5.014   4.770
 7454SOL     OW23260   1.740   2.338   0.889
 7454SOL    HW123261   1.818   2.383   0.845
 7454SOL    HW223262   1.746   2.239   0.873
 7455SOL     OW23263   6.591   2.850   1.732
 7455SOL    HW123264   6.640   2.782   1.787
 7455SOL    HW223265   6.546   2.915   1.793
 7456SOL     OW23266   2.078   1.035   4.820
 7456SOL    HW123267   2.103   1.132   4.822
 7456SOL    HW223268   2.006   1.018   4.887
 7457SOL     OW23269   2.949   0.374   5.067
 7457SOL    HW123270   2.943   0.472   5.088
 7457SOL    HW223271   2.870   0.327   5.106
 7458SOL     OW23272   1.761   0.532   6.082
 7458SOL    HW123273   1.754   0.540   5.983
 7458SOL    HW223274   1.855   0.509   6.107
 7459SOL     OW23275   5.391   0.942   2.320
 7459SOL    HW123276   5.414   0.850   2.352
 7459SOL    HW223277   5.386   0.942   2.220
 7460SOL     OW23278   0.752   5.481   0.529
 7460SOL    HW123279   0.659   5.514   0.546
 7460SOL    HW223280   0.765   5.471   0.430
 7461SOL     OW23281   5.922   0.081   6.685
 7461SOL    HW123282   5.967   0.001   6.647
 7461SOL    HW223283   5.948   0.092   6.781
 7462SOL     OW23284   1.269   4.570   2.451
 7462SOL    HW123285   1.257   4.646   2.386
 7462SOL    HW223286   1.180   4.534   2.476
 7463SOL     OW23287   2.911   4.123   0.181
 7463SOL    HW123288   2.983   4.097   0.245
 7463SOL    HW223289   2.937   4.207   0.134
 7464SOL     OW23290   5.749   6.885   5.750
 7464SOL    HW123291   5.842   6.884   5.787
 7464SOL    HW223292   5.751   6.925   5.658
 7465SOL     OW23293   2.494   5.207   6.673
 7465SOL    HW123294   2.546   5.196   6.588
 7465SOL    HW223295   2.504   5.125   6.729
 7466SOL     OW23296   6.649   0.805   5.145
 7466SOL    HW123297   6.725   0.866   5.120
 7466SOL    HW223298   6.686   0.715   5.169
 7467SOL     OW23299   0.358   2.120   5.891
 7467SOL    HW123300   0.434   2.181   5.868
 7467SOL    HW223301   0.388   2.025   5.885
 7468SOL     OW23302   5.489   2.883   4.110
 7468SOL    HW123303   5.454   2.801   4.156
 7468SOL    HW223304   5.490   2.867   4.011
 7469SOL     OW23305   0.008   0.385   6.442
 7469SOL    HW123306   6.989   0.369   6.356
 7469SOL    HW223307   0.029   0.298   6.486
 7470SOL     OW23308   5.347   3.376   3.681
 7470SOL    HW123309   5.310   3.283   3.674
 7470SOL    HW223310   5.285   3.439   3.635
 7471SOL     OW23311   5.083   6.780   6.148
 7471SOL    HW123312   5.082   6.775   6.049
 7471SOL    HW223313   5.089   6.876   6.177
 7472SOL     OW23314   6.603   1.074   5.671
 7472SOL    HW123315   6.571   0.998   5.727
 7472SOL    HW223316   6.624   1.040   5.579
 7473SOL     OW23317   4.931   5.535   3.891
 7473SOL    HW123318   4.890   5.536   3.799
 7473SOL    HW223319   4.939   5.629   3.924
 7474SOL     OW23320   7.022   2.047   6.349
 7474SOL    HW123321   7.018   2.087   6.257
 7474SOL    HW223322   6.941   1.991   6.365
 7475SOL     OW23323   4.167   2.319   1.888
 7475SOL    HW123324   4.096   2.374   1.843
 7475SOL    HW223325   4.248   2.375   1.903
 7476SOL     OW23326   3.205   0.982   3.037
 7476SOL    HW123327   3.235   1.019   3.124
 7476SOL    HW223328   3.283   0.941   2.990
 7477SOL     OW23329   6.277   2.392   5.134
 7477SOL    HW123330   6.307   2.303   5.099
 7477SOL    HW223331   6.186   2.383   5.175
 7478SOL     OW23332   6.272   3.747   5.535
 7478SOL    HW123333   6.273   3.772   5.632
 7478SOL    HW223334   6.179   3.723   5.508
 7479SOL     OW23335   4.341   2.115   1.994
 7479SOL    HW123336   4.295   2.193   1.952
 7479SOL    HW223337   4.333   2.121   2.094
 7480SOL     OW23338   1.363   4.936   2.412
 7480SOL    HW123339   1.336   4.949   2.507
 7480SOL    HW223340   1.299   4.874   2.367
 7481SOL     OW23341   5.849   5.235   1.027
 7481SOL    HW123342   5.848   5.136   1.038
 7481SOL    HW223343   5.768   5.274   1.071
 7482SOL     OW23344   4.570   2.554   2.840
 7482SOL    HW123345   4.645   2.583   2.781
 7482SOL    HW223346   4.502   2.504   2.787
 7483SOL     OW23347   4.922   3.440   4.769
 7483SOL    HW123348   4.886   3.429   4.676
 7483SOL    HW223349   4.880   3.521   4.811
 7484SOL     OW23350   1.821   6.064   4.589
 7484SOL    HW123351   1.725   6.092   4.583
 7484SOL    HW223352   1.843   6.040   4.683
 7485SOL     OW23353   2.553   0.538   4.934
 7485SOL    HW123354   2.484   0.479   4.891
 7485SOL    HW223355   2.584   0.606   4.868
 7486SOL     OW23356   1.351   6.390   0.021
 7486SOL    HW123357   1.450   6.387   0.006
 7486SOL    HW223358   1.320   6.484   0.028
 7487SOL     OW23359   2.939   0.956   3.116
 7487SOL    HW123360   3.031   0.983   3.089
 7487SOL    HW223361   2.940   0.862   3.152
 7488SOL     OW23362   2.353   5.323   5.061
 7488SOL    HW123363   2.311   5.323   5.151
 7488SOL    HW223364   2.419   5.398   5.055
 7489SOL     OW23365   6.509   3.315   6.389
 7489SOL    HW123366   6.510   3.297   6.487
 7489SOL    HW223367   6.429   3.271   6.348
 7490SOL     OW23368   1.575   0.378   3.431
 7490SOL    HW123369   1.644   0.399   3.362
 7490SOL    HW223370   1.542   0.463   3.472
 7491SOL     OW23371   4.427   3.383   6.611
 7491SOL    HW123372   4.422   3.356   6.708
 7491SOL    HW223373   4.516   3.425   6.592
 7492SOL     OW23374   2.419   0.675   3.787
 7492SOL    HW123375   2.366   0.694   3.870
 7492SOL    HW223376   2.490   0.744   3.776
 7493SOL     OW23377   0.187   2.268   6.370
 7493SOL    HW123378   0.227   2.254   6.461
 7493SOL    HW223379   0.092   2.238   6.370
 7494SOL     OW23380   5.978   1.614   3.541
 7494SOL    HW123381   5.971   1.514   3.534
 7494SOL    HW223382   5.887   1.654   3.539
 7495SOL     OW23383   0.816   3.002   6.336
 7495SOL    HW123384   0.895   3.035   6.389
 7495SOL    HW223385   0.772   3.080   6.292
 7496SOL     OW23386   6.058   3.533   3.994
 7496SOL    HW123387   6.018   3.443   3.975
 7496SOL    HW223388   6.155   3.532   3.967
 7497SOL     OW23389   1.857   4.636   1.584
 7497SOL    HW123390   1.951   4.670   1.592
 7497SOL    HW223391   1.825   4.606   1.674
 7498SOL     OW23392   3.152   1.137   4.520
 7498SOL    HW123393   3.081   1.189   4.473
 7498SOL    HW223394   3.195   1.195   4.589
 7499SOL     OW23395   4.443   2.439   3.064
 7499SOL    HW123396   4.515   2.371   3.079
 7499SOL    HW223397   4.456   2.484   2.976
 7500SOL     OW23398   3.825   5.804   3.197
 7500SOL    HW123399   3.757   5.735   3.222
 7500SOL    HW223400   3.877   5.831   3.278
 7501SOL     OW23401   5.226   4.364   4.166
 7501SOL    HW123402   5.152   4.337   4.229
 7501SOL    HW223403   5.303   4.401   4.219
 7502SOL     OW23404   3.613   0.529   4.527
 7502SOL    HW123405   3.561   0.609   4.497
 7502SOL    HW223406   3.565   0.484   4.602
 7503SOL     OW23407   2.391   6.863   1.518
 7503SOL    HW123408   2.411   6.901   1.428
 7503SOL    HW223409   2.434   6.773   1.527
 7504SOL     OW23410   0.914   6.325   3.546
 7504SOL    HW123411   0.909   6.252   3.614
 7504SOL    HW223412   0.994   6.383   3.566
 7505SOL     OW23413   1.301   2.345   6.331
 7505SOL    HW123414   1.309   2.367   6.428
 7505SOL    HW223415   1.239   2.267   6.320
 7506SOL     OW23416   5.254   2.248   3.814
 7506SOL    HW123417   5.177   2.286   3.865
 7506SOL    HW223418   5.335   2.304   3.830
 7507SOL     OW23419   5.983   1.838   2.372
 7507SOL    HW123420   5.973   1.935   2.391
 7507SOL    HW223421   5.933   1.784   2.440
 7508SOL     OW23422   2.274   5.687   0.664
 7508SOL    HW123423   2.178   5.708   0.683
 7508SOL    HW223424   2.279   5.623   0.588
 7509SOL     OW23425   6.112   4.097   0.595
 7509SOL    HW123426   6.209   4.075   0.604
 7509SOL    HW223427   6.059   4.035   0.654
 7510SOL     OW23428   3.564   3.694   4.734
 7510SOL    HW123429   3.521   3.780   4.704
 7510SOL    HW223430   3.533   3.619   4.676
 7511SOL     OW23431   3.268   5.980   3.299
 7511SOL    HW123432   3.249   6.000   3.396
 7511SOL    HW223433   3.244   6.060   3.244
 7512SOL     OW23434   2.786   1.087   6.491
 7512SOL    HW123435   2.751   1.153   6.557
 7512SOL    HW223436   2.844   1.134   6.424
 7513SOL     OW23437   1.265   0.991   1.815
 7513SOL    HW123438   1.190   0.986   1.749
 7513SOL    HW223439   1.228   1.010   1.906
 7514SOL     OW23440   2.432   4.807   2.647
 7514SOL    HW123441   2.507   4.741   2.642
 7514SOL    HW223442   2.419   4.837   2.741
 7515SOL     OW23443   6.659   4.881   4.203
 7515SOL    HW123444   6.644   4.860   4.299
 7515SOL    HW223445   6.706   4.970   4.195
 7516SOL     OW23446   0.386   5.366   6.053
 7516SOL    HW123447   0.331   5.282   6.054
 7516SOL    HW223448   0.359   5.422   5.974
 7517SOL     OW23449   0.602   2.112   0.150
 7517SOL    HW123450   0.594   2.014   0.167
 7517SOL    HW223451   0.586   2.162   0.235
 7518SOL     OW23452   4.903   3.428   4.321
 7518SOL    HW123453   4.875   3.422   4.225
 7518SOL    HW223454   4.982   3.489   4.329
 7519SOL     OW23455   6.950   6.338   5.032
 7519SOL    HW123456   6.978   6.248   4.999
 7519SOL    HW223457   6.883   6.377   4.970
 7520SOL     OW23458   2.392   0.350   2.890
 7520SOL    HW123459   2.328   0.427   2.887
 7520SOL    HW223460   2.381   0.301   2.976
 7521SOL     OW23461   5.355   2.564   5.446
 7521SOL    HW123462   5.278   2.581   5.385
 7521SOL    HW223463   5.333   2.596   5.538
 7522SOL     OW23464   1.283   0.889   6.106
 7522SOL    HW123465   1.355   0.932   6.161
 7522SOL    HW223466   1.307   0.895   6.009
 7523SOL     OW23467   4.947   0.912   6.663
 7523SOL    HW123468   5.005   0.992   6.677
 7523SOL    HW223469   4.990   0.850   6.598
 7524SOL     OW23470   0.752   2.605   5.286
 7524SOL    HW123471   0.805   2.641   5.210
 7524SOL    HW223472   0.748   2.505   5.280
 7525SOL     OW23473   3.970   6.862   0.151
 7525SOL    HW123474   4.042   6.926   0.123
 7525SOL    HW223475   3.998   6.816   0.236
 7526SOL     OW23476   2.809   3.053   1.744
 7526SOL    HW123477   2.852   3.142   1.762
 7526SOL    HW223478   2.864   2.980   1.784
 7527SOL     OW23479   3.317   5.772   4.099
 7527SOL    HW123480   3.222   5.788   4.072
 7527SOL    HW223481   3.323   5.690   4.155
 7528SOL     OW23482   6.214   2.172   6.135
 7528SOL    HW123483   6.267   2.132   6.210
 7528SOL    HW223484   6.179   2.262   6.163
 7529SOL     OW23485   6.034   1.666   4.894
 7529SOL    HW123486   5.976   1.640   4.817
 7529SOL    HW223487   6.113   1.606   4.899
 7530SOL     OW23488   6.198   1.956   1.945
 7530SOL    HW123489   6.228   1.913   2.030
 7530SOL    HW223490   6.255   2.036   1.926
 7531SOL     OW23491   5.354   3.078   4.264
 7531SOL    HW123492   5.412   3.153   4.232
 7531SOL    HW223493   5.365   2.999   4.203
 7532SOL     OW23494   4.912   6.253   0.620
 7532SOL    HW123495   4.899   6.283   0.714
 7532SOL    HW223496   4.924   6.333   0.561
 7533SOL     OW23497   3.548   1.969   1.901
 7533SOL    HW123498   3.618   2.040   1.905
 7533SOL    HW223499   3.458   2.012   1.896
 7534SOL     OW23500   4.915   5.831   4.253
 7534SOL    HW123501   4.859   5.827   4.336
 7534SOL    HW223502   4.990   5.766   4.261
 7535SOL     OW23503   1.880   6.691   5.013
 7535SOL    HW123504   1.867   6.616   4.949
 7535SOL    HW223505   1.919   6.655   5.098
 7536SOL     OW23506   4.915   5.166   4.073
 7536SOL    HW123507   4.970   5.193   3.995
 7536SOL    HW223508   4.905   5.245   4.135
 7537SOL     OW23509   1.729   5.159   2.751
 7537SOL    HW123510   1.632   5.164   2.773
 7537SOL    HW223511   1.750   5.224   2.678
 7538SOL     OW23512   1.785   2.353   1.669
 7538SOL    HW123513   1.710   2.373   1.607
 7538SOL    HW223514   1.866   2.324   1.617
 7539SOL     OW23515   1.438   3.957   4.204
 7539SOL    HW123516   1.491   3.874   4.189
 7539SOL    HW223517   1.449   3.986   4.300
 7540SOL     OW23518   4.044   0.400   4.734
 7540SOL    HW123519   3.984   0.475   4.706
 7540SOL    HW223520   4.090   0.362   4.654
 7541SOL     OW23521   0.521   3.929   5.454
 7541SOL    HW123522   0.608   3.936   5.502
 7541SOL    HW223523   0.501   4.015   5.407
 7542SOL     OW23524   6.995   6.119   0.415
 7542SOL    HW123525   0.026   6.159   0.345
 7542SOL    HW223526   7.020   6.154   0.505
 7543SOL     OW23527   3.464   1.216   5.433
 7543SOL    HW123528   3.393   1.194   5.366
 7543SOL    HW223529   3.520   1.136   5.450
 7544SOL     OW23530   6.305   2.513   4.395
 7544SOL    HW123531   6.364   2.432   4.391
 7544SOL    HW223532   6.307   2.551   4.488
 7545SOL     OW23533   1.022   6.300   6.343
 7545SOL    HW123534   0.959   6.302   6.265
 7545SOL    HW223535   0.976   6.335   6.424
 7546SOL     OW23536   4.812   2.068   1.175
 7546SOL    HW123537   4.755   1.990   1.203
 7546SOL    HW223538   4.753   2.141   1.142
 7547SOL     OW23539   5.131   1.488   1.215
 7547SOL    HW123540   5.214   1.432   1.213
 7547SOL    HW223541   5.138   1.560   1.145
 7548SOL     OW23542   4.696   2.419   6.025
 7548SOL    HW123543   4.727   2.466   6.107
 7548SOL    HW223544   4.700   2.482   5.947
 7549SOL     OW23545   3.741   3.342   6.142
 7549SOL    HW123546   3.736   3.364   6.044
 7549SOL    HW223547   3.761   3.425   6.194
 7550SOL     OW23548   1.623   4.365   3.803
 7550SOL    HW123549   1.666   4.279   3.831
 7550SOL    HW223550   1.604   4.420   3.884
 7551SOL     OW23551   5.972   2.877   5.123
 7551SOL    HW123552   5.907   2.853   5.195
 7551SOL    HW223553   6.059   2.905   5.164
 7552SOL     OW23554   1.712   5.722   3.953
 7552SOL    HW123555   1.725   5.668   4.036
 7552SOL    HW223556   1.649   5.674   3.892
 7553SOL     OW23557   4.603   6.897   5.716
 7553SOL    HW123558   4.617   6.840   5.635
 7553SOL    HW223559   4.623   6.993   5.693
 7554SOL     OW23560   4.676   0.940   6.553
 7554SOL    HW123561   4.656   0.845   6.529
 7554SOL    HW223562   4.765   0.945   6.600
 7555SOL     OW23563   3.246   5.482   6.487
 7555SOL    HW123564   3.262   5.567   6.536
 7555SOL    HW223565   3.309   5.412   6.520
 7556SOL     OW23566   2.894   1.949   0.056
 7556SOL    HW123567   2.814   2.007   0.039
 7556SOL    HW223568   2.973   1.987   0.009
 7557SOL     OW23569   4.855   0.735   6.223
 7557SOL    HW123570   4.845   0.655   6.164
 7557SOL    HW223571   4.765   0.763   6.257
 7558SOL     OW23572   2.108   2.970   4.327
 7558SOL    HW123573   2.167   2.934   4.255
 7558SOL    HW223574   2.152   2.957   4.416
 7559SOL     OW23575   3.664   3.162   5.807
 7559SOL    HW123576   3.676   3.091   5.877
 7559SOL    HW223577   3.602   3.233   5.842
 7560SOL     OW23578   5.549   0.083   0.183
 7560SOL    HW123579   5.646   0.060   0.195
 7560SOL    HW223580   5.494   0.001   0.201
 7561SOL     OW23581   6.821   3.174   5.561
 7561SOL    HW123582   6.816   3.242   5.634
 7561SOL    HW223583   6.780   3.088   5.593
 7562SOL     OW23584   0.537   4.643   5.219
 7562SOL    HW123585   0.590   4.559   5.207
 7562SOL    HW223586   0.576   4.716   5.162
 7563SOL     OW23587   3.064   6.704   1.502
 7563SOL    HW123588   2.973   6.736   1.474
 7563SOL    HW223589   3.087   6.742   1.591
 7564SOL     OW23590   3.925   0.092   4.656
 7564SOL    HW123591   3.871   0.114   4.737
 7564SOL    HW223592   3.891   0.006   4.616
 7565SOL     OW23593   5.387   3.927   6.192
 7565SOL    HW123594   5.431   3.867   6.126
 7565SOL    HW223595   5.380   3.880   6.280
 7566SOL     OW23596   5.570   5.241   2.268
 7566SOL    HW123597   5.661   5.277   2.284
 7566SOL    HW223598   5.558   5.223   2.170
 7567SOL     OW23599   1.495   1.024   6.238
 7567SOL    HW123600   1.591   1.025   6.209
 7567SOL    HW223601   1.475   1.109   6.288
 7568SOL     OW23602   5.786   4.588   2.260
 7568SOL    HW123603   5.852   4.620   2.328
 7568SOL    HW223604   5.694   4.610   2.291
 7569SOL     OW23605   2.653   4.935   6.096
 7569SOL    HW123606   2.628   4.863   6.030
 7569SOL    HW223607   2.723   4.900   6.158
 7570SOL     OW23608   5.314   3.811   4.381
 7570SOL    HW123609   5.346   3.888   4.325
 7570SOL    HW223610   5.263   3.847   4.460
 7571SOL     OW23611   4.931   3.763   3.522
 7571SOL    HW123612   4.904   3.721   3.436
 7571SOL    HW223613   4.906   3.704   3.598
 7572SOL     OW23614   5.167   0.712   3.140
 7572SOL    HW123615   5.138   0.704   3.045
 7572SOL    HW223616   5.088   0.704   3.200
 7573SOL     OW23617   6.356   0.317   5.196
 7573SOL    HW123618   6.299   0.382   5.247
 7573SOL    HW223619   6.298   0.251   5.150
 7574SOL     OW23620   5.615   0.882   4.699
 7574SOL    HW123621   5.638   0.785   4.703
 7574SOL    HW223622   5.689   0.932   4.656
 7575SOL     OW23623   5.319   0.203   0.023
 7575SOL    HW123624   5.390   0.188   0.092
 7575SOL    HW223625   5.310   0.300   0.005
 7576SOL     OW23626   4.915   3.174   0.383
 7576SOL    HW123627   4.826   3.151   0.344
 7576SOL    HW223628   4.906   3.254   0.442
 7577SOL     OW23629   0.348   6.291   6.439
 7577SOL    HW123630   0.307   6.351   6.508
 7577SOL    HW223631   0.446   6.281   6.458
 7578SOL     OW23632   2.936   5.350   2.346
 7578SOL    HW123633   3.017   5.400   2.376
 7578SOL    HW223634   2.962   5.286   2.273
 7579SOL     OW23635   0.145   1.410   1.564
 7579SOL    HW123636   0.181   1.397   1.472
 7579SOL    HW223637   0.114   1.504   1.575
 7580SOL     OW23638   0.601   4.157   3.422
 7580SOL    HW123639   0.629   4.122   3.512
 7580SOL    HW223640   0.610   4.084   3.354
 7581SOL     OW23641   0.744   1.791   1.497
 7581SOL    HW123642   0.769   1.868   1.438
 7581SOL    HW223643   0.827   1.739   1.521
 7582SOL     OW23644   4.122   1.848   3.843
 7582SOL    HW123645   4.174   1.764   3.827
 7582SOL    HW223646   4.177   1.927   3.814
 7583SOL     OW23647   5.274   2.953   2.088
 7583SOL    HW123648   5.261   3.044   2.049
 7583SOL    HW223649   5.213   2.888   2.043
 7584SOL     OW23650   1.595   0.177   2.843
 7584SOL    HW123651   1.641   0.194   2.756
 7584SOL    HW223652   1.565   0.263   2.883
 7585SOL     OW23653   1.433   2.684   5.998
 7585SOL    HW123654   1.407   2.756   5.933
 7585SOL    HW223655   1.522   2.647   5.973
 7586SOL     OW23656   1.822   6.445   3.529
 7586SOL    HW123657   1.809   6.379   3.603
 7586SOL    HW223658   1.754   6.518   3.538
 7587SOL     OW23659   2.940   1.649   6.646
 7587SOL    HW123660   3.040   1.653   6.634
 7587SOL    HW223661   2.904   1.572   6.595
 7588SOL     OW23662   2.412   2.164   3.443
 7588SOL    HW123663   2.319   2.152   3.478
 7588SOL    HW223664   2.426   2.259   3.417
 7589SOL     OW23665   0.624   0.427   2.822
 7589SOL    HW123666   0.531   0.393   2.835
 7589SOL    HW223667   0.625   0.527   2.834
 7590SOL     OW23668   5.193   1.781   6.857
 7590SOL    HW123669   5.132   1.748   6.786
 7590SOL    HW223670   5.239   1.704   6.900
 7591SOL     OW23671   5.211   4.272   7.008
 7591SOL    HW123672   5.156   4.188   7.014
 7591SOL    HW223673   5.261   4.285   0.064
 7592SOL     OW23674   6.129   5.200   4.140
 7592SOL    HW123675   6.153   5.289   4.177
 7592SOL    HW223676   6.208   5.139   4.147
 7593SOL     OW23677   6.733   2.877   6.793
 7593SOL    HW123678   6.662   2.928   6.745
 7593SOL    HW223679   6.799   2.842   6.727
 7594SOL     OW23680   2.126   4.637   1.679
 7594SOL    HW123681   2.104   4.539   1.682
 7594SOL    HW223682   2.222   4.648   1.654
 7595SOL     OW23683   6.207   3.476   6.324
 7595SOL    HW123684   6.152   3.532   6.263
 7595SOL    HW223685   6.279   3.430   6.272
 7596SOL     OW23686   3.124   6.946   4.417
 7596SOL    HW123687   3.036   6.922   4.459
 7596SOL    HW223688   3.193   6.955   4.489
 7597SOL     OW23689   2.228   6.573   3.146
 7597SOL    HW123690   2.299   6.601   3.081
 7597SOL    HW223691   2.140   6.565   3.099
 7598SOL     OW23692   6.096   0.358   3.487
 7598SOL    HW123693   6.106   0.457   3.497
 7598SOL    HW223694   6.186   0.318   3.468
 7599SOL     OW23695   5.522   1.852   1.712
 7599SOL    HW123696   5.519   1.940   1.759
 7599SOL    HW223697   5.491   1.780   1.773
 7600SOL     OW23698   0.974   0.906   3.921
 7600SOL    HW123699   0.905   0.964   3.878
 7600SOL    HW223700   0.931   0.819   3.949
 7601SOL     OW23701   2.532   4.609   2.177
 7601SOL    HW123702   2.470   4.619   2.099
 7601SOL    HW223703   2.621   4.577   2.145
 7602SOL     OW23704   1.189   3.136   6.585
 7602SOL    HW123705   1.093   3.130   6.615
 7602SOL    HW223706   1.240   3.194   6.649
 7603SOL     OW23707   2.377   6.147   6.768
 7603SOL    HW123708   2.463   6.199   6.766
 7603SOL    HW223709   2.314   6.183   6.699
 7604SOL     OW23710   0.872   2.338   4.896
 7604SOL    HW123711   0.844   2.422   4.849
 7604SOL    HW223712   0.964   2.350   4.934
 7605SOL     OW23713   1.238   0.559   0.460
 7605SOL    HW123714   1.331   0.583   0.491
 7605SOL    HW223715   1.233   0.460   0.444
 7606SOL     OW23716   5.274   2.857   4.907
 7606SOL    HW123717   5.292   2.941   4.856
 7606SOL    HW223718   5.342   2.787   4.882
 7607SOL     OW23719   4.600   5.344   0.341
 7607SOL    HW123720   4.566   5.429   0.302
 7607SOL    HW223721   4.651   5.364   0.425
 7608SOL     OW23722   5.309   2.892   0.830
 7608SOL    HW123723   5.228   2.859   0.879
 7608SOL    HW223724   5.329   2.830   0.753
 7609SOL     OW23725   1.596   3.200   4.277
 7609SOL    HW123726   1.586   3.187   4.375
 7609SOL    HW223727   1.519   3.253   4.242
 7610SOL     OW23728   3.963   4.816   6.019
 7610SOL    HW123729   4.038   4.787   5.959
 7610SOL    HW223730   3.893   4.861   5.964
 7611SOL     OW23731   5.234   4.226   1.224
 7611SOL    HW123732   5.245   4.236   1.125
 7611SOL    HW223733   5.268   4.136   1.251
 7612SOL     OW23734   4.800   2.863   2.900
 7612SOL    HW123735   4.812   2.772   2.860
 7612SOL    HW223736   4.801   2.931   2.827
 7613SOL     OW23737   0.341   1.771   1.290
 7613SOL    HW123738   0.384   1.791   1.378
 7613SOL    HW223739   0.353   1.675   1.268
 7614SOL     OW23740   5.505   3.266   1.314
 7614SOL    HW123741   5.487   3.189   1.375
 7614SOL    HW223742   5.523   3.348   1.369
 7615SOL     OW23743   4.728   4.360   6.442
 7615SOL    HW123744   4.671   4.398   6.515
 7615SOL    HW223745   4.822   4.392   6.452
 7616SOL     OW23746   0.027   6.763   4.397
 7616SOL    HW123747   0.006   6.781   4.493
 7616SOL    HW223748   0.040   6.665   4.383
 7617SOL     OW23749   4.767   6.312   3.447
 7617SOL    HW123750   4.815   6.252   3.383
 7617SOL    HW223751   4.775   6.406   3.417
 7618SOL     OW23752   1.035   2.827   6.772
 7618SOL    HW123753   0.990   2.889   6.708
 7618SOL    HW223754   1.124   2.800   6.735
 7619SOL     OW23755   0.041   2.993   4.462
 7619SOL    HW123756   6.994   2.929   4.471
 7619SOL    HW223757   0.035   3.063   4.533
 7620SOL     OW23758   4.138   5.647   1.600
 7620SOL    HW123759   4.146   5.552   1.629
 7620SOL    HW223760   4.227   5.679   1.567
 7621SOL     OW23761   0.182   0.855   1.009
 7621SOL    HW123762   0.083   0.851   0.993
 7621SOL    HW223763   0.203   0.929   1.073
 7622SOL     OW23764   4.924   4.833   6.423
 7622SOL    HW123765   4.876   4.827   6.511
 7622SOL    HW223766   4.923   4.744   6.378
 7623SOL     OW23767   4.386   4.572   1.113
 7623SOL    HW123768   4.327   4.634   1.062
 7623SOL    HW223769   4.440   4.625   1.179
 7624SOL     OW23770   0.161   3.658   3.608
 7624SOL    HW123771   0.236   3.715   3.574
 7624SOL    HW223772   0.187   3.562   3.604
 7625SOL     OW23773   5.906   1.570   6.851
 7625SOL    HW123774   5.865   1.655   6.883
 7625SOL    HW223775   5.970   1.535   6.920
 7626SOL     OW23776   6.445   0.557   5.795
 7626SOL    HW123777   6.442   0.515   5.705
 7626SOL    HW223778   6.503   0.502   5.856
 7627SOL     OW23779   3.200   2.397   0.255
 7627SOL    HW123780   3.249   2.318   0.219
 7627SOL    HW223781   3.155   2.371   0.341
 7628SOL     OW23782   3.711   3.017   1.708
 7628SOL    HW123783   3.805   3.013   1.742
 7628SOL    HW223784   3.663   3.092   1.754
 7629SOL     OW23785   0.309   4.020   3.116
 7629SOL    HW123786   0.248   4.095   3.140
 7629SOL    HW223787   0.260   3.933   3.127
 7630SOL     OW23788   1.245   0.483   6.769
 7630SOL    HW123789   1.244   0.436   6.857
 7630SOL    HW223790   1.298   0.567   6.776
 7631SOL     OW23791   1.219   1.293   5.493
 7631SOL    HW123792   1.122   1.298   5.519
 7631SOL    HW223793   1.245   1.376   5.444
 7632SOL     OW23794   4.366   4.416   0.838
 7632SOL    HW123795   4.397   4.509   0.856
 7632SOL    HW223796   4.286   4.396   0.893
 7633SOL     OW23797   5.161   0.682   1.691
 7633SOL    HW123798   5.168   0.631   1.605
 7633SOL    HW223799   5.131   0.776   1.672
 7634SOL     OW23800   2.401   1.321   1.505
 7634SOL    HW123801   2.442   1.390   1.566
 7634SOL    HW223802   2.463   1.303   1.429
 7635SOL     OW23803   3.211   4.883   4.461
 7635SOL    HW123804   3.146   4.958   4.476
 7635SOL    HW223805   3.182   4.830   4.381
 7636SOL     OW23806   1.128   3.373   3.627
 7636SOL    HW123807   1.124   3.471   3.605
 7636SOL    HW223808   1.139   3.361   3.725
 7637SOL     OW23809   2.475   6.044   2.966
 7637SOL    HW123810   2.415   5.991   2.906
 7637SOL    HW223811   2.549   5.985   3.000
 7638SOL     OW23812   1.754   5.749   2.769
 7638SOL    HW123813   1.675   5.794   2.727
 7638SOL    HW223814   1.817   5.718   2.698
 7639SOL     OW23815   0.506   1.186   0.765
 7639SOL    HW123816   0.481   1.225   0.854
 7639SOL    HW223817   0.517   1.260   0.698
 7640SOL     OW23818   2.403   2.814   6.799
 7640SOL    HW123819   2.341   2.823   6.721
 7640SOL    HW223820   2.439   2.904   6.823
 7641SOL     OW23821   6.943   3.568   2.760
 7641SOL    HW123822   6.886   3.649   2.773
 7641SOL    HW223823   6.892   3.486   2.788
 7642SOL     OW23824   4.878   1.138   2.550
 7642SOL    HW123825   4.945   1.132   2.625
 7642SOL    HW223826   4.839   1.230   2.548
 7643SOL     OW23827   4.977   1.659   2.837
 7643SOL    HW123828   5.026   1.616   2.761
 7643SOL    HW223829   5.029   1.649   2.921
 7644SOL     OW23830   4.857   2.838   1.829
 7644SOL    HW123831   4.952   2.837   1.861
 7644SOL    HW223832   4.803   2.903   1.883
 7645SOL     OW23833   4.810   3.830   5.948
 7645SOL    HW123834   4.713   3.808   5.952
 7645SOL    HW223835   4.857   3.764   5.889
 7646SOL     OW23836   0.536   2.663   3.606
 7646SOL    HW123837   0.628   2.656   3.645
 7646SOL    HW223838   0.539   2.638   3.509
 7647SOL     OW23839   0.123   2.720   4.851
 7647SOL    HW123840   0.179   2.763   4.921
 7647SOL    HW223841   0.060   2.788   4.812
 7648SOL     OW23842   2.262   1.456   2.409
 7648SOL    HW123843   2.266   1.402   2.325
 7648SOL    HW223844   2.180   1.513   2.408
 7649SOL     OW23845   1.679   1.047   4.102
 7649SOL    HW123846   1.686   1.036   4.201
 7649SOL    HW223847   1.758   1.004   4.058
 7650SOL     OW23848   6.013   0.458   0.646
 7650SOL    HW123849   5.958   0.452   0.730
 7650SOL    HW223850   6.105   0.491   0.669
 7651SOL     OW23851   2.253   6.578   4.970
 7651SOL    HW123852   2.251   6.479   4.975
 7651SOL    HW223853   2.270   6.607   4.876
 7652SOL     OW23854   5.428   1.936   5.239
 7652SOL    HW123855   5.517   1.925   5.193
 7652SOL    HW223856   5.442   1.979   5.328
 7653SOL     OW23857   1.443   1.474   0.549
 7653SOL    HW123858   1.392   1.389   0.535
 7653SOL    HW223859   1.380   1.551   0.545
 7654SOL     OW23860   5.093   3.014   4.212
 7654SOL    HW123861   5.163   3.068   4.257
 7654SOL    HW223862   5.004   3.059   4.221
 7655SOL     OW23863   3.984   0.157   3.748
 7655SOL    HW123864   3.902   0.207   3.718
 7655SOL    HW223865   3.999   0.079   3.687
 7656SOL     OW23866   4.490   3.716   6.495
 7656SOL    HW123867   4.483   3.622   6.463
 7656SOL    HW223868   4.559   3.765   6.442
 7657SOL     OW23869   2.448   2.175   3.873
 7657SOL    HW123870   2.371   2.175   3.808
 7657SOL    HW223871   2.436   2.100   3.939
 7658SOL     OW23872   2.448   0.578   0.672
 7658SOL    HW123873   2.352   0.549   0.669
 7658SOL    HW223874   2.457   0.670   0.635
 7659SOL     OW23875   4.667   4.555   0.165
 7659SOL    HW123876   4.617   4.507   0.237
 7659SOL    HW223877   4.668   4.499   0.082
 7660SOL     OW23878   6.737   5.958   4.003
 7660SOL    HW123879   6.698   6.018   4.073
 7660SOL    HW223880   6.663   5.912   3.954
 7661SOL     OW23881   5.612   2.383   5.678
 7661SOL    HW123882   5.657   2.434   5.604
 7661SOL    HW223883   5.560   2.308   5.639
 7662SOL     OW23884   0.961   2.532   3.234
 7662SOL    HW123885   1.031   2.475   3.278
 7662SOL    HW223886   0.895   2.475   3.187
 7663SOL     OW23887   5.385   5.172   6.315
 7663SOL    HW123888   5.408   5.112   6.239
 7663SOL    HW223889   5.378   5.119   6.399
 7664SOL     OW23890   4.058   1.314   2.200
 7664SOL    HW123891   4.003   1.254   2.142
 7664SOL    HW223892   4.005   1.339   2.282
 7665SOL     OW23893   5.653   0.866   4.986
 7665SOL    HW123894   5.646   0.895   4.891
 7665SOL    HW223895   5.578   0.802   5.007
 7666SOL     OW23896   0.823   4.934   3.475
 7666SOL    HW123897   0.799   5.030   3.484
 7666SOL    HW223898   0.887   4.908   3.547
 7667SOL     OW23899   4.214   0.538   2.182
 7667SOL    HW123900   4.200   0.487   2.097
 7667SOL    HW223901   4.244   0.631   2.160
 7668SOL     OW23902   2.671   5.167   1.030
 7668SOL    HW123903   2.748   5.167   0.966
 7668SOL    HW223904   2.686   5.238   1.099
 7669SOL     OW23905   4.402   1.077   5.482
 7669SOL    HW123906   4.429   1.022   5.403
 7669SOL    HW223907   4.422   1.028   5.566
 7670SOL     OW23908   1.314   5.711   0.606
 7670SOL    HW123909   1.266   5.624   0.609
 7670SOL    HW223910   1.286   5.767   0.684
 7671SOL     OW23911   3.908   0.636   2.191
 7671SOL    HW123912   3.844   0.656   2.116
 7671SOL    HW223913   4.000   0.628   2.154
 7672SOL     OW23914   7.007   5.537   3.265
 7672SOL    HW123915   6.995   5.531   3.364
 7672SOL    HW223916   6.999   5.446   3.224
 7673SOL     OW23917   1.811   5.602   2.246
 7673SOL    HW123918   1.825   5.522   2.187
 7673SOL    HW223919   1.734   5.586   2.307
 7674SOL     OW23920   4.777   0.944   4.083
 7674SOL    HW123921   4.765   0.882   4.160
 7674SOL    HW223922   4.693   0.947   4.029
 7675SOL     OW23923   5.474   6.412   3.245
 7675SOL    HW123924   5.388   6.453   3.214
 7675SOL    HW223925   5.466   6.384   3.341
 7676SOL     OW23926   3.417   2.433   6.533
 7676SOL    HW123927   3.451   2.456   6.441
 7676SOL    HW223928   3.340   2.369   6.524
 7677SOL     OW23929   0.736   4.339   1.141
 7677SOL    HW123930   0.753   4.404   1.067
 7677SOL    HW223931   0.672   4.269   1.109
 7678SOL     OW23932   2.192   2.707   5.305
 7678SOL    HW123933   2.245   2.624   5.320
 7678SOL    HW223934   2.179   2.722   5.207
 7679SOL     OW23935   2.172   5.497   5.856
 7679SOL    HW123936   2.175   5.580   5.911
 7679SOL    HW223937   2.260   5.483   5.811
 7680SOL     OW23938   1.520   0.547   0.564
 7680SOL    HW123939   1.459   0.484   0.612
 7680SOL    HW223940   1.588   0.583   0.628
 7681SOL     OW23941   2.946   1.233   0.317
 7681SOL    HW123942   3.022   1.204   0.259
 7681SOL    HW223943   2.902   1.152   0.356
 7682SOL     OW23944   4.694   0.846   2.188
 7682SOL    HW123945   4.685   0.929   2.242
 7682SOL    HW223946   4.773   0.853   2.127
 7683SOL     OW23947   0.365   1.573   4.879
 7683SOL    HW123948   0.408   1.661   4.860
 7683SOL    HW223949   0.274   1.571   4.838
 7684SOL     OW23950   4.293   1.963   0.973
 7684SOL    HW123951   4.241   1.884   1.005
 7684SOL    HW223952   4.229   2.034   0.943
 7685SOL     OW23953   3.084   1.768   6.192
 7685SOL    HW123954   3.054   1.691   6.137
 7685SOL    HW223955   3.017   1.841   6.188
 7686SOL     OW23956   6.627   7.002   4.102
 7686SOL    HW123957   6.561   6.927   4.090
 7686SOL    HW223958   6.619   0.009   4.195
 7687SOL     OW23959   5.267   5.275   4.397
 7687SOL    HW123960   5.239   5.319   4.483
 7687SOL    HW223961   5.363   5.248   4.403
 7688SOL     OW23962   0.200   5.895   5.707
 7688SOL    HW123963   0.218   5.967   5.774
 7688SOL    HW223964   0.101   5.889   5.692
 7689SOL     OW23965   5.511   6.261   2.777
 7689SOL    HW123966   5.526   6.164   2.793
 7689SOL    HW223967   5.438   6.295   2.837
 7690SOL     OW23968   4.961   5.487   0.796
 7690SOL    HW123969   4.897   5.454   0.866
 7690SOL    HW223970   5.035   5.422   0.784
 7691SOL     OW23971   5.712   3.800   2.316
 7691SOL    HW123972   5.747   3.714   2.279
 7691SOL    HW223973   5.663   3.782   2.401
 7692SOL     OW23974   0.752   5.944   2.013
 7692SOL    HW123975   0.774   5.859   2.061
 7692SOL    HW223976   0.809   6.018   2.049
 7693SOL     OW23977   2.981   0.590   1.290
 7693SOL    HW123978   2.950   0.680   1.259
 7693SOL    HW223979   3.048   0.553   1.225
 7694SOL     OW23980   5.787   2.688   3.769
 7694SOL    HW123981   5.732   2.719   3.691
 7694SOL    HW223982   5.873   2.650   3.735
 7695SOL     OW23983   5.820   0.795   1.500
 7695SOL    HW123984   5.757   0.739   1.554
 7695SOL    HW223985   5.777   0.819   1.413
 7696SOL     OW23986   6.560   1.627   6.261
 7696SOL    HW123987   6.484   1.567   6.235
 7696SOL    HW223988   6.534   1.722   6.243
 7697SOL     OW23989   2.908   0.966   2.671
 7697SOL    HW123990   2.989   0.941   2.617
 7697SOL    HW223991   2.861   1.042   2.626
 7698SOL     OW23992   6.144   1.421   4.804
 7698SOL    HW123993   6.138   1.336   4.753
 7698SOL    HW223994   6.222   1.475   4.771
 7699SOL     OW23995   2.579   5.306   6.410
 7699SOL    HW123996   2.516   5.375   6.445
 7699SOL    HW223997   2.533   5.252   6.339
 7700SOL     OW23998   4.379   5.910   3.486
 7700SOL    HW123999   4.432   5.852   3.548
 7700SOL    HW224000   4.442   5.954   3.421
 7701SOL     OW24001   0.418   2.593   6.955
 7701SOL    HW124002   0.352   2.649   6.905
 7701SOL    HW224003   0.371   2.517   6.998
 7702SOL     OW24004   4.744   5.614   5.119
 7702SOL    HW124005   4.716   5.619   5.215
 7702SOL    HW224006   4.693   5.682   5.066
 7703SOL     OW24007   6.553   6.237   6.136
 7703SOL    HW124008   6.557   6.337   6.135
 7703SOL    HW224009   6.584   6.204   6.226
 7704SOL     OW24010   5.909   1.329   3.530
 7704SOL    HW124011   5.826   1.315   3.584
 7704SOL    HW224012   5.903   1.277   3.445
 7705SOL     OW24013   2.427   5.867   1.381
 7705SOL    HW124014   2.391   5.924   1.307
 7705SOL    HW224015   2.505   5.814   1.347
 7706SOL     OW24016   3.948   3.161   4.492
 7706SOL    HW124017   3.902   3.245   4.463
 7706SOL    HW224018   3.888   3.082   4.475
 7707SOL     OW24019   0.506   4.654   6.567
 7707SOL    HW124020   0.536   4.676   6.659
 7707SOL    HW224021   0.514   4.735   6.509
 7708SOL     OW24022   1.886   6.497   4.354
 7708SOL    HW124023   1.948   6.442   4.299
 7708SOL    HW224024   1.808   6.441   4.383
 7709SOL     OW24025   6.835   4.773   1.929
 7709SOL    HW124026   6.911   4.709   1.912
 7709SOL    HW224027   6.749   4.723   1.924
 7710SOL     OW24028   1.552   2.502   0.660
 7710SOL    HW124029   1.530   2.445   0.739
 7710SOL    HW224030   1.475   2.501   0.595
 7711SOL     OW24031   5.610   5.726   5.645
 7711SOL    HW124032   5.652   5.789   5.711
 7711SOL    HW224033   5.524   5.765   5.613
 7712SOL     OW24034   6.181   5.091   0.538
 7712SOL    HW124035   6.100   5.124   0.490
 7712SOL    HW224036   6.247   5.054   0.473
 7713SOL     OW24037   1.669   3.237   0.681
 7713SOL    HW124038   1.757   3.275   0.653
 7713SOL    HW224039   1.662   3.240   0.781
 7714SOL     OW24040   0.613   5.445   4.950
 7714SOL    HW124041   0.529   5.399   4.979
 7714SOL    HW224042   0.595   5.543   4.939
 7715SOL     OW24043   2.810   2.526   6.545
 7715SOL    HW124044   2.714   2.500   6.535
 7715SOL    HW224045   2.868   2.452   6.510
 7716SOL     OW24046   6.735   5.029   0.488
 7716SOL    HW124047   6.807   4.980   0.537
 7716SOL    HW224048   6.757   5.031   0.390
 7717SOL     OW24049   1.304   1.971   5.417
 7717SOL    HW124050   1.369   1.943   5.487
 7717SOL    HW224051   1.352   2.018   5.344
 7718SOL     OW24052   6.470   4.109   2.986
 7718SOL    HW124053   6.393   4.136   3.044
 7718SOL    HW224054   6.541   4.179   2.989
 7719SOL     OW24055   1.307   3.801   4.610
 7719SOL    HW124056   1.317   3.721   4.670
 7719SOL    HW224057   1.214   3.837   4.618
 7720SOL     OW24058   6.457   2.413   5.823
 7720SOL    HW124059   6.367   2.452   5.839
 7720SOL    HW224060   6.523   2.455   5.887
 7721SOL     OW24061   0.626   6.234   2.598
 7721SOL    HW124062   0.604   6.328   2.624
 7721SOL    HW224063   0.633   6.228   2.499
 7722SOL     OW24064   1.706   4.707   3.608
 7722SOL    HW124065   1.765   4.694   3.688
 7722SOL    HW224066   1.690   4.619   3.564
 7723SOL     OW24067   4.210   3.801   6.741
 7723SOL    HW124068   4.201   3.702   6.744
 7723SOL    HW224069   4.254   3.834   6.825
 7724SOL     OW24070   3.395   4.416   0.481
 7724SOL    HW124071   3.364   4.504   0.446
 7724SOL    HW224072   3.343   4.342   0.438
 7725SOL     OW24073   6.260   1.623   2.925
 7725SOL    HW124074   6.241   1.525   2.926
 7725SOL    HW224075   6.292   1.650   2.834
 7726SOL     OW24076   1.547   3.810   6.519
 7726SOL    HW124077   1.622   3.876   6.523
 7726SOL    HW224078   1.479   3.832   6.588
 7727SOL     OW24079   5.790   2.844   2.033
 7727SOL    HW124080   5.729   2.784   2.085
 7727SOL    HW224081   5.859   2.883   2.094
 7728SOL     OW24082   2.213   3.122   4.790
 7728SOL    HW124083   2.268   3.065   4.851
 7728SOL    HW224084   2.135   3.159   4.840
 7729SOL     OW24085   5.605   1.370   2.047
 7729SOL    HW124086   5.679   1.347   2.110
 7729SOL    HW224087   5.517   1.352   2.091
 7730SOL     OW24088   0.231   4.562   6.509
 7730SOL    HW124089   0.320   4.601   6.535
 7730SOL    HW224090   0.219   4.569   6.410
 7731SOL     OW24091   6.983   0.070   0.084
 7731SOL    HW124092   6.917   0.019   0.139
 7731SOL    HW224093   6.956   0.166   0.079
 7732SOL     OW24094   4.103   0.558   0.332
 7732SOL    HW124095   4.053   0.513   0.258
 7732SOL    HW224096   4.130   0.649   0.303
 7733SOL     OW24097   6.251   5.563   2.198
 7733SOL    HW124098   6.274   5.471   2.228
 7733SOL    HW224099   6.208   5.613   2.274
 7734SOL     OW24100   1.817   4.754   4.742
 7734SOL    HW124101   1.795   4.845   4.709
 7734SOL    HW224102   1.852   4.759   4.835
 7735SOL     OW24103   6.040   5.875   6.908
 7735SOL    HW124104   6.119   5.832   6.864
 7735SOL    HW224105   5.988   5.927   6.840
 7736SOL     OW24106   2.245   3.279   0.425
 7736SOL    HW124107   2.247   3.242   0.332
 7736SOL    HW224108   2.252   3.204   0.491
 7737SOL     OW24109   3.788   6.640   1.861
 7737SOL    HW124110   3.738   6.629   1.947
 7737SOL    HW224111   3.801   6.551   1.818
 7738SOL     OW24112   2.769   5.441   0.295
 7738SOL    HW124113   2.773   5.349   0.334
 7738SOL    HW224114   2.861   5.480   0.293
 7739SOL     OW24115   1.973   1.979   1.442
 7739SOL    HW124116   2.016   2.055   1.489
 7739SOL    HW224117   1.980   1.992   1.343
 7740SOL     OW24118   1.648   0.979   2.600
 7740SOL    HW124119   1.617   0.951   2.690
 7740SOL    HW224120   1.667   0.899   2.544
 7741SOL     OW24121   0.143   3.602   4.883
 7741SOL    HW124122   0.194   3.641   4.806
 7741SOL    HW224123   0.208   3.571   4.953
 7742SOL     OW24124   4.537   1.816   3.775
 7742SOL    HW124125   4.554   1.734   3.721
 7742SOL    HW224126   4.620   1.841   3.825
 7743SOL     OW24127   4.799   1.664   6.615
 7743SOL    HW124128   4.739   1.599   6.662
 7743SOL    HW224129   4.876   1.615   6.575
 7744SOL     OW24130   1.384   6.297   3.379
 7744SOL    HW124131   1.390   6.212   3.327
 7744SOL    HW224132   1.339   6.280   3.466
 7745SOL     OW24133   2.621   7.006   0.593
 7745SOL    HW124134   2.720   7.014   0.584
 7745SOL    HW224135   2.586   0.054   0.646
 7746SOL     OW24136   1.093   6.909   0.775
 7746SOL    HW124137   1.001   6.934   0.804
 7746SOL    HW224138   1.090   6.872   0.682
 7747SOL     OW24139   6.773   5.892   1.329
 7747SOL    HW124140   6.746   5.836   1.250
 7747SOL    HW224141   6.872   5.883   1.344
 7748SOL     OW24142   3.568   4.090   3.587
 7748SOL    HW124143   3.551   4.027   3.512
 7748SOL    HW224144   3.482   4.136   3.613
 7749SOL     OW24145   3.720   3.739   3.757
 7749SOL    HW124146   3.644   3.742   3.821
 7749SOL    HW224147   3.799   3.786   3.797
 7750SOL     OW24148   6.444   6.025   6.591
 7750SOL    HW124149   6.408   5.932   6.593
 7750SOL    HW224150   6.378   6.087   6.633
 7751SOL     OW24151   0.528   2.272   2.626
 7751SOL    HW124152   0.473   2.188   2.616
 7751SOL    HW224153   0.611   2.252   2.677
 7752SOL     OW24154   5.532   5.919   5.235
 7752SOL    HW124155   5.605   5.882   5.292
 7752SOL    HW224156   5.486   5.844   5.187
 7753SOL     OW24157   2.763   0.812   3.853
 7753SOL    HW124158   2.813   0.761   3.922
 7753SOL    HW224159   2.696   0.871   3.897
 7754SOL     OW24160   5.517   6.741   1.753
 7754SOL    HW124161   5.484   6.764   1.662
 7754SOL    HW224162   5.519   6.824   1.809
 7755SOL     OW24163   1.366   1.908   5.900
 7755SOL    HW124164   1.287   1.929   5.842
 7755SOL    HW224165   1.444   1.883   5.842
 7756SOL     OW24166   3.379   5.116   2.684
 7756SOL    HW124167   3.447   5.188   2.696
 7756SOL    HW224168   3.296   5.154   2.643
 7757SOL     OW24169   4.916   6.130   3.998
 7757SOL    HW124170   4.889   6.184   3.919
 7757SOL    HW224171   4.845   6.136   4.068
 7758SOL     OW24172   1.916   2.104   6.726
 7758SOL    HW124173   1.926   2.087   6.628
 7758SOL    HW224174   1.940   2.021   6.777
 7759SOL     OW24175   1.106   1.677   4.868
 7759SOL    HW124176   1.155   1.625   4.939
 7759SOL    HW224177   1.012   1.643   4.862
 7760SOL     OW24178   5.808   2.727   2.683
 7760SOL    HW124179   5.766   2.677   2.607
 7760SOL    HW224180   5.765   2.817   2.691
 7761SOL     OW24181   1.671   0.033   6.223
 7761SOL    HW124182   1.701   6.972   6.255
 7761SOL    HW224183   1.582   0.025   6.179
 7762SOL     OW24184   4.259   0.791   4.507
 7762SOL    HW124185   4.283   0.794   4.604
 7762SOL    HW224186   4.203   0.711   4.488
 7763SOL     OW24187   0.974   1.642   1.546
 7763SOL    HW124188   1.045   1.690   1.494
 7763SOL    HW224189   0.952   1.556   1.500
 7764SOL     OW24190   3.562   2.906   2.879
 7764SOL    HW124191   3.605   2.896   2.968
 7764SOL    HW224192   3.632   2.927   2.810
 7765SOL     OW24193   6.012   2.868   4.161
 7765SOL    HW124194   6.077   2.852   4.087
 7765SOL    HW224195   6.042   2.945   4.216
 7766SOL     OW24196   4.982   1.895   0.214
 7766SOL    HW124197   4.901   1.950   0.235
 7766SOL    HW224198   4.985   1.816   0.275
 7767SOL     OW24199   4.021   6.379   3.783
 7767SOL    HW124200   3.951   6.386   3.711
 7767SOL    HW224201   4.110   6.404   3.745
 7768SOL     OW24202   4.459   5.210   2.580
 7768SOL    HW124203   4.447   5.212   2.679
 7768SOL    HW224204   4.524   5.138   2.556
 7769SOL     OW24205   4.892   2.281   2.432
 7769SOL    HW124206   4.884   2.249   2.337
 7769SOL    HW224207   4.827   2.231   2.489
 7770SOL     OW24208   1.177   3.669   2.669
 7770SOL    HW124209   1.132   3.588   2.706
 7770SOL    HW224210   1.271   3.646   2.644
 7771SOL     OW24211   2.365   2.723   4.915
 7771SOL    HW124212   2.439   2.714   4.848
 7771SOL    HW224213   2.363   2.817   4.950
 7772SOL     OW24214   4.926   1.170   3.453
 7772SOL    HW124215   4.832   1.178   3.486
 7772SOL    HW224216   4.972   1.096   3.502
 7773SOL     OW24217   3.182   5.056   5.551
 7773SOL    HW124218   3.106   5.048   5.487
 7773SOL    HW224219   3.259   5.102   5.507
 7774SOL     OW24220   6.536   2.522   6.548
 7774SOL    HW124221   6.506   2.587   6.618
 7774SOL    HW224222   6.467   2.452   6.535
 7775SOL     OW24223   4.213   6.578   2.956
 7775SOL    HW124224   4.139   6.634   2.994
 7775SOL    HW224225   4.256   6.627   2.880
 7776SOL     OW24226   3.313   4.114   6.712
 7776SOL    HW124227   3.294   4.129   6.615
 7776SOL    HW224228   3.233   4.138   6.766
 7777SOL     OW24229   1.895   1.011   5.005
 7777SOL    HW124230   1.815   0.954   4.985
 7777SOL    HW224231   1.948   0.970   5.079
 7778SOL     OW24232   4.906   6.292   0.220
 7778SOL    HW124233   4.986   6.280   0.160
 7778SOL    HW224234   4.883   6.204   0.262
 7779SOL     OW24235   2.929   3.140   0.744
 7779SOL    HW124236   2.979   3.076   0.802
 7779SOL    HW224237   2.970   3.142   0.653
 7780SOL     OW24238   1.555   5.194   5.014
 7780SOL    HW124239   1.602   5.114   4.977
 7780SOL    HW224240   1.588   5.276   4.969
 7781SOL     OW24241   1.655   5.054   6.938
 7781SOL    HW124242   1.706   4.968   6.934
 7781SOL    HW224243   1.565   5.037   6.978
 7782SOL     OW24244   1.322   4.231   5.730
 7782SOL    HW124245   1.357   4.150   5.684
 7782SOL    HW224246   1.391   4.303   5.728
 7783SOL     OW24247   1.883   5.558   5.442
 7783SOL    HW124248   1.809   5.503   5.404
 7783SOL    HW224249   1.919   5.619   5.371
 7784SOL     OW24250   3.160   2.876   0.119
 7784SOL    HW124251   3.206   2.854   0.205
 7784SOL    HW224252   3.069   2.912   0.138
 7785SOL     OW24253   1.705   6.704   4.347
 7785SOL    HW124254   1.685   6.648   4.428
 7785SOL    HW224255   1.794   6.678   4.309
 7786SOL     OW24256   3.072   5.868   6.667
 7786SOL    HW124257   3.069   5.944   6.602
 7786SOL    HW224258   3.042   5.900   6.757
 7787SOL     OW24259   2.576   2.785   6.075
 7787SOL    HW124260   2.657   2.842   6.069
 7787SOL    HW224261   2.526   2.807   6.159
 7788SOL     OW24262   1.878   6.962   2.019
 7788SOL    HW124263   1.962   6.979   2.072
 7788SOL    HW224264   1.902   6.916   1.934
 7789SOL     OW24265   3.053   0.358   0.158
 7789SOL    HW124266   3.149   0.349   0.132
 7789SOL    HW224267   3.036   0.307   0.243
 7790SOL     OW24268   5.660   5.031   2.497
 7790SOL    HW124269   5.660   5.085   2.581
 7790SOL    HW224270   5.680   5.090   2.419
 7791SOL     OW24271   2.672   6.462   3.978
 7791SOL    HW124272   2.702   6.545   4.025
 7791SOL    HW224273   2.738   6.388   3.996
 7792SOL     OW24274   1.733   5.059   6.085
 7792SOL    HW124275   1.819   5.096   6.120
 7792SOL    HW224276   1.717   5.094   5.993
 7793SOL     OW24277   2.880   0.431   6.499
 7793SOL    HW124278   2.783   0.450   6.515
 7793SOL    HW224279   2.935   0.484   6.563
 7794SOL     OW24280   5.296   5.334   3.629
 7794SOL    HW124281   5.298   5.277   3.547
 7794SOL    HW224282   5.230   5.297   3.694
 7795SOL     OW24283   1.839   3.602   5.497
 7795SOL    HW124284   1.781   3.544   5.440
 7795SOL    HW224285   1.915   3.637   5.444
 7796SOL     OW24286   3.343   3.713   3.307
 7796SOL    HW124287   3.275   3.666   3.251
 7796SOL    HW224288   3.313   3.807   3.323
 7797SOL     OW24289   0.812   6.691   3.045
 7797SOL    HW124290   0.804   6.668   3.142
 7797SOL    HW224291   0.722   6.684   3.001
 7798SOL     OW24292   1.425   4.970   5.913
 7798SOL    HW124293   1.511   5.012   5.883
 7798SOL    HW224294   1.351   5.036   5.903
 7799SOL     OW24295   0.171   6.561   1.773
 7799SOL    HW124296   0.200   6.468   1.752
 7799SOL    HW224297   0.158   6.571   1.872
 7800SOL     OW24298   1.560   5.340   0.534
 7800SOL    HW124299   1.548   5.428   0.580
 7800SOL    HW224300   1.519   5.267   0.589
 7801SOL     OW24301   1.719   2.209   1.918
 7801SOL    HW124302   1.800   2.160   1.948
 7801SOL    HW224303   1.744   2.278   1.850
 7802SOL     OW24304   5.485   2.184   1.405
 7802SOL    HW124305   5.579   2.156   1.426
 7802SOL    HW224306   5.460   2.262   1.462
 7803SOL     OW24307   4.208   2.327   6.050
 7803SOL    HW124308   4.306   2.341   6.038
 7803SOL    HW224309   4.160   2.349   5.965
 7804SOL     OW24310   5.372   1.202   4.427
 7804SOL    HW124311   5.287   1.189   4.376
 7804SOL    HW224312   5.355   1.258   4.508
 7805SOL     OW24313   5.430   1.423   0.820
 7805SOL    HW124314   5.462   1.478   0.742
 7805SOL    HW224315   5.425   1.481   0.901
 7806SOL     OW24316   5.822   2.433   6.342
 7806SOL    HW124317   5.785   2.526   6.344
 7806SOL    HW224318   5.857   2.414   6.251
 7807SOL     OW24319   0.201   4.287   5.460
 7807SOL    HW124320   0.145   4.206   5.441
 7807SOL    HW224321   0.237   4.282   5.553
 7808SOL     OW24322   6.953   2.936   4.815
 7808SOL    HW124323   6.853   2.941   4.817
 7808SOL    HW224324   6.990   3.021   4.775
 7809SOL     OW24325   2.423   5.582   4.752
 7809SOL    HW124326   2.346   5.545   4.700
 7809SOL    HW224327   2.427   5.539   4.843
 7810SOL     OW24328   3.511   7.015   5.002
 7810SOL    HW124329   3.568   6.947   4.956
 7810SOL    HW224330   3.557   0.019   5.085
 7811SOL     OW24331   0.762   5.200   3.438
 7811SOL    HW124332   0.666   5.175   3.432
 7811SOL    HW224333   0.783   5.272   3.372
 7812SOL     OW24334   1.756   1.985   3.611
 7812SOL    HW124335   1.689   2.041   3.660
 7812SOL    HW224336   1.806   2.042   3.546
 7813SOL     OW24337   4.005   2.468   6.733
 7813SOL    HW124338   3.995   2.543   6.669
 7813SOL    HW224339   3.945   2.392   6.706
 7814SOL     OW24340   6.715   3.091   3.849
 7814SOL    HW124341   6.781   3.163   3.829
 7814SOL    HW224342   6.654   3.121   3.922
 7815SOL     OW24343   4.951   0.469   6.432
 7815SOL    HW124344   4.869   0.498   6.384
 7815SOL    HW224345   4.926   0.429   6.521
 7816SOL     OW24346   1.338   2.770   6.802
 7816SOL    HW124347   1.316   2.807   6.712
 7816SOL    HW224348   1.432   2.736   6.801
 7817SOL     OW24349   5.354   4.305   3.460
 7817SOL    HW124350   5.271   4.251   3.447
 7817SOL    HW224351   5.386   4.293   3.554
 7818SOL     OW24352   4.166   1.031   3.246
 7818SOL    HW124353   4.199   1.097   3.179
 7818SOL    HW224354   4.111   1.078   3.316
 7819SOL     OW24355   6.438   2.725   2.090
 7819SOL    HW124356   6.413   2.810   2.042
 7819SOL    HW224357   6.361   2.695   2.146
 7820SOL     OW24358   0.993   2.260   4.531
 7820SOL    HW124359   0.910   2.315   4.545
 7820SOL    HW224360   1.000   2.234   4.435
 7821SOL     OW24361   5.145   6.270   1.275
 7821SOL    HW124362   5.222   6.215   1.240
 7821SOL    HW224363   5.144   6.359   1.229
 7822SOL     OW24364   0.587   0.632   5.698
 7822SOL    HW124365   0.533   0.676   5.626
 7822SOL    HW224366   0.641   0.701   5.747
 7823SOL     OW24367   2.662   3.906   5.343
 7823SOL    HW124368   2.665   3.983   5.407
 7823SOL    HW224369   2.587   3.918   5.279
 7824SOL     OW24370   6.038   1.544   4.492
 7824SOL    HW124371   6.026   1.626   4.548
 7824SOL    HW224372   6.135   1.518   4.492
 7825SOL     OW24373   1.072   2.767   0.764
 7825SOL    HW124374   1.136   2.693   0.786
 7825SOL    HW224375   1.049   2.765   0.667
 7826SOL     OW24376   6.197   1.378   1.129
 7826SOL    HW124377   6.154   1.341   1.047
 7826SOL    HW224378   6.280   1.428   1.104
 7827SOL     OW24379   2.006   5.876   1.159
 7827SOL    HW124380   1.937   5.945   1.182
 7827SOL    HW224381   2.097   5.913   1.175
 7828SOL     OW24382   6.746   4.913   0.003
 7828SOL    HW124383   6.682   4.989   7.024
 7828SOL    HW224384   6.840   4.947   7.026
 7829SOL     OW24385   2.266   3.228   1.765
 7829SOL    HW124386   2.290   3.314   1.810
 7829SOL    HW224387   2.217   3.169   1.830
 7830SOL     OW24388   2.615   5.204   5.416
 7830SOL    HW124389   2.604   5.115   5.371
 7830SOL    HW224390   2.707   5.239   5.397
 7831SOL     OW24391   1.576   0.013   1.463
 7831SOL    HW124392   1.563   6.944   1.445
 7831SOL    HW224393   1.490   0.062   1.445
 7832SOL     OW24394   6.085   0.825   4.249
 7832SOL    HW124395   6.086   0.865   4.340
 7832SOL    HW224396   6.176   0.792   4.225
 7833SOL     OW24397   0.844   0.836   5.229
 7833SOL    HW124398   0.852   0.868   5.324
 7833SOL    HW224399   0.755   0.793   5.216
 7834SOL     OW24400   6.590   1.261   3.812
 7834SOL    HW124401   6.520   1.329   3.832
 7834SOL    HW224402   6.677   1.289   3.852
 7835SOL     OW24403   3.648   1.978   5.572
 7835SOL    HW124404   3.691   1.961   5.483
 7835SOL    HW224405   3.634   1.891   5.619
 7836SOL     OW24406   3.233   3.373   4.770
 7836SOL    HW124407   3.254   3.469   4.751
 7836SOL    HW224408   3.171   3.338   4.700
 7837SOL     OW24409   4.376   5.351   0.022
 7837SOL    HW124410   4.370   5.316   0.115
 7837SOL    HW224411   4.468   5.389   0.007
 7838SOL     OW24412   4.040   6.931   0.692
 7838SOL    HW124413   4.116   6.876   0.658
 7838SOL    HW224414   4.050   6.945   0.791
 7839SOL     OW24415   5.886   4.291   4.731
 7839SOL    HW124416   5.978   4.330   4.733
 7839SOL    HW224417   5.836   4.328   4.652
 7840SOL     OW24418   6.434   3.372   4.146
 7840SOL    HW124419   6.475   3.458   4.178
 7840SOL    HW224420   6.507   3.307   4.124
 7841SOL     OW24421   3.603   1.816   6.116
 7841SOL    HW124422   3.512   1.840   6.150
 7841SOL    HW224423   3.664   1.894   6.126
 7842SOL     OW24424   2.331   1.614   2.631
 7842SOL    HW124425   2.425   1.625   2.662
 7842SOL    HW224426   2.329   1.552   2.552
 7843SOL     OW24427   0.694   5.792   3.127
 7843SOL    HW124428   0.713   5.886   3.156
 7843SOL    HW224429   0.687   5.733   3.208
 7844SOL     OW24430   2.905   0.732   2.395
 7844SOL    HW124431   2.956   0.776   2.469
 7844SOL    HW224432   2.818   0.697   2.431
 7845SOL     OW24433   5.196   1.902   2.550
 7845SOL    HW124434   5.168   1.947   2.635
 7845SOL    HW224435   5.226   1.970   2.484
 7846SOL     OW24436   0.328   2.545   0.840
 7846SOL    HW124437   0.333   2.533   0.741
 7846SOL    HW224438   0.310   2.456   0.883
 7847SOL     OW24439   6.654   1.286   3.534
 7847SOL    HW124440   6.592   1.253   3.462
 7847SOL    HW224441   6.616   1.261   3.623
 7848SOL     OW24442   3.247   5.102   0.419
 7848SOL    HW124443   3.263   5.200   0.423
 7848SOL    HW224444   3.323   5.057   0.372
 7849SOL     OW24445   6.507   4.235   4.764
 7849SOL    HW124446   6.503   4.324   4.810
 7849SOL    HW224447   6.477   4.164   4.827
 7850SOL     OW24448   0.408   1.446   3.912
 7850SOL    HW124449   0.486   1.504   3.935
 7850SOL    HW224450   0.428   1.394   3.829
 7851SOL     OW24451   6.948   2.078   1.184
 7851SOL    HW124452   6.928   2.137   1.262
 7851SOL    HW224453   6.975   1.987   1.218
 7852SOL     OW24454   3.359   1.906   6.966
 7852SOL    HW124455   3.337   1.924   6.870
 7852SOL    HW224456   3.422   1.977   6.999
 7853SOL     OW24457   4.869   2.713   1.248
 7853SOL    HW124458   4.928   2.751   1.319
 7853SOL    HW224459   4.822   2.788   1.201
 7854SOL     OW24460   3.500   3.358   5.904
 7854SOL    HW124461   3.447   3.302   5.967
 7854SOL    HW224462   3.490   3.455   5.928
 7855SOL     OW24463   4.484   6.764   4.963
 7855SOL    HW124464   4.550   6.806   5.025
 7855SOL    HW224465   4.524   6.754   4.872
 7856SOL     OW24466   6.640   5.610   5.131
 7856SOL    HW124467   6.716   5.544   5.129
 7856SOL    HW224468   6.553   5.561   5.129
 7857SOL     OW24469   4.575   2.755   0.384
 7857SOL    HW124470   4.636   2.694   0.434
 7857SOL    HW224471   4.549   2.832   0.442
 7858SOL     OW24472   6.705   6.270   4.608
 7858SOL    HW124473   6.740   6.176   4.605
 7858SOL    HW224474   6.726   6.315   4.522
 7859SOL     OW24475   4.239   3.272   6.422
 7859SOL    HW124476   4.257   3.327   6.340
 7859SOL    HW224477   4.293   3.307   6.498
 7860SOL     OW24478   4.445   1.086   4.138
 7860SOL    HW124479   4.363   1.126   4.179
 7860SOL    HW224480   4.518   1.082   4.206
 7861SOL     OW24481   3.313   4.501   1.678
 7861SOL    HW124482   3.408   4.530   1.694
 7861SOL    HW224483   3.307   4.402   1.684
 7862SOL     OW24484   2.118   5.001   2.044
 7862SOL    HW124485   2.125   5.054   2.129
 7862SOL    HW224486   2.027   5.016   2.004
 7863SOL     OW24487   0.138   3.860   4.352
 7863SOL    HW124488   0.211   3.805   4.393
 7863SOL    HW224489   0.178   3.925   4.287
 7864SOL     OW24490   0.692   4.978   5.476
 7864SOL    HW124491   0.696   4.880   5.495
 7864SOL    HW224492   0.661   5.026   5.558
 7865SOL     OW24493   6.526   6.163   3.898
 7865SOL    HW124494   6.473   6.129   3.821
 7865SOL    HW224495   6.474   6.152   3.982
 7866SOL     OW24496   0.815   0.580   5.522
 7866SOL    HW124497   0.855   0.672   5.531
 7866SOL    HW224498   0.728   0.577   5.570
 7867SOL     OW24499   5.969   5.799   3.526
 7867SOL    HW124500   5.986   5.700   3.521
 7867SOL    HW224501   5.872   5.817   3.511
 7868SOL     OW24502   4.584   5.678   1.364
 7868SOL    HW124503   4.613   5.662   1.270
 7868SOL    HW224504   4.645   5.744   1.407
 7869SOL     OW24505   5.278   4.168   6.252
 7869SOL    HW124506   5.180   4.167   6.234
 7869SOL    HW224507   5.317   4.079   6.230
 7870SOL     OW24508   5.225   6.091   4.312
 7870SOL    HW124509   5.184   6.014   4.264
 7870SOL    HW224510   5.156   6.135   4.369
 7871SOL     OW24511   4.739   2.142   1.642
 7871SOL    HW124512   4.823   2.090   1.623
 7871SOL    HW224513   4.742   2.229   1.593
 7872SOL     OW24514   2.192   3.887   3.274
 7872SOL    HW124515   2.224   3.847   3.359
 7872SOL    HW224516   2.204   3.986   3.277
 7873SOL     OW24517   6.086   6.630   0.192
 7873SOL    HW124518   6.063   6.587   0.279
 7873SOL    HW224519   6.132   6.717   0.208
 7874SOL     OW24520   4.967   2.252   0.751
 7874SOL    HW124521   4.968   2.283   0.656
 7874SOL    HW224522   5.039   2.185   0.765
 7875SOL     OW24523   4.424   2.598   6.393
 7875SOL    HW124524   4.468   2.515   6.427
 7875SOL    HW224525   4.373   2.642   6.467
 7876SOL     OW24526   1.171   6.441   3.260
 7876SOL    HW124527   1.250   6.383   3.281
 7876SOL    HW224528   1.202   6.535   3.245
 7877SOL     OW24529   0.746   1.922   2.719
 7877SOL    HW124530   0.730   1.930   2.621
 7877SOL    HW224531   0.726   1.829   2.749
 7878SOL     OW24532   4.885   4.645   4.683
 7878SOL    HW124533   4.804   4.635   4.741
 7878SOL    HW224534   4.862   4.623   4.588
 7879SOL     OW24535   3.865   5.136   3.206
 7879SOL    HW124536   3.937   5.174   3.265
 7879SOL    HW224537   3.854   5.039   3.226
 7880SOL     OW24538   1.940   4.176   2.115
 7880SOL    HW124539   1.976   4.102   2.058
 7880SOL    HW224540   1.925   4.257   2.060
 7881SOL     OW24541   5.754   4.553   5.112
 7881SOL    HW124542   5.656   4.572   5.125
 7881SOL    HW224543   5.775   4.553   5.015
 7882SOL     OW24544   1.582   3.883   1.927
 7882SOL    HW124545   1.583   3.897   1.828
 7882SOL    HW224546   1.499   3.833   1.952
 7883SOL     OW24547   1.180   0.291   6.578
 7883SOL    HW124548   1.131   0.216   6.624
 7883SOL    HW224549   1.203   0.361   6.645
 7884SOL     OW24550   1.935   4.161   4.724
 7884SOL    HW124551   1.919   4.131   4.630
 7884SOL    HW224552   1.876   4.239   4.744
 7885SOL     OW24553   6.706   5.474   1.159
 7885SOL    HW124554   6.789   5.456   1.211
 7885SOL    HW224555   6.689   5.399   1.095
 7886SOL     OW24556   4.040   5.651   0.126
 7886SOL    HW124557   4.096   5.708   0.187
 7886SOL    HW224558   4.077   5.655   0.033
 7887SOL     OW24559   2.930   2.474   6.038
 7887SOL    HW124560   3.001   2.463   5.968
 7887SOL    HW224561   2.906   2.384   6.074
 7888SOL     OW24562   6.439   0.502   5.515
 7888SOL    HW124563   6.373   0.547   5.455
 7888SOL    HW224564   6.439   0.404   5.496
 7889SOL     OW24565   1.876   4.096   2.622
 7889SOL    HW124566   1.894   4.173   2.560
 7889SOL    HW224567   1.890   4.010   2.574
 7890SOL     OW24568   1.784   3.235   2.509
 7890SOL    HW124569   1.799   3.163   2.441
 7890SOL    HW224570   1.688   3.260   2.511
 7891SOL     OW24571   1.718   3.296   3.437
 7891SOL    HW124572   1.799   3.302   3.496
 7891SOL    HW224573   1.745   3.265   3.346
 7892SOL     OW24574   2.083   1.973   4.128
 7892SOL    HW124575   2.082   1.891   4.185
 7892SOL    HW224576   2.169   1.976   4.076
 7893SOL     OW24577   6.839   6.666   2.738
 7893SOL    HW124578   6.838   6.591   2.672
 7893SOL    HW224579   6.747   6.678   2.777
 7894SOL     OW24580   2.821   0.103   1.399
 7894SOL    HW124581   2.880   0.138   1.326
 7894SOL    HW224582   2.726   0.130   1.381
 7895SOL     OW24583   6.414   1.283   5.799
 7895SOL    HW124584   6.484   1.222   5.762
 7895SOL    HW224585   6.345   1.299   5.728
 7896SOL     OW24586   4.889   3.809   6.591
 7896SOL    HW124587   4.966   3.747   6.579
 7896SOL    HW224588   4.895   3.853   6.680
 7897SOL     OW24589   2.686   4.077   6.968
 7897SOL    HW124590   2.704   4.172   6.991
 7897SOL    HW224591   2.743   4.017   7.025
 7898SOL     OW24592   5.064   1.804   3.852
 7898SOL    HW124593   5.050   1.853   3.765
 7898SOL    HW224594   5.054   1.706   3.836
 7899SOL     OW24595   6.009   1.215   1.462
 7899SOL    HW124596   5.952   1.210   1.379
 7899SOL    HW224597   6.088   1.272   1.443
 7900SOL     OW24598   1.635   5.945   1.457
 7900SOL    HW124599   1.607   6.011   1.387
 7900SOL    HW224600   1.558   5.887   1.481
 7901SOL     OW24601   4.819   1.060   6.320
 7901SOL    HW124602   4.797   1.120   6.243
 7901SOL    HW224603   4.746   1.065   6.388
 7902SOL     OW24604   5.437   5.603   1.658
 7902SOL    HW124605   5.502   5.678   1.643
 7902SOL    HW224606   5.383   5.622   1.740
 7903SOL     OW24607   6.037   1.769   0.657
 7903SOL    HW124608   5.980   1.694   0.691
 7903SOL    HW224609   5.979   1.842   0.623
 7904SOL     OW24610   5.696   0.057   3.466
 7904SOL    HW124611   5.732   0.041   3.559
 7904SOL    HW224612   5.755   0.122   3.419
 7905SOL     OW24613   4.428   2.411   0.251
 7905SOL    HW124614   4.523   2.395   0.276
 7905SOL    HW224615   4.368   2.384   0.327
 7906SOL     OW24616   0.418   5.661   0.440
 7906SOL    HW124617   0.382   5.748   0.475
 7906SOL    HW224618   0.427   5.596   0.515
 7907SOL     OW24619   5.819   1.837   3.730
 7907SOL    HW124620   5.850   1.746   3.757
 7907SOL    HW224621   5.897   1.900   3.728
 7908SOL     OW24622   0.514   1.357   4.619
 7908SOL    HW124623   0.565   1.417   4.558
 7908SOL    HW224624   0.555   1.265   4.617
 7909SOL     OW24625   5.615   3.859   5.123
 7909SOL    HW124626   5.612   3.887   5.027
 7909SOL    HW224627   5.535   3.895   5.170
 7910SOL     OW24628   2.674   2.967   5.534
 7910SOL    HW124629   2.595   2.948   5.591
 7910SOL    HW224630   2.653   3.042   5.471
 7911SOL     OW24631   1.556   3.111   6.385
 7911SOL    HW124632   1.478   3.077   6.333
 7911SOL    HW224633   1.565   3.209   6.373
 7912SOL     OW24634   0.246   5.408   0.452
 7912SOL    HW124635   0.317   5.479   0.452
 7912SOL    HW224636   0.166   5.442   0.501
 7913SOL     OW24637   1.497   5.469   0.940
 7913SOL    HW124638   1.529   5.499   0.850
 7913SOL    HW224639   1.526   5.375   0.957
 7914SOL     OW24640   0.159   4.618   6.244
 7914SOL    HW124641   0.080   4.648   6.191
 7914SOL    HW224642   0.228   4.578   6.183
 7915SOL     OW24643   4.849   3.031   2.655
 7915SOL    HW124644   4.892   3.088   2.586
 7915SOL    HW224645   4.827   2.942   2.615
 7916SOL     OW24646   6.824   3.762   5.893
 7916SOL    HW124647   6.824   3.778   5.991
 7916SOL    HW224648   6.898   3.699   5.870
 7917SOL     OW24649   3.128   3.113   3.720
 7917SOL    HW124650   3.058   3.165   3.670
 7917SOL    HW224651   3.181   3.175   3.778
 7918SOL     OW24652   0.409   1.682   0.348
 7918SOL    HW124653   0.460   1.597   0.340
 7918SOL    HW224654   0.363   1.686   0.437
 7919SOL     OW24655   0.956   4.477   3.034
 7919SOL    HW124656   0.886   4.538   2.995
 7919SOL    HW224657   0.916   4.423   3.107
 7920SOL     OW24658   0.928   5.270   1.340
 7920SOL    HW124659   0.908   5.302   1.432
 7920SOL    HW224660   1.027   5.266   1.327
 7921SOL     OW24661   4.236   5.838   0.744
 7921SOL    HW124662   4.257   5.758   0.800
 7921SOL    HW224663   4.319   5.893   0.731
 7922SOL     OW24664   6.487   5.563   0.627
 7922SOL    HW124665   6.532   5.553   0.716
 7922SOL    HW224666   6.474   5.472   0.587
 7923SOL     OW24667   2.974   0.253   2.211
 7923SOL    HW124668   3.007   0.339   2.249
 7923SOL    HW224669   2.911   0.272   2.135
 7924SOL     OW24670   4.097   6.073   2.778
 7924SOL    HW124671   4.046   6.027   2.705
 7924SOL    HW224672   4.062   6.166   2.789
 7925SOL     OW24673   0.729   1.835   6.502
 7925SOL    HW124674   0.680   1.894   6.438
 7925SOL    HW224675   0.664   1.779   6.554
 7926SOL     OW24676   4.846   1.076   4.811
 7926SOL    HW124677   4.892   1.015   4.876
 7926SOL    HW224678   4.913   1.109   4.744
 7927SOL     OW24679   4.129   5.686   4.465
 7927SOL    HW124680   4.053   5.749   4.483
 7927SOL    HW224681   4.209   5.738   4.434
 7928SOL     OW24682   1.584   2.932   4.177
 7928SOL    HW124683   1.604   3.030   4.181
 7928SOL    HW224684   1.496   2.918   4.132
 7929SOL     OW24685   4.015   4.076   5.583
 7929SOL    HW124686   3.941   4.141   5.593
 7929SOL    HW224687   4.002   4.001   5.648
 7930SOL     OW24688   4.474   5.973   3.873
 7930SOL    HW124689   4.540   5.921   3.819
 7930SOL    HW224690   4.512   5.992   3.963
 7931SOL     OW24691   1.067   1.528   6.157
 7931SOL    HW124692   1.086   1.546   6.253
 7931SOL    HW224693   0.969   1.518   6.143
 7932SOL     OW24694   3.227   6.692   0.041
 7932SOL    HW124695   3.234   6.593   0.048
 7932SOL    HW224696   3.307   6.734   0.084
 7933SOL     OW24697   0.360   6.624   0.050
 7933SOL    HW124698   0.396   6.699   7.023
 7933SOL    HW224699   0.434   6.565   0.080
 7934SOL     OW24700   2.279   4.646   6.904
 7934SOL    HW124701   2.289   4.558   6.950
 7934SOL    HW224702   2.363   4.667   6.854
 7935SOL     OW24703   5.784   5.763   0.074
 7935SOL    HW124704   5.737   5.847   0.051
 7935SOL    HW224705   5.791   5.754   0.173
 7936SOL     OW24706   3.593   4.910   2.633
 7936SOL    HW124707   3.513   4.947   2.680
 7936SOL    HW224708   3.671   4.908   2.695
 7937SOL     OW24709   5.856   6.733   3.916
 7937SOL    HW124710   5.838   6.696   4.007
 7937SOL    HW224711   5.867   6.658   3.851
 7938SOL     OW24712   5.827   4.761   5.624
 7938SOL    HW124713   5.758   4.715   5.568
 7938SOL    HW224714   5.783   4.827   5.684
 7939SOL     OW24715   0.744   2.136   5.803
 7939SOL    HW124716   0.844   2.139   5.814
 7939SOL    HW224717   0.701   2.179   5.882
 7940SOL     OW24718   2.058   3.919   2.792
 7940SOL    HW124719   1.984   3.942   2.855
 7940SOL    HW224720   2.020   3.898   2.702
 7941SOL     OW24721   6.915   0.183   0.887
 7941SOL    HW124722   6.948   0.088   0.890
 7941SOL    HW224723   6.965   0.233   0.817
 7942SOL     OW24724   6.608   6.000   2.900
 7942SOL    HW124725   6.542   5.929   2.875
 7942SOL    HW224726   6.561   6.088   2.906
 7943SOL     OW24727   5.787   2.326   0.440
 7943SOL    HW124728   5.805   2.402   0.502
 7943SOL    HW224729   5.725   2.356   0.367
 7944SOL     OW24730   0.456   3.316   1.117
 7944SOL    HW124731   0.429   3.290   1.025
 7944SOL    HW224732   0.520   3.392   1.113
 7945SOL     OW24733   5.539   6.813   2.570
 7945SOL    HW124734   5.462   6.874   2.586
 7945SOL    HW224735   5.540   6.741   2.640
 7946SOL     OW24736   2.284   2.436   5.781
 7946SOL    HW124737   2.355   2.507   5.782
 7946SOL    HW224738   2.222   2.452   5.704
 7947SOL     OW24739   3.943   3.056   6.197
 7947SOL    HW124740   3.898   3.092   6.278
 7947SOL    HW224741   3.977   3.131   6.141
 7948SOL     OW24742   0.238   6.356   1.117
 7948SOL    HW124743   0.317   6.305   1.083
 7948SOL    HW224744   0.187   6.299   1.181
 7949SOL     OW24745   4.530   4.503   4.149
 7949SOL    HW124746   4.551   4.418   4.101
 7949SOL    HW224747   4.559   4.495   4.245
 7950SOL     OW24748   4.769   5.502   3.624
 7950SOL    HW124749   4.844   5.443   3.596
 7950SOL    HW224750   4.721   5.459   3.701
 7951SOL     OW24751   1.988   3.692   1.067
 7951SOL    HW124752   2.017   3.621   1.003
 7951SOL    HW224753   2.061   3.758   1.078
 7952SOL     OW24754   0.525   3.536   6.500
 7952SOL    HW124755   0.523   3.633   6.478
 7952SOL    HW224756   0.595   3.519   6.570
 7953SOL     OW24757   2.204   2.742   3.357
 7953SOL    HW124758   2.134   2.797   3.312
 7953SOL    HW224759   2.267   2.706   3.288
 7954SOL     OW24760   4.496   4.409   5.409
 7954SOL    HW124761   4.500   4.493   5.464
 7954SOL    HW224762   4.405   4.369   5.415
 7955SOL     OW24763   1.403   6.769   6.229
 7955SOL    HW124764   1.407   6.767   6.329
 7955SOL    HW224765   1.396   6.863   6.197
 7956SOL     OW24766   1.645   6.307   2.478
 7956SOL    HW124767   1.599   6.387   2.441
 7956SOL    HW224768   1.729   6.290   2.426
 7957SOL     OW24769   2.175   1.237   0.340
 7957SOL    HW124770   2.271   1.209   0.335
 7957SOL    HW224771   2.153   1.263   0.434
 7958SOL     OW24772   3.154   5.613   4.463
 7958SOL    HW124773   3.121   5.610   4.368
 7958SOL    HW224774   3.236   5.557   4.471
 7959SOL     OW24775   4.322   5.375   1.431
 7959SOL    HW124776   4.233   5.358   1.474
 7959SOL    HW224777   4.369   5.448   1.481
 7960SOL     OW24778   3.531   1.795   0.788
 7960SOL    HW124779   3.606   1.856   0.813
 7960SOL    HW224780   3.470   1.784   0.866
 7961SOL     OW24781   0.883   6.031   0.078
 7961SOL    HW124782   0.825   6.106   0.043
 7961SOL    HW224783   0.908   6.050   0.173
 7962SOL     OW24784   1.809   0.320   0.461
 7962SOL    HW124785   1.830   0.297   0.366
 7962SOL    HW224786   1.824   0.418   0.475
 7963SOL     OW24787   6.570   0.585   3.642
 7963SOL    HW124788   6.653   0.640   3.634
 7963SOL    HW224789   6.554   0.560   3.737
 7964SOL     OW24790   6.518   5.266   3.491
 7964SOL    HW124791   6.492   5.319   3.572
 7964SOL    HW224792   6.590   5.201   3.516
 7965SOL     OW24793   3.201   2.861   6.495
 7965SOL    HW124794   3.214   2.878   6.397
 7965SOL    HW224795   3.122   2.801   6.508
 7966SOL     OW24796   0.552   3.359   5.323
 7966SOL    HW124797   0.630   3.303   5.352
 7966SOL    HW224798   0.467   3.317   5.354
 7967SOL     OW24799   3.141   6.383   3.947
 7967SOL    HW124800   3.185   6.295   3.961
 7967SOL    HW224801   3.194   6.454   3.994
 7968SOL     OW24802   2.027   2.492   3.173
 7968SOL    HW124803   2.092   2.504   3.098
 7968SOL    HW224804   1.936   2.522   3.145
 7969SOL     OW24805   4.432   6.900   2.360
 7969SOL    HW124806   4.423   6.988   2.313
 7969SOL    HW224807   4.429   6.916   2.459
 7970SOL     OW24808   0.321   3.042   3.074
 7970SOL    HW124809   0.357   2.971   3.013
 7970SOL    HW224810   0.289   3.120   3.020
 7971SOL     OW24811   3.687   1.535   0.833
 7971SOL    HW124812   3.664   1.632   0.825
 7971SOL    HW224813   3.781   1.526   0.866
 7972SOL     OW24814   0.939   4.058   1.636
 7972SOL    HW124815   0.868   4.027   1.573
 7972SOL    HW224816   1.005   4.114   1.586
 7973SOL     OW24817   5.281   3.781   3.159
 7973SOL    HW124818   5.202   3.747   3.109
 7973SOL    HW224819   5.361   3.782   3.099
 7974SOL     OW24820   5.514   0.215   4.859
 7974SOL    HW124821   5.539   0.276   4.934
 7974SOL    HW224822   5.480   0.269   4.782
 7975SOL     OW24823   5.894   0.537   3.242
 7975SOL    HW124824   5.985   0.500   3.222
 7975SOL    HW224825   5.903   0.615   3.305
 7976SOL     OW24826   0.457   0.463   5.876
 7976SOL    HW124827   0.514   0.505   5.946
 7976SOL    HW224828   0.459   0.520   5.793
 7977SOL     OW24829   4.488   5.268   1.762
 7977SOL    HW124830   4.580   5.236   1.739
 7977SOL    HW224831   4.485   5.293   1.859
 7978SOL     OW24832   5.869   3.521   6.350
 7978SOL    HW124833   5.784   3.567   6.321
 7978SOL    HW224834   5.939   3.533   6.280
 7979SOL     OW24835   3.432   0.695   5.632
 7979SOL    HW124836   3.442   0.752   5.714
 7979SOL    HW224837   3.416   0.600   5.659
 7980SOL     OW24838   2.777   6.131   7.006
 7980SOL    HW124839   2.708   6.168   6.944
 7980SOL    HW224840   2.862   6.115   6.956
 7981SOL     OW24841   0.363   6.034   2.644
 7981SOL    HW124842   0.339   6.015   2.740
 7981SOL    HW224843   0.435   6.102   2.641
 7982SOL     OW24844   6.749   1.767   6.977
 7982SOL    HW124845   6.814   1.723   0.011
 7982SOL    HW224846   6.774   1.744   6.883
 7983SOL     OW24847   5.566   2.080   2.634
 7983SOL    HW124848   5.533   2.147   2.567
 7983SOL    HW224849   5.557   2.119   2.726
 7984SOL     OW24850   1.592   2.110   1.513
 7984SOL    HW124851   1.633   2.201   1.525
 7984SOL    HW224852   1.617   2.074   1.423
 7985SOL     OW24853   2.594   0.012   3.633
 7985SOL    HW124854   2.537   0.004   3.551
 7985SOL    HW224855   2.690   0.012   3.606
 7986SOL     OW24856   3.290   0.775   6.718
 7986SOL    HW124857   3.367   0.835   6.739
 7986SOL    HW224858   3.325   0.686   6.688
 7987SOL     OW24859   0.896   3.410   6.454
 7987SOL    HW124860   0.931   3.332   6.401
 7987SOL    HW224861   0.838   3.376   6.528
 7988SOL     OW24862   1.740   1.932   4.607
 7988SOL    HW124863   1.766   1.997   4.536
 7988SOL    HW224864   1.655   1.885   4.581
 7989SOL     OW24865   3.331   2.453   5.340
 7989SOL    HW124866   3.423   2.413   5.332
 7989SOL    HW224867   3.273   2.417   5.268
 7990SOL     OW24868   6.049   3.800   3.892
 7990SOL    HW124869   6.063   3.710   3.934
 7990SOL    HW224870   5.975   3.795   3.825
 7991SOL     OW24871   6.501   0.440   5.016
 7991SOL    HW124872   6.464   0.531   4.997
 7991SOL    HW224873   6.436   0.389   5.074
 7992SOL     OW24874   1.466   6.552   0.873
 7992SOL    HW124875   1.395   6.594   0.930
 7992SOL    HW224876   1.520   6.623   0.829
 7993SOL     OW24877   1.625   6.211   6.743
 7993SOL    HW124878   1.651   6.181   6.652
 7993SOL    HW224879   1.654   6.143   6.811
 7994SOL     OW24880   4.606   0.431   2.894
 7994SOL    HW124881   4.601   0.530   2.895
 7994SOL    HW224882   4.639   0.400   2.804
 7995SOL     OW24883   4.102   5.163   3.405
 7995SOL    HW124884   4.197   5.132   3.408
 7995SOL    HW224885   4.100   5.262   3.388
 7996SOL     OW24886   3.080   6.856   4.878
 7996SOL    HW124887   3.018   6.785   4.845
 7996SOL    HW224888   3.026   6.934   4.911
 7997SOL     OW24889   0.068   1.208   0.739
 7997SOL    HW124890   0.140   1.248   0.682
 7997SOL    HW224891   0.095   1.214   0.835
 7998SOL     OW24892   3.936   5.285   1.141
 7998SOL    HW124893   4.022   5.301   1.190
 7998SOL    HW224894   3.947   5.309   1.045
 7999SOL     OW24895   1.745   0.669   6.398
 7999SOL    HW124896   1.760   0.578   6.358
 7999SOL    HW224897   1.648   0.692   6.393
 8000SOL     OW24898   5.343   1.021   6.881
 8000SOL    HW124899   5.350   1.024   6.981
 8000SOL    HW224900   5.374   1.108   6.843
 8001SOL     OW24901   3.505   6.200   1.373
 8001SOL    HW124902   3.461   6.268   1.314
 8001SOL    HW224903   3.467   6.206   1.465
 8002SOL     OW24904   0.479   2.554   5.664
 8002SOL    HW124905   0.576   2.546   5.641
 8002SOL    HW224906   0.467   2.622   5.737
 8003SOL     OW24907   1.998   4.743   2.075
 8003SOL    HW124908   1.942   4.772   1.998
 8003SOL    HW224909   2.074   4.807   2.087
 8004SOL     OW24910   1.693   4.362   3.183
 8004SOL    HW124911   1.637   4.365   3.266
 8004SOL    HW224912   1.633   4.355   3.103
 8005SOL     OW24913   3.658   1.824   2.215
 8005SOL    HW124914   3.733   1.834   2.149
 8005SOL    HW224915   3.624   1.914   2.239
 8006SOL     OW24916   3.037   6.717   0.322
 8006SOL    HW124917   3.037   6.805   0.275
 8006SOL    HW224918   2.963   6.660   0.286
 8007SOL     OW24919   1.249   0.013   4.402
 8007SOL    HW124920   1.262   0.110   4.383
 8007SOL    HW224921   1.280   6.988   4.324
 8008SOL     OW24922   4.734   6.984   5.981
 8008SOL    HW124923   4.696   6.906   5.932
 8008SOL    HW224924   4.675   0.035   5.968
 8009SOL     OW24925   6.579   0.523   3.287
 8009SOL    HW124926   6.576   0.484   3.379
 8009SOL    HW224927   6.519   0.471   3.226
 8010SOL     OW24928   1.553   1.721   0.283
 8010SOL    HW124929   1.495   1.667   0.223
 8010SOL    HW224930   1.618   1.774   0.229
 8011SOL     OW24931   2.550   3.211   1.346
 8011SOL    HW124932   2.460   3.170   1.331
 8011SOL    HW224933   2.550   3.264   1.430
 8012SOL     OW24934   2.678   6.144   1.533
 8012SOL    HW124935   2.710   6.196   1.612
 8012SOL    HW224936   2.623   6.067   1.564
 8013SOL     OW24937   0.489   5.191   4.529
 8013SOL    HW124938   0.517   5.097   4.508
 8013SOL    HW224939   0.439   5.228   4.451
 8014SOL     OW24940   0.946   6.046   5.463
 8014SOL    HW124941   0.988   6.100   5.390
 8014SOL    HW224942   0.893   5.972   5.423
 8015SOL     OW24943   2.942   1.363   6.809
 8015SOL    HW124944   2.893   1.440   6.767
 8015SOL    HW224945   3.041   1.381   6.807
 8016SOL     OW24946   4.709   0.465   6.313
 8016SOL    HW124947   4.691   0.406   6.234
 8016SOL    HW224948   4.622   0.503   6.345
 8017SOL     OW24949   0.139   5.502   6.195
 8017SOL    HW124950   0.039   5.495   6.203
 8017SOL    HW224951   0.170   5.445   6.118
 8018SOL     OW24952   4.077   2.689   6.069
 8018SOL    HW124953   4.052   2.597   6.100
 8018SOL    HW224954   4.081   2.750   6.148
 8019SOL     OW24955   2.056   3.580   0.098
 8019SOL    HW124956   2.086   3.591   0.193
 8019SOL    HW224957   1.958   3.601   0.091
 8020SOL     OW24958   6.483   5.838   0.608
 8020SOL    HW124959   6.488   5.738   0.603
 8020SOL    HW224960   6.573   5.874   0.631
 8021SOL     OW24961   1.047   2.235   2.028
 8021SOL    HW124962   1.089   2.229   1.938
 8021SOL    HW224963   1.118   2.248   2.098
 8022SOL     OW24964   4.225   0.292   2.646
 8022SOL    HW124965   4.224   0.387   2.614
 8022SOL    HW224966   4.298   0.242   2.600
 8023SOL     OW24967   5.711   5.820   3.481
 8023SOL    HW124968   5.637   5.879   3.448
 8023SOL    HW224969   5.673   5.746   3.537
 8024SOL     OW24970   3.264   5.053   0.044
 8024SOL    HW124971   3.263   5.151   0.063
 8024SOL    HW224972   3.201   5.033   6.998
 8025SOL     OW24973   2.686   5.811   5.769
 8025SOL    HW124974   2.725   5.803   5.861
 8025SOL    HW224975   2.654   5.904   5.755
 8026SOL     OW24976   0.598   4.712   6.828
 8026SOL    HW124977   0.556   4.779   6.890
 8026SOL    HW224978   0.558   4.622   6.844
 8027SOL     OW24979   4.242   2.004   5.447
 8027SOL    HW124980   4.286   1.944   5.380
 8027SOL    HW224981   4.179   2.066   5.400
 8028SOL     OW24982   3.496   4.992   5.731
 8028SOL    HW124983   3.547   5.070   5.696
 8028SOL    HW224984   3.439   5.021   5.808
 8029SOL     OW24985   5.568   3.703   0.271
 8029SOL    HW124986   5.528   3.617   0.304
 8029SOL    HW224987   5.660   3.713   0.308
 8030SOL     OW24988   5.432   4.124   6.862
 8030SOL    HW124989   5.361   4.064   6.826
 8030SOL    HW224990   5.405   4.158   6.952
 8031SOL     OW24991   4.969   6.048   2.745
 8031SOL    HW124992   4.908   6.127   2.738
 8031SOL    HW224993   4.914   5.964   2.740
 8032SOL     OW24994   5.914   4.415   6.022
 8032SOL    HW124995   5.851   4.360   5.967
 8032SOL    HW224996   5.900   4.396   6.119
 8033SOL     OW24997   5.102   3.615   6.703
 8033SOL    HW124998   5.094   3.517   6.687
 8033SOL    HW224999   5.197   3.644   6.687
 8034SOL     OW25000   5.993   1.371   5.040
 8034SOL    HW125001   6.071   1.377   4.978
 8034SOL    HW225002   5.920   1.432   5.008
 8035SOL     OW25003   4.545   0.253   4.921
 8035SOL    HW125004   4.449   0.258   4.896
 8035SOL    HW225005   4.588   0.342   4.906
 8036SOL     OW25006   0.659   3.732   2.515
 8036SOL    HW125007   0.627   3.825   2.496
 8036SOL    HW225008   0.655   3.677   2.432
 8037SOL     OW25009   1.253   3.848   2.259
 8037SOL    HW125010   1.216   3.805   2.176
 8037SOL    HW225011   1.268   3.946   2.242
 8038SOL     OW25012   4.724   1.075   2.915
 8038SOL    HW125013   4.794   1.014   2.877
 8038SOL    HW225014   4.676   1.028   2.989
 8039SOL     OW25015   1.265   0.061   3.276
 8039SOL    HW125016   1.273   7.000   3.318
 8039SOL    HW225017   1.292   0.132   3.342
 8040SOL     OW25018   1.619   5.877   0.737
 8040SOL    HW125019   1.603   5.961   0.790
 8040SOL    HW225020   1.649   5.804   0.799
 8041SOL     OW25021   3.107   2.116   2.131
 8041SOL    HW125022   3.057   2.030   2.140
 8041SOL    HW225023   3.044   2.193   2.138
 8042SOL     OW25024   3.652   2.924   3.250
 8042SOL    HW125025   3.586   2.992   3.219
 8042SOL    HW225026   3.683   2.947   3.342
 8043SOL     OW25027   3.865   6.375   1.042
 8043SOL    HW125028   3.841   6.323   1.123
 8043SOL    HW225029   3.861   6.473   1.062
 8044SOL     OW25030   3.309   3.638   0.725
 8044SOL    HW125031   3.258   3.612   0.808
 8044SOL    HW225032   3.310   3.561   0.661
 8045SOL     OW25033   5.404   0.536   1.709
 8045SOL    HW125034   5.397   0.450   1.759
 8045SOL    HW225035   5.323   0.592   1.729
 8046SOL     OW25036   6.939   5.161   6.795
 8046SOL    HW125037   6.967   5.100   6.869
 8046SOL    HW225038   6.841   5.179   6.803
 8047SOL     OW25039   3.803   4.884   5.298
 8047SOL    HW125040   3.782   4.808   5.359
 8047SOL    HW225041   3.893   4.870   5.257
 8048SOL     OW25042   5.006   0.908   6.060
 8048SOL    HW125043   4.937   0.847   6.099
 8048SOL    HW225044   5.021   0.883   5.964
 8049SOL     OW25045   1.309   0.589   1.360
 8049SOL    HW125046   1.313   0.574   1.459
 8049SOL    HW225047   1.335   0.683   1.340
 8050SOL     OW25048   0.438   4.831   2.041
 8050SOL    HW125049   0.357   4.830   1.983
 8050SOL    HW225050   0.425   4.767   2.117
 8051SOL     OW25051   4.945   6.170   3.301
 8051SOL    HW125052   4.947   6.176   3.202
 8051SOL    HW225053   5.027   6.123   3.334
 8052SOL     OW25054   3.713   1.504   1.781
 8052SOL    HW125055   3.770   1.474   1.704
 8052SOL    HW225056   3.771   1.548   1.850
 8053SOL     OW25057   3.851   3.941   3.051
 8053SOL    HW125058   3.892   3.891   3.127
 8053SOL    HW225059   3.867   4.039   3.062
 8054SOL     OW25060   5.476   6.682   4.484
 8054SOL    HW125061   5.409   6.610   4.499
 8054SOL    HW225062   5.457   6.759   4.545
 8055SOL     OW25063   0.308   0.306   6.052
 8055SOL    HW125064   0.338   0.212   6.069
 8055SOL    HW225065   0.378   0.354   5.999
 8056SOL     OW25066   4.090   1.142   3.859
 8056SOL    HW125067   3.991   1.157   3.868
 8056SOL    HW225068   4.138   1.196   3.928
 8057SOL     OW25069   2.481   2.111   2.814
 8057SOL    HW125070   2.577   2.082   2.812
 8057SOL    HW225071   2.422   2.031   2.824
 8058SOL     OW25072   3.829   0.320   2.833
 8058SOL    HW125073   3.785   0.370   2.908
 8058SOL    HW225074   3.770   0.246   2.802
 8059SOL     OW25075   4.329   2.400   4.462
 8059SOL    HW125076   4.253   2.359   4.513
 8059SOL    HW225077   4.393   2.444   4.526
 8060SOL     OW25078   0.358   1.123   4.343
 8060SOL    HW125079   0.450   1.134   4.379
 8060SOL    HW225080   0.311   1.211   4.346
 8061SOL     OW25081   6.540   0.076   1.460
 8061SOL    HW125082   6.490   0.007   1.512
 8061SOL    HW225083   6.571   0.037   1.374
 8062SOL     OW25084   2.949   4.996   4.508
 8062SOL    HW125085   2.908   5.061   4.443
 8062SOL    HW225086   2.891   4.915   4.515
 8063SOL     OW25087   2.001   2.725   0.738
 8063SOL    HW125088   2.053   2.742   0.655
 8063SOL    HW225089   2.020   2.796   0.806
 8064SOL     OW25090   7.008   5.056   1.851
 8064SOL    HW125091   7.018   4.982   1.917
 8064SOL    HW225092   0.053   5.051   1.784
 8065SOL     OW25093   4.573   6.751   4.042
 8065SOL    HW125094   4.577   6.658   4.005
 8065SOL    HW225095   4.543   6.749   4.137
 8066SOL     OW25096   0.831   1.563   6.421
 8066SOL    HW125097   0.775   1.645   6.429
 8066SOL    HW225098   0.884   1.551   6.505
 8067SOL     OW25099   4.660   3.004   1.609
 8067SOL    HW125100   4.606   3.022   1.691
 8067SOL    HW225101   4.597   2.987   1.532
 8068SOL     OW25102   5.775   4.859   6.690
 8068SOL    HW125103   5.724   4.773   6.683
 8068SOL    HW225104   5.829   4.859   6.774
 8069SOL     OW25105   2.013   6.207   1.112
 8069SOL    HW125106   2.042   6.183   1.205
 8069SOL    HW225107   2.093   6.230   1.057
 8070SOL     OW25108   2.603   3.600   0.594
 8070SOL    HW125109   2.563   3.530   0.535
 8070SOL    HW225110   2.649   3.557   0.671
 8071SOL     OW25111   3.011   6.453   4.969
 8071SOL    HW125112   2.926   6.456   5.021
 8071SOL    HW225113   3.011   6.373   4.909
 8072SOL     OW25114   3.269   0.956   0.098
 8072SOL    HW125115   3.332   1.021   0.057
 8072SOL    HW225116   3.297   0.863   0.076
 8073SOL     OW25117   4.525   6.582   6.260
 8073SOL    HW125118   4.436   6.546   6.288
 8073SOL    HW225119   4.597   6.539   6.316
 8074SOL     OW25120   2.890   2.959   6.647
 8074SOL    HW125121   2.940   3.019   6.709
 8074SOL    HW225122   2.955   2.904   6.594
 8075SOL     OW25123   6.385   0.921   1.234
 8075SOL    HW125124   6.474   0.964   1.222
 8075SOL    HW225125   6.324   0.950   1.160
 8076SOL     OW25126   4.724   2.218   5.716
 8076SOL    HW125127   4.823   2.224   5.728
 8076SOL    HW225128   4.684   2.163   5.790
 8077SOL     OW25129   1.187   6.132   1.747
 8077SOL    HW125130   1.236   6.179   1.673
 8077SOL    HW225131   1.089   6.146   1.737
 8078SOL     OW25132   5.929   1.520   0.660
 8078SOL    HW125133   5.848   1.477   0.622
 8078SOL    HW225134   6.010   1.467   0.637
 8079SOL     OW25135   5.103   1.547   3.785
 8079SOL    HW125136   5.054   1.461   3.798
 8079SOL    HW225137   5.117   1.564   3.688
 8080SOL     OW25138   0.917   4.292   0.245
 8080SOL    HW125139   0.835   4.311   0.191
 8080SOL    HW225140   0.891   4.260   0.336
 8081SOL     OW25141   5.092   0.316   5.019
 8081SOL    HW125142   5.135   0.299   4.931
 8081SOL    HW225143   4.997   0.284   5.017
 8082SOL     OW25144   5.873   0.471   1.693
 8082SOL    HW125145   5.966   0.499   1.670
 8082SOL    HW225146   5.875   0.384   1.741
 8083SOL     OW25147   5.159   2.898   2.399
 8083SOL    HW125148   5.157   2.895   2.299
 8083SOL    HW225149   5.070   2.930   2.433
 8084SOL     OW25150   5.481   6.933   1.093
 8084SOL    HW125151   5.443   6.849   1.055
 8084SOL    HW225152   5.433   6.958   1.177
 8085SOL     OW25153   5.976   0.183   2.712
 8085SOL    HW125154   5.922   0.100   2.699
 8085SOL    HW225155   6.005   0.189   2.807
 8086SOL     OW25156   4.534   0.922   3.946
 8086SOL    HW125157   4.502   0.828   3.959
 8086SOL    HW225158   4.475   0.984   3.998
 8087SOL     OW25159   2.236   1.796   1.367
 8087SOL    HW125160   2.150   1.745   1.372
 8087SOL    HW225161   2.236   1.869   1.435
 8088SOL     OW25162   5.778   1.825   1.644
 8088SOL    HW125163   5.793   1.756   1.573
 8088SOL    HW225164   5.682   1.825   1.670
 8089SOL     OW25165   5.350   2.691   0.636
 8089SOL    HW125166   5.416   2.657   0.568
 8089SOL    HW225167   5.337   2.621   0.706
 8090SOL     OW25168   4.563   2.334   6.367
 8090SOL    HW125169   4.534   2.287   6.451
 8090SOL    HW225170   4.503   2.308   6.292
 8091SOL     OW25171   2.585   3.709   6.672
 8091SOL    HW125172   2.594   3.767   6.592
 8091SOL    HW225173   2.488   3.704   6.700
 8092SOL     OW25174   0.987   1.879   5.055
 8092SOL    HW125175   0.939   1.865   4.968
 8092SOL    HW225176   1.071   1.825   5.056
 8093SOL     OW25177   5.023   5.726   1.824
 8093SOL    HW125178   5.002   5.808   1.771
 8093SOL    HW225179   5.055   5.654   1.763
 8094SOL     OW25180   2.058   3.973   4.381
 8094SOL    HW125181   1.972   3.983   4.431
 8094SOL    HW225182   2.111   4.057   4.389
 8095SOL     OW25183   5.397   3.987   4.185
 8095SOL    HW125184   5.315   4.003   4.130
 8095SOL    HW225185   5.410   4.063   4.248
 8096SOL     OW25186   3.367   5.514   3.898
 8096SOL    HW125187   3.365   5.509   3.998
 8096SOL    HW225188   3.369   5.609   3.869
 8097SOL     OW25189   5.033   0.334   3.585
 8097SOL    HW125190   4.959   0.364   3.646
 8097SOL    HW225191   5.101   0.284   3.639
 8098SOL     OW25192   2.039   6.820   4.656
 8098SOL    HW125193   2.089   6.837   4.741
 8098SOL    HW225194   2.062   6.891   4.589
 8099SOL     OW25195   6.030   0.363   4.062
 8099SOL    HW125196   6.096   0.336   4.132
 8099SOL    HW225197   5.988   0.281   4.023
 8100SOL     OW25198   0.506   6.788   6.909
 8100SOL    HW125199   0.569   6.857   6.944
 8100SOL    HW225200   0.455   6.826   6.831
 8101SOL     OW25201   2.400   0.615   4.337
 8101SOL    HW125202   2.373   0.656   4.424
 8101SOL    HW225203   2.429   0.521   4.352
 8102SOL     OW25204   1.183   5.261   5.620
 8102SOL    HW125205   1.189   5.262   5.720
 8102SOL    HW225206   1.256   5.203   5.583
 8103SOL     OW25207   4.374   0.991   0.382
 8103SOL    HW125208   4.343   1.020   0.472
 8103SOL    HW225209   4.404   1.071   0.330
 8104SOL     OW25210   2.902   6.437   5.758
 8104SOL    HW125211   2.960   6.357   5.772
 8104SOL    HW225212   2.891   6.487   5.844
 8105SOL     OW25213   1.904   1.990   3.127
 8105SOL    HW125214   1.843   1.927   3.078
 8105SOL    HW225215   1.869   2.083   3.120
 8106SOL     OW25216   2.539   6.039   3.660
 8106SOL    HW125217   2.533   6.081   3.751
 8106SOL    HW225218   2.471   6.081   3.600
 8107SOL     OW25219   1.505   5.818   5.332
 8107SOL    HW125220   1.442   5.742   5.349
 8107SOL    HW225221   1.564   5.831   5.411
 8108SOL     OW25222   5.525   2.557   5.231
 8108SOL    HW125223   5.554   2.467   5.200
 8108SOL    HW225224   5.448   2.548   5.294
 8109SOL     OW25225   1.078   3.595   4.559
 8109SOL    HW125226   1.063   3.689   4.592
 8109SOL    HW225227   1.086   3.596   4.460
 8110SOL     OW25228   3.596   6.678   0.938
 8110SOL    HW125229   3.690   6.648   0.957
 8110SOL    HW225230   3.597   6.772   0.905
 8111SOL     OW25231   4.037   0.162   5.938
 8111SOL    HW125232   3.984   0.174   5.855
 8111SOL    HW225233   3.993   0.093   5.996
 8112SOL     OW25234   1.428   1.132   5.013
 8112SOL    HW125235   1.339   1.085   5.010
 8112SOL    HW225236   1.479   1.111   4.930
 8113SOL     OW25237   2.617   3.258   6.950
 8113SOL    HW125238   2.599   3.352   6.923
 8113SOL    HW225239   2.673   3.213   6.880
 8114SOL     OW25240   2.116   3.073   1.926
 8114SOL    HW125241   2.147   2.981   1.901
 8114SOL    HW225242   2.129   3.087   2.024
 8115SOL     OW25243   4.344   1.575   1.661
 8115SOL    HW125244   4.351   1.498   1.598
 8115SOL    HW225245   4.433   1.621   1.667
 8116SOL     OW25246   4.725   6.853   4.489
 8116SOL    HW125247   4.741   6.842   4.587
 8116SOL    HW225248   4.755   6.771   4.441
 8117SOL     OW25249   2.313   1.298   4.261
 8117SOL    HW125250   2.301   1.385   4.213
 8117SOL    HW225251   2.284   1.308   4.356
 8118SOL     OW25252   0.184   3.380   5.825
 8118SOL    HW125253   0.218   3.287   5.810
 8118SOL    HW225254   0.251   3.446   5.791
 8119SOL     OW25255   0.097   5.688   4.991
 8119SOL    HW125256   0.080   5.626   4.914
 8119SOL    HW225257   0.095   5.637   5.077
 8120SOL     OW25258   3.704   4.677   6.695
 8120SOL    HW125259   3.638   4.749   6.715
 8120SOL    HW225260   3.733   4.683   6.600
 8121SOL     OW25261   6.740   5.519   3.058
 8121SOL    HW125262   6.680   5.568   3.121
 8121SOL    HW225263   6.825   5.495   3.106
 8122SOL     OW25264   0.607   5.297   2.595
 8122SOL    HW125265   0.687   5.285   2.538
 8122SOL    HW225266   0.618   5.378   2.653
 8123SOL     OW25267   0.145   6.879   0.206
 8123SOL    HW125268   0.074   6.829   0.156
 8123SOL    HW225269   0.103   6.929   0.282
 8124SOL     OW25270   0.457   6.197   1.054
 8124SOL    HW125271   0.485   6.199   0.958
 8124SOL    HW225272   0.537   6.190   1.112
 8125SOL     OW25273   0.219   5.921   3.284
 8125SOL    HW125274   0.245   5.986   3.212
 8125SOL    HW225275   0.158   5.852   3.245
 8126SOL     OW25276   6.209   3.847   2.460
 8126SOL    HW125277   6.269   3.895   2.525
 8126SOL    HW225278   6.126   3.818   2.508
 8127SOL     OW25279   2.379   6.029   0.861
 8127SOL    HW125280   2.417   6.045   0.770
 8127SOL    HW225281   2.280   6.019   0.855
 8128SOL     OW25282   3.013   2.806   0.498
 8128SOL    HW125283   2.913   2.798   0.505
 8128SOL    HW225284   3.056   2.748   0.568
 8129SOL     OW25285   4.661   1.483   5.684
 8129SOL    HW125286   4.751   1.522   5.662
 8129SOL    HW225287   4.614   1.459   5.600
 8130SOL     OW25288   0.790   5.016   6.194
 8130SOL    HW125289   0.831   4.927   6.212
 8130SOL    HW225290   0.780   5.067   6.280
 8131SOL     OW25291   2.564   0.780   0.441
 8131SOL    HW125292   2.564   0.876   0.414
 8131SOL    HW225293   2.615   0.727   0.373
 8132SOL     OW25294   5.968   6.300   6.167
 8132SOL    HW125295   5.950   6.202   6.173
 8132SOL    HW225296   6.063   6.314   6.136
 8133SOL     OW25297   3.663   4.921   2.165
 8133SOL    HW125298   3.637   4.872   2.081
 8133SOL    HW225299   3.599   4.898   2.238
 8134SOL     OW25300   1.945   1.309   4.482
 8134SOL    HW125301   1.923   1.227   4.428
 8134SOL    HW225302   2.044   1.319   4.488
 8135SOL     OW25303   2.514   5.451   2.358
 8135SOL    HW125304   2.451   5.500   2.299
 8135SOL    HW225305   2.493   5.353   2.356
 8136SOL     OW25306   4.733   4.527   2.660
 8136SOL    HW125307   4.705   4.448   2.605
 8136SOL    HW225308   4.735   4.609   2.603
 8137SOL     OW25309   2.208   1.298   4.515
 8137SOL    HW125310   2.302   1.300   4.550
 8137SOL    HW225311   2.151   1.242   4.574
 8138SOL     OW25312   6.221   2.039   1.272
 8138SOL    HW125313   6.177   2.044   1.183
 8138SOL    HW225314   6.207   1.948   1.312
 8139SOL     OW25315   1.826   2.555   3.013
 8139SOL    HW125316   1.821   2.533   2.915
 8139SOL    HW225317   1.737   2.536   3.056
 8140SOL     OW25318   3.317   0.140   0.421
 8140SOL    HW125319   3.312   0.235   0.452
 8140SOL    HW225320   3.391   0.131   0.355
 8141SOL     OW25321   4.925   6.809   5.583
 8141SOL    HW125322   4.862   6.737   5.612
 8141SOL    HW225323   4.984   6.775   5.510
 8142SOL     OW25324   1.975   5.274   0.970
 8142SOL    HW125325   1.878   5.270   0.949
 8142SOL    HW225326   2.025   5.305   0.889
 8143SOL     OW25327   4.947   4.905   0.998
 8143SOL    HW125328   5.008   4.860   1.063
 8143SOL    HW225329   4.947   4.854   0.911
 8144SOL     OW25330   1.160   5.782   5.235
 8144SOL    HW125331   1.207   5.865   5.265
 8144SOL    HW225332   1.211   5.701   5.266
 8145SOL     OW25333   4.797   4.421   0.721
 8145SOL    HW125334   4.780   4.494   0.654
 8145SOL    HW225335   4.716   4.408   0.777
 8146SOL     OW25336   6.652   6.982   5.533
 8146SOL    HW125337   6.555   6.957   5.534
 8146SOL    HW225338   6.681   6.996   5.438
 8147SOL     OW25339   6.821   0.478   0.350
 8147SOL    HW125340   6.834   0.466   0.252
 8147SOL    HW225341   6.900   0.525   0.389
 8148SOL     OW25342   4.175   4.844   6.821
 8148SOL    HW125343   4.117   4.794   6.885
 8148SOL    HW225344   4.124   4.864   6.737
 8149SOL     OW25345   1.714   6.007   3.906
 8149SOL    HW125346   1.792   6.027   3.847
 8149SOL    HW225347   1.704   5.908   3.917
 8150SOL     OW25348   1.290   3.782   1.086
 8150SOL    HW125349   1.256   3.864   1.038
 8150SOL    HW225350   1.296   3.801   1.184
 8151SOL     OW25351   5.530   5.407   3.779
 8151SOL    HW125352   5.577   5.484   3.736
 8151SOL    HW225353   5.444   5.390   3.731
 8152SOL     OW25354   5.675   2.804   3.540
 8152SOL    HW125355   5.585   2.761   3.539
 8152SOL    HW225356   5.685   2.862   3.459
 8153SOL     OW25357   0.719   0.828   3.047
 8153SOL    HW125358   0.678   0.837   3.138
 8153SOL    HW225359   0.819   0.836   3.055
 8154SOL     OW25360   3.547   0.210   2.959
 8154SOL    HW125361   3.547   0.298   3.006
 8154SOL    HW225362   3.598   0.143   3.011
 8155SOL     OW25363   1.198   4.135   2.142
 8155SOL    HW125364   1.255   4.198   2.194
 8155SOL    HW225365   1.230   4.132   2.047
 8156SOL     OW25366   4.967   6.234   1.608
 8156SOL    HW125367   4.895   6.271   1.667
 8156SOL    HW225368   5.009   6.309   1.556
 8157SOL     OW25369   6.195   4.336   5.951
 8157SOL    HW125370   6.096   4.334   5.962
 8157SOL    HW225371   6.236   4.386   6.028
 8158SOL     OW25372   5.195   4.840   6.839
 8158SOL    HW125373   5.288   4.869   6.862
 8158SOL    HW225374   5.142   4.920   6.809
 8159SOL     OW25375   3.730   6.286   5.433
 8159SOL    HW125376   3.656   6.283   5.366
 8159SOL    HW225377   3.747   6.195   5.469
 8160SOL     OW25378   4.422   0.391   3.775
 8160SOL    HW125379   4.499   0.345   3.819
 8160SOL    HW225380   4.337   0.343   3.796
 8161SOL     OW25381   5.948   3.989   6.744
 8161SOL    HW125382   5.882   4.064   6.746
 8161SOL    HW225383   5.899   3.901   6.738
 8162SOL     OW25384   0.348   5.182   6.659
 8162SOL    HW125385   0.303   5.255   6.608
 8162SOL    HW225386   0.281   5.113   6.685
 8163SOL     OW25387   2.412   5.144   5.738
 8163SOL    HW125388   2.399   5.239   5.765
 8163SOL    HW225389   2.345   5.086   5.786
 8164SOL     OW25390   4.545   1.263   6.868
 8164SOL    HW125391   4.638   1.227   6.878
 8164SOL    HW225392   4.535   1.346   6.924
 8165SOL     OW25393   6.795   3.791   6.446
 8165SOL    HW125394   6.852   3.780   6.528
 8165SOL    HW225395   6.701   3.764   6.467
 8166SOL     OW25396   2.509   1.071   3.443
 8166SOL    HW125397   2.471   1.149   3.395
 8166SOL    HW225398   2.595   1.044   3.399
 8167SOL     OW25399   0.380   0.873   3.625
 8167SOL    HW125400   0.339   0.923   3.549
 8167SOL    HW225401   0.449   0.810   3.590
 8168SOL     OW25402   2.454   0.213   1.603
 8168SOL    HW125403   2.503   0.273   1.665
 8168SOL    HW225404   2.471   0.241   1.509
 8169SOL     OW25405   4.167   2.205   0.399
 8169SOL    HW125406   4.076   2.171   0.424
 8169SOL    HW225407   4.164   2.243   0.307
 8170SOL     OW25408   6.443   4.549   1.355
 8170SOL    HW125409   6.521   4.532   1.416
 8170SOL    HW225410   6.392   4.464   1.343
 8171SOL     OW25411   1.820   1.529   6.560
 8171SOL    HW125412   1.818   1.622   6.595
 8171SOL    HW225413   1.864   1.527   6.470
 8172SOL     OW25414   0.093   2.015   1.514
 8172SOL    HW125415   0.026   2.027   1.587
 8172SOL    HW225416   0.172   2.073   1.531
 8173SOL     OW25417   5.994   2.123   2.386
 8173SOL    HW125418   5.942   2.208   2.376
 8173SOL    HW225419   6.040   2.122   2.475
 8174SOL     OW25420   0.835   6.980   2.592
 8174SOL    HW125421   0.774   0.021   2.556
 8174SOL    HW225422   0.839   6.986   2.691
 8175SOL     OW25423   0.375   2.691   4.752
 8175SOL    HW125424   0.368   2.599   4.712
 8175SOL    HW225425   0.292   2.711   4.804
 8176SOL     OW25426   2.572   4.544   1.833
 8176SOL    HW125427   2.613   4.489   1.761
 8176SOL    HW225428   2.639   4.562   1.905
 8177SOL     OW25429   4.420   1.090   3.565
 8177SOL    HW125430   4.369   1.176   3.569
 8177SOL    HW225431   4.360   1.014   3.587
 8178SOL     OW25432   3.463   6.440   1.130
 8178SOL    HW125433   3.412   6.405   1.051
 8178SOL    HW225434   3.501   6.529   1.109
 8179SOL     OW25435   5.811   1.587   5.061
 8179SOL    HW125436   5.726   1.587   5.113
 8179SOL    HW225437   5.790   1.599   4.964
 8180SOL     OW25438   5.854   0.799   0.118
 8180SOL    HW125439   5.795   0.765   0.191
 8180SOL    HW225440   5.832   0.895   0.099
 8181SOL     OW25441   1.677   0.998   0.931
 8181SOL    HW125442   1.636   1.081   0.968
 8181SOL    HW225443   1.610   0.951   0.872
 8182SOL     OW25444   3.266   3.634   4.732
 8182SOL    HW125445   3.250   3.694   4.811
 8182SOL    HW225446   3.291   3.690   4.653
 8183SOL     OW25447   6.036   2.242   4.463
 8183SOL    HW125448   6.002   2.297   4.386
 8183SOL    HW225449   6.095   2.169   4.428
 8184SOL     OW25450   0.699   0.106   0.732
 8184SOL    HW125451   0.783   0.149   0.763
 8184SOL    HW225452   0.634   0.176   0.703
 8185SOL     OW25453   2.166   0.316   0.617
 8185SOL    HW125454   2.103   0.243   0.643
 8185SOL    HW225455   2.156   0.335   0.519
 8186SOL     OW25456   2.637   4.360   5.638
 8186SOL    HW125457   2.632   4.368   5.539
 8186SOL    HW225458   2.564   4.415   5.679
 8187SOL     OW25459   2.180   0.712   4.984
 8187SOL    HW125460   2.088   0.695   4.947
 8187SOL    HW225461   2.245   0.719   4.909
 8188SOL     OW25462   4.752   2.880   3.768
 8188SOL    HW125463   4.703   2.799   3.799
 8188SOL    HW225464   4.783   2.866   3.674
 8189SOL     OW25465   5.487   5.657   2.127
 8189SOL    HW125466   5.557   5.628   2.062
 8189SOL    HW225467   5.467   5.581   2.189
 8190SOL     OW25468   4.780   4.127   4.237
 8190SOL    HW125469   4.864   4.179   4.221
 8190SOL    HW225470   4.790   4.074   4.321
 8191SOL     OW25471   4.598   5.433   2.496
 8191SOL    HW125472   4.529   5.500   2.468
 8191SOL    HW225473   4.554   5.345   2.512
 8192SOL     OW25474   1.354   5.995   2.531
 8192SOL    HW125475   1.307   5.966   2.614
 8192SOL    HW225476   1.359   6.095   2.529
 8193SOL     OW25477   5.892   4.820   5.228
 8193SOL    HW125478   5.982   4.795   5.192
 8193SOL    HW225479   5.822   4.763   5.185
 8194SOL     OW25480   4.853   0.964   0.909
 8194SOL    HW125481   4.830   0.932   0.817
 8194SOL    HW225482   4.902   1.051   0.902
 8195SOL     OW25483   6.699   0.270   2.953
 8195SOL    HW125484   6.737   0.362   2.946
 8195SOL    HW225485   6.770   0.206   2.982
 8196SOL     OW25486   4.463   6.343   0.041
 8196SOL    HW125487   4.370   6.312   0.025
 8196SOL    HW225488   4.509   6.281   0.105
 8197SOL     OW25489   3.516   1.398   1.017
 8197SOL    HW125490   3.424   1.424   0.988
 8197SOL    HW225491   3.583   1.444   0.959
 8198SOL     OW25492   3.836   6.678   2.719
 8198SOL    HW125493   3.787   6.657   2.635
 8198SOL    HW225494   3.771   6.691   2.794
 8199SOL     OW25495   5.660   3.547   5.484
 8199SOL    HW125496   5.625   3.641   5.489
 8199SOL    HW225497   5.724   3.539   5.408
 8200SOL     OW25498   6.039   4.448   1.491
 8200SOL    HW125499   6.071   4.360   1.455
 8200SOL    HW225500   6.118   4.502   1.520
 8201SOL     OW25501   6.847   0.975   5.008
 8201SOL    HW125502   6.823   1.023   4.924
 8201SOL    HW225503   6.898   1.036   5.069
 8202SOL     OW25504   0.440   5.491   3.507
 8202SOL    HW125505   0.418   5.396   3.531
 8202SOL    HW225506   0.391   5.553   3.569
 8203SOL     OW25507   2.308   2.122   6.875
 8203SOL    HW125508   2.394   2.161   6.906
 8203SOL    HW225509   2.293   2.146   6.779
 8204SOL     OW25510   3.917   4.352   0.409
 8204SOL    HW125511   3.843   4.345   0.342
 8204SOL    HW225512   3.996   4.397   0.367
 8205SOL     OW25513   6.674   4.087   6.819
 8205SOL    HW125514   6.666   4.146   6.739
 8205SOL    HW225515   6.588   4.038   6.834
 8206SOL     OW25516   4.556   2.315   6.742
 8206SOL    HW125517   4.477   2.360   6.702
 8206SOL    HW225518   4.572   2.349   6.834
 8207SOL     OW25519   3.282   3.241   4.357
 8207SOL    HW125520   3.340   3.250   4.276
 8207SOL    HW225521   3.327   3.286   4.434
 8208SOL     OW25522   1.135   1.009   0.872
 8208SOL    HW125523   1.112   1.081   0.938
 8208SOL    HW225524   1.183   0.935   0.919
 8209SOL     OW25525   0.465   0.605   4.865
 8209SOL    HW125526   0.380   0.641   4.825
 8209SOL    HW225527   0.542   0.660   4.834
 8210SOL     OW25528   2.239   2.388   0.424
 8210SOL    HW125529   2.303   2.334   0.479
 8210SOL    HW225530   2.212   2.335   0.344
 8211SOL     OW25531   3.853   4.386   1.500
 8211SOL    HW125532   3.837   4.459   1.433
 8211SOL    HW225533   3.770   4.372   1.553
 8212SOL     OW25534   1.222   2.291   2.777
 8212SOL    HW125535   1.301   2.231   2.773
 8212SOL    HW225536   1.197   2.321   2.685
 8213SOL     OW25537   0.115   4.642   1.492
 8213SOL    HW125538   0.031   4.614   1.446
 8213SOL    HW225539   0.112   4.615   1.588
 8214SOL     OW25540   6.438   5.069   3.736
 8214SOL    HW125541   6.455   5.006   3.812
 8214SOL    HW225542   6.518   5.072   3.676
 8215SOL     OW25543   3.715   6.019   5.529
 8215SOL    HW125544   3.714   5.919   5.526
 8215SOL    HW225545   3.675   6.051   5.615
 8216SOL     OW25546   5.441   5.544   4.027
 8216SOL    HW125547   5.470   5.504   3.940
 8216SOL    HW225548   5.510   5.609   4.058
 8217SOL     OW25549   1.569   4.936   0.462
 8217SOL    HW125550   1.632   5.014   0.459
 8217SOL    HW225551   1.621   4.851   0.468
 8218SOL     OW25552   6.879   0.107   6.535
 8218SOL    HW125553   6.864   0.023   6.483
 8218SOL    HW225554   6.976   0.126   6.540
 8219SOL     OW25555   4.480   2.074   0.423
 8219SOL    HW125556   4.408   2.082   0.492
 8219SOL    HW225557   4.470   1.988   0.374
 8220SOL     OW25558   3.763   3.013   3.507
 8220SOL    HW125559   3.740   3.103   3.544
 8220SOL    HW225560   3.798   2.954   3.579
 8221SOL     OW25561   5.421   6.180   4.498
 8221SOL    HW125562   5.517   6.151   4.502
 8221SOL    HW225563   5.381   6.148   4.412
 8222SOL     OW25564   5.356   1.328   2.181
 8222SOL    HW125565   5.277   1.387   2.191
 8222SOL    HW225566   5.368   1.273   2.263
 8223SOL     OW25567   1.086   4.835   6.109
 8223SOL    HW125568   1.079   4.902   6.035
 8223SOL    HW225569   1.127   4.878   6.189
 8224SOL     OW25570   6.451   1.143   2.699
 8224SOL    HW125571   6.398   1.082   2.640
 8224SOL    HW225572   6.470   1.228   2.649
 8225SOL     OW25573   3.770   1.169   6.900
 8225SOL    HW125574   3.742   1.250   6.952
 8225SOL    HW225575   3.841   1.195   6.834
 8226SOL     OW25576   4.152   6.432   2.038
 8226SOL    HW125577   4.081   6.383   1.988
 8226SOL    HW225578   4.113   6.471   2.122
 8227SOL     OW25579   6.085   2.048   3.432
 8227SOL    HW125580   6.180   2.046   3.401
 8227SOL    HW225581   6.025   2.057   3.353
 8228SOL     OW25582   6.788   1.973   5.561
 8228SOL    HW125583   6.797   1.877   5.532
 8228SOL    HW225584   6.787   1.977   5.661
 8229SOL     OW25585   3.574   4.055   0.907
 8229SOL    HW125586   3.555   4.127   0.974
 8229SOL    HW225587   3.564   3.966   0.950
 8230SOL     OW25588   3.995   0.058   4.978
 8230SOL    HW125589   4.091   0.033   4.969
 8230SOL    HW225590   3.970   0.062   5.075
 8231SOL     OW25591   3.940   4.942   0.553
 8231SOL    HW125592   3.984   4.887   0.624
 8231SOL    HW225593   3.933   5.037   0.584
 8232SOL     OW25594   4.750   1.552   1.368
 8232SOL    HW125595   4.694   1.576   1.288
 8232SOL    HW225596   4.787   1.460   1.357
 8233SOL     OW25597   1.348   6.146   6.710
 8233SOL    HW125598   1.446   6.146   6.731
 8233SOL    HW225599   1.321   6.054   6.683
 8234SOL     OW25600   2.926   4.356   6.739
 8234SOL    HW125601   2.923   4.422   6.664
 8234SOL    HW225602   2.842   4.302   6.740
 8235SOL     OW25603   1.080   3.789   0.011
 8235SOL    HW125604   1.037   3.875   0.039
 8235SOL    HW225605   1.178   3.794   0.027
 8236SOL     OW25606   0.187   4.791   0.130
 8236SOL    HW125607   0.101   4.747   0.160
 8236SOL    HW225608   0.238   4.726   0.073
 8237SOL     OW25609   4.233   6.656   4.871
 8237SOL    HW125610   4.319   6.688   4.912
 8237SOL    HW225611   4.225   6.557   4.885
 8238SOL     OW25612   0.990   5.138   6.743
 8238SOL    HW125613   0.891   5.131   6.741
 8238SOL    HW225614   1.017   5.231   6.768
 8239SOL     OW25615   6.247   1.082   5.210
 8239SOL    HW125616   6.311   1.145   5.254
 8239SOL    HW225617   6.205   1.127   5.132
 8240SOL     OW25618   3.312   4.136   2.478
 8240SOL    HW125619   3.409   4.141   2.452
 8240SOL    HW225620   3.270   4.226   2.467
 8241SOL     OW25621   4.274   0.392   0.029
 8241SOL    HW125622   4.302   0.305   0.069
 8241SOL    HW225623   4.176   0.405   0.042
 8242SOL     OW25624   0.247   5.063   5.630
 8242SOL    HW125625   0.284   5.043   5.539
 8242SOL    HW225626   0.285   4.999   5.696
 8243SOL     OW25627   0.558   3.160   0.626
 8243SOL    HW125628   0.482   3.152   0.562
 8243SOL    HW225629   0.637   3.109   0.591
 8244SOL     OW25630   0.720   0.119   4.549
 8244SOL    HW125631   0.776   0.036   4.540
 8244SOL    HW225632   0.628   0.101   4.514
 8245SOL     OW25633   4.070   2.182   3.081
 8245SOL    HW125634   3.986   2.203   3.132
 8245SOL    HW225635   4.062   2.215   2.987
 8246SOL     OW25636   0.650   2.843   5.834
 8246SOL    HW125637   0.743   2.824   5.865
 8246SOL    HW225638   0.647   2.934   5.793
 8247SOL     OW25639   1.090   6.903   2.265
 8247SOL    HW125640   1.116   6.812   2.297
 8247SOL    HW225641   1.172   6.960   2.256
 8248SOL     OW25642   6.200   5.161   4.462
 8248SOL    HW125643   6.221   5.220   4.539
 8248SOL    HW225644   6.101   5.147   4.457
 8249SOL     OW25645   1.595   2.949   4.744
 8249SOL    HW125646   1.623   2.885   4.815
 8249SOL    HW225647   1.648   3.034   4.753
 8250SOL     OW25648   3.561   4.140   2.370
 8250SOL    HW125649   3.660   4.124   2.376
 8250SOL    HW225650   3.526   4.095   2.287
 8251SOL     OW25651   5.832   3.297   3.434
 8251SOL    HW125652   5.886   3.270   3.513
 8251SOL    HW225653   5.739   3.317   3.463
 8252SOL     OW25654   3.369   1.613   5.458
 8252SOL    HW125655   3.426   1.562   5.394
 8252SOL    HW225656   3.300   1.665   5.407
 8253SOL     OW25657   4.602   4.298   5.663
 8253SOL    HW125658   4.632   4.391   5.681
 8253SOL    HW225659   4.538   4.297   5.586
 8254SOL     OW25660   4.711   4.454   5.088
 8254SOL    HW125661   4.733   4.552   5.092
 8254SOL    HW225662   4.794   4.400   5.098
 8255SOL     OW25663   2.160   6.943   5.205
 8255SOL    HW125664   2.207   6.856   5.220
 8255SOL    HW225665   2.115   6.941   5.115
 8256SOL     OW25666   6.137   6.904   2.514
 8256SOL    HW125667   6.206   6.845   2.473
 8256SOL    HW225668   6.170   6.937   2.603
 8257SOL     OW25669   6.323   3.585   3.643
 8257SOL    HW125670   6.315   3.536   3.730
 8257SOL    HW225671   6.413   3.565   3.603
 8258SOL     OW25672   5.659   2.094   0.509
 8258SOL    HW125673   5.708   2.164   0.457
 8258SOL    HW225674   5.617   2.137   0.590
 8259SOL     OW25675   4.082   2.228   3.758
 8259SOL    HW125676   4.119   2.220   3.850
 8259SOL    HW225677   4.151   2.271   3.698
 8260SOL     OW25678   2.877   6.699   1.229
 8260SOL    HW125679   2.966   6.694   1.182
 8260SOL    HW225680   2.828   6.613   1.214
 8261SOL     OW25681   5.823   0.490   2.128
 8261SOL    HW125682   5.879   0.544   2.065
 8261SOL    HW225683   5.815   0.537   2.215
 8262SOL     OW25684   0.186   2.905   7.001
 8262SOL    HW125685   0.118   2.955   0.025
 8262SOL    HW225686   0.180   2.932   6.905
 8263SOL     OW25687   1.544   2.430   6.774
 8263SOL    HW125688   1.527   2.334   6.750
 8263SOL    HW225689   1.485   2.489   6.719
 8264SOL     OW25690   2.951   6.132   2.798
 8264SOL    HW125691   3.016   6.087   2.859
 8264SOL    HW225692   2.884   6.065   2.765
 8265SOL     OW25693   0.809   6.893   0.921
 8265SOL    HW125694   0.835   6.797   0.932
 8265SOL    HW225695   0.770   6.927   1.007
 8266SOL     OW25696   2.261   1.098   3.046
 8266SOL    HW125697   2.334   1.034   3.073
 8266SOL    HW225698   2.213   1.062   2.967
 8267SOL     OW25699   1.073   2.811   1.226
 8267SOL    HW125700   1.160   2.790   1.270
 8267SOL    HW225701   1.009   2.736   1.240
 8268SOL     OW25702   1.813   6.456   5.964
 8268SOL    HW125703   1.755   6.492   6.037
 8268SOL    HW225704   1.909   6.471   5.988
 8269SOL     OW25705   4.110   1.834   2.038
 8269SOL    HW125706   4.019   1.846   1.999
 8269SOL    HW225707   4.156   1.758   1.991
 8270SOL     OW25708   2.798   6.886   5.603
 8270SOL    HW125709   2.870   6.928   5.658
 8270SOL    HW225710   2.826   6.883   5.507
 8271SOL     OW25711   0.055   0.243   3.223
 8271SOL    HW125712   0.005   0.273   3.142
 8271SOL    HW225713   0.038   0.308   3.297
 8272SOL     OW25714   4.711   1.935   2.192
 8272SOL    HW125715   4.661   1.934   2.105
 8272SOL    HW225716   4.809   1.936   2.173
 8273SOL     OW25717   2.819   0.914   0.551
 8273SOL    HW125718   2.859   0.886   0.464
 8273SOL    HW225719   2.811   0.835   0.611
 8274SOL     OW25720   5.455   4.779   3.593
 8274SOL    HW125721   5.526   4.836   3.634
 8274SOL    HW225722   5.366   4.806   3.630
 8275SOL     OW25723   5.021   1.249   5.799
 8275SOL    HW125724   5.007   1.212   5.891
 8275SOL    HW225725   5.102   1.306   5.798
 8276SOL     OW25726   1.149   2.030   3.768
 8276SOL    HW125727   1.129   2.066   3.859
 8276SOL    HW225728   1.097   1.946   3.753
 8277SOL     OW25729   0.303   0.067   0.149
 8277SOL    HW125730   0.236   7.024   0.166
 8277SOL    HW225731   0.291   0.101   0.056
 8278SOL     OW25732   2.641   1.961   5.599
 8278SOL    HW125733   2.580   2.028   5.558
 8278SOL    HW225734   2.729   1.963   5.553
 8279SOL     OW25735   1.818   6.500   4.834
 8279SOL    HW125736   1.769   6.533   4.752
 8279SOL    HW225737   1.911   6.476   4.809
 8280SOL     OW25738   2.074   3.802   0.638
 8280SOL    HW125739   2.035   3.884   0.678
 8280SOL    HW225740   2.077   3.812   0.539
 8281SOL     OW25741   2.762   4.784   1.806
 8281SOL    HW125742   2.769   4.711   1.875
 8281SOL    HW225743   2.781   4.746   1.716
 8282SOL     OW25744   4.864   3.640   6.861
 8282SOL    HW125745   4.933   3.634   6.788
 8282SOL    HW225746   4.776   3.667   6.821
 8283SOL     OW25747   1.458   5.510   6.746
 8283SOL    HW125748   1.508   5.596   6.753
 8283SOL    HW225749   1.516   5.435   6.780
 8284SOL     OW25750   1.155   3.960   0.873
 8284SOL    HW125751   1.198   3.895   0.811
 8284SOL    HW225752   1.056   3.945   0.874
 8285SOL     OW25753   2.944   3.756   4.174
 8285SOL    HW125754   2.973   3.666   4.205
 8285SOL    HW225755   2.932   3.755   4.075
 8286SOL     OW25756   6.104   2.666   6.339
 8286SOL    HW125757   6.051   2.710   6.412
 8286SOL    HW225758   6.182   2.723   6.316
 8287SOL     OW25759   2.036   5.459   3.861
 8287SOL    HW125760   2.000   5.551   3.852
 8287SOL    HW225761   2.115   5.447   3.801
 8288SOL     OW25762   3.218   1.922   1.678
 8288SOL    HW125763   3.256   1.830   1.672
 8288SOL    HW225764   3.257   1.970   1.756
 8289SOL     OW25765   0.830   5.581   0.863
 8289SOL    HW125766   0.872   5.637   0.934
 8289SOL    HW225767   0.730   5.585   0.871
 8290SOL     OW25768   6.407   1.197   1.331
 8290SOL    HW125769   6.351   1.228   1.254
 8290SOL    HW225770   6.381   1.103   1.355
 8291SOL     OW25771   5.269   6.410   5.875
 8291SOL    HW125772   5.201   6.395   5.948
 8291SOL    HW225773   5.222   6.428   5.789
 8292SOL     OW25774   2.656   6.593   6.795
 8292SOL    HW125775   2.584   6.540   6.751
 8292SOL    HW225776   2.741   6.585   6.742
 8293SOL     OW25777   3.474   6.227   7.002
 8293SOL    HW125778   3.520   6.198   0.056
 8293SOL    HW225779   3.516   6.183   6.923
 8294SOL     OW25780   5.188   3.870   4.616
 8294SOL    HW125781   5.102   3.836   4.655
 8294SOL    HW225782   5.262   3.850   4.680
 8295SOL     OW25783   5.164   5.358   1.843
 8295SOL    HW125784   5.233   5.428   1.856
 8295SOL    HW225785   5.178   5.283   1.908
 8296SOL     OW25786   1.335   5.285   6.345
 8296SOL    HW125787   1.316   5.350   6.419
 8296SOL    HW225788   1.385   5.332   6.272
 8297SOL     OW25789   6.224   2.854   2.503
 8297SOL    HW125790   6.225   2.862   2.603
 8297SOL    HW225791   6.289   2.784   2.475
 8298SOL     OW25792   6.461   1.418   0.949
 8298SOL    HW125793   6.528   1.477   0.994
 8298SOL    HW225794   6.504   1.331   0.924
 8299SOL     OW25795   6.897   3.221   1.447
 8299SOL    HW125796   6.923   3.249   1.355
 8299SOL    HW225797   6.830   3.147   1.441
 8300SOL     OW25798   0.510   5.920   4.691
 8300SOL    HW125799   0.460   5.930   4.605
 8300SOL    HW225800   0.496   5.828   4.728
 8301SOL     OW25801   3.951   1.970   1.097
 8301SOL    HW125802   3.906   1.995   1.183
 8301SOL    HW225803   3.934   2.041   1.029
 8302SOL     OW25804   5.767   6.493   0.263
 8302SOL    HW125805   5.700   6.453   0.325
 8302SOL    HW225806   5.775   6.591   0.282
 8303SOL     OW25807   6.502   0.516   3.900
 8303SOL    HW125808   6.404   0.501   3.890
 8303SOL    HW225809   6.541   0.444   3.957
 8304SOL     OW25810   0.183   3.511   0.897
 8304SOL    HW125811   0.083   3.517   0.900
 8304SOL    HW225812   0.212   3.489   0.804
 8305SOL     OW25813   4.270   5.255   4.329
 8305SOL    HW125814   4.215   5.176   4.357
 8305SOL    HW225815   4.357   5.223   4.291
 8306SOL     OW25816   0.144   2.708   6.787
 8306SOL    HW125817   0.051   2.715   6.753
 8306SOL    HW225818   0.150   2.748   6.878
 8307SOL     OW25819   3.876   5.534   1.408
 8307SOL    HW125820   3.928   5.582   1.338
 8307SOL    HW225821   3.866   5.593   1.488
 8308SOL     OW25822   4.007   5.722   1.249
 8308SOL    HW125823   3.982   5.817   1.267
 8308SOL    HW225824   4.101   5.719   1.213
 8309SOL     OW25825   6.607   5.368   3.957
 8309SOL    HW125826   6.701   5.389   3.985
 8309SOL    HW225827   6.557   5.328   4.034
 8310SOL     OW25828   0.306   4.586   0.312
 8310SOL    HW125829   0.292   4.581   0.411
 8310SOL    HW225830   0.247   4.519   0.267
 8311SOL     OW25831   0.637   1.822   4.411
 8311SOL    HW125832   0.664   1.787   4.501
 8311SOL    HW225833   0.697   1.897   4.385
 8312SOL     OW25834   4.974   0.363   0.085
 8312SOL    HW125835   4.917   0.379   0.005
 8312SOL    HW225836   4.991   0.449   0.132
 8313SOL     OW25837   5.096   0.619   1.940
 8313SOL    HW125838   5.007   0.574   1.929
 8313SOL    HW225839   5.140   0.629   1.851
 8314SOL     OW25840   4.599   0.863   0.476
 8314SOL    HW125841   4.624   0.812   0.393
 8314SOL    HW225842   4.518   0.918   0.457
 8315SOL     OW25843   4.162   3.337   1.054
 8315SOL    HW125844   4.135   3.325   0.959
 8315SOL    HW225845   4.087   3.309   1.114
 8316SOL     OW25846   0.225   2.337   2.086
 8316SOL    HW125847   0.170   2.403   2.035
 8316SOL    HW225848   0.321   2.346   2.059
 8317SOL     OW25849   2.144   2.200   2.645
 8317SOL    HW125850   2.162   2.188   2.743
 8317SOL    HW225851   2.049   2.178   2.625
 8318SOL     OW25852   4.598   1.067   4.907
 8318SOL    HW125853   4.583   1.120   4.990
 8318SOL    HW225854   4.685   1.093   4.866
 8319SOL     OW25855   2.485   1.914   6.456
 8319SOL    HW125856   2.401   1.952   6.420
 8319SOL    HW225857   2.560   1.979   6.443
 8320SOL     OW25858   3.217   3.041   1.542
 8320SOL    HW125859   3.241   3.093   1.460
 8320SOL    HW225860   3.300   3.024   1.596
 8321SOL     OW25861   6.479   1.267   6.889
 8321SOL    HW125862   6.505   1.185   6.838
 8321SOL    HW225863   6.498   1.252   6.987
 8322SOL     OW25864   0.092   0.273   0.686
 8322SOL    HW125865   0.143   0.206   0.631
 8322SOL    HW225866   0.152   0.350   0.709
 8323SOL     OW25867   5.520   5.784   2.363
 8323SOL    HW125868   5.435   5.836   2.352
 8323SOL    HW225869   5.522   5.710   2.296
 8324SOL     OW25870   5.442   6.861   1.499
 8324SOL    HW125871   5.355   6.815   1.481
 8324SOL    HW225872   5.431   6.960   1.485
 8325SOL     OW25873   2.480   3.392   5.752
 8325SOL    HW125874   2.429   3.307   5.746
 8325SOL    HW225875   2.534   3.394   5.836
 8326SOL     OW25876   5.170   3.857   5.950
 8326SOL    HW125877   5.250   3.864   5.891
 8326SOL    HW225878   5.120   3.944   5.949
 8327SOL     OW25879   6.355   1.063   6.553
 8327SOL    HW125880   6.270   1.014   6.566
 8327SOL    HW225881   6.337   1.150   6.507
 8328SOL     OW25882   2.420   5.450   5.742
 8328SOL    HW125883   2.440   5.442   5.644
 8328SOL    HW225884   2.489   5.509   5.785
 8329SOL     OW25885   0.720   3.234   6.256
 8329SOL    HW125886   0.699   3.230   6.159
 8329SOL    HW225887   0.710   3.328   6.288
 8330SOL     OW25888   3.028   0.730   0.683
 8330SOL    HW125889   3.110   0.786   0.674
 8330SOL    HW225890   3.001   0.725   0.779
 8331SOL     OW25891   2.931   1.562   1.472
 8331SOL    HW125892   3.025   1.594   1.479
 8331SOL    HW225893   2.892   1.552   1.563
 8332SOL     OW25894   5.192   5.210   2.441
 8332SOL    HW125895   5.095   5.215   2.421
 8332SOL    HW225896   5.241   5.177   2.361
 8333SOL     OW25897   0.351   6.787   6.242
 8333SOL    HW125898   0.386   6.805   6.150
 8333SOL    HW225899   0.380   6.696   6.271
 8334SOL     OW25900   4.219   1.877   4.299
 8334SOL    HW125901   4.299   1.873   4.239
 8334SOL    HW225902   4.137   1.863   4.245
 8335SOL     OW25903   6.326   6.019   6.982
 8335SOL    HW125904   6.250   6.011   0.017
 8335SOL    HW225905   6.379   6.101   7.003
 8336SOL     OW25906   6.328   5.941   2.868
 8336SOL    HW125907   6.271   6.022   2.885
 8336SOL    HW225908   6.287   5.861   2.912
 8337SOL     OW25909   1.390   6.283   2.578
 8337SOL    HW125910   1.326   6.330   2.518
 8337SOL    HW225911   1.484   6.308   2.552
 8338SOL     OW25912   2.500   5.449   1.728
 8338SOL    HW125913   2.439   5.487   1.659
 8338SOL    HW225914   2.519   5.353   1.706
 8339SOL     OW25915   5.672   0.358   1.429
 8339SOL    HW125916   5.659   0.303   1.512
 8339SOL    HW225917   5.631   0.448   1.442
 8340SOL     OW25918   4.915   3.018   1.585
 8340SOL    HW125919   4.958   2.934   1.552
 8340SOL    HW225920   4.821   2.997   1.613
 8341SOL     OW25921   1.958   6.078   0.005
 8341SOL    HW125922   1.990   6.089   6.939
 8341SOL    HW225923   2.032   6.104   0.068
 8342SOL     OW25924   4.349   6.981   1.594
 8342SOL    HW125925   4.266   0.004   1.610
 8342SOL    HW225926   4.347   6.897   1.648
 8343SOL     OW25927   1.185   5.318   5.884
 8343SOL    HW125928   1.125   5.389   5.847
 8343SOL    HW225929   1.172   5.309   5.982
 8344SOL     OW25930   4.646   6.649   5.275
 8344SOL    HW125931   4.668   6.726   5.216
 8344SOL    HW225932   4.691   6.566   5.241
 8345SOL     OW25933   4.533   1.618   3.554
 8345SOL    HW125934   4.599   1.551   3.588
 8345SOL    HW225935   4.496   1.587   3.467
 8346SOL     OW25936   3.018   4.461   0.597
 8346SOL    HW125937   3.025   4.420   0.688
 8346SOL    HW225938   3.076   4.542   0.592
 8347SOL     OW25939   3.385   5.401   4.852
 8347SOL    HW125940   3.366   5.352   4.767
 8347SOL    HW225941   3.350   5.495   4.845
 8348SOL     OW25942   2.076   7.017   2.477
 8348SOL    HW125943   2.171   7.015   2.510
 8348SOL    HW225944   2.021   0.044   2.539
 8349SOL     OW25945   5.764   6.474   1.393
 8349SOL    HW125946   5.704   6.410   1.441
 8349SOL    HW225947   5.729   6.567   1.406
 8350SOL     OW25948   4.269   0.245   4.840
 8350SOL    HW125949   4.173   0.266   4.822
 8350SOL    HW225950   4.275   0.170   4.906
 8351SOL     OW25951   5.071   4.542   3.969
 8351SOL    HW125952   5.112   4.461   4.012
 8351SOL    HW225953   5.022   4.595   4.038
 8352SOL     OW25954   0.231   6.643   3.220
 8352SOL    HW125955   0.236   6.724   3.278
 8352SOL    HW225956   0.312   6.639   3.161
 8353SOL     OW25957   6.795   3.781   1.399
 8353SOL    HW125958   6.876   3.767   1.455
 8353SOL    HW225959   6.806   3.863   1.344
 8354SOL     OW25960   3.926   0.059   6.506
 8354SOL    HW125961   4.014   0.087   6.467
 8354SOL    HW225962   3.913   0.102   6.595
 8355SOL     OW25963   3.070   0.735   6.878
 8355SOL    HW125964   3.147   0.748   6.815
 8355SOL    HW225965   3.007   0.812   6.869
 8356SOL     OW25966   1.759   6.317   1.185
 8356SOL    HW125967   1.850   6.293   1.151
 8356SOL    HW225968   1.752   6.292   1.281
 8357SOL     OW25969   3.554   0.658   5.185
 8357SOL    HW125970   3.488   0.677   5.258
 8357SOL    HW225971   3.510   0.603   5.114
 8358SOL     OW25972   0.946   3.826   5.381
 8358SOL    HW125973   0.906   3.897   5.322
 8358SOL    HW225974   1.018   3.778   5.330
 8359SOL     OW25975   2.752   0.203   5.302
 8359SOL    HW125976   2.816   0.129   5.280
 8359SOL    HW225977   2.712   0.238   5.218
 8360SOL     OW25978   3.571   5.960   1.296
 8360SOL    HW125979   3.553   6.058   1.306
 8360SOL    HW225980   3.522   5.909   1.367
 8361SOL     OW25981   3.353   6.683   3.026
 8361SOL    HW125982   3.275   6.743   3.007
 8361SOL    HW225983   3.396   6.710   3.112
 8362SOL     OW25984   3.625   2.549   0.720
 8362SOL    HW125985   3.538   2.551   0.770
 8362SOL    HW225986   3.613   2.592   0.631
 8363SOL     OW25987   0.637   2.530   6.766
 8363SOL    HW125988   0.727   2.566   6.788
 8363SOL    HW225989   0.582   2.525   6.850
 8364SOL     OW25990   0.534   3.401   2.371
 8364SOL    HW125991   0.463   3.424   2.304
 8364SOL    HW225992   0.620   3.443   2.344
 8365SOL     OW25993   2.145   3.945   2.051
 8365SOL    HW125994   2.137   3.974   2.146
 8365SOL    HW225995   2.136   3.845   2.046
 8366SOL     OW25996   2.798   5.729   2.371
 8366SOL    HW125997   2.758   5.759   2.458
 8366SOL    HW225998   2.762   5.786   2.298
 8367SOL     OW25999   3.928   6.040   4.179
 8367SOL    HW126000   3.955   6.107   4.110
 8367SOL    HW226001   3.984   5.958   4.170
 8368SOL     OW26002   2.246   6.601   6.515
 8368SOL    HW126003   2.237   6.696   6.547
 8368SOL    HW226004   2.161   6.552   6.534
 8369SOL     OW26005   2.220   6.845   6.642
 8369SOL    HW126006   2.205   6.783   6.720
 8369SOL    HW226007   2.169   6.930   6.656
 8370SOL     OW26008   2.421   2.523   5.104
 8370SOL    HW126009   2.433   2.567   5.015
 8370SOL    HW226010   2.508   2.526   5.154
 8371SOL     OW26011   2.154   4.808   1.029
 8371SOL    HW126012   2.068   4.859   1.025
 8371SOL    HW226013   2.152   4.746   1.108
 8372SOL     OW26014   0.350   5.447   2.541
 8372SOL    HW126015   0.367   5.543   2.561
 8372SOL    HW226016   0.426   5.392   2.577
 8373SOL     OW26017   1.570   0.114   3.898
 8373SOL    HW126018   1.489   0.160   3.861
 8373SOL    HW226019   1.560   0.015   3.888
 8374SOL     OW26020   0.331   0.966   5.429
 8374SOL    HW126021   0.411   0.997   5.480
 8374SOL    HW226022   0.345   0.983   5.331
 8375SOL     OW26023   4.142   6.928   5.205
 8375SOL    HW126024   4.231   6.882   5.207
 8375SOL    HW226025   4.079   6.882   5.267
 8376SOL     OW26026   1.710   0.592   3.777
 8376SOL    HW126027   1.630   0.532   3.770
 8376SOL    HW226028   1.712   0.655   3.699
 8377SOL     OW26029   5.362   6.105   1.230
 8377SOL    HW126030   5.398   6.013   1.241
 8377SOL    HW226031   5.413   6.168   1.289
 8378SOL     OW26032   4.210   4.858   2.665
 8378SOL    HW126033   4.120   4.818   2.645
 8378SOL    HW226034   4.198   4.953   2.694
 8379SOL     OW26035   5.758   2.222   1.452
 8379SOL    HW126036   5.835   2.207   1.391
 8379SOL    HW226037   5.743   2.320   1.465
 8380SOL     OW26038   6.988   0.638   2.534
 8380SOL    HW126039   6.967   0.541   2.517
 8380SOL    HW226040   6.964   0.692   2.453
 8381SOL     OW26041   0.020   3.165   4.720
 8381SOL    HW126042   7.009   3.250   4.753
 8381SOL    HW226043   0.119   3.176   4.711
 8382SOL     OW26044   2.548   0.601   2.366
 8382SOL    HW126045   2.468   0.650   2.332
 8382SOL    HW226046   2.555   0.513   2.318
 8383SOL     OW26047   2.271   0.290   5.949
 8383SOL    HW126048   2.238   0.374   5.906
 8383SOL    HW226049   2.312   0.230   5.880
 8384SOL     OW26050   6.754   1.016   0.378
 8384SOL    HW126051   6.819   0.961   0.325
 8384SOL    HW226052   6.730   1.097   0.325
 8385SOL     OW26053   6.484   1.597   1.493
 8385SOL    HW126054   6.507   1.687   1.456
 8385SOL    HW226055   6.387   1.595   1.517
 8386SOL     OW26056   1.082   4.515   2.091
 8386SOL    HW126057   1.128   4.590   2.138
 8386SOL    HW226058   1.147   4.464   2.036
 8387SOL     OW26059   1.842   1.017   2.056
 8387SOL    HW126060   1.780   0.949   2.095
 8387SOL    HW226061   1.792   1.077   1.994
 8388SOL     OW26062   2.143   6.161   0.223
 8388SOL    HW126063   2.240   6.186   0.228
 8388SOL    HW226064   2.092   6.233   0.177
 8389SOL     OW26065   6.601   2.995   3.133
 8389SOL    HW126066   6.513   2.988   3.086
 8389SOL    HW226067   6.605   2.927   3.206
 8390SOL     OW26068   3.868   0.925   6.134
 8390SOL    HW126069   3.824   0.862   6.198
 8390SOL    HW226070   3.865   1.018   6.170
 8391SOL     OW26071   6.649   5.263   0.991
 8391SOL    HW126072   6.583   5.194   1.022
 8391SOL    HW226073   6.669   5.249   0.894
 8392SOL     OW26074   6.541   3.706   4.363
 8392SOL    HW126075   6.588   3.756   4.290
 8392SOL    HW226076   6.484   3.770   4.415
 8393SOL     OW26077   6.782   0.386   2.601
 8393SOL    HW126078   6.752   0.472   2.559
 8393SOL    HW226079   6.714   0.315   2.582
 8394SOL     OW26080   6.345   2.246   1.030
 8394SOL    HW126081   6.329   2.308   0.954
 8394SOL    HW226082   6.313   2.154   1.006
 8395SOL     OW26083   2.879   6.347   5.455
 8395SOL    HW126084   2.871   6.406   5.536
 8395SOL    HW226085   2.931   6.394   5.384
 8396SOL     OW26086   4.983   5.313   3.564
 8396SOL    HW126087   4.960   5.236   3.623
 8396SOL    HW226088   5.060   5.288   3.505
 8397SOL     OW26089   1.265   0.768   2.653
 8397SOL    HW126090   1.288   0.835   2.582
 8397SOL    HW226091   1.180   0.721   2.627
 8398SOL     OW26092   4.292   2.263   6.344
 8398SOL    HW126093   4.236   2.294   6.268
 8398SOL    HW226094   4.275   2.166   6.361
 8399SOL     OW26095   6.027   6.807   6.813
 8399SOL    HW126096   6.058   6.737   6.749
 8399SOL    HW226097   6.106   6.860   6.845
 8400SOL     OW26098   2.307   0.851   4.264
 8400SOL    HW126099   2.291   0.864   4.166
 8400SOL    HW226100   2.342   0.759   4.280
 8401SOL     OW26101   2.360   1.103   5.200
 8401SOL    HW126102   2.412   1.125   5.117
 8401SOL    HW226103   2.310   1.183   5.231
 8402SOL     OW26104   5.103   1.765   6.597
 8402SOL    HW126105   5.072   1.837   6.534
 8402SOL    HW226106   5.063   1.678   6.569
 8403SOL     OW26107   6.581   3.151   4.438
 8403SOL    HW126108   6.499   3.134   4.493
 8403SOL    HW226109   6.587   3.249   4.417
 8404SOL     OW26110   3.902   7.025   5.692
 8404SOL    HW126111   3.860   6.954   5.749
 8404SOL    HW226112   3.831   0.061   5.662
 8405SOL     OW26113   2.241   1.331   5.569
 8405SOL    HW126114   2.197   1.257   5.620
 8405SOL    HW226115   2.233   1.315   5.471
 8406SOL     OW26116   4.289   0.686   6.968
 8406SOL    HW126117   4.267   0.597   7.008
 8406SOL    HW226118   4.387   0.703   6.975
 8407SOL     OW26119   3.874   5.851   3.581
 8407SOL    HW126120   3.845   5.841   3.677
 8407SOL    HW226121   3.793   5.854   3.523
 8408SOL     OW26122   5.619   4.403   1.311
 8408SOL    HW126123   5.595   4.366   1.401
 8408SOL    HW226124   5.557   4.478   1.288
 8409SOL     OW26125   4.509   1.866   3.415
 8409SOL    HW126126   4.570   1.940   3.444
 8409SOL    HW226127   4.523   1.786   3.475
 8410SOL     OW26128   5.894   0.445   0.892
 8410SOL    HW126129   5.949   0.374   0.936
 8410SOL    HW226130   5.828   0.481   0.957
 8411SOL     OW26131   0.584   5.963   0.306
 8411SOL    HW126132   0.598   5.994   0.212
 8411SOL    HW226133   0.514   5.891   0.308
 8412SOL     OW26134   3.201   2.578   1.124
 8412SOL    HW126135   3.171   2.491   1.164
 8412SOL    HW226136   3.143   2.652   1.159
 8413SOL     OW26137   5.039   5.900   6.565
 8413SOL    HW126138   4.953   5.861   6.597
 8413SOL    HW226139   5.039   5.999   6.581
 8414SOL     OW26140   3.108   7.003   3.681
 8414SOL    HW126141   3.195   7.003   3.729
 8414SOL    HW226142   3.060   6.917   3.699
 8415SOL     OW26143   1.170   5.718   4.485
 8415SOL    HW126144   1.134   5.687   4.573
 8415SOL    HW226145   1.250   5.663   4.460
 8416SOL     OW26146   6.635   1.953   3.681
 8416SOL    HW126147   6.647   1.854   3.687
 8416SOL    HW226148   6.556   1.981   3.736
 8417SOL     OW26149   0.651   3.155   6.008
 8417SOL    HW126150   0.591   3.194   5.938
 8417SOL    HW226151   0.618   3.065   6.035
 8418SOL     OW26152   6.348   5.440   1.120
 8418SOL    HW126153   6.397   5.489   1.192
 8418SOL    HW226154   6.360   5.342   1.133
 8419SOL     OW26155   5.595   0.182   1.977
 8419SOL    HW126156   5.645   0.237   1.910
 8419SOL    HW226157   5.563   0.241   2.051
 8420SOL     OW26158   4.299   0.138   0.929
 8420SOL    HW126159   4.285   0.153   0.831
 8420SOL    HW226160   4.274   0.221   0.979
 8421SOL     OW26161   3.385   4.908   0.274
 8421SOL    HW126162   3.475   4.933   0.239
 8421SOL    HW226163   3.315   4.937   0.209
 8422SOL     OW26164   4.496   1.430   2.232
 8422SOL    HW126165   4.503   1.385   2.322
 8422SOL    HW226166   4.525   1.525   2.240
 8423SOL     OW26167   3.813   4.600   6.165
 8423SOL    HW126168   3.834   4.693   6.133
 8423SOL    HW226169   3.875   4.535   6.121
 8424SOL     OW26170   1.474   2.180   2.795
 8424SOL    HW126171   1.442   2.086   2.804
 8424SOL    HW226172   1.496   2.199   2.699
 8425SOL     OW26173   4.077   4.238   6.238
 8425SOL    HW126174   4.102   4.335   6.235
 8425SOL    HW226175   3.995   4.227   6.295
 8426SOL     OW26176   3.617   3.253   2.813
 8426SOL    HW126177   3.680   3.200   2.871
 8426SOL    HW226178   3.523   3.239   2.844
 8427SOL     OW26179   3.626   3.811   3.472
 8427SOL    HW126180   3.624   3.793   3.374
 8427SOL    HW226181   3.546   3.770   3.515
 8428SOL     OW26182   0.112   6.209   1.392
 8428SOL    HW126183   0.024   6.245   1.423
 8428SOL    HW226184   0.145   6.142   1.458
 8429SOL     OW26185   1.782   5.987   5.725
 8429SOL    HW126186   1.827   5.915   5.778
 8429SOL    HW226187   1.725   6.042   5.785
 8430SOL     OW26188   3.596   4.883   4.147
 8430SOL    HW126189   3.557   4.802   4.103
 8430SOL    HW226190   3.547   4.902   4.231
 8431SOL     OW26191   4.027   3.917   0.350
 8431SOL    HW126192   4.039   3.834   0.404
 8431SOL    HW226193   3.956   3.974   0.393
 8432SOL     OW26194   6.354   5.451   5.118
 8432SOL    HW126195   6.322   5.447   5.213
 8432SOL    HW226196   6.399   5.365   5.094
 8433SOL     OW26197   4.144   3.263   6.825
 8433SOL    HW126198   4.125   3.188   6.761
 8433SOL    HW226199   4.202   3.229   6.899
 8434SOL     OW26200   2.885   0.810   4.486
 8434SOL    HW126201   2.824   0.754   4.431
 8434SOL    HW226202   2.958   0.847   4.429
 8435SOL     OW26203   5.678   0.028   2.287
 8435SOL    HW126204   5.648   0.042   2.193
 8435SOL    HW226205   5.599   0.012   2.345
 8436SOL     OW26206   3.415   6.764   3.500
 8436SOL    HW126207   3.318   6.738   3.507
 8436SOL    HW226208   3.471   6.698   3.549
 8437SOL     OW26209   2.253   1.625   3.534
 8437SOL    HW126210   2.299   1.607   3.621
 8437SOL    HW226211   2.193   1.705   3.543
 8438SOL     OW26212   2.409   4.366   3.023
 8438SOL    HW126213   2.422   4.448   2.967
 8438SOL    HW226214   2.399   4.286   2.963
 8439SOL     OW26215   6.018   4.337   2.491
 8439SOL    HW126216   5.931   4.357   2.447
 8439SOL    HW226217   6.061   4.259   2.445
 8440SOL     OW26218   3.366   1.714   3.776
 8440SOL    HW126219   3.428   1.725   3.699
 8440SOL    HW226220   3.386   1.783   3.845
 8441SOL     OW26221   5.495   6.855   0.218
 8441SOL    HW126222   5.422   6.787   0.226
 8441SOL    HW226223   5.567   6.836   0.284
 8442SOL     OW26224   3.791   2.058   5.831
 8442SOL    HW126225   3.763   2.114   5.753
 8442SOL    HW226226   3.842   1.978   5.798
 8443SOL     OW26227   2.561   4.672   3.699
 8443SOL    HW126228   2.508   4.601   3.655
 8443SOL    HW226229   2.509   4.711   3.775
 8444SOL     OW26230   2.983   6.600   4.385
 8444SOL    HW126231   3.074   6.579   4.419
 8444SOL    HW226232   2.915   6.577   4.455
 8445SOL     OW26233   2.400   0.344   1.001
 8445SOL    HW126234   2.386   0.250   0.970
 8445SOL    HW226235   2.498   0.363   1.007
 8446SOL     OW26236   5.969   5.315   6.048
 8446SOL    HW126237   5.905   5.392   6.043
 8446SOL    HW226238   6.045   5.338   6.109
 8447SOL     OW26239   4.448   1.276   1.780
 8447SOL    HW126240   4.435   1.303   1.684
 8447SOL    HW226241   4.368   1.225   1.811
 8448SOL     OW26242   4.056   6.044   3.696
 8448SOL    HW126243   3.974   5.989   3.678
 8448SOL    HW226244   4.047   6.133   3.653
 8449SOL     OW26245   0.271   3.163   3.325
 8449SOL    HW126246   0.181   3.205   3.315
 8449SOL    HW226247   0.294   3.113   3.241
 8450SOL     OW26248   0.864   1.188   1.224
 8450SOL    HW126249   0.960   1.161   1.221
 8450SOL    HW226250   0.807   1.108   1.240
 8451SOL     OW26251   3.214   1.605   6.657
 8451SOL    HW126252   3.306   1.641   6.641
 8451SOL    HW226253   3.221   1.518   6.707
 8452SOL     OW26254   5.956   2.909   3.600
 8452SOL    HW126255   5.869   2.863   3.584
 8452SOL    HW226256   6.016   2.895   3.522
 8453SOL     OW26257   0.311   5.345   0.191
 8453SOL    HW126258   0.271   5.412   0.129
 8453SOL    HW226259   0.282   5.366   0.285
 8454SOL     OW26260   0.310   5.559   1.311
 8454SOL    HW126261   0.316   5.653   1.343
 8454SOL    HW226262   0.308   5.497   1.389
 8455SOL     OW26263   0.406   2.095   1.588
 8455SOL    HW126264   0.421   2.000   1.559
 8455SOL    HW226265   0.372   2.095   1.682
 8456SOL     OW26266   4.703   6.613   3.325
 8456SOL    HW126267   4.732   6.701   3.287
 8456SOL    HW226268   4.604   6.611   3.334
 8457SOL     OW26269   6.910   6.612   4.091
 8457SOL    HW126270   6.999   6.633   4.133
 8457SOL    HW226271   6.882   6.520   4.118
 8458SOL     OW26272   2.653   0.663   0.224
 8458SOL    HW126273   2.593   0.682   0.146
 8458SOL    HW226274   2.636   0.570   0.257
 8459SOL     OW26275   2.815   6.238   2.180
 8459SOL    HW126276   2.739   6.272   2.125
 8459SOL    HW226277   2.806   6.270   2.274
 8460SOL     OW26278   4.648   4.192   5.178
 8460SOL    HW126279   4.582   4.139   5.232
 8460SOL    HW226280   4.716   4.129   5.139
 8461SOL     OW26281   0.990   3.180   4.501
 8461SOL    HW126282   0.988   3.084   4.473
 8461SOL    HW226283   0.918   3.196   4.569
 8462SOL     OW26284   2.063   3.036   6.668
 8462SOL    HW126285   2.126   2.962   6.647
 8462SOL    HW226286   1.991   3.041   6.598
 8463SOL     OW26287   6.829   0.163   1.790
 8463SOL    HW126288   6.815   0.099   1.866
 8463SOL    HW226289   6.813   0.115   1.703
 8464SOL     OW26290   5.121   4.803   4.668
 8464SOL    HW126291   5.045   4.739   4.653
 8464SOL    HW226292   5.108   4.884   4.611
 8465SOL     OW26293   0.794   3.003   0.658
 8465SOL    HW126294   0.816   2.929   0.594
 8465SOL    HW226295   0.771   2.964   0.747
 8466SOL     OW26296   1.006   6.631   4.181
 8466SOL    HW126297   0.985   6.727   4.202
 8466SOL    HW226298   1.097   6.609   4.218
 8467SOL     OW26299   3.064   5.912   0.414
 8467SOL    HW126300   2.993   5.983   0.417
 8467SOL    HW226301   3.151   5.953   0.387
 8468SOL     OW26302   3.042   1.559   0.168
 8468SOL    HW126303   3.102   1.637   0.154
 8468SOL    HW226304   2.947   1.586   0.154
 8469SOL     OW26305   3.500   2.731   0.098
 8469SOL    HW126306   3.529   2.827   0.101
 8469SOL    HW226307   3.433   2.719   0.025
 8470SOL     OW26308   1.543   3.630   0.516
 8470SOL    HW126309   1.472   3.637   0.586
 8470SOL    HW226310   1.539   3.540   0.473
 8471SOL     OW26311   3.031   1.438   2.304
 8471SOL    HW126312   3.080   1.497   2.369
 8471SOL    HW226313   2.991   1.494   2.231
 8472SOL     OW26314   0.665   0.371   4.067
 8472SOL    HW126315   0.756   0.391   4.033
 8472SOL    HW226316   0.610   0.331   3.993
 8473SOL     OW26317   6.306   5.234   6.525
 8473SOL    HW126318   6.215   5.247   6.564
 8473SOL    HW226319   6.358   5.319   6.534
 8474SOL     OW26320   3.339   2.940   2.352
 8474SOL    HW126321   3.303   2.937   2.445
 8474SOL    HW226322   3.265   2.926   2.287
 8475SOL     OW26323   0.370   1.631   3.174
 8475SOL    HW126324   0.301   1.588   3.116
 8475SOL    HW226325   0.460   1.594   3.152
 8476SOL     OW26326   6.632   1.045   1.201
 8476SOL    HW126327   6.683   1.079   1.280
 8476SOL    HW226328   6.639   1.111   1.126
 8477SOL     OW26329   3.738   6.400   2.246
 8477SOL    HW126330   3.672   6.328   2.223
 8477SOL    HW226331   3.785   6.376   2.331
 8478SOL     OW26332   1.094   0.475   6.155
 8478SOL    HW126333   1.025   0.511   6.093
 8478SOL    HW226334   1.051   0.451   6.242
 8479SOL     OW26335   6.226   2.743   1.027
 8479SOL    HW126336   6.216   2.778   1.121
 8479SOL    HW226337   6.139   2.705   0.997
 8480SOL     OW26338   3.695   0.855   0.394
 8480SOL    HW126339   3.762   0.809   0.453
 8480SOL    HW226340   3.645   0.922   0.448
 8481SOL     OW26341   4.347   1.647   3.877
 8481SOL    HW126342   4.431   1.701   3.883
 8481SOL    HW226343   4.304   1.643   3.968
 8482SOL     OW26344   3.683   0.113   3.214
 8482SOL    HW126345   3.754   0.177   3.185
 8482SOL    HW226346   3.707   0.021   3.185
 8483SOL     OW26347   4.083   5.571   2.064
 8483SOL    HW126348   4.100   5.474   2.082
 8483SOL    HW226349   4.111   5.625   2.144
 8484SOL     OW26350   0.107   5.739   3.149
 8484SOL    HW126351   0.069   5.754   3.057
 8484SOL    HW226352   0.049   5.674   3.198
 8485SOL     OW26353   2.791   3.794   6.441
 8485SOL    HW126354   2.865   3.853   6.474
 8485SOL    HW226355   2.808   3.700   6.472
 8486SOL     OW26356   5.005   1.043   3.033
 8486SOL    HW126357   4.962   0.956   3.058
 8486SOL    HW226358   5.055   1.032   2.948
 8487SOL     OW26359   5.711   0.846   0.358
 8487SOL    HW126360   5.662   0.767   0.321
 8487SOL    HW226361   5.785   0.814   0.417
 8488SOL     OW26362   5.682   4.625   4.802
 8488SOL    HW126363   5.776   4.589   4.801
 8488SOL    HW226364   5.618   4.551   4.782
 8489SOL     OW26365   6.428   0.643   1.610
 8489SOL    HW126366   6.384   0.719   1.562
 8489SOL    HW226367   6.486   0.592   1.546
 8490SOL     OW26368   4.134   6.542   4.466
 8490SOL    HW126369   4.060   6.498   4.414
 8490SOL    HW226370   4.100   6.626   4.507
 8491SOL     OW26371   2.222   0.475   1.706
 8491SOL    HW126372   2.315   0.500   1.678
 8491SOL    HW226373   2.156   0.511   1.640
 8492SOL     OW26374   4.561   4.354   6.673
 8492SOL    HW126375   4.470   4.330   6.706
 8492SOL    HW226376   4.627   4.287   6.706
 8493SOL     OW26377   2.741   1.868   6.270
 8493SOL    HW126378   2.673   1.939   6.288
 8493SOL    HW226379   2.832   1.904   6.290
 8494SOL     OW26380   2.679   4.831   0.426
 8494SOL    HW126381   2.688   4.829   0.525
 8494SOL    HW226382   2.694   4.924   0.392
 8495SOL     OW26383   6.340   3.688   0.403
 8495SOL    HW126384   6.337   3.762   0.336
 8495SOL    HW226385   6.417   3.627   0.382
 8496SOL     OW26386   0.475   1.843   1.563
 8496SOL    HW126387   0.439   1.766   1.615
 8496SOL    HW226388   0.570   1.823   1.536
 8497SOL     OW26389   6.604   0.666   4.115
 8497SOL    HW126390   6.696   0.705   4.110
 8497SOL    HW226391   6.585   0.616   4.031
 8498SOL     OW26392   0.087   6.130   2.586
 8498SOL    HW126393   0.060   6.139   2.682
 8498SOL    HW226394   0.186   6.141   2.578
 8499SOL     OW26395   2.334   5.421   6.575
 8499SOL    HW126396   2.393   5.354   6.618
 8499SOL    HW226397   2.266   5.374   6.518
 8500SOL     OW26398   1.513   0.685   5.920
 8500SOL    HW126399   1.532   0.664   6.015
 8500SOL    HW226400   1.545   0.778   5.899
 8501SOL     OW26401   0.628   2.714   0.637
 8501SOL    HW126402   0.690   2.779   0.593
 8501SOL    HW226403   0.539   2.758   0.650
 8502SOL     OW26404   2.002   4.948   1.406
 8502SOL    HW126405   1.934   4.908   1.345
 8502SOL    HW226406   2.090   4.956   1.358
 8503SOL     OW26407   1.186   5.913   2.798
 8503SOL    HW126408   1.099   5.904   2.847
 8503SOL    HW226409   1.233   5.995   2.830
 8504SOL     OW26410   1.991   5.982   3.718
 8504SOL    HW126411   1.922   6.003   3.649
 8504SOL    HW226412   2.050   6.062   3.731
 8505SOL     OW26413   4.820   3.851   4.198
 8505SOL    HW126414   4.768   3.823   4.278
 8505SOL    HW226415   4.783   3.938   4.163
 8506SOL     OW26416   6.612   1.174   0.955
 8506SOL    HW126417   6.705   1.156   0.920
 8506SOL    HW226418   6.549   1.107   0.917
 8507SOL     OW26419   3.286   0.976   5.424
 8507SOL    HW126420   3.276   0.990   5.522
 8507SOL    HW226421   3.248   1.055   5.375
 8508SOL     OW26422   6.630   2.283   4.801
 8508SOL    HW126423   6.562   2.210   4.812
 8508SOL    HW226424   6.592   2.369   4.835
 8509SOL     OW26425   5.264   1.370   3.878
 8509SOL    HW126426   5.228   1.309   3.808
 8509SOL    HW226427   5.235   1.464   3.858
 8510SOL     OW26428   5.565   4.499   3.129
 8510SOL    HW126429   5.542   4.417   3.181
 8510SOL    HW226430   5.626   4.557   3.184
 8511SOL     OW26431   5.454   3.556   1.486
 8511SOL    HW126432   5.402   3.632   1.525
 8511SOL    HW226433   5.519   3.522   1.555
 8512SOL     OW26434   2.530   2.530   0.652
 8512SOL    HW126435   2.437   2.551   0.621
 8512SOL    HW226436   2.566   2.607   0.704
 8513SOL     OW26437   4.658   3.815   1.232
 8513SOL    HW126438   4.646   3.758   1.313
 8513SOL    HW226439   4.669   3.911   1.261
 8514SOL     OW26440   2.981   1.944   3.635
 8514SOL    HW126441   2.957   1.912   3.727
 8514SOL    HW226442   2.910   1.916   3.570
 8515SOL     OW26443   5.704   1.081   6.813
 8515SOL    HW126444   5.604   1.087   6.817
 8515SOL    HW226445   5.740   1.081   6.907
 8516SOL     OW26446   6.669   2.264   1.451
 8516SOL    HW126447   6.670   2.309   1.541
 8516SOL    HW226448   6.586   2.210   1.442
 8517SOL     OW26449   1.785   2.684   5.874
 8517SOL    HW126450   1.750   2.597   5.907
 8517SOL    HW226451   1.883   2.690   5.892
 8518SOL     OW26452   5.100   4.418   5.982
 8518SOL    HW126453   5.118   4.331   6.028
 8518SOL    HW226454   5.148   4.491   6.028
 8519SOL     OW26455   1.617   5.390   1.403
 8519SOL    HW126456   1.688   5.321   1.388
 8519SOL    HW226457   1.648   5.455   1.473
 8520SOL     OW26458   3.385   3.096   6.606
 8520SOL    HW126459   3.482   3.072   6.598
 8520SOL    HW226460   3.329   3.022   6.570
 8521SOL     OW26461   2.439   4.851   5.761
 8521SOL    HW126462   2.451   4.883   5.667
 8521SOL    HW226463   2.342   4.833   5.778
 8522SOL     OW26464   1.133   0.247   1.515
 8522SOL    HW126465   1.163   0.326   1.569
 8522SOL    HW226466   1.165   0.163   1.559
 8523SOL     OW26467   2.116   6.058   6.815
 8523SOL    HW126468   2.214   6.068   6.831
 8523SOL    HW226469   2.094   5.962   6.796
 8524SOL     OW26470   0.396   2.761   5.830
 8524SOL    HW126471   0.491   2.792   5.840
 8524SOL    HW226472   0.374   2.697   5.904
 8525SOL     OW26473   6.360   5.054   1.636
 8525SOL    HW126474   6.281   4.998   1.613
 8525SOL    HW226475   6.331   5.128   1.697
 8526SOL     OW26476   3.839   6.391   0.566
 8526SOL    HW126477   3.938   6.392   0.577
 8526SOL    HW226478   3.813   6.448   0.488
 8527SOL     OW26479   2.680   1.286   6.684
 8527SOL    HW126480   2.747   1.284   6.758
 8527SOL    HW226481   2.674   1.379   6.646
 8528SOL     OW26482   3.994   1.007   6.863
 8528SOL    HW126483   3.997   0.995   6.764
 8528SOL    HW226484   3.901   1.028   6.892
 8529SOL     OW26485   1.348   0.338   0.672
 8529SOL    HW126486   1.295   0.273   0.727
 8529SOL    HW226487   1.351   0.306   0.577
 8530SOL     OW26488   4.208   4.004   5.391
 8530SOL    HW126489   4.140   4.002   5.464
 8530SOL    HW226490   4.192   3.928   5.328
 8531SOL     OW26491   0.215   4.975   2.396
 8531SOL    HW126492   0.136   4.975   2.458
 8531SOL    HW226493   0.204   4.902   2.328
 8532SOL     OW26494   4.417   5.431   4.501
 8532SOL    HW126495   4.463   5.349   4.536
 8532SOL    HW226496   4.349   5.405   4.433
 8533SOL     OW26497   2.265   5.846   0.352
 8533SOL    HW126498   2.347   5.808   0.393
 8533SOL    HW226499   2.238   5.929   0.401
 8534SOL     OW26500   5.638   2.073   4.508
 8534SOL    HW126501   5.651   2.169   4.483
 8534SOL    HW226502   5.727   2.028   4.515
 8535SOL     OW26503   6.441   0.997   3.197
 8535SOL    HW126504   6.403   1.050   3.121
 8535SOL    HW226505   6.386   0.915   3.211
 8536SOL     OW26506   6.787   1.853   4.792
 8536SOL    HW126507   6.883   1.824   4.788
 8536SOL    HW226508   6.781   1.941   4.838
 8537SOL     OW26509   5.272   0.825   3.535
 8537SOL    HW126510   5.246   0.730   3.553
 8537SOL    HW226511   5.329   0.860   3.609
 8538SOL     OW26512   1.467   1.056   0.553
 8538SOL    HW126513   1.509   1.051   0.462
 8538SOL    HW226514   1.496   0.977   0.607
 8539SOL     OW26515   6.237   1.043   2.560
 8539SOL    HW126516   6.202   1.075   2.472
 8539SOL    HW226517   6.248   0.943   2.557
 8540SOL     OW26518   5.712   0.517   6.366
 8540SOL    HW126519   5.676   0.513   6.273
 8540SOL    HW226520   5.718   0.424   6.404
 8541SOL     OW26521   3.270   2.011   3.538
 8541SOL    HW126522   3.202   2.083   3.527
 8541SOL    HW226523   3.342   2.042   3.600
 8542SOL     OW26524   4.315   5.323   6.078
 8542SOL    HW126525   4.324   5.260   6.155
 8542SOL    HW226526   4.247   5.289   6.014
 8543SOL     OW26527   2.306   1.810   1.100
 8543SOL    HW126528   2.294   1.909   1.106
 8543SOL    HW226529   2.269   1.767   1.183
 8544SOL     OW26530   5.415   3.360   4.158
 8544SOL    HW126531   5.464   3.372   4.072
 8544SOL    HW226532   5.470   3.398   4.233
 8545SOL     OW26533   4.363   0.379   5.326
 8545SOL    HW126534   4.355   0.280   5.316
 8545SOL    HW226535   4.426   0.414   5.257
 8546SOL     OW26536   5.512   1.960   4.148
 8546SOL    HW126537   5.610   1.981   4.154
 8546SOL    HW226538   5.461   2.025   4.205
 8547SOL     OW26539   1.057   6.554   5.893
 8547SOL    HW126540   1.057   6.454   5.888
 8547SOL    HW226541   1.144   6.585   5.931
 8548SOL     OW26542   6.193   2.873   5.911
 8548SOL    HW126543   6.274   2.907   5.961
 8548SOL    HW226544   6.209   2.880   5.813
 8549SOL     OW26545   1.083   3.079   3.806
 8549SOL    HW126546   1.180   3.100   3.813
 8549SOL    HW226547   1.070   2.994   3.756
 8550SOL     OW26548   1.900   4.865   0.115
 8550SOL    HW126549   1.988   4.899   0.081
 8550SOL    HW226550   1.915   4.781   0.168
 8551SOL     OW26551   3.449   4.374   5.628
 8551SOL    HW126552   3.523   4.315   5.597
 8551SOL    HW226553   3.487   4.461   5.661
 8552SOL     OW26554   2.392   6.452   3.348
 8552SOL    HW126555   2.349   6.485   3.264
 8552SOL    HW226556   2.357   6.503   3.427
 8553SOL     OW26557   5.165   4.732   5.835
 8553SOL    HW126558   5.163   4.699   5.929
 8553SOL    HW226559   5.181   4.831   5.835
 8554SOL     OW26560   0.566   5.228   0.501
 8554SOL    HW126561   0.595   5.262   0.411
 8554SOL    HW226562   0.619   5.147   0.525
 8555SOL     OW26563   1.018   0.274   2.776
 8555SOL    HW126564   1.067   0.336   2.838
 8555SOL    HW226565   1.041   0.298   2.681
 8556SOL     OW26566   0.747   6.528   4.165
 8556SOL    HW126567   0.834   6.571   4.191
 8556SOL    HW226568   0.750   6.505   4.068
 8557SOL     OW26569   6.185   0.331   2.630
 8557SOL    HW126570   6.094   0.290   2.642
 8557SOL    HW226571   6.232   0.333   2.717
 8558SOL     OW26572   2.875   5.601   3.582
 8558SOL    HW126573   2.960   5.551   3.599
 8558SOL    HW226574   2.884   5.655   3.498
 8559SOL     OW26575   6.487   0.870   2.366
 8559SOL    HW126576   6.427   0.872   2.286
 8559SOL    HW226577   6.577   0.837   2.339
 8560SOL     OW26578   0.295   6.387   2.143
 8560SOL    HW126579   0.341   6.348   2.063
 8560SOL    HW226580   0.218   6.443   2.113
 8561SOL     OW26581   3.766   6.985   2.080
 8561SOL    HW126582   3.670   6.957   2.077
 8561SOL    HW226583   3.820   6.912   2.122
 8562SOL     OW26584   4.979   6.199   4.933
 8562SOL    HW126585   4.935   6.286   4.911
 8562SOL    HW226586   5.078   6.211   4.936
 8563SOL     OW26587   2.749   4.602   0.007
 8563SOL    HW126588   2.830   4.656   0.028
 8563SOL    HW226589   2.673   4.632   0.066
 8564SOL     OW26590   2.948   1.392   3.819
 8564SOL    HW126591   2.994   1.474   3.786
 8564SOL    HW226592   3.014   1.318   3.830
 8565SOL     OW26593   4.561   6.096   1.316
 8565SOL    HW126594   4.582   6.189   1.288
 8565SOL    HW226595   4.629   6.064   1.382
 8566SOL     OW26596   1.045   0.761   1.613
 8566SOL    HW126597   1.084   0.751   1.705
 8566SOL    HW226598   0.966   0.701   1.603
 8567SOL     OW26599   6.545   1.308   2.486
 8567SOL    HW126600   6.513   1.218   2.457
 8567SOL    HW226601   6.550   1.369   2.407
 8568SOL     OW26602   4.963   1.168   6.087
 8568SOL    HW126603   4.945   1.070   6.086
 8568SOL    HW226604   5.048   1.186   6.136
 8569SOL     OW26605   5.216   1.798   5.669
 8569SOL    HW126606   5.148   1.803   5.597
 8569SOL    HW226607   5.200   1.717   5.725
 8570SOL     OW26608   1.077   2.645   5.329
 8570SOL    HW126609   1.107   2.690   5.413
 8570SOL    HW226610   1.042   2.713   5.265
 8571SOL     OW26611   0.979   5.494   5.867
 8571SOL    HW126612   0.942   5.570   5.815
 8571SOL    HW226613   0.951   5.501   5.963
 8572SOL     OW26614   3.393   5.482   6.241
 8572SOL    HW126615   3.385   5.556   6.308
 8572SOL    HW226616   3.394   5.394   6.288
 8573SOL     OW26617   3.428   0.097   6.275
 8573SOL    HW126618   3.442   0.081   6.372
 8573SOL    HW226619   3.446   0.193   6.254
 8574SOL     OW26620   0.239   6.082   5.882
 8574SOL    HW126621   0.240   6.169   5.835
 8574SOL    HW226622   0.216   6.096   5.979
 8575SOL     OW26623   2.944   2.791   5.856
 8575SOL    HW126624   2.914   2.702   5.822
 8575SOL    HW226625   2.915   2.801   5.951
 8576SOL     OW26626   1.035   6.135   0.312
 8576SOL    HW126627   1.071   6.077   0.386
 8576SOL    HW226628   1.101   6.208   0.292
 8577SOL     OW26629   6.975   5.771   4.073
 8577SOL    HW126630   6.894   5.810   4.030
 8577SOL    HW226631   0.021   5.838   4.069
 8578SOL     OW26632   4.894   0.627   4.326
 8578SOL    HW126633   4.988   0.598   4.305
 8578SOL    HW226634   4.872   0.605   4.420
 8579SOL     OW26635   1.393   6.905   3.438
 8579SOL    HW126636   1.369   6.810   3.418
 8579SOL    HW226637   1.484   6.925   3.401
 8580SOL     OW26638   2.124   6.736   2.629
 8580SOL    HW126639   2.106   6.785   2.715
 8580SOL    HW226640   2.198   6.783   2.579
 8581SOL     OW26641   3.171   3.228   1.780
 8581SOL    HW126642   3.193   3.137   1.745
 8581SOL    HW226643   3.118   3.219   1.864
 8582SOL     OW26644   4.210   4.872   2.381
 8582SOL    HW126645   4.119   4.848   2.350
 8582SOL    HW226646   4.208   4.895   2.478
 8583SOL     OW26647   5.951   0.788   5.585
 8583SOL    HW126648   5.857   0.811   5.609
 8583SOL    HW226649   5.980   0.843   5.506
 8584SOL     OW26650   0.211   3.651   6.097
 8584SOL    HW126651   0.200   3.673   6.194
 8584SOL    HW226652   0.305   3.668   6.069
 8585SOL     OW26653   0.465   6.391   5.483
 8585SOL    HW126654   0.537   6.398   5.551
 8585SOL    HW226655   0.465   6.473   5.426
 8586SOL     OW26656   3.104   6.744   3.765
 8586SOL    HW126657   3.053   6.702   3.840
 8586SOL    HW226658   3.202   6.740   3.784
 8587SOL     OW26659   1.780   6.960   3.149
 8587SOL    HW126660   1.789   0.030   3.159
 8587SOL    HW226661   1.773   6.936   3.052
 8588SOL     OW26662   2.715   0.816   6.903
 8588SOL    HW126663   2.692   0.824   6.806
 8588SOL    HW226664   2.733   0.720   6.925
 8589SOL     OW26665   4.854   2.769   4.172
 8589SOL    HW126666   4.875   2.867   4.168
 8589SOL    HW226667   4.837   2.741   4.266
 8590SOL     OW26668   6.427   6.360   4.198
 8590SOL    HW126669   6.378   6.321   4.120
 8590SOL    HW226670   6.446   6.289   4.265
 8591SOL     OW26671   1.082   4.640   6.576
 8591SOL    HW126672   1.181   4.637   6.586
 8591SOL    HW226673   1.041   4.673   6.661
 8592SOL     OW26674   6.884   3.376   0.344
 8592SOL    HW126675   6.795   3.346   0.310
 8592SOL    HW226676   6.879   3.472   0.369
 8593SOL     OW26677   1.129   0.408   2.248
 8593SOL    HW126678   1.121   0.505   2.225
 8593SOL    HW226679   1.167   0.358   2.170
 8594SOL     OW26680   3.492   2.963   5.199
 8594SOL    HW126681   3.487   3.062   5.183
 8594SOL    HW226682   3.584   2.930   5.180
 8595SOL     OW26683   2.327   1.465   3.098
 8595SOL    HW126684   2.357   1.531   3.168
 8595SOL    HW226685   2.397   1.458   3.027
 8596SOL     OW26686   6.330   5.657   3.389
 8596SOL    HW126687   6.307   5.746   3.351
 8596SOL    HW226688   6.372   5.669   3.479
 8597SOL     OW26689   4.644   1.697   0.904
 8597SOL    HW126690   4.576   1.730   0.970
 8597SOL    HW226691   4.695   1.621   0.945
 8598SOL     OW26692   7.000   5.664   1.246
 8598SOL    HW126693   6.961   5.711   1.166
 8598SOL    HW226694   6.980   5.566   1.241
 8599SOL     OW26695   0.765   2.627   3.761
 8599SOL    HW126696   0.859   2.595   3.768
 8599SOL    HW226697   0.731   2.652   3.851
 8600SOL     OW26698   4.960   5.113   6.392
 8600SOL    HW126699   4.881   5.155   6.346
 8600SOL    HW226700   4.945   5.014   6.398
 8601SOL     OW26701   1.049   0.656   5.133
 8601SOL    HW126702   0.997   0.571   5.139
 8601SOL    HW226703   1.015   0.720   5.203
 8602SOL     OW26704   3.211   5.735   3.193
 8602SOL    HW126705   3.235   5.827   3.226
 8602SOL    HW226706   3.121   5.710   3.229
 8603SOL     OW26707   3.802   5.168   0.239
 8603SOL    HW126708   3.840   5.076   0.247
 8603SOL    HW226709   3.841   5.214   0.159
 8604SOL     OW26710   7.007   2.987   3.535
 8604SOL    HW126711   0.071   3.024   3.533
 8604SOL    HW226712   6.982   2.964   3.629
 8605SOL     OW26713   3.267   4.898   4.027
 8605SOL    HW126714   3.316   4.985   4.018
 8605SOL    HW226715   3.183   4.913   4.079
 8606SOL     OW26716   2.087   4.477   5.902
 8606SOL    HW126717   2.147   4.397   5.903
 8606SOL    HW226718   2.001   4.454   5.857
 8607SOL     OW26719   3.502   5.636   0.435
 8607SOL    HW126720   3.541   5.571   0.370
 8607SOL    HW226721   3.570   5.705   0.457
 8608SOL     OW26722   4.328   5.128   3.172
 8608SOL    HW126723   4.322   5.199   3.242
 8608SOL    HW226724   4.421   5.124   3.136
 8609SOL     OW26725   4.675   0.842   3.725
 8609SOL    HW126726   4.603   0.854   3.795
 8609SOL    HW226727   4.678   0.923   3.667
 8610SOL     OW26728   1.422   1.180   2.770
 8610SOL    HW126729   1.370   1.102   2.805
 8610SOL    HW226730   1.514   1.151   2.745
 8611SOL     OW26731   2.220   2.233   4.235
 8611SOL    HW126732   2.174   2.148   4.209
 8611SOL    HW226733   2.318   2.225   4.217
 8612SOL     OW26734   3.123   3.294   0.072
 8612SOL    HW126735   3.107   3.195   0.068
 8612SOL    HW226736   3.074   3.338   7.026
 8613SOL     OW26737   2.435   2.248   1.654
 8613SOL    HW126738   2.496   2.305   1.709
 8613SOL    HW226739   2.398   2.303   1.578
 8614SOL     OW26740   0.399   3.382   2.592
 8614SOL    HW126741   0.317   3.329   2.566
 8614SOL    HW226742   0.456   3.396   2.512
 8615SOL     OW26743   5.091   1.779   5.401
 8615SOL    HW126744   5.004   1.741   5.370
 8615SOL    HW226745   5.167   1.730   5.358
 8616SOL     OW26746   2.282   5.196   1.314
 8616SOL    HW126747   2.262   5.195   1.412
 8616SOL    HW226748   2.379   5.178   1.299
 8617SOL     OW26749   6.502   1.003   6.779
 8617SOL    HW126750   6.525   0.907   6.770
 8617SOL    HW226751   6.486   1.042   6.688
 8618SOL     OW26752   5.389   6.704   0.988
 8618SOL    HW126753   5.379   6.613   1.030
 8618SOL    HW226754   5.328   6.712   0.910
 8619SOL     OW26755   3.104   5.141   1.821
 8619SOL    HW126756   3.158   5.057   1.828
 8619SOL    HW226757   3.147   5.213   1.875
 8620SOL     OW26758   0.068   0.041   3.438
 8620SOL    HW126759   0.075   0.101   3.357
 8620SOL    HW226760   0.129   0.076   3.509
 8621SOL     OW26761   6.043   1.774   3.028
 8621SOL    HW126762   6.127   1.748   2.980
 8621SOL    HW226763   6.055   1.760   3.126
 8622SOL     OW26764   5.134   4.180   0.291
 8622SOL    HW126765   5.223   4.225   0.285
 8622SOL    HW226766   5.063   4.245   0.263
 8623SOL     OW26767   0.886   4.010   3.419
 8623SOL    HW126768   0.968   3.988   3.367
 8623SOL    HW226769   0.853   4.100   3.393
 8624SOL     OW26770   1.192   3.624   3.515
 8624SOL    HW126771   1.170   3.706   3.568
 8624SOL    HW226772   1.291   3.613   3.509
 8625SOL     OW26773   4.830   6.758   5.061
 8625SOL    HW126774   4.844   6.844   5.012
 8625SOL    HW226775   4.909   6.740   5.119
 8626SOL     OW26776   3.782   2.920   5.286
 8626SOL    HW126777   3.848   2.980   5.240
 8626SOL    HW226778   3.828   2.870   5.359
 8627SOL     OW26779   0.879   1.021   3.688
 8627SOL    HW126780   0.968   1.032   3.643
 8627SOL    HW226781   0.820   1.098   3.665
 8628SOL     OW26782   5.985   6.971   1.223
 8628SOL    HW126783   5.920   6.904   1.187
 8628SOL    HW226784   5.952   0.035   1.204
 8629SOL     OW26785   1.309   5.636   5.415
 8629SOL    HW126786   1.228   5.621   5.472
 8629SOL    HW226787   1.366   5.554   5.416
 8630SOL     OW26788   5.952   4.597   4.395
 8630SOL    HW126789   6.012   4.649   4.456
 8630SOL    HW226790   5.861   4.639   4.394
 8631SOL     OW26791   3.435   5.750   6.388
 8631SOL    HW126792   3.427   5.703   6.477
 8631SOL    HW226793   3.382   5.834   6.390
 8632SOL     OW26794   3.112   6.762   4.227
 8632SOL    HW126795   3.048   6.690   4.254
 8632SOL    HW226796   3.126   6.824   4.304
 8633SOL     OW26797   5.069   1.101   5.083
 8633SOL    HW126798   5.119   1.116   4.997
 8633SOL    HW226799   5.135   1.084   5.156
 8634SOL     OW26800   5.552   3.184   0.614
 8634SOL    HW126801   5.475   3.246   0.628
 8634SOL    HW226802   5.637   3.229   0.643
 8635SOL     OW26803   6.186   4.518   6.675
 8635SOL    HW126804   6.223   4.447   6.615
 8635SOL    HW226805   6.245   4.599   6.672
 8636SOL     OW26806   5.105   6.035   0.213
 8636SOL    HW126807   5.138   5.948   0.249
 8636SOL    HW226808   5.178   6.078   0.158
 8637SOL     OW26809   1.987   1.324   0.170
 8637SOL    HW126810   2.052   1.289   0.236
 8637SOL    HW226811   2.034   1.347   0.085
 8638SOL     OW26812   2.138   3.098   6.920
 8638SOL    HW126813   2.129   3.187   6.963
 8638SOL    HW226814   2.108   3.104   6.825
 8639SOL     OW26815   6.060   1.797   1.780
 8639SOL    HW126816   6.083   1.870   1.843
 8639SOL    HW226817   5.969   1.815   1.741
 8640SOL     OW26818   4.449   4.059   0.565
 8640SOL    HW126819   4.375   4.037   0.629
 8640SOL    HW226820   4.419   4.043   0.471
 8641SOL     OW26821   6.535   4.680   3.805
 8641SOL    HW126822   6.491   4.688   3.715
 8641SOL    HW226823   6.619   4.626   3.796
 8642SOL     OW26824   3.619   0.786   2.643
 8642SOL    HW126825   3.638   0.703   2.696
 8642SOL    HW226826   3.536   0.772   2.588
 8643SOL     OW26827   4.112   0.031   0.026
 8643SOL    HW126828   4.029   0.085   0.040
 8643SOL    HW226829   4.186   0.091   7.024
 8644SOL     OW26830   4.611   2.487   5.754
 8644SOL    HW126831   4.637   2.391   5.756
 8644SOL    HW226832   4.528   2.498   5.699
 8645SOL     OW26833   5.208   4.343   1.479
 8645SOL    HW126834   5.235   4.285   1.402
 8645SOL    HW226835   5.189   4.436   1.447
 8646SOL     OW26836   6.655   1.610   1.076
 8646SOL    HW126837   6.633   1.687   1.135
 8646SOL    HW226838   6.709   1.543   1.128
 8647SOL     OW26839   2.738   4.956   6.444
 8647SOL    HW126840   2.796   5.034   6.468
 8647SOL    HW226841   2.776   4.909   6.365
 8648SOL     OW26842   5.998   0.647   4.019
 8648SOL    HW126843   6.026   0.690   4.105
 8648SOL    HW226844   5.994   0.548   4.031
 8649SOL     OW26845   5.803   4.425   6.971
 8649SOL    HW126846   5.863   4.426   0.022
 8649SOL    HW226847   5.827   4.348   6.912
 8650SOL     OW26848   1.569   4.346   6.026
 8650SOL    HW126849   1.507   4.409   6.071
 8650SOL    HW226850   1.601   4.386   5.940
 8651SOL     OW26851   3.539   0.618   0.641
 8651SOL    HW126852   3.455   0.613   0.696
 8651SOL    HW226853   3.610   0.563   0.684
 8652SOL     OW26854   1.537   3.563   3.134
 8652SOL    HW126855   1.501   3.505   3.207
 8652SOL    HW226856   1.488   3.650   3.133
 8653SOL     OW26857   5.824   1.551   5.810
 8653SOL    HW126858   5.780   1.588   5.727
 8653SOL    HW226859   5.835   1.625   5.877
 8654SOL     OW26860   1.458   5.768   1.564
 8654SOL    HW126861   1.390   5.732   1.627
 8654SOL    HW226862   1.438   5.736   1.471
 8655SOL     OW26863   6.082   1.056   4.116
 8655SOL    HW126864   6.076   0.963   4.153
 8655SOL    HW226865   6.018   1.116   4.164
 8656SOL     OW26866   6.236   0.999   1.028
 8656SOL    HW126867   6.180   0.932   0.980
 8656SOL    HW226868   6.213   1.091   0.996
 8657SOL     OW26869   4.595   5.222   6.832
 8657SOL    HW126870   4.619   5.187   6.923
 8657SOL    HW226871   4.637   5.164   6.762
 8658SOL     OW26872   4.341   6.582   0.038
 8658SOL    HW126873   4.294   6.555   0.121
 8658SOL    HW226874   4.416   6.518   0.020
 8659SOL     OW26875   4.156   1.242   3.610
 8659SOL    HW126876   4.139   1.168   3.546
 8659SOL    HW226877   4.133   1.212   3.703
 8660SOL     OW26878   5.565   3.668   0.674
 8660SOL    HW126879   5.486   3.714   0.635
 8660SOL    HW226880   5.553   3.569   0.665
 8661SOL     OW26881   6.070   4.210   1.377
 8661SOL    HW126882   6.013   4.128   1.381
 8661SOL    HW226883   6.106   4.221   1.285
 8662SOL     OW26884   4.829   5.782   1.500
 8662SOL    HW126885   4.921   5.781   1.538
 8662SOL    HW226886   4.784   5.695   1.517
 8663SOL     OW26887   2.726   6.105   1.244
 8663SOL    HW126888   2.722   6.008   1.221
 8663SOL    HW226889   2.700   6.118   1.340
 8664SOL     OW26890   3.245   6.011   1.613
 8664SOL    HW126891   3.147   6.030   1.604
 8664SOL    HW226892   3.259   5.913   1.630
 8665SOL     OW26893   6.029   5.704   5.232
 8665SOL    HW126894   5.968   5.628   5.256
 8665SOL    HW226895   6.019   5.778   5.300
 8666SOL     OW26896   5.161   1.637   4.972
 8666SOL    HW126897   5.162   1.716   4.911
 8666SOL    HW226898   5.195   1.663   5.062
 8667SOL     OW26899   4.651   2.701   3.041
 8667SOL    HW126900   4.599   2.649   2.974
 8667SOL    HW226901   4.686   2.785   2.998
 8668SOL     OW26902   5.691   3.115   3.290
 8668SOL    HW126903   5.663   3.170   3.211
 8668SOL    HW226904   5.745   3.171   3.352
 8669SOL     OW26905   2.407   6.471   7.025
 8669SOL    HW126906   2.434   6.397   0.057
 8669SOL    HW226907   2.416   6.441   6.930
 8670SOL     OW26908   3.726   4.801   5.670
 8670SOL    HW126909   3.649   4.860   5.696
 8670SOL    HW226910   3.811   4.853   5.673
 8671SOL     OW26911   5.608   1.872   2.888
 8671SOL    HW126912   5.548   1.940   2.930
 8671SOL    HW226913   5.569   1.842   2.801
 8672SOL     OW26914   2.202   5.427   3.644
 8672SOL    HW126915   2.103   5.434   3.626
 8672SOL    HW226916   2.245   5.373   3.572
 8673SOL     OW26917   6.705   2.151   6.669
 8673SOL    HW126918   6.775   2.129   6.737
 8673SOL    HW226919   6.665   2.066   6.634
 8674SOL     OW26920   5.656   5.710   1.806
 8674SOL    HW126921   5.582   5.778   1.806
 8674SOL    HW226922   5.624   5.625   1.847
 8675SOL     OW26923   3.940   2.139   4.952
 8675SOL    HW126924   3.919   2.053   4.906
 8675SOL    HW226925   4.039   2.154   4.951
 8676SOL     OW26926   4.293   6.744   2.760
 8676SOL    HW126927   4.328   6.828   2.800
 8676SOL    HW226928   4.365   6.702   2.704
 8677SOL     OW26929   2.493   6.425   5.655
 8677SOL    HW126930   2.403   6.426   5.610
 8677SOL    HW226931   2.483   6.450   5.751
 8678SOL     OW26932   6.999   0.530   1.016
 8678SOL    HW126933   6.940   0.563   0.942
 8678SOL    HW226934   6.954   0.546   1.103
 8679SOL     OW26935   6.274   2.893   4.620
 8679SOL    HW126936   6.340   2.818   4.628
 8679SOL    HW226937   6.183   2.855   4.608
 8680SOL     OW26938   0.669   4.367   1.572
 8680SOL    HW126939   0.753   4.362   1.518
 8680SOL    HW226940   0.599   4.310   1.529
 8681SOL     OW26941   4.716   5.453   6.647
 8681SOL    HW126942   4.781   5.377   6.651
 8681SOL    HW226943   4.721   5.496   6.557
 8682SOL     OW26944   4.702   6.708   1.584
 8682SOL    HW126945   4.653   6.757   1.656
 8682SOL    HW226946   4.770   6.769   1.543
 8683SOL     OW26947   1.541   2.178   2.522
 8683SOL    HW126948   1.563   2.269   2.485
 8683SOL    HW226949   1.603   2.111   2.483
 8684SOL     OW26950   0.821   2.801   4.863
 8684SOL    HW126951   0.723   2.824   4.865
 8684SOL    HW226952   0.874   2.884   4.842
 8685SOL     OW26953   0.678   2.337   5.279
 8685SOL    HW126954   0.754   2.290   5.234
 8685SOL    HW226955   0.665   2.298   5.370
 8686SOL     OW26956   0.309   1.458   1.347
 8686SOL    HW126957   0.403   1.472   1.377
 8686SOL    HW226958   0.306   1.456   1.247
 8687SOL     OW26959   3.822   5.670   2.910
 8687SOL    HW126960   3.804   5.705   3.002
 8687SOL    HW226961   3.746   5.613   2.880
 8688SOL     OW26962   3.098   6.320   6.751
 8688SOL    HW126963   3.048   6.385   6.693
 8688SOL    HW226964   3.081   6.342   6.848
 8689SOL     OW26965   3.106   4.737   1.200
 8689SOL    HW126966   3.199   4.743   1.237
 8689SOL    HW226967   3.096   4.803   1.126
 8690SOL     OW26968   1.982   2.882   3.240
 8690SOL    HW126969   1.994   2.852   3.146
 8690SOL    HW226970   2.034   2.966   3.256
 8691SOL     OW26971   3.593   2.043   0.020
 8691SOL    HW126972   3.655   2.036   6.971
 8691SOL    HW226973   3.641   2.014   0.103
 8692SOL     OW26974   3.244   1.767   3.439
 8692SOL    HW126975   3.147   1.745   3.439
 8692SOL    HW226976   3.259   1.852   3.490
 8693SOL     OW26977   6.372   1.119   0.348
 8693SOL    HW126978   6.361   1.217   0.366
 8693SOL    HW226979   6.338   1.066   0.426
 8694SOL     OW26980   3.504   1.173   5.130
 8694SOL    HW126981   3.601   1.193   5.147
 8694SOL    HW226982   3.447   1.237   5.182
 8695SOL     OW26983   4.055   3.028   5.762
 8695SOL    HW126984   4.149   3.011   5.790
 8695SOL    HW226985   3.997   2.952   5.791
 8696SOL     OW26986   2.848   6.069   0.447
 8696SOL    HW126987   2.814   6.057   0.354
 8696SOL    HW226988   2.814   5.995   0.505
 8697SOL     OW26989   6.507   3.017   6.726
 8697SOL    HW126990   6.477   2.947   6.791
 8697SOL    HW226991   6.436   3.087   6.718
 8698SOL     OW26992   5.919   5.663   4.426
 8698SOL    HW126993   5.955   5.572   4.449
 8698SOL    HW226994   5.865   5.698   4.502
 8699SOL     OW26995   1.797   2.703   5.388
 8699SOL    HW126996   1.819   2.605   5.391
 8699SOL    HW226997   1.878   2.754   5.361
 8700SOL     OW26998   1.230   0.759   4.168
 8700SOL    HW126999   1.223   0.845   4.219
 8700SOL    HW227000   1.320   0.753   4.126
 8701SOL     OW27001   1.670   0.675   0.352
 8701SOL    HW127002   1.599   0.617   0.392
 8701SOL    HW227003   1.745   0.618   0.320
 8702SOL     OW27004   5.535   4.295   0.436
 8702SOL    HW127005   5.574   4.207   0.465
 8702SOL    HW227006   5.606   4.365   0.442
 8703SOL     OW27007   3.055   5.542   1.203
 8703SOL    HW127008   3.024   5.633   1.231
 8703SOL    HW227009   3.155   5.539   1.204
 8704SOL     OW27010   6.576   3.565   3.273
 8704SOL    HW127011   6.549   3.536   3.181
 8704SOL    HW227012   6.621   3.654   3.269
 8705SOL     OW27013   5.258   0.712   0.372
 8705SOL    HW127014   5.262   0.779   0.446
 8705SOL    HW227015   5.213   0.628   0.404
 8706SOL     OW27016   4.774   2.108   6.103
 8706SOL    HW127017   4.855   2.135   6.051
 8706SOL    HW227018   4.792   2.117   6.201
 8707SOL     OW27019   6.516   2.337   6.826
 8707SOL    HW127020   6.557   2.256   6.783
 8707SOL    HW227021   6.575   2.369   6.901
 8708SOL     OW27022   4.278   1.946   2.246
 8708SOL    HW127023   4.241   1.918   2.158
 8708SOL    HW227024   4.219   1.912   2.320
 8709SOL     OW27025   6.892   5.955   6.523
 8709SOL    HW127026   6.887   5.889   6.448
 8709SOL    HW227027   6.882   5.908   6.610
 8710SOL     OW27028   2.235   3.053   3.575
 8710SOL    HW127029   2.278   3.073   3.488
 8710SOL    HW227030   2.278   2.973   3.617
 8711SOL     OW27031   0.944   5.991   2.937
 8711SOL    HW127032   0.918   6.022   3.029
 8711SOL    HW227033   0.883   6.031   2.870
 8712SOL     OW27034   4.194   2.219   4.918
 8712SOL    HW127035   4.268   2.151   4.922
 8712SOL    HW227036   4.205   2.285   4.992
 8713SOL     OW27037   0.676   4.058   3.670
 8713SOL    HW127038   0.766   4.080   3.707
 8713SOL    HW227039   0.640   3.977   3.716
 8714SOL     OW27040   0.834   0.754   6.234
 8714SOL    HW127041   0.765   0.757   6.307
 8714SOL    HW227042   0.911   0.812   6.260
 8715SOL     OW27043   4.876   0.403   0.639
 8715SOL    HW127044   4.870   0.309   0.674
 8715SOL    HW227045   4.792   0.426   0.591
 8716SOL     OW27046   0.682   6.963   1.134
 8716SOL    HW127047   0.605   6.915   1.177
 8716SOL    HW227048   0.654   0.026   1.107
 8717SOL     OW27049   3.665   3.520   3.613
 8717SOL    HW127050   3.569   3.542   3.596
 8717SOL    HW227051   3.699   3.574   3.690
 8718SOL     OW27052   0.214   3.562   4.170
 8718SOL    HW127053   0.255   3.586   4.259
 8718SOL    HW227054   0.120   3.596   4.166
 8719SOL     OW27055   1.992   0.112   6.359
 8719SOL    HW127056   2.051   0.126   6.439
 8719SOL    HW227057   2.045   0.131   6.276
 8720SOL     OW27058   6.615   5.138   5.369
 8720SOL    HW127059   6.689   5.088   5.413
 8720SOL    HW227060   6.528   5.115   5.414
 8721SOL     OW27061   6.546   2.380   2.960
 8721SOL    HW127062   6.600   2.391   3.044
 8721SOL    HW227063   6.449   2.393   2.982
 8722SOL     OW27064   4.290   1.567   6.686
 8722SOL    HW127065   4.209   1.550   6.742
 8722SOL    HW227066   4.342   1.643   6.724
 8723SOL     OW27067   4.839   5.402   1.367
 8723SOL    HW127068   4.766   5.394   1.299
 8723SOL    HW227069   4.799   5.428   1.455
 8724SOL     OW27070   5.929   0.137   6.053
 8724SOL    HW127071   5.978   0.213   6.010
 8724SOL    HW227072   5.844   0.119   6.003
 8725SOL     OW27073   1.949   0.421   7.009
 8725SOL    HW127074   1.976   0.517   7.014
 8725SOL    HW227075   2.024   0.368   6.968
 8726SOL     OW27076   6.150   0.040   1.755
 8726SOL    HW127077   6.220   0.110   1.770
 8726SOL    HW227078   6.156   0.006   1.662
 8727SOL     OW27079   6.587   6.525   2.008
 8727SOL    HW127080   6.562   6.447   2.065
 8727SOL    HW227081   6.612   6.492   1.917
 8728SOL     OW27082   3.898   0.617   4.676
 8728SOL    HW127083   3.886   0.711   4.645
 8728SOL    HW227084   3.820   0.590   4.732
 8729SOL     OW27085   4.707   5.857   3.760
 8729SOL    HW127086   4.762   5.915   3.699
 8729SOL    HW227087   4.768   5.803   3.818
 8730SOL     OW27088   6.469   4.246   2.710
 8730SOL    HW127089   6.451   4.148   2.717
 8730SOL    HW227090   6.558   4.260   2.666
 8731SOL     OW27091   1.636   2.643   2.574
 8731SOL    HW127092   1.707   2.653   2.504
 8731SOL    HW227093   1.677   2.608   2.658
 8732SOL     OW27094   5.837   4.148   1.803
 8732SOL    HW127095   5.863   4.244   1.795
 8732SOL    HW227096   5.907   4.090   1.762
 8733SOL     OW27097   2.078   5.577   2.331
 8733SOL    HW127098   1.987   5.614   2.313
 8733SOL    HW227099   2.102   5.512   2.259
 8734SOL     OW27100   0.857   4.307   2.100
 8734SOL    HW127101   0.932   4.373   2.111
 8734SOL    HW227102   0.879   4.223   2.149
 8735SOL     OW27103   0.792   1.568   6.961
 8735SOL    HW127104   0.795   1.634   0.007
 8735SOL    HW227105   0.709   1.513   6.968
 8736SOL     OW27106   0.656   6.349   5.702
 8736SOL    HW127107   0.700   6.437   5.686
 8736SOL    HW227108   0.694   6.281   5.639
 8737SOL     OW27109   2.593   6.484   6.112
 8737SOL    HW127110   2.661   6.439   6.170
 8737SOL    HW227111   2.527   6.533   6.169
 8738SOL     OW27112   2.216   5.465   4.607
 8738SOL    HW127113   2.233   5.381   4.658
 8738SOL    HW227114   2.144   5.449   4.540
 8739SOL     OW27115   6.194   5.423   6.196
 8739SOL    HW127116   6.280   5.374   6.184
 8739SOL    HW227117   6.163   5.412   6.291
 8740SOL     OW27118   4.912   0.593   4.965
 8740SOL    HW127119   4.964   0.547   5.037
 8740SOL    HW227120   4.943   0.560   4.876
 8741SOL     OW27121   2.721   1.176   1.773
 8741SOL    HW127122   2.776   1.101   1.808
 8741SOL    HW227123   2.624   1.150   1.776
 8742SOL     OW27124   5.618   6.036   1.415
 8742SOL    HW127125   5.584   5.951   1.457
 8742SOL    HW227126   5.691   6.014   1.350
 8743SOL     OW27127   1.546   0.430   2.479
 8743SOL    HW127128   1.525   0.504   2.542
 8743SOL    HW227129   1.613   0.368   2.520
 8744SOL     OW27130   3.621   2.571   5.963
 8744SOL    HW127131   3.622   2.511   5.883
 8744SOL    HW227132   3.665   2.524   6.040
 8745SOL     OW27133   6.310   2.592   6.015
 8745SOL    HW127134   6.405   2.616   5.995
 8745SOL    HW227135   6.252   2.673   6.001
 8746SOL     OW27136   4.958   3.765   5.175
 8746SOL    HW127137   4.901   3.710   5.114
 8746SOL    HW227138   5.055   3.752   5.151
 8747SOL     OW27139   0.137   2.525   2.515
 8747SOL    HW127140   0.113   2.438   2.471
 8747SOL    HW227141   0.099   2.527   2.607
 8748SOL     OW27142   0.842   1.461   5.810
 8748SOL    HW127143   0.934   1.438   5.778
 8748SOL    HW227144   0.777   1.452   5.735
 8749SOL     OW27145   2.560   0.386   6.444
 8749SOL    HW127146   2.484   0.344   6.493
 8749SOL    HW227147   2.552   0.365   6.346
 8750SOL     OW27148   2.952   3.367   5.737
 8750SOL    HW127149   3.029   3.353   5.675
 8750SOL    HW227150   2.867   3.345   5.690
 8751SOL     OW27151   6.472   0.255   2.817
 8751SOL    HW127152   6.556   0.266   2.870
 8751SOL    HW227153   6.495   0.230   2.723
 8752SOL     OW27154   2.739   4.866   0.084
 8752SOL    HW127155   2.752   4.941   0.148
 8752SOL    HW227156   2.768   4.894   7.022
 8753SOL     OW27157   4.868   1.555   5.047
 8753SOL    HW127158   4.964   1.582   5.034
 8753SOL    HW227159   4.861   1.455   5.043
 8754SOL     OW27160   1.118   2.609   4.883
 8754SOL    HW127161   1.087   2.591   4.790
 8754SOL    HW227162   1.197   2.670   4.880
 8755SOL     OW27163   2.129   0.753   6.688
 8755SOL    HW127164   2.131   0.789   6.595
 8755SOL    HW227165   2.040   0.713   6.707
 8756SOL     OW27166   2.176   3.065   3.294
 8756SOL    HW127167   2.154   3.162   3.304
 8756SOL    HW227168   2.255   3.055   3.233
 8757SOL     OW27169   5.437   6.618   5.968
 8757SOL    HW127170   5.436   6.603   6.067
 8757SOL    HW227171   5.363   6.565   5.926
 8758SOL     OW27172   4.696   6.522   1.913
 8758SOL    HW127173   4.708   6.611   1.958
 8758SOL    HW227174   4.612   6.479   1.946
 8759SOL     OW27175   3.692   2.318   0.427
 8759SOL    HW127176   3.725   2.409   0.451
 8759SOL    HW227177   3.662   2.317   0.332
 8760SOL     OW27178   1.417   1.650   4.999
 8760SOL    HW127179   1.503   1.658   5.050
 8760SOL    HW227180   1.421   1.570   4.939
 8761SOL     OW27181   4.574   1.483   1.889
 8761SOL    HW127182   4.626   1.541   1.826
 8761SOL    HW227183   4.542   1.401   1.842
 8762SOL     OW27184   0.697   4.576   2.256
 8762SOL    HW127185   0.608   4.538   2.280
 8762SOL    HW227186   0.745   4.513   2.195
 8763SOL     OW27187   5.793   5.904   5.806
 8763SOL    HW127188   5.884   5.870   5.829
 8763SOL    HW227189   5.789   6.003   5.822
 8764SOL     OW27190   4.879   0.855   4.629
 8764SOL    HW127191   4.852   0.939   4.675
 8764SOL    HW227192   4.976   0.838   4.645
 8765SOL     OW27193   6.364   6.342   5.124
 8765SOL    HW127194   6.390   6.287   5.044
 8765SOL    HW227195   6.419   6.425   5.127
 8766SOL     OW27196   3.948   4.826   3.020
 8766SOL    HW127197   4.036   4.847   3.063
 8766SOL    HW227198   3.878   4.817   3.091
 8767SOL     OW27199   4.170   6.824   3.306
 8767SOL    HW127200   4.229   6.824   3.225
 8767SOL    HW227201   4.098   6.893   3.294
 8768SOL     OW27202   0.912   3.400   0.641
 8768SOL    HW127203   0.839   3.440   0.585
 8768SOL    HW227204   0.876   3.374   0.730
 8769SOL     OW27205   1.552   6.895   4.433
 8769SOL    HW127206   1.617   6.835   4.388
 8769SOL    HW227207   1.500   6.945   4.363
 8770SOL     OW27208   5.465   3.807   1.797
 8770SOL    HW127209   5.375   3.825   1.837
 8770SOL    HW227210   5.504   3.725   1.838
 8771SOL     OW27211   0.634   0.270   5.806
 8771SOL    HW127212   0.564   0.337   5.830
 8771SOL    HW227213   0.666   0.225   5.890
 8772SOL     OW27214   5.550   6.798   6.705
 8772SOL    HW127215   5.569   6.887   6.663
 8772SOL    HW227216   5.587   6.796   6.798
 8773SOL     OW27217   4.541   2.578   3.951
 8773SOL    HW127218   4.627   2.558   3.999
 8773SOL    HW227219   4.484   2.637   4.008
 8774SOL     OW27220   2.525   1.848   0.296
 8774SOL    HW127221   2.496   1.781   0.227
 8774SOL    HW227222   2.469   1.838   0.378
 8775SOL     OW27223   6.450   7.007   4.995
 8775SOL    HW127224   6.375   0.001   5.057
 8775SOL    HW227225   6.480   0.061   4.948
 8776SOL     OW27226   3.440   3.933   4.286
 8776SOL    HW127227   3.367   3.999   4.306
 8776SOL    HW227228   3.528   3.980   4.282
 8777SOL     OW27229   0.367   4.004   1.728
 8777SOL    HW127230   0.273   3.997   1.763
 8777SOL    HW227231   0.429   4.024   1.803
 8778SOL     OW27232   5.905   1.990   4.583
 8778SOL    HW127233   5.969   1.917   4.560
 8778SOL    HW227234   5.939   2.077   4.547
 8779SOL     OW27235   2.965   5.153   2.136
 8779SOL    HW127236   2.871   5.165   2.103
 8779SOL    HW227237   3.028   5.204   2.078
 8780SOL     OW27238   1.405   5.457   3.154
 8780SOL    HW127239   1.409   5.357   3.142
 8780SOL    HW227240   1.317   5.491   3.122
 8781SOL     OW27241   6.282   1.913   4.103
 8781SOL    HW127242   6.367   1.920   4.051
 8781SOL    HW227243   6.263   1.817   4.123
 8782SOL     OW27244   5.041   0.253   1.843
 8782SOL    HW127245   4.988   0.294   1.769
 8782SOL    HW227246   5.002   0.280   1.931
 8783SOL     OW27247   6.492   4.254   3.509
 8783SOL    HW127248   6.572   4.216   3.463
 8783SOL    HW227249   6.414   4.192   3.497
 8784SOL     OW27250   5.759   3.920   6.308
 8784SOL    HW127251   5.710   4.000   6.274
 8784SOL    HW227252   5.798   3.869   6.231
 8785SOL     OW27253   6.983   3.677   6.616
 8785SOL    HW127254   0.001   3.644   6.698
 8785SOL    HW227255   6.944   3.599   6.566
 8786SOL     OW27256   2.622   6.493   0.664
 8786SOL    HW127257   2.583   6.583   0.680
 8786SOL    HW227258   2.666   6.460   0.748
 8787SOL     OW27259   2.029   2.731   2.217
 8787SOL    HW127260   1.948   2.784   2.191
 8787SOL    HW227261   2.086   2.786   2.278
 8788SOL     OW27262   0.188   2.052   5.645
 8788SOL    HW127263   0.235   2.073   5.731
 8788SOL    HW227264   0.113   2.117   5.631
 8789SOL     OW27265   6.295   6.820   5.344
 8789SOL    HW127266   6.196   6.819   5.325
 8789SOL    HW227267   6.330   6.726   5.340
 8790SOL     OW27268   6.985   0.859   6.928
 8790SOL    HW127269   6.966   0.908   7.013
 8790SOL    HW227270   7.023   0.921   6.860
 8791SOL     OW27271   5.637   6.818   5.003
 8791SOL    HW127272   5.597   6.731   4.974
 8791SOL    HW227273   5.710   6.845   4.940
 8792SOL     OW27274   3.603   6.030   3.587
 8792SOL    HW127275   3.613   5.935   3.616
 8792SOL    HW227276   3.582   6.034   3.489
 8793SOL     OW27277   1.130   6.099   3.901
 8793SOL    HW127278   1.214   6.078   3.950
 8793SOL    HW227279   1.081   6.014   3.880
 8794SOL     OW27280   4.329   6.714   1.666
 8794SOL    HW127281   4.345   6.684   1.760
 8794SOL    HW227282   4.232   6.734   1.653
 8795SOL     OW27283   1.259   6.698   4.765
 8795SOL    HW127284   1.188   6.700   4.835
 8795SOL    HW227285   1.330   6.634   4.791
 8796SOL     OW27286   4.474   0.896   4.750
 8796SOL    HW127287   4.483   0.934   4.658
 8796SOL    HW227288   4.524   0.954   4.815
 8797SOL     OW27289   1.197   6.931   5.167
 8797SOL    HW127290   1.278   6.980   5.198
 8797SOL    HW227291   1.137   6.994   5.119
 8798SOL     OW27292   5.129   4.986   5.321
 8798SOL    HW127293   5.203   5.023   5.376
 8798SOL    HW227294   5.159   4.979   5.226
 8799SOL     OW27295   1.860   4.215   3.837
 8799SOL    HW127296   1.891   4.231   3.930
 8799SOL    HW227297   1.931   4.244   3.773
 8800SOL     OW27298   6.398   4.339   5.526
 8800SOL    HW127299   6.423   4.244   5.543
 8800SOL    HW227300   6.367   4.380   5.612
 8801SOL     OW27301   0.937   1.522   4.457
 8801SOL    HW127302   0.917   1.497   4.552
 8801SOL    HW227303   1.026   1.568   4.453
 8802SOL     OW27304   1.644   0.251   0.694
 8802SOL    HW127305   1.713   0.266   0.765
 8802SOL    HW227306   1.666   0.306   0.613
 8803SOL     OW27307   0.013   5.167   5.696
 8803SOL    HW127308   6.949   5.142   5.672
 8803SOL    HW227309   0.077   5.102   5.655
 8804SOL     OW27310   3.543   0.073   1.772
 8804SOL    HW127311   3.599   7.020   1.762
 8804SOL    HW227312   3.500   0.072   1.863
 8805SOL     OW27313   2.393   0.333   4.321
 8805SOL    HW127314   2.473   0.338   4.381
 8805SOL    HW227315   2.395   0.247   4.270
 8806SOL     OW27316   2.510   5.171   1.643
 8806SOL    HW127317   2.538   5.092   1.698
 8806SOL    HW227318   2.541   5.158   1.549
 8807SOL     OW27319   6.066   6.725   6.505
 8807SOL    HW127320   6.064   6.820   6.476
 8807SOL    HW227321   5.974   6.695   6.530
 8808SOL     OW27322   5.465   2.339   0.622
 8808SOL    HW127323   5.411   2.379   0.696
 8808SOL    HW227324   5.412   2.344   0.537
 8809SOL     OW27325   4.712   4.914   3.222
 8809SOL    HW127326   4.674   5.001   3.191
 8809SOL    HW227327   4.661   4.839   3.181
 8810SOL     OW27328   5.446   0.793   6.349
 8810SOL    HW127329   5.375   0.796   6.278
 8810SOL    HW227330   5.445   0.878   6.401
 8811SOL     OW27331   2.858   1.789   3.875
 8811SOL    HW127332   2.895   1.845   3.949
 8811SOL    HW227333   2.930   1.731   3.837
 8812SOL     OW27334   1.809   0.399   1.489
 8812SOL    HW127335   1.835   0.308   1.521
 8812SOL    HW227336   1.712   0.399   1.465
 8813SOL     OW27337   1.536   4.277   1.714
 8813SOL    HW127338   1.475   4.243   1.784
 8813SOL    HW227339   1.523   4.375   1.702
 8814SOL     OW27340   5.759   0.638   0.728
 8814SOL    HW127341   5.696   0.583   0.673
 8814SOL    HW227342   5.814   0.577   0.785
 8815SOL     OW27343   6.765   6.108   0.765
 8815SOL    HW127344   6.708   6.089   0.685
 8815SOL    HW227345   6.708   6.109   0.847
 8816SOL     OW27346   1.810   0.835   0.487
 8816SOL    HW127347   1.858   0.889   0.417
 8816SOL    HW227348   1.733   0.787   0.445
 8817SOL     OW27349   0.819   5.947   5.714
 8817SOL    HW127350   0.884   5.966   5.788
 8817SOL    HW227351   0.840   6.006   5.636
 8818SOL     OW27352   0.345   3.147   4.171
 8818SOL    HW127353   0.287   3.078   4.215
 8818SOL    HW227354   0.435   3.108   4.153
 8819SOL     OW27355   4.682   5.234   4.611
 8819SOL    HW127356   4.618   5.157   4.609
 8819SOL    HW227357   4.772   5.202   4.641
 8820SOL     OW27358   2.233   1.410   5.041
 8820SOL    HW127359   2.155   1.363   4.999
 8820SOL    HW227360   2.254   1.493   4.989
 8821SOL     OW27361   2.843   6.462   0.035
 8821SOL    HW127362   2.784   6.394   7.020
 8821SOL    HW227363   2.892   6.420   0.111
 8822SOL     OW27364   0.976   6.949   4.270
 8822SOL    HW127365   0.925   6.936   4.355
 8822SOL    HW227366   1.065   6.988   4.291
 8823SOL     OW27367   2.277   0.836   0.915
 8823SOL    HW127368   2.335   0.883   0.849
 8823SOL    HW227369   2.235   0.756   0.871
 8824SOL     OW27370   1.098   3.080   1.307
 8824SOL    HW127371   1.079   2.983   1.293
 8824SOL    HW227372   1.169   3.109   1.243
 8825SOL     OW27373   2.054   0.343   3.008
 8825SOL    HW127374   2.137   0.317   3.056
 8825SOL    HW227375   1.974   0.309   3.059
 8826SOL     OW27376   6.708   3.015   0.724
 8826SOL    HW127377   6.792   2.983   0.767
 8826SOL    HW227378   6.731   3.073   0.646
 8827SOL     OW27379   3.677   1.049   2.823
 8827SOL    HW127380   3.643   0.959   2.796
 8827SOL    HW227381   3.660   1.062   2.921
 8828SOL     OW27382   4.541   5.749   4.991
 8828SOL    HW127383   4.481   5.679   5.031
 8828SOL    HW227384   4.536   5.742   4.891
 8829SOL     OW27385   0.186   2.217   0.541
 8829SOL    HW127386   0.180   2.120   0.566
 8829SOL    HW227387   0.252   2.263   0.601
 8830SOL     OW27388   6.965   1.663   1.575
 8830SOL    HW127389   6.922   1.735   1.629
 8830SOL    HW227390   6.963   1.688   1.478
 8831SOL     OW27391   5.393   0.927   3.749
 8831SOL    HW127392   5.333   0.907   3.826
 8831SOL    HW227393   5.469   0.861   3.748
 8832SOL     OW27394   7.028   6.138   2.872
 8832SOL    HW127395   6.958   6.070   2.851
 8832SOL    HW227396   6.984   6.224   2.897
 8833SOL     OW27397   2.392   6.463   5.923
 8833SOL    HW127398   2.454   6.463   6.002
 8833SOL    HW227399   2.329   6.386   5.931
 8834SOL     OW27400   5.355   3.115   4.538
 8834SOL    HW127401   5.424   3.048   4.564
 8834SOL    HW227402   5.344   3.115   4.439
 8835SOL     OW27403   5.962   1.322   5.729
 8835SOL    HW127404   6.062   1.315   5.722
 8835SOL    HW227405   5.935   1.418   5.727
 8836SOL     OW27406   4.484   2.018   6.507
 8836SOL    HW127407   4.393   1.986   6.481
 8836SOL    HW227408   4.477   2.080   6.585
 8837SOL     OW27409   0.059   6.500   3.078
 8837SOL    HW127410   0.073   6.580   3.136
 8837SOL    HW227411   0.134   6.494   3.011
 8838SOL     OW27412   2.660   4.630   2.612
 8838SOL    HW127413   2.601   4.556   2.581
 8838SOL    HW227414   2.707   4.602   2.695
 8839SOL     OW27415   5.395   5.450   2.264
 8839SOL    HW127416   5.342   5.433   2.348
 8839SOL    HW227417   5.447   5.368   2.241
 8840SOL     OW27418   6.595   1.456   1.742
 8840SOL    HW127419   6.564   1.498   1.827
 8840SOL    HW227420   6.541   1.491   1.665
 8841SOL     OW27421   1.040   0.054   4.996
 8841SOL    HW127422   1.012   0.148   5.015
 8841SOL    HW227423   0.963   0.004   4.956
 8842SOL     OW27424   2.980   2.843   1.800
 8842SOL    HW127425   3.076   2.870   1.792
 8842SOL    HW227426   2.970   2.747   1.777
 8843SOL     OW27427   1.715   3.356   5.465
 8843SOL    HW127428   1.646   3.334   5.396
 8843SOL    HW227429   1.796   3.298   5.452
 8844SOL     OW27430   6.050   2.224   6.822
 8844SOL    HW127431   6.088   2.137   6.854
 8844SOL    HW227432   6.015   2.214   6.729
 8845SOL     OW27433   4.900   3.941   6.822
 8845SOL    HW127434   4.833   3.953   6.895
 8845SOL    HW227435   4.989   3.975   6.852
 8846SOL     OW27436   3.233   5.561   3.574
 8846SOL    HW127437   3.283   5.581   3.658
 8846SOL    HW227438   3.163   5.492   3.593
 8847SOL     OW27439   2.963   1.302   2.628
 8847SOL    HW127440   3.036   1.280   2.693
 8847SOL    HW227441   2.950   1.401   2.625
 8848SOL     OW27442   2.451   0.172   1.961
 8848SOL    HW127443   2.421   0.105   1.892
 8848SOL    HW227444   2.457   0.127   2.050
 8849SOL     OW27445   3.389   6.008   2.975
 8849SOL    HW127446   3.349   6.070   3.042
 8849SOL    HW227447   3.392   6.052   2.886
 8850SOL     OW27448   1.430   2.303   0.299
 8850SOL    HW127449   1.354   2.326   0.360
 8850SOL    HW227450   1.428   2.364   0.220
 8851SOL     OW27451   1.625   3.932   2.568
 8851SOL    HW127452   1.578   4.020   2.580
 8851SOL    HW227453   1.584   3.882   2.492
 8852SOL     OW27454   0.692   2.137   4.857
 8852SOL    HW127455   0.733   2.228   4.865
 8852SOL    HW227456   0.620   2.127   4.925
 8853SOL     OW27457   2.809   0.576   1.505
 8853SOL    HW127458   2.808   0.481   1.535
 8853SOL    HW227459   2.866   0.585   1.423
 8854SOL     OW27460   1.807   3.402   5.118
 8854SOL    HW127461   1.891   3.360   5.154
 8854SOL    HW227462   1.821   3.427   5.022
 8855SOL     OW27463   6.716   4.929   1.311
 8855SOL    HW127464   6.757   4.919   1.401
 8855SOL    HW227465   6.677   5.021   1.302
 8856SOL     OW27466   0.660   6.513   6.042
 8856SOL    HW127467   0.619   6.502   5.951
 8856SOL    HW227468   0.590   6.503   6.112
 8857SOL     OW27469   6.535   1.628   4.465
 8857SOL    HW127470   6.582   1.714   4.484
 8857SOL    HW227471   6.596   1.566   4.416
 8858SOL     OW27472   6.999   4.117   4.267
 8858SOL    HW127473   6.985   4.203   4.217
 8858SOL    HW227474   0.033   4.059   4.216
 8859SOL     OW27475   1.178   1.275   3.794
 8859SOL    HW127476   1.139   1.320   3.874
 8859SOL    HW227477   1.184   1.176   3.811
 8860SOL     OW27478   6.789   1.998   1.440
 8860SOL    HW127479   6.859   1.971   1.506
 8860SOL    HW227480   6.761   2.092   1.458
 8861SOL     OW27481   3.998   1.186   6.219
 8861SOL    HW127482   3.900   1.193   6.232
 8861SOL    HW227483   4.018   1.167   6.123
 8862SOL     OW27484   5.606   6.905   3.910
 8862SOL    HW127485   5.663   6.826   3.887
 8862SOL    HW227486   5.614   6.925   4.008
 8863SOL     OW27487   2.378   4.686   3.288
 8863SOL    HW127488   2.406   4.761   3.348
 8863SOL    HW227489   2.432   4.605   3.309
 8864SOL     OW27490   3.635   4.432   6.045
 8864SOL    HW127491   3.545   4.458   6.007
 8864SOL    HW227492   3.671   4.508   6.099
 8865SOL     OW27493   3.413   0.922   4.674
 8865SOL    HW127494   3.414   0.995   4.742
 8865SOL    HW227495   3.366   0.842   4.711
 8866SOL     OW27496   5.622   6.784   3.149
 8866SOL    HW127497   5.609   6.843   3.069
 8866SOL    HW227498   5.639   6.690   3.118
 8867SOL     OW27499   5.698   4.369   3.611
 8867SOL    HW127500   5.638   4.370   3.691
 8867SOL    HW227501   5.720   4.463   3.585
 8868SOL     OW27502   6.911   3.175   2.543
 8868SOL    HW127503   6.908   3.096   2.481
 8868SOL    HW227504   6.826   3.227   2.534
 8869SOL     OW27505   4.361   5.938   5.356
 8869SOL    HW127506   4.271   5.914   5.321
 8869SOL    HW227507   4.416   5.978   5.282
 8870SOL     OW27508   2.136   6.714   1.943
 8870SOL    HW127509   2.144   6.728   1.845
 8870SOL    HW227510   2.132   6.803   1.989
 8871SOL     OW27511   2.330   0.279   3.401
 8871SOL    HW127512   2.358   0.187   3.428
 8871SOL    HW227513   2.353   0.343   3.475
 8872SOL     OW27514   1.038   4.956   5.828
 8872SOL    HW127515   1.009   4.993   5.740
 8872SOL    HW227516   1.034   5.028   5.898
 8873SOL     OW27517   1.930   6.859   2.300
 8873SOL    HW127518   1.987   6.901   2.371
 8873SOL    HW227519   1.834   6.876   2.320
 8874SOL     OW27520   1.863   5.961   2.450
 8874SOL    HW127521   1.896   5.910   2.529
 8874SOL    HW227522   1.767   5.938   2.432
 8875SOL     OW27523   6.846   3.512   4.348
 8875SOL    HW127524   6.904   3.456   4.289
 8875SOL    HW227525   6.759   3.465   4.363
 8876SOL     OW27526   2.569   0.953   6.333
 8876SOL    HW127527   2.643   0.997   6.385
 8876SOL    HW227528   2.570   0.855   6.352
 8877SOL     OW27529   1.983   2.617   3.567
 8877SOL    HW127530   1.931   2.700   3.586
 8877SOL    HW227531   2.065   2.641   3.514
 8878SOL     OW27532   3.310   5.223   1.341
 8878SOL    HW127533   3.405   5.229   1.373
 8878SOL    HW227534   3.249   5.262   1.410
 8879SOL     OW27535   5.120   4.829   2.161
 8879SOL    HW127536   5.145   4.733   2.168
 8879SOL    HW227537   5.023   4.840   2.183
 8880SOL     OW27538   4.185   6.522   5.135
 8880SOL    HW127539   4.197   6.478   5.224
 8880SOL    HW227540   4.143   6.612   5.146
 8881SOL     OW27541   5.405   5.678   4.340
 8881SOL    HW127542   5.425   5.690   4.243
 8881SOL    HW227543   5.472   5.616   4.380
 8882SOL     OW27544   4.602   0.901   1.172
 8882SOL    HW127545   4.619   0.996   1.147
 8882SOL    HW227546   4.604   0.844   1.091
 8883SOL     OW27547   1.431   6.457   6.255
 8883SOL    HW127548   1.339   6.495   6.244
 8883SOL    HW227549   1.450   6.441   6.352
 8884SOL     OW27550   6.219   3.776   5.942
 8884SOL    HW127551   6.143   3.766   5.878
 8884SOL    HW227552   6.300   3.730   5.906
 8885SOL     OW27553   4.803   4.609   1.091
 8885SOL    HW127554   4.804   4.568   1.182
 8885SOL    HW227555   4.878   4.570   1.036
 8886SOL     OW27556   3.597   5.928   5.984
 8886SOL    HW127557   3.574   5.839   5.944
 8886SOL    HW227558   3.626   5.916   6.079
 8887SOL     OW27559   4.082   0.709   0.776
 8887SOL    HW127560   4.102   0.705   0.874
 8887SOL    HW227561   4.161   0.677   0.725
 8888SOL     OW27562   2.075   2.066   4.584
 8888SOL    HW127563   2.151   2.132   4.593
 8888SOL    HW227564   2.004   2.105   4.526
 8889SOL     OW27565   0.051   6.545   6.801
 8889SOL    HW127566   0.009   6.633   6.825
 8889SOL    HW227567   0.080   6.498   6.884
 8890SOL     OW27568   0.700   6.118   6.227
 8890SOL    HW127569   0.708   6.206   6.181
 8890SOL    HW227570   0.609   6.080   6.212
 8891SOL     OW27571   4.219   4.500   0.304
 8891SOL    HW127572   4.204   4.464   0.212
 8891SOL    HW227573   4.180   4.591   0.311
 8892SOL     OW27574   3.426   4.971   3.693
 8892SOL    HW127575   3.498   4.960   3.761
 8892SOL    HW227576   3.380   5.060   3.705
 8893SOL     OW27577   1.148   5.197   4.961
 8893SOL    HW127578   1.166   5.290   4.931
 8893SOL    HW227579   1.079   5.156   4.902
 8894SOL     OW27580   3.350   2.028   6.597
 8894SOL    HW127581   3.412   2.093   6.642
 8894SOL    HW227582   3.267   2.020   6.652
 8895SOL     OW27583   0.316   2.173   1.193
 8895SOL    HW127584   0.287   2.212   1.106
 8895SOL    HW227585   0.257   2.096   1.217
 8896SOL     OW27586   1.793   3.225   4.480
 8896SOL    HW127587   1.842   3.256   4.399
 8896SOL    HW227588   1.826   3.134   4.507
 8897SOL     OW27589   2.301   2.456   3.596
 8897SOL    HW127590   2.293   2.396   3.676
 8897SOL    HW227591   2.260   2.545   3.617
 8898SOL     OW27592   5.289   3.328   2.035
 8898SOL    HW127593   5.369   3.285   2.077
 8898SOL    HW227594   5.244   3.262   1.975
 8899SOL     OW27595   1.517   4.549   0.178
 8899SOL    HW127596   1.532   4.644   0.207
 8899SOL    HW227597   1.571   4.531   0.096
 8900SOL     OW27598   5.172   3.137   3.072
 8900SOL    HW127599   5.074   3.115   3.065
 8900SOL    HW227600   5.195   3.153   3.168
 8901SOL     OW27601   0.403   1.199   4.037
 8901SOL    HW127602   0.382   1.296   4.042
 8901SOL    HW227603   0.497   1.187   4.005
 8902SOL     OW27604   1.612   5.458   0.014
 8902SOL    HW127605   1.609   5.427   6.948
 8902SOL    HW227606   1.634   5.556   0.017
 8903SOL     OW27607   0.543   2.020   4.669
 8903SOL    HW127608   0.599   2.051   4.746
 8903SOL    HW227609   0.580   2.056   4.583
 8904SOL     OW27610   0.669   1.505   4.443
 8904SOL    HW127611   0.639   1.529   4.351
 8904SOL    HW227612   0.769   1.498   4.445
 8905SOL     OW27613   2.161   2.873   2.403
 8905SOL    HW127614   2.168   2.949   2.468
 8905SOL    HW227615   2.253   2.838   2.384
 8906SOL     OW27616   1.370   5.970   1.071
 8906SOL    HW127617   1.436   6.007   1.007
 8906SOL    HW227618   1.289   6.028   1.073
 8907SOL     OW27619   3.527   2.641   5.536
 8907SOL    HW127620   3.518   2.740   5.540
 8907SOL    HW227621   3.441   2.599   5.563
 8908SOL     OW27622   2.075   5.637   7.012
 8908SOL    HW127623   2.111   5.555   0.028
 8908SOL    HW227624   1.983   5.656   0.019
 8909SOL     OW27625   2.850   1.261   6.265
 8909SOL    HW127626   2.773   1.290   6.208
 8909SOL    HW227627   2.924   1.328   6.258
 8910SOL     OW27628   0.310   2.880   5.367
 8910SOL    HW127629   0.395   2.932   5.361
 8910SOL    HW227630   0.332   2.782   5.375
 8911SOL     OW27631   5.223   3.527   4.912
 8911SOL    HW127632   5.278   3.489   4.986
 8911SOL    HW227633   5.126   3.505   4.927
 8912SOL     OW27634   2.390   3.230   6.371
 8912SOL    HW127635   2.346   3.297   6.310
 8912SOL    HW227636   2.344   3.232   6.460
 8913SOL     OW27637   4.254   5.044   6.509
 8913SOL    HW127638   4.279   5.105   6.584
 8913SOL    HW227639   4.277   4.950   6.533
 8914SOL     OW27640   4.988   6.983   4.370
 8914SOL    HW127641   5.078   6.939   4.360
 8914SOL    HW227642   4.916   6.915   4.356
 8915SOL     OW27643   1.398   2.095   4.469
 8915SOL    HW127644   1.488   2.077   4.428
 8915SOL    HW227645   1.410   2.130   4.562
 8916SOL     OW27646   6.554   2.643   6.831
 8916SOL    HW127647   6.639   2.695   6.820
 8916SOL    HW227648   6.575   2.553   6.867
 8917SOL     OW27649   5.559   2.759   1.255
 8917SOL    HW127650   5.470   2.732   1.293
 8917SOL    HW227651   5.624   2.771   1.330
 8918SOL     OW27652   1.136   5.051   0.616
 8918SOL    HW127653   1.077   5.036   0.536
 8918SOL    HW227654   1.079   5.068   0.696
 8919SOL     OW27655   5.001   4.551   6.761
 8919SOL    HW127656   5.092   4.554   6.802
 8919SOL    HW227657   4.952   4.635   6.784
 8920SOL     OW27658   0.422   2.247   0.314
 8920SOL    HW127659   0.345   2.225   0.375
 8920SOL    HW227660   0.418   2.344   0.289
 8921SOL     OW27661   1.682   2.937   2.234
 8921SOL    HW127662   1.762   2.997   2.235
 8921SOL    HW227663   1.640   2.935   2.324
 8922SOL     OW27664   4.110   5.764   2.249
 8922SOL    HW127665   4.179   5.826   2.213
 8922SOL    HW227666   4.127   5.746   2.346
 8923SOL     OW27667   1.796   0.920   6.642
 8923SOL    HW127668   1.838   0.943   6.554
 8923SOL    HW227669   1.816   0.825   6.665
 8924SOL     OW27670   4.131   5.397   5.277
 8924SOL    HW127671   4.166   5.304   5.291
 8924SOL    HW227672   4.069   5.397   5.199
 8925SOL     OW27673   0.478   0.691   2.617
 8925SOL    HW127674   0.379   0.685   2.628
 8925SOL    HW227675   0.500   0.713   2.522
 8926SOL     OW27676   6.974   3.254   5.343
 8926SOL    HW127677   6.906   3.234   5.413
 8926SOL    HW227678   0.024   3.195   5.355
 8927SOL     OW27679   6.337   1.541   4.310
 8927SOL    HW127680   6.389   1.595   4.376
 8927SOL    HW227681   6.373   1.448   4.307
 8928SOL     OW27682   1.549   0.340   6.118
 8928SOL    HW127683   1.625   0.400   6.143
 8928SOL    HW227684   1.560   0.252   6.163
 8929SOL     OW27685   5.900   2.150   5.537
 8929SOL    HW127686   5.996   2.150   5.567
 8929SOL    HW227687   5.840   2.153   5.616
 8930SOL     OW27688   0.938   2.747   3.084
 8930SOL    HW127689   0.937   2.735   2.985
 8930SOL    HW227690   0.946   2.658   3.129
 8931SOL     OW27691   3.058   3.839   1.584
 8931SOL    HW127692   3.050   3.739   1.580
 8931SOL    HW227693   3.030   3.878   1.497
 8932SOL     OW27694   6.226   2.021   2.239
 8932SOL    HW127695   6.178   1.952   2.295
 8932SOL    HW227696   6.203   2.112   2.272
 8933SOL     OW27697   3.083   2.440   6.351
 8933SOL    HW127698   3.110   2.491   6.269
 8933SOL    HW227699   3.150   2.367   6.368
 8934SOL     OW27700   3.185   4.868   4.935
 8934SOL    HW127701   3.162   4.897   5.028
 8934SOL    HW227702   3.194   4.769   4.933
 8935SOL     OW27703   0.115   4.391   0.195
 8935SOL    HW127704   0.078   4.364   0.284
 8935SOL    HW227705   0.101   4.316   0.129
 8936SOL     OW27706   1.794   4.196   1.811
 8936SOL    HW127707   1.833   4.163   1.725
 8936SOL    HW227708   1.704   4.234   1.794
 8937SOL     OW27709   0.143   0.580   5.548
 8937SOL    HW127710   0.103   0.546   5.463
 8937SOL    HW227711   0.105   0.530   5.625
 8938SOL     OW27712   0.550   5.601   0.906
 8938SOL    HW127713   0.546   5.588   1.005
 8938SOL    HW227714   0.504   5.525   0.860
 8939SOL     OW27715   4.714   2.829   4.453
 8939SOL    HW127716   4.700   2.892   4.376
 8939SOL    HW227717   4.725   2.882   4.537
 8940SOL     OW27718   0.134   0.951   3.094
 8940SOL    HW127719   0.165   1.028   3.039
 8940SOL    HW227720   0.169   0.866   3.056
 8941SOL     OW27721   6.314   2.659   5.421
 8941SOL    HW127722   6.363   2.685   5.504
 8941SOL    HW227723   6.218   2.687   5.429
 8942SOL     OW27724   6.810   4.413   5.054
 8942SOL    HW127725   6.842   4.453   5.140
 8942SOL    HW227726   6.798   4.485   4.985
 8943SOL     OW27727   3.981   4.617   6.854
 8943SOL    HW127728   3.932   4.683   6.911
 8943SOL    HW227729   3.927   4.595   6.773
 8944SOL     OW27730   5.483   4.568   5.143
 8944SOL    HW127731   5.444   4.630   5.212
 8944SOL    HW227732   5.416   4.553   5.071
 8945SOL     OW27733   1.221   0.538   3.262
 8945SOL    HW127734   1.133   0.532   3.216
 8945SOL    HW227735   1.235   0.631   3.295
 8946SOL     OW27736   3.230   1.179   5.246
 8946SOL    HW127737   3.176   1.105   5.207
 8946SOL    HW227738   3.186   1.267   5.226
 8947SOL     OW27739   2.060   3.741   4.805
 8947SOL    HW127740   2.121   3.803   4.756
 8947SOL    HW227741   2.082   3.741   4.903
 8948SOL     OW27742   6.632   6.609   3.999
 8948SOL    HW127743   6.726   6.616   4.033
 8948SOL    HW227744   6.633   6.573   3.906
 8949SOL     OW27745   2.554   6.917   1.048
 8949SOL    HW127746   2.643   6.955   1.024
 8949SOL    HW227747   2.555   6.818   1.035
 8950SOL     OW27748   4.932   3.917   6.176
 8950SOL    HW127749   4.879   3.900   6.259
 8950SOL    HW227750   4.881   3.883   6.096
 8951SOL     OW27751   0.551   1.998   5.078
 8951SOL    HW127752   0.551   1.899   5.097
 8951SOL    HW227753   0.644   2.033   5.090
 8952SOL     OW27754   1.335   6.928   2.497
 8952SOL    HW127755   1.259   6.876   2.534
 8952SOL    HW227756   1.361   7.000   2.562
 8953SOL     OW27757   1.217   4.028   6.694
 8953SOL    HW127758   1.217   3.928   6.699
 8953SOL    HW227759   1.310   4.061   6.700
 8954SOL     OW27760   1.432   7.008   6.085
 8954SOL    HW127761   1.460   6.947   6.010
 8954SOL    HW227762   1.332   7.018   6.084
 8955SOL     OW27763   0.822   5.106   2.209
 8955SOL    HW127764   0.820   5.132   2.305
 8955SOL    HW227765   0.763   5.026   2.195
 8956SOL     OW27766   0.458   1.474   6.800
 8956SOL    HW127767   0.423   1.565   6.822
 8956SOL    HW227768   0.493   1.431   6.884
 8957SOL     OW27769   3.043   4.269   1.778
 8957SOL    HW127770   3.020   4.334   1.850
 8957SOL    HW227771   3.139   4.281   1.750
 8958SOL     OW27772   0.821   0.227   4.765
 8958SOL    HW127773   0.772   0.182   4.691
 8958SOL    HW227774   0.795   0.186   4.852
 8959SOL     OW27775   1.531   4.696   1.939
 8959SOL    HW127776   1.469   4.619   1.955
 8959SOL    HW227777   1.484   4.765   1.884
 8960SOL     OW27778   4.813   5.581   2.949
 8960SOL    HW127779   4.847   5.672   2.973
 8960SOL    HW227780   4.735   5.590   2.887
 8961SOL     OW27781   2.690   2.046   4.400
 8961SOL    HW127782   2.624   2.064   4.327
 8961SOL    HW227783   2.644   2.002   4.477
 8962SOL     OW27784   6.384   6.683   2.115
 8962SOL    HW127785   6.301   6.638   2.081
 8962SOL    HW227786   6.460   6.618   2.115
 8963SOL     OW27787   5.254   6.670   4.081
 8963SOL    HW127788   5.176   6.620   4.119
 8963SOL    HW227789   5.277   6.632   3.992
 8964SOL     OW27790   5.276   3.540   3.318
 8964SOL    HW127791   5.352   3.550   3.382
 8964SOL    HW227792   5.286   3.605   3.243
 8965SOL     OW27793   2.187   4.927   0.516
 8965SOL    HW127794   2.255   4.887   0.455
 8965SOL    HW227795   2.119   4.858   0.540
 8966SOL     OW27796   0.333   4.362   5.727
 8966SOL    HW127797   0.419   4.396   5.764
 8966SOL    HW227798   0.265   4.356   5.801
 8967SOL     OW27799   3.659   6.634   2.121
 8967SOL    HW127800   3.597   6.692   2.174
 8967SOL    HW227801   3.678   6.550   2.172
 8968SOL     OW27802   5.174   4.730   2.995
 8968SOL    HW127803   5.171   4.812   3.052
 8968SOL    HW227804   5.113   4.661   3.035
 8969SOL     OW27805   6.868   0.672   3.986
 8969SOL    HW127806   6.898   0.589   3.939
 8969SOL    HW227807   6.947   0.731   4.003
 8970SOL     OW27808   2.366   2.965   0.214
 8970SOL    HW127809   2.311   2.884   0.236
 8970SOL    HW227810   2.454   2.960   0.261
 8971SOL     OW27811   4.896   5.251   2.401
 8971SOL    HW127812   4.914   5.349   2.409
 8971SOL    HW227813   4.891   5.226   2.305
 8972SOL     OW27814   4.916   4.804   6.898
 8972SOL    HW127815   5.002   4.843   6.930
 8972SOL    HW227816   4.864   4.769   6.977
 8973SOL     OW27817   1.017   3.327   2.281
 8973SOL    HW127818   1.086   3.391   2.315
 8973SOL    HW227819   0.966   3.368   2.206
 8974SOL     OW27820   1.569   4.799   5.593
 8974SOL    HW127821   1.667   4.788   5.578
 8974SOL    HW227822   1.545   4.764   5.684
 8975SOL     OW27823   2.300   0.325   6.521
 8975SOL    HW127824   2.287   0.362   6.429
 8975SOL    HW227825   2.284   0.396   6.589
 8976SOL     OW27826   0.059   4.903   5.022
 8976SOL    HW127827   0.079   5.001   5.023
 8976SOL    HW227828   0.145   4.852   5.020
 8977SOL     OW27829   5.403   2.136   7.027
 8977SOL    HW127830   5.463   2.137   6.947
 8977SOL    HW227831   5.319   2.085   7.005
 8978SOL     OW27832   5.661   0.119   5.917
 8978SOL    HW127833   5.591   0.147   5.982
 8978SOL    HW227834   5.622   0.051   5.854
 8979SOL     OW27835   1.207   2.995   4.693
 8979SOL    HW127836   1.202   2.910   4.640
 8979SOL    HW227837   1.132   2.998   4.759
 8980SOL     OW27838   2.223   2.964   5.352
 8980SOL    HW127839   2.182   2.873   5.348
 8980SOL    HW227840   2.272   2.982   5.267
 8981SOL     OW27841   4.597   1.990   5.268
 8981SOL    HW127842   4.651   1.954   5.345
 8981SOL    HW227843   4.629   1.948   5.183
 8982SOL     OW27844   1.663   1.763   0.739
 8982SOL    HW127845   1.749   1.815   0.733
 8982SOL    HW227846   1.587   1.820   0.709
 8983SOL     OW27847   2.013   6.305   6.775
 8983SOL    HW127848   2.028   6.209   6.752
 8983SOL    HW227849   1.949   6.345   6.709
 8984SOL     OW27850   0.523   6.934   4.195
 8984SOL    HW127851   0.496   6.839   4.179
 8984SOL    HW227852   0.493   6.991   4.118
 8985SOL     OW27853   2.715   3.447   0.806
 8985SOL    HW127854   2.713   3.527   0.865
 8985SOL    HW227855   2.701   3.365   0.861
 8986SOL     OW27856   4.844   5.532   2.416
 8986SOL    HW127857   4.837   5.631   2.428
 8986SOL    HW227858   4.755   5.490   2.436
 8987SOL     OW27859   4.558   0.054   1.436
 8987SOL    HW127860   4.536   0.060   1.339
 8987SOL    HW227861   4.477   0.028   1.488
 8988SOL     OW27862   1.379   4.166   5.026
 8988SOL    HW127863   1.294   4.176   4.974
 8988SOL    HW227864   1.425   4.081   5.000
 8989SOL     OW27865   4.977   3.718   0.365
 8989SOL    HW127866   4.903   3.651   0.369
 8989SOL    HW227867   5.065   3.672   0.378
 8990SOL     OW27868   1.982   5.836   4.376
 8990SOL    HW127869   2.040   5.814   4.454
 8990SOL    HW227870   2.035   5.829   4.291
 8991SOL     OW27871   1.562   2.557   5.540
 8991SOL    HW127872   1.590   2.561   5.444
 8991SOL    HW227873   1.525   2.646   5.568
 8992SOL     OW27874   5.361   1.380   0.213
 8992SOL    HW127875   5.265   1.363   0.235
 8992SOL    HW227876   5.392   1.313   0.145
 8993SOL     OW27877   5.299   2.114   1.788
 8993SOL    HW127878   5.399   2.118   1.794
 8993SOL    HW227879   5.267   2.025   1.821
 8994SOL     OW27880   0.959   4.089   4.456
 8994SOL    HW127881   0.949   4.188   4.456
 8994SOL    HW227882   0.879   4.047   4.498
 8995SOL     OW27883   1.509   2.479   0.025
 8995SOL    HW127884   1.543   2.571   0.047
 8995SOL    HW227885   1.513   2.465   6.955
 8996SOL     OW27886   5.445   5.137   0.394
 8996SOL    HW127887   5.456   5.236   0.404
 8996SOL    HW227888   5.439   5.114   0.297
 8997SOL     OW27889   5.064   1.550   6.093
 8997SOL    HW127890   5.092   1.460   6.127
 8997SOL    HW227891   4.974   1.573   6.129
 8998SOL     OW27892   5.964   3.189   3.653
 8998SOL    HW127893   5.967   3.222   3.748
 8998SOL    HW227894   5.966   3.089   3.652
 8999SOL     OW27895   4.411   5.936   6.383
 8999SOL    HW127896   4.337   5.990   6.343
 8999SOL    HW227897   4.465   5.994   6.444
 9000SOL     OW27898   1.381   3.447   1.387
 9000SOL    HW127899   1.300   3.437   1.330
 9000SOL    HW227900   1.369   3.526   1.447
 9001SOL     OW27901   1.114   5.683   2.300
 9001SOL    HW127902   1.068   5.713   2.383
 9001SOL    HW227903   1.123   5.583   2.301
 9002SOL     OW27904   0.963   5.333   5.120
 9002SOL    HW127905   0.965   5.364   5.216
 9002SOL    HW227906   1.027   5.258   5.108
 9003SOL     OW27907   5.518   3.160   2.092
 9003SOL    HW127908   5.480   3.078   2.136
 9003SOL    HW227909   5.601   3.189   2.140
 9004SOL     OW27910   3.955   6.025   1.526
 9004SOL    HW127911   3.999   6.113   1.507
 9004SOL    HW227912   3.907   5.993   1.444
 9005SOL     OW27913   5.713   2.403   4.654
 9005SOL    HW127914   5.813   2.405   4.654
 9005SOL    HW227915   5.678   2.495   4.637
 9006SOL     OW27916   2.348   5.553   1.320
 9006SOL    HW127917   2.393   5.464   1.311
 9006SOL    HW227918   2.293   5.571   1.239
 9007SOL     OW27919   3.356   0.842   3.767
 9007SOL    HW127920   3.257   0.835   3.758
 9007SOL    HW227921   3.399   0.775   3.706
 9008SOL     OW27922   1.494   5.676   3.750
 9008SOL    HW127923   1.422   5.659   3.684
 9008SOL    HW227924   1.565   5.734   3.709
 9009SOL     OW27925   3.171   6.769   0.554
 9009SOL    HW127926   3.100   6.762   0.624
 9009SOL    HW227927   3.133   6.741   0.466
 9010SOL     OW27928   1.656   6.730   4.066
 9010SOL    HW127929   1.678   6.708   4.161
 9010SOL    HW227930   1.728   6.789   4.028
 9011SOL     OW27931   4.904   1.585   1.821
 9011SOL    HW127932   4.865   1.525   1.751
 9011SOL    HW227933   4.945   1.529   1.893
 9012SOL     OW27934   1.971   4.286   0.477
 9012SOL    HW127935   1.892   4.263   0.421
 9012SOL    HW227936   2.055   4.277   0.423
 9013SOL     OW27937   0.537   6.603   5.336
 9013SOL    HW127938   0.618   6.576   5.284
 9013SOL    HW227939   0.540   6.701   5.354
 9014SOL     OW27940   6.775   1.999   0.677
 9014SOL    HW127941   6.685   2.037   0.655
 9014SOL    HW227942   6.787   1.995   0.776
 9015SOL     OW27943   4.514   1.993   1.546
 9015SOL    HW127944   4.578   1.923   1.514
 9015SOL    HW227945   4.557   2.046   1.619
 9016SOL     OW27946   0.251   6.893   6.478
 9016SOL    HW127947   0.310   6.881   6.398
 9016SOL    HW227948   0.187   6.816   6.484
 9017SOL     OW27949   4.358   2.015   3.826
 9017SOL    HW127950   4.427   1.944   3.816
 9017SOL    HW227951   4.356   2.073   3.744
 9018SOL     OW27952   3.526   2.945   6.843
 9018SOL    HW127953   3.540   2.851   6.813
 9018SOL    HW227954   3.429   2.958   6.866
 9019SOL     OW27955   1.654   5.646   2.499
 9019SOL    HW127956   1.585   5.611   2.562
 9019SOL    HW227957   1.625   5.734   2.463
 9020SOL     OW27958   6.964   3.809   0.569
 9020SOL    HW127959   0.010   3.798   0.634
 9020SOL    HW227960   6.896   3.737   0.583
 9021SOL     OW27961   0.215   0.196   3.603
 9021SOL    HW127962   0.231   0.295   3.597
 9021SOL    HW227963   0.142   0.178   3.669
 9022SOL     OW27964   3.581   1.607   6.718
 9022SOL    HW127965   3.534   1.675   6.661
 9022SOL    HW227966   3.535   1.600   6.806
 9023SOL     OW27967   3.635   2.899   2.376
 9023SOL    HW127968   3.535   2.892   2.375
 9023SOL    HW227969   3.665   2.943   2.460
 9024SOL     OW27970   0.819   3.954   4.800
 9024SOL    HW127971   0.837   4.047   4.831
 9024SOL    HW227972   0.724   3.945   4.772
 9025SOL     OW27973   1.011   5.346   0.871
 9025SOL    HW127974   0.932   5.405   0.885
 9025SOL    HW227975   1.088   5.381   0.923
 9026SOL     OW27976   3.921   2.689   0.655
 9026SOL    HW127977   3.859   2.768   0.658
 9026SOL    HW227978   3.899   2.628   0.731
 9027SOL     OW27979   1.669   2.299   3.409
 9027SOL    HW127980   1.644   2.352   3.328
 9027SOL    HW227981   1.767   2.303   3.423
 9028SOL     OW27982   2.831   3.418   5.308
 9028SOL    HW127983   2.853   3.371   5.394
 9028SOL    HW227984   2.778   3.500   5.327
 9029SOL     OW27985   4.275   0.008   4.932
 9029SOL    HW127986   4.230   6.973   4.870
 9029SOL    HW227987   4.369   7.007   4.948
 9030SOL     OW27988   3.078   1.648   3.776
 9030SOL    HW127989   3.106   1.685   3.687
 9030SOL    HW227990   3.155   1.652   3.840
 9031SOL     OW27991   4.300   6.383   4.640
 9031SOL    HW127992   4.229   6.439   4.597
 9031SOL    HW227993   4.277   6.369   4.737
 9032SOL     OW27994   3.538   3.516   0.954
 9032SOL    HW127995   3.487   3.441   0.911
 9032SOL    HW227996   3.568   3.487   1.045
 9033SOL     OW27997   0.140   4.257   3.033
 9033SOL    HW127998   0.191   4.224   2.953
 9033SOL    HW227999   0.197   4.321   3.085
 9034SOL     OW28000   2.910   6.650   4.790
 9034SOL    HW128001   2.953   6.586   4.854
 9034SOL    HW228002   2.847   6.600   4.731
 9035SOL     OW28003   2.426   4.598   0.188
 9035SOL    HW128004   2.346   4.544   0.162
 9035SOL    HW228005   2.477   4.549   0.259
 9036SOL     OW28006   1.954   2.371   5.306
 9036SOL    HW128007   1.967   2.296   5.371
 9036SOL    HW228008   1.929   2.335   5.217
 9037SOL     OW28009   1.053   3.887   4.613
 9037SOL    HW128010   0.978   3.915   4.673
 9037SOL    HW228011   1.059   3.949   4.535
 9038SOL     OW28012   4.228   0.660   6.125
 9038SOL    HW128013   4.271   0.738   6.171
 9038SOL    HW228014   4.296   0.590   6.107
 9039SOL     OW28015   2.324   6.033   5.753
 9039SOL    HW128016   2.420   6.015   5.729
 9039SOL    HW228017   2.264   5.976   5.698
 9040SOL     OW28018   3.392   2.112   2.866
 9040SOL    HW128019   3.400   2.046   2.791
 9040SOL    HW228020   3.477   2.163   2.875
 9041SOL     OW28021   1.156   1.942   1.525
 9041SOL    HW128022   1.229   2.006   1.504
 9041SOL    HW228023   1.173   1.855   1.479
 9042SOL     OW28024   4.145   6.603   5.406
 9042SOL    HW128025   4.085   6.678   5.432
 9042SOL    HW228026   4.091   6.526   5.374
 9043SOL     OW28027   1.125   0.108   0.047
 9043SOL    HW128028   1.111   0.059   0.133
 9043SOL    HW228029   1.101   0.048   6.999
 9044SOL     OW28030   6.176   0.301   0.434
 9044SOL    HW128031   6.185   0.360   0.354
 9044SOL    HW228032   6.132   0.351   0.509
 9045SOL     OW28033   2.868   1.682   2.495
 9045SOL    HW128034   2.961   1.647   2.494
 9045SOL    HW228035   2.840   1.702   2.589
 9046SOL     OW28036   3.407   3.762   2.905
 9046SOL    HW128037   3.383   3.775   2.809
 9046SOL    HW228038   3.507   3.761   2.914
 9047SOL     OW28039   1.937   4.009   5.118
 9047SOL    HW128040   1.965   3.943   5.187
 9047SOL    HW228041   2.001   4.006   5.041
 9048SOL     OW28042   5.694   3.530   5.754
 9048SOL    HW128043   5.680   3.533   5.655
 9048SOL    HW228044   5.791   3.516   5.773
 9049SOL     OW28045   3.605   6.645   5.964
 9049SOL    HW128046   3.580   6.597   5.880
 9049SOL    HW228047   3.523   6.681   6.009
 9050SOL     OW28048   0.849   3.246   0.861
 9050SOL    HW128049   0.854   3.160   0.811
 9050SOL    HW228050   0.802   3.232   0.948
 9051SOL     OW28051   3.994   6.978   1.315
 9051SOL    HW128052   3.981   0.019   1.385
 9051SOL    HW228053   3.933   6.995   1.238
 9052SOL     OW28054   2.669   2.086   3.678
 9052SOL    HW128055   2.604   2.159   3.658
 9052SOL    HW228056   2.627   2.018   3.738
 9053SOL     OW28057   1.754   0.886   2.876
 9053SOL    HW128058   1.672   0.872   2.932
 9053SOL    HW228059   1.770   0.805   2.819
 9054SOL     OW28060   2.920   5.829   3.742
 9054SOL    HW128061   2.883   5.737   3.729
 9054SOL    HW228062   2.994   5.845   3.676
 9055SOL     OW28063   6.005   2.818   4.606
 9055SOL    HW128064   5.975   2.909   4.637
 9055SOL    HW228065   5.954   2.793   4.524
 9056SOL     OW28066   0.608   2.458   1.824
 9056SOL    HW128067   0.693   2.504   1.799
 9056SOL    HW228068   0.567   2.416   1.742
 9057SOL     OW28069   4.802   3.491   6.064
 9057SOL    HW128070   4.780   3.459   5.972
 9057SOL    HW228071   4.895   3.529   6.065
 9058SOL     OW28072   2.095   0.905   1.619
 9058SOL    HW128073   2.005   0.931   1.582
 9058SOL    HW228074   2.133   0.983   1.669
 9059SOL     OW28075   1.661   1.660   3.136
 9059SOL    HW128076   1.674   1.564   3.109
 9059SOL    HW228077   1.638   1.714   3.055
 9060SOL     OW28078   6.445   2.740   4.215
 9060SOL    HW128079   6.531   2.730   4.265
 9060SOL    HW228080   6.369   2.735   4.280
 9061SOL     OW28081   2.182   5.499   1.853
 9061SOL    HW128082   2.237   5.536   1.779
 9061SOL    HW228083   2.240   5.445   1.915
 9062SOL     OW28084   1.586   6.594   2.118
 9062SOL    HW128085   1.501   6.639   2.091
 9062SOL    HW228086   1.657   6.612   2.049
 9063SOL     OW28087   3.384   0.518   4.077
 9063SOL    HW128088   3.349   0.432   4.114
 9063SOL    HW228089   3.482   0.524   4.093
 9064SOL     OW28090   6.224   2.433   6.227
 9064SOL    HW128091   6.145   2.487   6.255
 9064SOL    HW228092   6.249   2.458   6.133
 9065SOL     OW28093   4.152   0.857   6.487
 9065SOL    HW128094   4.150   0.780   6.423
 9065SOL    HW228095   4.247   0.882   6.505
 9066SOL     OW28096   5.255   6.850   0.743
 9066SOL    HW128097   5.167   6.845   0.695
 9066SOL    HW228098   5.327   6.810   0.685
 9067SOL     OW28099   0.920   0.579   4.238
 9067SOL    HW128100   1.020   0.589   4.236
 9067SOL    HW228101   0.895   0.509   4.305
 9068SOL     OW28102   2.263   6.450   4.351
 9068SOL    HW128103   2.348   6.414   4.313
 9068SOL    HW228104   2.273   6.464   4.449
 9069SOL     OW28105   1.385   2.991   1.527
 9069SOL    HW128106   1.401   3.063   1.460
 9069SOL    HW228107   1.467   2.980   1.583
 9070SOL     OW28108   1.346   3.270   5.026
 9070SOL    HW128109   1.350   3.369   5.044
 9070SOL    HW228110   1.394   3.249   4.941
 9071SOL     OW28111   6.204   6.679   1.643
 9071SOL    HW128112   6.144   6.634   1.709
 9071SOL    HW228113   6.153   6.697   1.558
 9072SOL     OW28114   0.297   2.279   0.919
 9072SOL    HW128115   0.219   2.216   0.914
 9072SOL    HW228116   0.349   2.273   0.833
 9073SOL     OW28117   2.927   6.715   2.626
 9073SOL    HW128118   2.934   6.644   2.556
 9073SOL    HW228119   3.019   6.741   2.655
 9074SOL     OW28120   1.094   1.021   2.052
 9074SOL    HW128121   1.077   0.926   2.078
 9074SOL    HW228122   1.013   1.058   2.006
 9075SOL     OW28123   6.982   0.743   2.180
 9075SOL    HW128124   6.983   0.751   2.081
 9075SOL    HW228125   0.006   0.817   2.221
 9076SOL     OW28126   0.235   2.421   5.682
 9076SOL    HW128127   0.204   2.470   5.763
 9076SOL    HW228128   0.333   2.436   5.669
 9077SOL     OW28129   4.624   0.444   0.512
 9077SOL    HW128130   4.553   0.487   0.457
 9077SOL    HW228131   4.676   0.379   0.456
 9078SOL     OW28132   3.691   3.642   5.089
 9078SOL    HW128133   3.670   3.574   5.020
 9078SOL    HW228134   3.648   3.729   5.064
 9079SOL     OW28135   2.601   0.594   4.154
 9079SOL    HW128136   2.531   0.604   4.224
 9079SOL    HW228137   2.688   0.632   4.186
 9080SOL     OW28138   4.898   2.955   6.074
 9080SOL    HW128139   4.895   3.034   6.013
 9080SOL    HW228140   4.842   2.882   6.036
 9081SOL     OW28141   4.126   0.024   2.241
 9081SOL    HW128142   4.175   6.967   2.256
 9081SOL    HW228143   4.138   0.083   2.320
 9082SOL     OW28144   2.230   0.147   5.554
 9082SOL    HW128145   2.231   0.242   5.585
 9082SOL    HW228146   2.286   0.139   5.471
 9083SOL     OW28147   3.582   5.474   6.022
 9083SOL    HW128148   3.666   5.502   6.068
 9083SOL    HW228149   3.513   5.451   6.090
 9084SOL     OW28150   3.610   3.716   3.200
 9084SOL    HW128151   3.622   3.735   3.103
 9084SOL    HW228152   3.514   3.692   3.218
 9085SOL     OW28153   2.178   0.331   1.249
 9085SOL    HW128154   2.254   0.373   1.297
 9085SOL    HW228155   2.145   0.252   1.301
 9086SOL     OW28156   0.675   4.404   0.119
 9086SOL    HW128157   0.596   4.363   0.164
 9086SOL    HW228158   0.695   4.492   0.162
 9087SOL     OW28159   4.982   2.324   1.542
 9087SOL    HW128160   4.963   2.359   1.450
 9087SOL    HW228161   4.989   2.224   1.538
 9088SOL     OW28162   6.700   6.953   1.311
 9088SOL    HW128163   6.755   7.024   1.267
 9088SOL    HW228164   6.760   6.880   1.344
 9089SOL     OW28165   5.346   5.860   5.535
 9089SOL    HW128166   5.368   5.946   5.581
 9089SOL    HW228167   5.266   5.873   5.477
 9090SOL     OW28168   5.859   0.688   5.064
 9090SOL    HW128169   5.957   0.709   5.061
 9090SOL    HW228170   5.807   0.764   5.025
 9091SOL     OW28171   2.890   3.849   0.041
 9091SOL    HW128172   2.924   3.911   0.112
 9091SOL    HW228173   2.947   3.859   6.988
 9092SOL     OW28174   6.216   0.966   6.882
 9092SOL    HW128175   6.311   0.981   6.853
 9092SOL    HW228176   6.169   0.911   6.812
 9093SOL     OW28177   1.361   6.043   5.340
 9093SOL    HW128178   1.408   5.957   5.359
 9093SOL    HW228179   1.407   6.118   5.388
 9094SOL     OW28180   6.187   4.636   2.740
 9094SOL    HW128181   6.093   4.646   2.707
 9094SOL    HW228182   6.206   4.539   2.754
 9095SOL     OW28183   4.668   5.053   6.629
 9095SOL    HW128184   4.675   4.953   6.638
 9095SOL    HW228185   4.598   5.075   6.560
 9096SOL     OW28186   6.542   5.087   2.822
 9096SOL    HW128187   6.621   5.148   2.811
 9096SOL    HW228188   6.564   4.996   2.787
 9097SOL     OW28189   2.028   2.130   0.471
 9097SOL    HW128190   2.012   2.196   0.397
 9097SOL    HW228191   1.955   2.061   0.471
 9098SOL     OW28192   2.912   1.973   4.892
 9098SOL    HW128193   2.993   1.917   4.872
 9098SOL    HW228194   2.930   2.068   4.866
 9099SOL     OW28195   2.702   3.051   5.892
 9099SOL    HW128196   2.649   3.078   5.973
 9099SOL    HW228197   2.797   3.082   5.903
 9100SOL     OW28198   0.715   3.511   3.307
 9100SOL    HW128199   0.807   3.549   3.295
 9100SOL    HW228200   0.721   3.422   3.351
 9101SOL     OW28201   2.621   1.697   2.126
 9101SOL    HW128202   2.548   1.636   2.097
 9101SOL    HW228203   2.610   1.786   2.081
 9102SOL     OW28204   3.198   6.717   2.002
 9102SOL    HW128205   3.144   6.684   1.925
 9102SOL    HW228206   3.267   6.648   2.026
 9103SOL     OW28207   5.702   1.989   0.130
 9103SOL    HW128208   5.629   1.991   0.199
 9103SOL    HW228209   5.739   2.081   0.117
 9104SOL     OW28210   6.935   6.626   1.734
 9104SOL    HW128211   6.907   6.721   1.741
 9104SOL    HW228212   0.005   6.619   1.747
 9105SOL     OW28213   0.941   0.189   5.221
 9105SOL    HW128214   0.879   0.250   5.271
 9105SOL    HW228215   1.021   0.169   5.277
 9106SOL     OW28216   6.594   2.786   0.839
 9106SOL    HW128217   6.662   2.842   0.793
 9106SOL    HW228218   6.639   2.722   0.901
 9107SOL     OW28219   2.063   0.709   0.086
 9107SOL    HW128220   2.112   0.728   0.171
 9107SOL    HW228221   1.996   0.781   0.068
 9108SOL     OW28222   4.701   3.947   5.577
 9108SOL    HW128223   4.633   4.019   5.576
 9108SOL    HW228224   4.719   3.917   5.483
 9109SOL     OW28225   4.944   3.420   3.216
 9109SOL    HW128226   4.899   3.504   3.245
 9109SOL    HW228227   4.951   3.418   3.116
 9110SOL     OW28228   1.371   5.159   4.182
 9110SOL    HW128229   1.446   5.157   4.248
 9110SOL    HW228230   1.399   5.210   4.101
 9111SOL     OW28231   4.480   3.089   6.683
 9111SOL    HW128232   4.556   3.029   6.705
 9111SOL    HW228233   4.486   3.172   6.738
 9112SOL     OW28234   1.426   5.245   2.537
 9112SOL    HW128235   1.459   5.227   2.630
 9112SOL    HW228236   1.487   5.199   2.472
 9113SOL     OW28237   5.046   2.387   2.782
 9113SOL    HW128238   5.026   2.292   2.760
 9113SOL    HW228239   5.000   2.411   2.868
 9114SOL     OW28240   1.082   5.718   3.978
 9114SOL    HW128241   1.060   5.624   3.953
 9114SOL    HW228242   0.997   5.769   3.992
 9115SOL     OW28243   6.179   5.369   4.907
 9115SOL    HW128244   6.107   5.305   4.930
 9115SOL    HW228245   6.219   5.407   4.991
 9116SOL     OW28246   0.053   6.984   3.008
 9116SOL    HW128247   0.025   6.923   2.934
 9116SOL    HW228248   7.001   7.026   3.049
 9117SOL     OW28249   4.328   2.410   6.586
 9117SOL    HW128250   4.295   2.502   6.567
 9117SOL    HW228251   4.292   2.347   6.517
 9118SOL     OW28252   6.317   3.293   0.234
 9118SOL    HW128253   6.291   3.389   0.222
 9118SOL    HW228254   6.253   3.249   0.297
 9119SOL     OW28255   4.107   1.017   1.575
 9119SOL    HW128256   4.163   1.056   1.648
 9119SOL    HW228257   4.166   0.984   1.502
 9120SOL     OW28258   6.689   2.906   5.557
 9120SOL    HW128259   6.754   2.831   5.570
 9120SOL    HW228260   6.675   2.921   5.459
 9121SOL     OW28261   3.999   6.840   5.407
 9121SOL    HW128262   3.901   6.838   5.428
 9121SOL    HW228263   4.048   6.885   5.482
 9122SOL     OW28264   2.169   3.961   2.377
 9122SOL    HW128265   2.192   4.052   2.411
 9122SOL    HW228266   2.205   3.892   2.439
 9123SOL     OW28267   1.775   0.396   4.542
 9123SOL    HW128268   1.742   0.340   4.466
 9123SOL    HW228269   1.707   0.398   4.615
 9124SOL     OW28270   3.840   5.497   1.972
 9124SOL    HW128271   3.834   5.400   1.994
 9124SOL    HW228272   3.912   5.540   2.027
 9125SOL     OW28273   3.513   4.253   1.114
 9125SOL    HW128274   3.414   4.236   1.104
 9125SOL    HW228275   3.529   4.351   1.128
 9126SOL     OW28276   4.869   3.982   0.775
 9126SOL    HW128277   4.851   3.920   0.851
 9126SOL    HW228278   4.924   4.059   0.807
 9127SOL     OW28279   6.477   2.735   5.209
 9127SOL    HW128280   6.434   2.706   5.123
 9127SOL    HW228281   6.415   2.715   5.285
 9128SOL     OW28282   6.001   2.454   4.654
 9128SOL    HW128283   6.063   2.530   4.635
 9128SOL    HW228284   6.037   2.370   4.613
 9129SOL     OW28285   0.969   2.412   0.825
 9129SOL    HW128286   1.060   2.449   0.843
 9129SOL    HW228287   0.962   2.388   0.728
 9130SOL     OW28288   0.792   4.321   5.865
 9130SOL    HW128289   0.883   4.353   5.838
 9130SOL    HW228290   0.788   4.222   5.859
 9131SOL     OW28291   5.389   3.282   0.138
 9131SOL    HW128292   5.343   3.327   0.061
 9131SOL    HW228293   5.339   3.198   0.162
 9132SOL     OW28294   0.716   5.018   4.202
 9132SOL    HW128295   0.628   4.991   4.243
 9132SOL    HW228296   0.782   4.944   4.213
 9133SOL     OW28297   3.558   0.790   1.200
 9133SOL    HW128298   3.589   0.839   1.118
 9133SOL    HW228299   3.591   0.838   1.281
 9134SOL     OW28300   4.005   5.525   0.813
 9134SOL    HW128301   3.964   5.551   0.725
 9134SOL    HW228302   3.953   5.568   0.887
 9135SOL     OW28303   1.827   6.522   1.936
 9135SOL    HW128304   1.859   6.607   1.895
 9135SOL    HW228305   1.852   6.446   1.875
 9136SOL     OW28306   4.510   5.824   5.538
 9136SOL    HW128307   4.452   5.871   5.472
 9136SOL    HW228308   4.573   5.890   5.580
 9137SOL     OW28309   4.379   6.689   5.700
 9137SOL    HW128310   4.436   6.771   5.692
 9137SOL    HW228311   4.384   6.654   5.793
 9138SOL     OW28312   1.930   3.348   0.600
 9138SOL    HW128313   1.885   3.392   0.521
 9138SOL    HW228314   1.950   3.418   0.669
 9139SOL     OW28315   0.769   1.279   1.616
 9139SOL    HW128316   0.857   1.250   1.652
 9139SOL    HW228317   0.732   1.354   1.671
 9140SOL     OW28318   0.526   5.100   2.078
 9140SOL    HW128319   0.602   5.123   2.139
 9140SOL    HW228320   0.502   5.004   2.091
 9141SOL     OW28321   0.014   6.180   6.571
 9141SOL    HW128322   6.984   6.101   6.553
 9141SOL    HW228323   0.078   6.156   6.645
 9142SOL     OW28324   0.310   2.864   2.856
 9142SOL    HW128325   0.389   2.837   2.800
 9142SOL    HW228326   0.241   2.906   2.798
 9143SOL     OW28327   0.272   3.927   1.492
 9143SOL    HW128328   0.315   3.951   1.579
 9143SOL    HW228329   0.341   3.921   1.421
 9144SOL     OW28330   2.935   4.868   5.070
 9144SOL    HW128331   2.881   4.793   5.032
 9144SOL    HW228332   2.978   4.837   5.155
 9145SOL     OW28333   1.456   7.024   6.705
 9145SOL    HW128334   1.514   0.015   6.626
 9145SOL    HW228335   1.513   6.998   6.783
 9146SOL     OW28336   5.317   2.226   3.306
 9146SOL    HW128337   5.354   2.313   3.339
 9146SOL    HW228338   5.391   2.169   3.272
 9147SOL     OW28339   5.758   0.552   5.280
 9147SOL    HW128340   5.814   0.470   5.274
 9147SOL    HW228341   5.794   0.622   5.218
 9148SOL     OW28342   5.969   6.907   1.840
 9148SOL    HW128343   6.053   6.960   1.825
 9148SOL    HW228344   5.907   6.921   1.764
 9149SOL     OW28345   5.510   2.879   2.240
 9149SOL    HW128346   5.536   2.796   2.192
 9149SOL    HW228347   5.414   2.899   2.222
 9150SOL     OW28348   2.964   4.562   0.300
 9150SOL    HW128349   3.009   4.517   0.377
 9150SOL    HW228350   2.997   4.657   0.294
 9151SOL     OW28351   2.285   4.039   3.907
 9151SOL    HW128352   2.219   3.984   3.957
 9151SOL    HW228353   2.328   4.104   3.969
 9152SOL     OW28354   1.763   4.215   4.421
 9152SOL    HW128355   1.746   4.122   4.454
 9152SOL    HW228356   1.816   4.210   4.336
 9153SOL     OW28357   0.612   2.990   6.539
 9153SOL    HW128358   0.679   2.990   6.465
 9153SOL    HW228359   0.545   3.063   6.523
 9154SOL     OW28360   4.577   5.155   3.060
 9154SOL    HW128361   4.607   5.091   2.990
 9154SOL    HW228362   4.637   5.235   3.061
 9155SOL     OW28363   1.510   4.790   2.826
 9155SOL    HW128364   1.520   4.839   2.913
 9155SOL    HW228365   1.592   4.737   2.808
 9156SOL     OW28366   6.898   2.850   1.111
 9156SOL    HW128367   6.829   2.834   1.182
 9156SOL    HW228368   6.988   2.862   1.153
 9157SOL     OW28369   2.861   4.181   6.327
 9157SOL    HW128370   2.951   4.224   6.322
 9157SOL    HW228371   2.833   4.152   6.235
 9158SOL     OW28372   6.244   4.293   4.319
 9158SOL    HW128373   6.283   4.209   4.281
 9158SOL    HW228374   6.145   4.284   4.324
 9159SOL     OW28375   2.648   0.023   3.306
 9159SOL    HW128376   2.703   6.990   3.362
 9159SOL    HW228377   2.645   7.017   3.212
 9160SOL     OW28378   0.491   5.245   6.943
 9160SOL    HW128379   0.432   5.220   7.019
 9160SOL    HW228380   0.436   5.280   6.867
 9161SOL     OW28381   5.923   4.555   2.688
 9161SOL    HW128382   5.906   4.552   2.786
 9161SOL    HW228383   5.968   4.470   2.659
 9162SOL     OW28384   3.987   1.117   2.969
 9162SOL    HW128385   3.923   1.131   3.045
 9162SOL    HW228386   4.073   1.081   3.004
 9163SOL     OW28387   6.939   2.086   1.707
 9163SOL    HW128388   6.982   2.176   1.706
 9163SOL    HW228389   6.861   2.086   1.769
 9164SOL     OW28390   2.223   0.340   0.136
 9164SOL    HW128391   2.182   0.260   0.092
 9164SOL    HW228392   2.238   0.411   0.067
 9165SOL     OW28393   5.030   2.464   6.022
 9165SOL    HW128394   5.018   2.556   6.060
 9165SOL    HW228395   5.006   2.396   6.091
 9166SOL     OW28396   4.224   5.813   1.088
 9166SOL    HW128397   4.271   5.757   1.020
 9166SOL    HW228398   4.290   5.846   1.155
 9167SOL     OW28399   1.041   1.776   6.835
 9167SOL    HW128400   1.040   1.809   6.929
 9167SOL    HW228401   1.013   1.850   6.773
 9168SOL     OW28402   6.527   5.153   5.954
 9168SOL    HW128403   6.476   5.067   5.953
 9168SOL    HW228404   6.571   5.165   6.044
 9169SOL     OW28405   0.129   6.556   6.286
 9169SOL    HW128406   0.088   6.467   6.302
 9169SOL    HW228407   0.115   6.582   6.190
 9170SOL     OW28408   1.748   1.788   6.133
 9170SOL    HW128409   1.737   1.882   6.101
 9170SOL    HW228410   1.818   1.742   6.078
 9171SOL     OW28411   2.741   5.420   1.126
 9171SOL    HW128412   2.771   5.480   1.052
 9171SOL    HW228413   2.822   5.382   1.173
 9172SOL     OW28414   4.894   1.304   4.961
 9172SOL    HW128415   4.844   1.241   4.902
 9172SOL    HW228416   4.969   1.256   5.005
 9173SOL     OW28417   0.029   3.024   3.991
 9173SOL    HW128418   0.081   2.980   4.064
 9173SOL    HW228419   0.073   3.111   3.967
 9174SOL     OW28420   0.785   5.842   6.937
 9174SOL    HW128421   0.700   5.890   6.918
 9174SOL    HW228422   0.833   5.887   7.013
 9175SOL     OW28423   1.686   6.203   0.605
 9175SOL    HW128424   1.614   6.263   0.639
 9175SOL    HW228425   1.645   6.121   0.564
 9176SOL     OW28426   2.089   0.588   2.606
 9176SOL    HW128427   2.082   0.684   2.582
 9176SOL    HW228428   2.138   0.538   2.535
 9177SOL     OW28429   1.362   2.980   3.524
 9177SOL    HW128430   1.276   3.004   3.479
 9177SOL    HW228431   1.399   3.060   3.570
 9178SOL     OW28432   2.244   6.211   6.543
 9178SOL    HW128433   2.280   6.223   6.450
 9178SOL    HW228434   2.146   6.193   6.538
 9179SOL     OW28435   3.648   5.919   5.039
 9179SOL    HW128436   3.688   5.946   4.951
 9179SOL    HW228437   3.676   5.985   5.109
 9180SOL     OW28438   6.205   2.035   4.324
 9180SOL    HW128439   6.286   2.056   4.378
 9180SOL    HW228440   6.231   1.981   4.243
 9181SOL     OW28441   4.841   2.395   3.691
 9181SOL    HW128442   4.814   2.317   3.749
 9181SOL    HW228443   4.760   2.437   3.652
 9182SOL     OW28444   2.192   0.936   2.754
 9182SOL    HW128445   2.253   1.012   2.735
 9182SOL    HW228446   2.236   0.871   2.816
 9183SOL     OW28447   4.878   3.121   6.855
 9183SOL    HW128448   4.913   3.169   6.936
 9183SOL    HW228449   4.902   3.172   6.773
 9184SOL     OW28450   3.134   2.336   1.242
 9184SOL    HW128451   3.167   2.321   1.335
 9184SOL    HW228452   3.115   2.248   1.199
 9185SOL     OW28453   6.850   6.806   6.173
 9185SOL    HW128454   6.791   6.784   6.095
 9185SOL    HW228455   6.888   6.898   6.162
 9186SOL     OW28456   4.646   0.612   5.906
 9186SOL    HW128457   4.702   0.554   5.965
 9186SOL    HW228458   4.550   0.606   5.934
 9187SOL     OW28459   4.753   2.179   6.651
 9187SOL    HW128460   4.691   2.256   6.666
 9187SOL    HW228461   4.832   2.187   6.712
 9188SOL     OW28462   1.559   0.488   1.344
 9188SOL    HW128463   1.471   0.528   1.317
 9188SOL    HW228464   1.625   0.500   1.270
 9189SOL     OW28465   3.176   1.097   3.308
 9189SOL    HW128466   3.205   1.023   3.369
 9189SOL    HW228467   3.167   1.182   3.360
 9190SOL     OW28468   6.008   3.697   5.471
 9190SOL    HW128469   6.024   3.599   5.481
 9190SOL    HW228470   5.955   3.713   5.388
 9191SOL     OW28471   5.141   6.394   0.135
 9191SOL    HW128472   5.103   6.463   0.074
 9191SOL    HW228473   5.126   6.421   0.230
 9192SOL     OW28474   6.431   3.978   5.627
 9192SOL    HW128475   6.379   4.044   5.682
 9192SOL    HW228476   6.368   3.925   5.570
 9193SOL     OW28477   3.173   2.984   4.217
 9193SOL    HW128478   3.262   2.984   4.262
 9193SOL    HW228479   3.108   3.036   4.271
 9194SOL     OW28480   3.603   6.189   2.133
 9194SOL    HW128481   3.694   6.156   2.111
 9194SOL    HW228482   3.544   6.184   2.052
 9195SOL     OW28483   0.771   2.936   3.501
 9195SOL    HW128484   0.820   2.993   3.436
 9195SOL    HW228485   0.723   2.994   3.568
 9196SOL     OW28486   3.978   0.123   4.211
 9196SOL    HW128487   3.952   0.089   4.301
 9196SOL    HW228488   3.897   0.132   4.153
 9197SOL     OW28489   2.819   3.371   0.502
 9197SOL    HW128490   2.785   3.398   0.593
 9197SOL    HW228491   2.742   3.366   0.439
 9198SOL     OW28492   5.609   4.429   6.271
 9198SOL    HW128493   5.709   4.434   6.277
 9198SOL    HW228494   5.569   4.480   6.347
 9199SOL     OW28495   0.641   3.748   6.153
 9199SOL    HW128496   0.693   3.821   6.110
 9199SOL    HW228497   0.593   3.695   6.084
 9200SOL     OW28498   0.513   6.147   0.776
 9200SOL    HW128499   0.418   6.168   0.755
 9200SOL    HW228500   0.525   6.047   0.780
 9201SOL     OW28501   0.336   4.405   1.726
 9201SOL    HW128502   0.343   4.394   1.825
 9201SOL    HW228503   0.420   4.372   1.683
 9202SOL     OW28504   2.264   5.214   4.820
 9202SOL    HW128505   2.199   5.145   4.852
 9202SOL    HW228506   2.306   5.258   4.899
 9203SOL     OW28507   5.269   1.562   6.412
 9203SOL    HW128508   5.306   1.624   6.343
 9203SOL    HW228509   5.334   1.487   6.427
 9204SOL     OW28510   5.977   4.008   3.349
 9204SOL    HW128511   5.895   4.007   3.405
 9204SOL    HW228512   6.016   3.916   3.344
 9205SOL     OW28513   5.223   3.520   2.652
 9205SOL    HW128514   5.145   3.580   2.668
 9205SOL    HW228515   5.205   3.430   2.691
 9206SOL     OW28516   2.760   6.555   4.541
 9206SOL    HW128517   2.755   6.455   4.547
 9206SOL    HW228518   2.668   6.593   4.532
 9207SOL     OW28519   3.513   6.341   6.267
 9207SOL    HW128520   3.530   6.295   6.180
 9207SOL    HW228521   3.599   6.378   6.303
 9208SOL     OW28522   4.931   3.542   2.459
 9208SOL    HW128523   4.849   3.485   2.456
 9208SOL    HW228524   4.946   3.587   2.371
 9209SOL     OW28525   3.953   0.878   2.314
 9209SOL    HW128526   3.896   0.806   2.275
 9209SOL    HW228527   3.906   0.921   2.391
 9210SOL     OW28528   2.186   6.753   1.662
 9210SOL    HW128529   2.224   6.660   1.660
 9210SOL    HW228530   2.250   6.816   1.618
 9211SOL     OW28531   5.840   1.688   6.209
 9211SOL    HW128532   5.876   1.597   6.224
 9211SOL    HW228533   5.758   1.702   6.265
 9212SOL     OW28534   4.641   4.558   4.828
 9212SOL    HW128535   4.550   4.596   4.839
 9212SOL    HW228536   4.665   4.504   4.909
 9213SOL     OW28537   5.523   0.064   4.494
 9213SOL    HW128538   5.449   0.118   4.453
 9213SOL    HW228539   5.610   0.112   4.483
 9214SOL     OW28540   1.415   2.147   5.204
 9214SOL    HW128541   1.462   2.206   5.138
 9214SOL    HW228542   1.316   2.161   5.198
 9215SOL     OW28543   6.853   4.295   2.256
 9215SOL    HW128544   6.783   4.349   2.208
 9215SOL    HW228545   6.820   4.203   2.271
 9216SOL     OW28546   2.914   6.178   4.321
 9216SOL    HW128547   3.005   6.168   4.362
 9216SOL    HW228548   2.848   6.200   4.393
 9217SOL     OW28549   5.164   1.062   6.464
 9217SOL    HW128550   5.163   1.133   6.393
 9217SOL    HW228551   5.137   0.975   6.424
 9218SOL     OW28552   4.778   0.004   6.267
 9218SOL    HW128553   4.729   0.077   6.315
 9218SOL    HW228554   4.745   7.026   6.173
 9219SOL     OW28555   3.855   3.119   5.091
 9219SOL    HW128556   3.803   3.203   5.073
 9219SOL    HW228557   3.953   3.136   5.078
 9220SOL     OW28558   2.510   6.320   2.888
 9220SOL    HW128559   2.482   6.229   2.918
 9220SOL    HW228560   2.591   6.313   2.830
 9221SOL     OW28561   2.178   0.574   5.853
 9221SOL    HW128562   2.262   0.583   5.800
 9221SOL    HW228563   2.187   0.623   5.940
 9222SOL     OW28564   2.645   4.586   4.038
 9222SOL    HW128565   2.716   4.564   3.971
 9222SOL    HW228566   2.578   4.648   3.997
 9223SOL     OW28567   1.008   3.581   4.239
 9223SOL    HW128568   0.976   3.489   4.218
 9223SOL    HW228569   0.959   3.647   4.182
 9224SOL     OW28570   0.891   3.762   3.749
 9224SOL    HW128571   0.902   3.666   3.775
 9224SOL    HW228572   0.853   3.769   3.657
 9225SOL     OW28573   3.729   6.833   5.791
 9225SOL    HW128574   3.763   6.740   5.797
 9225SOL    HW228575   3.680   6.856   5.875
 9226SOL     OW28576   0.896   0.346   1.444
 9226SOL    HW128577   0.972   0.281   1.446
 9226SOL    HW228578   0.818   0.304   1.398
 9227SOL     OW28579   1.639   5.746   0.968
 9227SOL    HW128580   1.653   5.840   0.999
 9227SOL    HW228581   1.623   5.687   1.047
 9228SOL     OW28582   2.047   2.609   5.877
 9228SOL    HW128583   2.100   2.628   5.960
 9228SOL    HW228584   2.110   2.591   5.802
 9229SOL     OW28585   1.013   4.824   6.795
 9229SOL    HW128586   1.106   4.828   6.831
 9229SOL    HW228587   0.997   4.903   6.735
 9230SOL     OW28588   4.809   2.421   4.621
 9230SOL    HW128589   4.759   2.502   4.653
 9230SOL    HW228590   4.887   2.405   4.681
 9231SOL     OW28591   0.418   5.037   5.382
 9231SOL    HW128592   0.420   5.115   5.319
 9231SOL    HW228593   0.506   4.990   5.380
 9232SOL     OW28594   1.981   5.201   1.623
 9232SOL    HW128595   1.962   5.105   1.642
 9232SOL    HW228596   2.078   5.213   1.603
 9233SOL     OW28597   0.660   6.333   0.598
 9233SOL    HW128598   0.654   6.285   0.686
 9233SOL    HW228599   0.597   6.291   0.533
 9234SOL     OW28600   2.538   5.348   1.322
 9234SOL    HW128601   2.625   5.383   1.288
 9234SOL    HW228602   2.530   5.251   1.300
 9235SOL     OW28603   2.299   2.734   3.097
 9235SOL    HW128604   2.227   2.773   3.040
 9235SOL    HW228605   2.362   2.680   3.040
 9236SOL     OW28606   2.133   3.868   0.378
 9236SOL    HW128607   2.226   3.834   0.365
 9236SOL    HW228608   2.077   3.844   0.299
 9237SOL     OW28609   6.863   5.935   2.818
 9237SOL    HW128610   6.855   5.904   2.723
 9237SOL    HW228611   6.772   5.957   2.853
 9238SOL     OW28612   2.023   3.117   5.470
 9238SOL    HW128613   2.099   3.071   5.424
 9238SOL    HW228614   2.059   3.187   5.532
 9239SOL     OW28615   6.790   4.492   6.986
 9239SOL    HW128616   6.807   4.457   6.894
 9239SOL    HW228617   6.694   4.517   6.994
 9240SOL     OW28618   5.093   3.650   3.031
 9240SOL    HW128619   5.013   3.602   2.997
 9240SOL    HW228620   5.176   3.605   2.998
 9241SOL     OW28621   0.049   5.813   6.997
 9241SOL    HW128622   0.048   5.763   0.054
 9241SOL    HW228623   0.142   5.841   6.975
 9242SOL     OW28624   1.689   2.190   2.261
 9242SOL    HW128625   1.749   2.256   2.215
 9242SOL    HW228626   1.602   2.184   2.212
 9243SOL     OW28627   0.947   6.717   1.671
 9243SOL    HW128628   1.022   6.776   1.639
 9243SOL    HW228629   0.985   6.644   1.728
 9244SOL     OW28630   3.115   6.632   5.624
 9244SOL    HW128631   3.054   6.569   5.671
 9244SOL    HW228632   3.065   6.714   5.595
 9245SOL     OW28633   0.976   4.034   3.685
 9245SOL    HW128634   0.954   4.131   3.679
 9245SOL    HW228635   0.951   3.989   3.600
 9246SOL     OW28636   6.036   0.255   4.393
 9246SOL    HW128637   6.067   0.166   4.428
 9246SOL    HW228638   6.115   0.311   4.370
 9247SOL     OW28639   3.564   5.472   2.833
 9247SOL    HW128640   3.559   5.454   2.735
 9247SOL    HW228641   3.473   5.493   2.868
 9248SOL     OW28642   2.836   0.908   5.036
 9248SOL    HW128643   2.817   0.914   4.937
 9248SOL    HW228644   2.751   0.926   5.086
 9249SOL     OW28645   3.684   4.670   1.548
 9249SOL    HW128646   3.646   4.610   1.478
 9249SOL    HW228647   3.668   4.630   1.638
 9250SOL     OW28648   6.317   4.461   3.487
 9250SOL    HW128649   6.361   4.376   3.515
 9250SOL    HW228650   6.219   4.456   3.509
 9251SOL     OW28651   3.705   2.748   1.515
 9251SOL    HW128652   3.708   2.834   1.566
 9251SOL    HW228653   3.691   2.672   1.578
 9252SOL     OW28654   4.201   0.598   5.344
 9252SOL    HW128655   4.255   0.514   5.355
 9252SOL    HW228656   4.138   0.588   5.268
 9253SOL     OW28657   6.082   4.950   5.852
 9253SOL    HW128658   6.018   4.878   5.878
 9253SOL    HW228659   6.173   4.911   5.838
 9254SOL     OW28660   5.511   4.527   2.444
 9254SOL    HW128661   5.516   4.611   2.390
 9254SOL    HW228662   5.417   4.513   2.474
 9255SOL     OW28663   6.133   3.687   6.722
 9255SOL    HW128664   6.084   3.706   6.807
 9255SOL    HW228665   6.069   3.656   6.652
 9256SOL     OW28666   2.032   0.320   1.869
 9256SOL    HW128667   2.071   0.406   1.835
 9256SOL    HW228668   2.075   0.297   1.956
 9257SOL     OW28669   6.128   5.477   3.386
 9257SOL    HW128670   6.172   5.387   3.396
 9257SOL    HW228671   6.198   5.547   3.374
 9258SOL     OW28672   3.537   3.627   0.434
 9258SOL    HW128673   3.598   3.604   0.359
 9258SOL    HW228674   3.586   3.683   0.502
 9259SOL     OW28675   1.975   1.648   6.999
 9259SOL    HW128676   2.035   1.678   6.925
 9259SOL    HW228677   2.029   1.606   0.043
 9260SOL     OW28678   6.561   2.852   5.811
 9260SOL    HW128679   6.576   2.945   5.848
 9260SOL    HW228680   6.610   2.842   5.725
 9261SOL     OW28681   4.455   1.564   0.264
 9261SOL    HW128682   4.385   1.522   0.323
 9261SOL    HW228683   4.467   1.509   0.182
 9262SOL     OW28684   0.356   6.640   4.731
 9262SOL    HW128685   0.450   6.628   4.762
 9262SOL    HW228686   0.302   6.560   4.755
 9263SOL     OW28687   3.116   5.455   2.821
 9263SOL    HW128688   3.209   5.457   2.857
 9263SOL    HW228689   3.051   5.449   2.897
 9264SOL     OW28690   5.345   3.725   6.639
 9264SOL    HW128691   5.343   3.712   6.738
 9264SOL    HW228692   5.415   3.792   6.615
 9265SOL     OW28693   3.794   2.286   6.659
 9265SOL    HW128694   3.825   2.225   6.732
 9265SOL    HW228695   3.780   2.233   6.575
 9266SOL     OW28696   0.556   5.239   1.350
 9266SOL    HW128697   0.472   5.225   1.298
 9266SOL    HW228698   0.535   5.235   1.448
 9267SOL     OW28699   0.503   1.548   4.199
 9267SOL    HW128700   0.585   1.577   4.149
 9267SOL    HW228701   0.455   1.629   4.232
 9268SOL     OW28702   0.761   6.519   2.018
 9268SOL    HW128703   0.689   6.576   1.979
 9268SOL    HW228704   0.747   6.423   1.991
 9269SOL     OW28705   4.701   0.656   6.572
 9269SOL    HW128706   4.780   0.596   6.556
 9269SOL    HW228707   4.622   0.601   6.597
 9270SOL     OW28708   3.429   1.410   5.656
 9270SOL    HW128709   3.482   1.368   5.583
 9270SOL    HW228710   3.354   1.463   5.616
 9271SOL     OW28711   0.840   6.994   0.525
 9271SOL    HW128712   0.787   7.017   0.443
 9271SOL    HW228713   0.784   7.008   0.606
 9272SOL     OW28714   0.778   6.932   5.900
 9272SOL    HW128715   0.823   6.858   5.951
 9272SOL    HW228716   0.717   6.982   5.961
 9273SOL     OW28717   5.156   5.950   4.074
 9273SOL    HW128718   5.179   5.863   4.031
 9273SOL    HW228719   5.114   6.011   4.006
 9274SOL     OW28720   0.236   3.405   0.419
 9274SOL    HW128721   0.190   3.401   0.330
 9274SOL    HW228722   0.264   3.499   0.437
 9275SOL     OW28723   0.955   6.655   1.283
 9275SOL    HW128724   0.891   6.618   1.216
 9275SOL    HW228725   0.959   6.755   1.274
 9276SOL     OW28726   3.039   4.717   6.923
 9276SOL    HW128727   3.101   4.682   6.994
 9276SOL    HW228728   3.089   4.779   6.863
 9277SOL     OW28729   3.972   4.788   2.616
 9277SOL    HW128730   3.946   4.752   2.527
 9277SOL    HW228731   3.898   4.844   2.653
 9278SOL     OW28732   0.340   0.110   4.829
 9278SOL    HW128733   0.381   0.043   4.892
 9278SOL    HW228734   0.320   0.066   4.741
 9279SOL     OW28735   3.588   6.109   1.857
 9279SOL    HW128736   3.544   6.041   1.916
 9279SOL    HW228737   3.683   6.082   1.840
 9280SOL     OW28738   2.283   1.815   2.404
 9280SOL    HW128739   2.255   1.873   2.480
 9280SOL    HW228740   2.369   1.770   2.426
 9281SOL     OW28741   3.420   3.665   6.091
 9281SOL    HW128742   3.392   3.648   5.997
 9281SOL    HW228743   3.345   3.707   6.141
 9282SOL     OW28744   4.168   0.694   4.888
 9282SOL    HW128745   4.118   0.632   4.828
 9282SOL    HW228746   4.136   0.788   4.874
 9283SOL     OW28747   5.819   0.142   6.312
 9283SOL    HW128748   5.729   0.102   6.294
 9283SOL    HW228749   5.870   0.149   6.227
 9284SOL     OW28750   3.235   3.795   5.409
 9284SOL    HW128751   3.139   3.805   5.384
 9284SOL    HW228752   3.259   3.698   5.411
 9285SOL     OW28753   5.210   3.148   1.841
 9285SOL    HW128754   5.257   3.091   1.774
 9285SOL    HW228755   5.116   3.163   1.811
 9286SOL     OW28756   5.158   6.153   0.495
 9286SOL    HW128757   5.146   6.139   0.397
 9286SOL    HW228758   5.070   6.173   0.537
 9287SOL     OW28759   2.154   4.125   5.667
 9287SOL    HW128760   2.135   4.211   5.715
 9287SOL    HW228761   2.159   4.050   5.732
 9288SOL     OW28762   4.423   2.450   3.414
 9288SOL    HW128763   4.358   2.466   3.340
 9288SOL    HW228764   4.454   2.355   3.412
 9289SOL     OW28765   4.376   0.436   6.099
 9289SOL    HW128766   4.390   0.468   6.005
 9289SOL    HW228767   4.348   0.340   6.098
 9290SOL     OW28768   5.495   0.836   4.341
 9290SOL    HW128769   5.558   0.890   4.398
 9290SOL    HW228770   5.536   0.822   4.251
 9291SOL     OW28771   1.271   6.511   5.611
 9291SOL    HW128772   1.341   6.559   5.557
 9291SOL    HW228773   1.274   6.543   5.705
 9292SOL     OW28774   1.673   1.194   6.435
 9292SOL    HW128775   1.577   1.212   6.414
 9292SOL    HW228776   1.698   1.240   6.521
 9293SOL     OW28777   4.805   2.813   6.329
 9293SOL    HW128778   4.744   2.743   6.292
 9293SOL    HW228779   4.854   2.857   6.253
 9294SOL     OW28780   4.979   1.193   0.790
 9294SOL    HW128781   5.046   1.256   0.753
 9294SOL    HW228782   4.896   1.195   0.734
 9295SOL     OW28783   0.736   0.455   4.881
 9295SOL    HW128784   0.662   0.428   4.943
 9295SOL    HW228785   0.758   0.378   4.821
 9296SOL     OW28786   2.494   3.796   1.099
 9296SOL    HW128787   2.491   3.896   1.111
 9296SOL    HW228788   2.404   3.763   1.071
 9297SOL     OW28789   0.514   5.681   2.955
 9297SOL    HW128790   0.563   5.736   3.024
 9297SOL    HW228791   0.447   5.623   3.001
 9298SOL     OW28792   1.131   6.840   5.806
 9298SOL    HW128793   1.191   6.778   5.856
 9298SOL    HW228794   1.085   6.901   5.870
 9299SOL     OW28795   2.056   1.201   4.156
 9299SOL    HW128796   2.147   1.232   4.182
 9299SOL    HW228797   1.998   1.281   4.137
 9300SOL     OW28798   0.879   6.221   5.049
 9300SOL    HW128799   0.883   6.222   4.949
 9300SOL    HW228800   0.948   6.159   5.085
 9301SOL     OW28801   7.014   4.619   4.433
 9301SOL    HW128802   6.955   4.614   4.353
 9301SOL    HW228803   0.056   4.548   4.427
 9302SOL     OW28804   1.893   2.911   4.844
 9302SOL    HW128805   1.824   2.850   4.882
 9302SOL    HW228806   1.938   2.866   4.766
 9303SOL     OW28807   3.320   4.387   6.910
 9303SOL    HW128808   3.412   4.357   6.885
 9303SOL    HW228809   3.253   4.322   6.876
 9304SOL     OW28810   4.655   4.939   0.751
 9304SOL    HW128811   4.626   4.896   0.836
 9304SOL    HW228812   4.575   4.971   0.701
 9305SOL     OW28813   3.185   1.510   0.608
 9305SOL    HW128814   3.124   1.559   0.670
 9305SOL    HW228815   3.256   1.572   0.575
 9306SOL     OW28816   6.787   4.018   4.410
 9306SOL    HW128817   6.872   4.040   4.361
 9306SOL    HW228818   6.714   4.000   4.345
 9307SOL     OW28819   1.919   4.025   0.737
 9307SOL    HW128820   1.892   4.121   0.727
 9307SOL    HW228821   1.843   3.966   0.711
 9308SOL     OW28822   1.440   4.854   1.738
 9308SOL    HW128823   1.528   4.886   1.700
 9308SOL    HW228824   1.367   4.915   1.707
 9309SOL     OW28825   5.404   6.609   6.239
 9309SOL    HW128826   5.447   6.563   6.317
 9309SOL    HW228827   5.306   6.587   6.238
 9310SOL     OW28828   4.784   5.541   5.606
 9310SOL    HW128829   4.750   5.451   5.580
 9310SOL    HW228830   4.732   5.576   5.684
 9311SOL     OW28831   4.633   3.627   1.475
 9311SOL    HW128832   4.671   3.666   1.559
 9311SOL    HW228833   4.570   3.553   1.499
 9312SOL     OW28834   1.472   2.406   0.918
 9312SOL    HW128835   1.449   2.337   0.986
 9312SOL    HW228836   1.572   2.420   0.917
 9313SOL     OW28837   1.502   0.832   1.812
 9313SOL    HW128838   1.410   0.862   1.786
 9313SOL    HW228839   1.497   0.739   1.849
 9314SOL     OW28840   5.273   3.164   0.743
 9314SOL    HW128841   5.296   3.066   0.743
 9314SOL    HW228842   5.215   3.184   0.822
 9315SOL     OW28843   5.687   1.016   6.449
 9315SOL    HW128844   5.588   1.006   6.454
 9315SOL    HW228845   5.732   0.934   6.485
 9316SOL     OW28846   5.765   0.036   5.152
 9316SOL    HW128847   5.738   6.971   5.131
 9316SOL    HW228848   5.864   0.041   5.161
 9317SOL     OW28849   3.363   5.347   3.239
 9317SOL    HW128850   3.314   5.280   3.296
 9317SOL    HW228851   3.461   5.340   3.257
 9318SOL     OW28852   5.348   5.821   0.178
 9318SOL    HW128853   5.413   5.896   0.191
 9318SOL    HW228854   5.299   5.832   0.092
 9319SOL     OW28855   2.710   3.680   1.004
 9319SOL    HW128856   2.630   3.737   1.023
 9319SOL    HW228857   2.722   3.614   1.079
 9320SOL     OW28858   5.210   0.352   5.809
 9320SOL    HW128859   5.117   0.360   5.775
 9320SOL    HW228860   5.214   0.385   5.904
 9321SOL     OW28861   0.899   2.187   5.344
 9321SOL    HW128862   0.829   2.165   5.412
 9321SOL    HW228863   0.878   2.140   5.258
 9322SOL     OW28864   6.308   4.523   6.148
 9322SOL    HW128865   6.408   4.527   6.147
 9322SOL    HW228866   6.271   4.615   6.160
 9323SOL     OW28867   2.076   2.722   4.016
 9323SOL    HW128868   2.151   2.717   3.950
 9323SOL    HW228869   2.110   2.759   4.103
 9324SOL     OW28870   1.496   4.021   0.643
 9324SOL    HW128871   1.563   4.023   0.569
 9324SOL    HW228872   1.430   4.095   0.629
 9325SOL     OW28873   2.192   6.217   1.638
 9325SOL    HW128874   2.166   6.126   1.608
 9325SOL    HW228875   2.171   6.227   1.736
 9326SOL     OW28876   3.506   4.990   0.620
 9326SOL    HW128877   3.531   5.075   0.572
 9326SOL    HW228878   3.555   4.913   0.580
 9327SOL     OW28879   4.372   0.284   2.873
 9327SOL    HW128880   4.323   0.293   2.787
 9327SOL    HW228881   4.453   0.343   2.871
 9328SOL     OW28882   2.651   6.835   5.115
 9328SOL    HW128883   2.668   6.913   5.054
 9328SOL    HW228884   2.608   6.868   5.199
 9329SOL     OW28885   0.256   5.928   6.764
 9329SOL    HW128886   0.189   5.996   6.791
 9329SOL    HW228887   0.301   5.891   6.845
 9330SOL     OW28888   0.416   6.933   6.691
 9330SOL    HW128889   0.502   6.947   6.642
 9330SOL    HW228890   0.340   6.938   6.626
 9331SOL     OW28891   1.675   2.735   4.915
 9331SOL    HW128892   1.664   2.783   5.002
 9331SOL    HW228893   1.631   2.646   4.920
 9332SOL     OW28894   4.163   5.870   0.249
 9332SOL    HW128895   4.123   5.940   0.308
 9332SOL    HW228896   4.261   5.884   0.242
 9333SOL     OW28897   3.411   5.568   0.746
 9333SOL    HW128898   3.453   5.616   0.668
 9333SOL    HW228899   3.459   5.482   0.760
 9334SOL     OW28900   4.904   0.146   4.183
 9334SOL    HW128901   4.811   0.184   4.186
 9334SOL    HW228902   4.921   0.091   4.264
 9335SOL     OW28903   1.829   2.470   0.586
 9335SOL    HW128904   1.896   2.434   0.651
 9335SOL    HW228905   1.744   2.492   0.633
 9336SOL     OW28906   5.781   0.138   4.430
 9336SOL    HW128907   5.868   0.186   4.429
 9336SOL    HW228908   5.778   0.073   4.353
 9337SOL     OW28909   4.730   0.014   6.770
 9337SOL    HW128910   4.737   0.022   6.869
 9337SOL    HW228911   4.641   7.004   6.746
 9338SOL     OW28912   0.362   6.141   0.021
 9338SOL    HW128913   0.409   6.196   0.090
 9338SOL    HW228914   0.357   6.192   6.964
 9339SOL     OW28915   5.455   5.364   6.957
 9339SOL    HW128916   5.404   5.351   6.872
 9339SOL    HW228917   5.403   5.425   7.017
 9340SOL     OW28918   3.767   5.540   2.605
 9340SOL    HW128919   3.680   5.512   2.563
 9340SOL    HW228920   3.828   5.460   2.612
 9341SOL     OW28921   6.507   4.868   6.429
 9341SOL    HW128922   6.457   4.955   6.421
 9341SOL    HW228923   6.495   4.815   6.345
 9342SOL     OW28924   3.180   0.229   4.595
 9342SOL    HW128925   3.126   0.227   4.679
 9342SOL    HW228926   3.180   0.321   4.557
 9343SOL     OW28927   4.736   3.756   1.720
 9343SOL    HW128928   4.830   3.784   1.737
 9343SOL    HW228929   4.675   3.833   1.735
 9344SOL     OW28930   5.696   5.211   6.518
 9344SOL    HW128931   5.730   5.127   6.476
 9344SOL    HW228932   5.766   5.249   6.579
 9345SOL     OW28933   6.691   6.058   6.922
 9345SOL    HW128934   6.626   6.052   6.847
 9345SOL    HW228935   6.730   6.150   6.925
 9346SOL     OW28936   5.145   6.179   2.404
 9346SOL    HW128937   5.104   6.254   2.455
 9346SOL    HW228938   5.081   6.102   2.400
 9347SOL     OW28939   3.325   5.495   1.145
 9347SOL    HW128940   3.363   5.404   1.125
 9347SOL    HW228941   3.359   5.526   1.234
 9348SOL     OW28942   2.919   5.716   3.321
 9348SOL    HW128943   2.931   5.809   3.285
 9348SOL    HW228944   2.869   5.661   3.255
 9349SOL     OW28945   6.966   5.596   1.925
 9349SOL    HW128946   6.963   5.690   1.960
 9349SOL    HW228947   0.031   5.574   1.898
 9350SOL     OW28948   6.926   1.191   4.187
 9350SOL    HW128949   6.951   1.138   4.268
 9350SOL    HW228950   6.924   1.288   4.212
 9351SOL     OW28951   1.866   1.361   5.719
 9351SOL    HW128952   1.806   1.387   5.795
 9351SOL    HW228953   1.863   1.262   5.706
 9352SOL     OW28954   1.144   2.796   5.569
 9352SOL    HW128955   1.104   2.887   5.579
 9352SOL    HW228956   1.243   2.801   5.587
 9353SOL     OW28957   1.350   4.202   1.923
 9353SOL    HW128958   1.314   4.130   1.863
 9353SOL    HW228959   1.409   4.161   1.992
 9354SOL     OW28960   6.512   1.922   1.077
 9354SOL    HW128961   6.609   1.943   1.061
 9354SOL    HW228962   6.470   1.998   1.127
 9355SOL     OW28963   6.166   1.401   4.011
 9355SOL    HW128964   6.194   1.343   4.087
 9355SOL    HW228965   6.077   1.371   3.977
 9356SOL     OW28966   4.776   5.052   1.906
 9356SOL    HW128967   4.683   5.088   1.920
 9356SOL    HW228968   4.783   4.962   1.949
 9357SOL     OW28969   2.514   4.245   0.543
 9357SOL    HW128970   2.460   4.229   0.460
 9357SOL    HW228971   2.601   4.288   0.519
 9358SOL     OW28972   5.626   3.625   1.973
 9358SOL    HW128973   5.726   3.627   1.971
 9358SOL    HW228974   5.594   3.531   1.962
 9359SOL     OW28975   0.083   3.755   5.688
 9359SOL    HW128976   0.083   3.796   5.780
 9359SOL    HW228977   0.155   3.799   5.633
 9360SOL     OW28978   1.951   6.838   6.013
 9360SOL    HW128979   1.992   6.893   5.940
 9360SOL    HW228980   1.893   6.768   5.972
 9361SOL     OW28981   3.155   6.871   3.338
 9361SOL    HW128982   3.145   6.964   3.375
 9361SOL    HW228983   3.147   6.874   3.239
 9362SOL     OW28984   1.409   1.244   1.791
 9362SOL    HW128985   1.373   1.152   1.797
 9362SOL    HW228986   1.336   1.310   1.810
 9363SOL     OW28987   3.823   6.012   1.785
 9363SOL    HW128988   3.894   6.006   1.715
 9363SOL    HW228989   3.799   5.921   1.818
 9364SOL     OW28990   3.492   3.185   6.167
 9364SOL    HW128991   3.580   3.230   6.155
 9364SOL    HW228992   3.488   3.143   6.258
 9365SOL     OW28993   2.492   2.361   4.462
 9365SOL    HW128994   2.558   2.384   4.533
 9365SOL    HW228995   2.401   2.353   4.502
 9366SOL     OW28996   3.159   2.018   6.783
 9366SOL    HW128997   3.146   2.057   6.874
 9366SOL    HW228998   3.072   2.016   6.734
 9367SOL     OW28999   6.744   6.000   3.526
 9367SOL    HW129000   6.823   5.999   3.465
 9367SOL    HW229001   6.680   5.928   3.500
 9368SOL     OW29002   3.486   1.808   2.820
 9368SOL    HW129003   3.517   1.776   2.730
 9368SOL    HW229004   3.565   1.840   2.872
 9369SOL     OW29005   6.951   0.909   6.174
 9369SOL    HW129006   6.927   0.902   6.077
 9369SOL    HW229007   6.961   1.006   6.198
 9370SOL     OW29008   5.559   0.415   2.358
 9370SOL    HW129009   5.489   0.394   2.289
 9370SOL    HW229010   5.598   0.505   2.340
 9371SOL     OW29011   2.209   5.397   0.127
 9371SOL    HW129012   2.197   5.322   0.063
 9371SOL    HW229013   2.170   5.372   0.216
 9372SOL     OW29014   6.029   6.029   2.755
 9372SOL    HW129015   6.052   6.102   2.819
 9372SOL    HW229016   6.022   5.942   2.805
 9373SOL     OW29017   4.466   2.039   3.018
 9373SOL    HW129018   4.517   1.959   2.988
 9373SOL    HW229019   4.371   2.013   3.036
 9374SOL     OW29020   6.064   3.112   6.902
 9374SOL    HW129021   5.971   3.131   6.872
 9374SOL    HW229022   6.104   3.041   6.844
 9375SOL     OW29023   6.684   1.492   3.357
 9375SOL    HW129024   6.650   1.421   3.418
 9375SOL    HW229025   6.673   1.581   3.401
 9376SOL     OW29026   2.966   3.807   1.110
 9376SOL    HW129027   3.040   3.820   1.044
 9376SOL    HW229028   2.878   3.807   1.062
 9377SOL     OW29029   1.174   5.449   3.888
 9377SOL    HW129030   1.090   5.448   3.833
 9377SOL    HW229031   1.157   5.400   3.974
 9378SOL     OW29032   1.282   0.442   5.394
 9378SOL    HW129033   1.234   0.525   5.421
 9378SOL    HW229034   1.216   0.367   5.384
 9379SOL     OW29035   4.851   4.955   5.252
 9379SOL    HW129036   4.941   4.950   5.295
 9379SOL    HW229037   4.789   5.007   5.311
 9380SOL     OW29038   5.966   5.130   4.605
 9380SOL    HW129039   6.015   5.070   4.668
 9380SOL    HW229040   5.879   5.088   4.581
 9381SOL     OW29041   2.498   2.918   5.713
 9381SOL    HW129042   2.556   2.944   5.790
 9381SOL    HW229043   2.439   2.995   5.688
 9382SOL     OW29044   3.554   1.307   2.655
 9382SOL    HW129045   3.586   1.224   2.699
 9382SOL    HW229046   3.629   1.373   2.649
 9383SOL     OW29047   3.122   6.202   4.907
 9383SOL    HW129048   3.051   6.161   4.963
 9383SOL    HW229049   3.209   6.156   4.923
 9384SOL     OW29050   4.123   6.679   1.300
 9384SOL    HW129051   4.139   6.695   1.203
 9384SOL    HW229052   4.026   6.691   1.320
 9385SOL     OW29053   4.238   1.600   2.287
 9385SOL    HW129054   4.297   1.626   2.210
 9385SOL    HW229055   4.168   1.536   2.254
 9386SOL     OW29056   2.385   6.318   4.828
 9386SOL    HW129057   2.434   6.279   4.906
 9386SOL    HW229058   2.382   6.252   4.754
 9387SOL     OW29059   4.382   0.138   7.017
 9387SOL    HW129060   4.401   0.135   6.919
 9387SOL    HW229061   4.359   0.046   0.020
 9388SOL     OW29062   1.999   5.900   2.683
 9388SOL    HW129063   2.074   5.964   2.698
 9388SOL    HW229064   1.948   5.886   2.768
 9389SOL     OW29065   2.114   0.394   5.669
 9389SOL    HW129066   2.140   0.454   5.744
 9389SOL    HW229067   2.078   0.308   5.706
 9390SOL     OW29068   4.227   6.166   4.538
 9390SOL    HW129069   4.266   6.246   4.582
 9390SOL    HW229070   4.280   6.085   4.563
 9391SOL     OW29071   2.091   1.139   5.716
 9391SOL    HW129072   2.143   1.054   5.705
 9391SOL    HW229073   2.005   1.133   5.666
 9392SOL     OW29074   0.025   0.064   4.802
 9392SOL    HW129075   0.104   0.123   4.815
 9392SOL    HW229076   0.056   6.999   4.787
 9393SOL     OW29077   3.380   0.923   5.132
 9393SOL    HW129078   3.470   0.959   5.157
 9393SOL    HW229079   3.315   0.998   5.123
 9394SOL     OW29080   6.171   1.417   2.671
 9394SOL    HW129081   6.073   1.437   2.675
 9394SOL    HW229082   6.189   1.354   2.596
 9395SOL     OW29083   2.611   2.794   0.299
 9395SOL    HW129084   2.547   2.719   0.309
 9395SOL    HW229085   2.692   2.762   0.249
 9396SOL     OW29086   0.373   5.818   3.975
 9396SOL    HW129087   0.360   5.783   4.068
 9396SOL    HW229088   0.413   5.909   3.978
 9397SOL     OW29089   2.990   0.217   6.971
 9397SOL    HW129090   3.007   0.261   0.030
 9397SOL    HW229091   2.909   0.159   6.978
 9398SOL     OW29092   1.743   0.395   5.634
 9398SOL    HW129093   1.808   0.352   5.571
 9398SOL    HW229094   1.792   0.425   5.716
 9399SOL     OW29095   0.537   1.089   6.993
 9399SOL    HW129096   0.539   1.104   6.894
 9399SOL    HW229097   0.586   1.005   7.015
 9400SOL     OW29098   5.311   3.037   1.398
 9400SOL    HW129099   5.230   3.096   1.400
 9400SOL    HW229100   5.303   2.971   1.323
 9401SOL     OW29101   3.880   6.437   3.130
 9401SOL    HW129102   3.784   6.426   3.155
 9401SOL    HW229103   3.937   6.385   3.193
 9402SOL     OW29104   1.271   5.316   4.463
 9402SOL    HW129105   1.295   5.258   4.541
 9402SOL    HW229106   1.173   5.307   4.445
 9403SOL     OW29107   5.305   1.614   2.845
 9403SOL    HW129108   5.252   1.639   2.763
 9403SOL    HW229109   5.395   1.581   2.817
 9404SOL     OW29110   0.890   3.878   6.052
 9404SOL    HW129111   0.953   3.804   6.077
 9404SOL    HW229112   0.913   3.960   6.104
 9405SOL     OW29113   0.071   6.842   2.538
 9405SOL    HW129114   0.056   6.754   2.493
 9405SOL    HW229115   0.126   6.901   2.479
 9406SOL     OW29116   6.980   2.503   6.082
 9406SOL    HW129117   6.947   2.591   6.047
 9406SOL    HW229118   0.012   2.518   6.160
 9407SOL     OW29119   2.719   5.432   3.313
 9407SOL    HW129120   2.643   5.402   3.371
 9407SOL    HW229121   2.783   5.356   3.300
 9408SOL     OW29122   3.731   2.030   6.525
 9408SOL    HW129123   3.735   1.952   6.462
 9408SOL    HW229124   3.727   1.996   6.619
 9409SOL     OW29125   6.009   4.701   6.184
 9409SOL    HW129126   5.972   4.692   6.091
 9409SOL    HW229127   5.935   4.724   6.247
 9410SOL     OW29128   4.177   5.858   1.903
 9410SOL    HW129129   4.143   5.835   1.994
 9410SOL    HW229130   4.142   5.791   1.836
 9411SOL     OW29131   3.912   3.925   1.130
 9411SOL    HW129132   3.834   3.974   1.168
 9411SOL    HW229133   3.882   3.835   1.098
 9412SOL     OW29134   0.010   3.529   1.874
 9412SOL    HW129135   6.959   3.588   1.888
 9412SOL    HW229136   7.023   3.469   1.795
 9413SOL     OW29137   4.238   6.097   4.878
 9413SOL    HW129138   4.184   6.091   4.962
 9413SOL    HW229139   4.266   6.005   4.850
 9414SOL     OW29140   3.428   1.096   3.874
 9414SOL    HW129141   3.416   0.997   3.870
 9414SOL    HW229142   3.513   1.116   3.922
 9415SOL     OW29143   2.712   6.909   2.688
 9415SOL    HW129144   2.627   6.857   2.702
 9415SOL    HW229145   2.780   6.850   2.645
 9416SOL     OW29146   0.602   1.495   1.443
 9416SOL    HW129147   0.608   1.526   1.538
 9416SOL    HW229148   0.625   1.398   1.438
 9417SOL     OW29149   3.881   0.323   5.675
 9417SOL    HW129150   3.810   0.283   5.619
 9417SOL    HW229151   3.969   0.280   5.655
 9418SOL     OW29152   3.249   6.529   0.867
 9418SOL    HW129153   3.346   6.507   0.852
 9418SOL    HW229154   3.238   6.628   0.875
 9419SOL     OW29155   3.198   5.427   5.756
 9419SOL    HW129156   3.110   5.421   5.709
 9419SOL    HW229157   3.187   5.401   5.852
 9420SOL     OW29158   6.762   2.119   4.524
 9420SOL    HW129159   6.730   2.212   4.539
 9420SOL    HW229160   6.861   2.119   4.512
 9421SOL     OW29161   2.524   6.362   5.088
 9421SOL    HW129162   2.476   6.322   5.166
 9421SOL    HW229163   2.516   6.462   5.092
 9422SOL     OW29164   4.526   6.280   2.804
 9422SOL    HW129165   4.441   6.323   2.775
 9422SOL    HW229166   4.546   6.306   2.899
 9423SOL     OW29167   4.002   0.763   3.442
 9423SOL    HW129168   4.095   0.730   3.458
 9423SOL    HW229169   3.941   0.725   3.512
 9424SOL     OW29170   4.702   0.745   5.170
 9424SOL    HW129171   4.750   0.685   5.233
 9424SOL    HW229172   4.768   0.792   5.111
 9425SOL     OW29173   0.240   4.053   6.131
 9425SOL    HW129174   0.144   4.027   6.135
 9425SOL    HW229175   0.271   4.081   6.222
 9426SOL     OW29176   3.111   2.162   7.016
 9426SOL    HW129177   3.034   2.204   0.035
 9426SOL    HW229178   3.193   2.171   0.044
 9427SOL     OW29179   3.379   5.229   4.653
 9427SOL    HW129180   3.284   5.201   4.647
 9427SOL    HW229181   3.435   5.151   4.683
 9428SOL     OW29182   5.276   0.982   1.113
 9428SOL    HW129183   5.308   1.069   1.075
 9428SOL    HW229184   5.250   0.995   1.208
 9429SOL     OW29185   1.755   4.876   2.331
 9429SOL    HW129186   1.838   4.878   2.388
 9429SOL    HW229187   1.702   4.959   2.347
 9430SOL     OW29188   0.630   5.417   1.799
 9430SOL    HW129189   0.659   5.509   1.773
 9430SOL    HW229190   0.679   5.388   1.881
 9431SOL     OW29191   5.759   4.613   1.140
 9431SOL    HW129192   5.679   4.663   1.108
 9431SOL    HW229193   5.743   4.582   1.234
 9432SOL     OW29194   5.805   0.619   2.984
 9432SOL    HW129195   5.809   0.575   3.074
 9432SOL    HW229196   5.823   0.552   2.913
 9433SOL     OW29197   3.295   5.187   3.457
 9433SOL    HW129198   3.237   5.106   3.470
 9433SOL    HW229199   3.319   5.225   3.547
 9434SOL     OW29200   5.544   4.746   2.915
 9434SOL    HW129201   5.627   4.755   2.969
 9434SOL    HW229202   5.566   4.712   2.823
 9435SOL     OW29203   0.967   1.627   4.037
 9435SOL    HW129204   0.990   1.660   4.128
 9435SOL    HW229205   0.868   1.622   4.027
 9436SOL     OW29206   1.062   4.051   2.561
 9436SOL    HW129207   1.070   4.132   2.619
 9436SOL    HW229208   1.136   3.987   2.582
 9437SOL     OW29209   1.576   6.236   3.856
 9437SOL    HW129210   1.590   6.164   3.924
 9437SOL    HW229211   1.554   6.322   3.902
 9438SOL     OW29212   1.306   6.930   1.262
 9438SOL    HW129213   1.223   6.983   1.278
 9438SOL    HW229214   1.284   6.832   1.262
 9439SOL     OW29215   6.915   2.984   2.364
 9439SOL    HW129216   6.992   2.938   2.408
 9439SOL    HW229217   6.897   2.941   2.275
 9440SOL     OW29218   4.311   6.206   4.254
 9440SOL    HW129219   4.303   6.245   4.346
 9440SOL    HW229220   4.234   6.237   4.198
 9441SOL     OW29221   1.502   3.941   4.958
 9441SOL    HW129222   1.421   3.886   4.979
 9441SOL    HW229223   1.574   3.882   4.921
 9442SOL     OW29224   5.426   3.478   0.353
 9442SOL    HW129225   5.428   3.425   0.269
 9442SOL    HW229226   5.389   3.422   0.427
 9443SOL     OW29227   2.755   5.560   1.552
 9443SOL    HW129228   2.711   5.490   1.609
 9443SOL    HW229229   2.807   5.622   1.611
 9444SOL     OW29230   1.292   3.746   6.407
 9444SOL    HW129231   1.300   3.656   6.364
 9444SOL    HW229232   1.383   3.785   6.419
 9445SOL     OW29233   5.505   3.389   2.680
 9445SOL    HW129234   5.444   3.456   2.640
 9445SOL    HW229235   5.591   3.387   2.628
 9446SOL     OW29236   6.379   6.616   4.327
 9446SOL    HW129237   6.352   6.666   4.244
 9446SOL    HW229238   6.390   6.519   4.306
 9447SOL     OW29239   6.051   3.066   3.222
 9447SOL    HW129240   6.003   3.122   3.289
 9447SOL    HW229241   6.086   2.984   3.267
 9448SOL     OW29242   6.503   6.521   5.838
 9448SOL    HW129243   6.416   6.563   5.811
 9448SOL    HW229244   6.518   6.537   5.936
 9449SOL     OW29245   0.379   5.903   6.495
 9449SOL    HW129246   0.305   5.903   6.562
 9449SOL    HW229247   0.464   5.933   6.539
 9450SOL     OW29248   3.459   4.949   4.397
 9450SOL    HW129249   3.376   4.910   4.436
 9450SOL    HW229250   3.529   4.955   4.467
 9451SOL     OW29251   3.952   6.148   6.180
 9451SOL    HW129252   3.947   6.212   6.104
 9451SOL    HW229253   3.860   6.134   6.218
 9452SOL     OW29254   0.733   3.733   0.827
 9452SOL    HW129255   0.783   3.661   0.876
 9452SOL    HW229256   0.795   3.808   0.806
 9453SOL     OW29257   1.876   5.005   3.234
 9453SOL    HW129258   1.845   5.070   3.164
 9453SOL    HW229259   1.879   4.913   3.196
 9454SOL     OW29260   1.655   3.586   5.687
 9454SOL    HW129261   1.612   3.669   5.652
 9454SOL    HW229262   1.741   3.570   5.638
 9455SOL     OW29263   3.733   1.540   2.658
 9455SOL    HW129264   3.688   1.620   2.619
 9455SOL    HW229265   3.686   1.513   2.742
 9456SOL     OW29266   1.045   3.507   6.679
 9456SOL    HW129267   0.996   3.443   6.739
 9456SOL    HW229268   0.999   3.509   6.590
 9457SOL     OW29269   1.895   3.809   5.933
 9457SOL    HW129270   1.905   3.823   5.834
 9457SOL    HW229271   1.803   3.777   5.953
 9458SOL     OW29272   0.877   3.338   5.997
 9458SOL    HW129273   0.792   3.286   5.989
 9458SOL    HW229274   0.865   3.411   6.065
 9459SOL     OW29275   5.500   4.430   2.156
 9459SOL    HW129276   5.567   4.357   2.161
 9459SOL    HW229277   5.488   4.471   2.247
 9460SOL     OW29278   0.071   1.520   4.719
 9460SOL    HW129279   7.021   1.462   4.740
 9460SOL    HW229280   0.139   1.467   4.669
 9461SOL     OW29281   6.064   1.361   3.167
 9461SOL    HW129282   6.124   1.360   3.088
 9461SOL    HW229283   6.077   1.446   3.218
 9462SOL     OW29284   2.081   3.466   3.603
 9462SOL    HW129285   2.029   3.385   3.630
 9462SOL    HW229286   2.100   3.522   3.683
 9463SOL     OW29287   7.002   0.805   1.307
 9463SOL    HW129288   0.067   0.805   1.341
 9463SOL    HW229289   6.943   0.854   1.372
 9464SOL     OW29290   5.684   6.282   0.423
 9464SOL    HW129291   5.750   6.301   0.496
 9464SOL    HW229292   5.668   6.183   0.418
 9465SOL     OW29293   0.469   6.425   3.479
 9465SOL    HW129294   0.530   6.347   3.488
 9465SOL    HW229295   0.378   6.394   3.454
 9466SOL     OW29296   3.781   4.266   5.201
 9466SOL    HW129297   3.841   4.342   5.228
 9466SOL    HW229298   3.837   4.185   5.182
 9467SOL     OW29299   1.065   2.716   2.105
 9467SOL    HW129300   1.135   2.724   2.176
 9467SOL    HW229301   1.109   2.706   2.016
 9468SOL     OW29302   5.805   2.557   6.057
 9468SOL    HW129303   5.728   2.597   6.007
 9468SOL    HW229304   5.882   2.620   6.056
 9469SOL     OW29305   5.915   5.840   1.049
 9469SOL    HW129306   5.845   5.816   0.982
 9469SOL    HW229307   5.997   5.786   1.032
 9470SOL     OW29308   4.841   3.694   5.580
 9470SOL    HW129309   4.891   3.682   5.666
 9470SOL    HW229310   4.779   3.772   5.588
 9471SOL     OW29311   6.302   1.850   4.780
 9471SOL    HW129312   6.240   1.816   4.852
 9471SOL    HW229313   6.396   1.826   4.803
 9472SOL     OW29314   6.066   3.080   4.329
 9472SOL    HW129315   6.084   3.049   4.422
 9472SOL    HW229316   6.116   3.165   4.312
 9473SOL     OW29317   2.844   5.101   6.198
 9473SOL    HW129318   2.766   5.072   6.141
 9473SOL    HW229319   2.851   5.200   6.197
 9474SOL     OW29320   6.436   3.075   0.091
 9474SOL    HW129321   6.505   3.124   0.037
 9474SOL    HW229322   6.394   3.138   0.155
 9475SOL     OW29323   3.002   3.693   0.390
 9475SOL    HW129324   2.931   3.740   0.444
 9475SOL    HW229325   3.083   3.680   0.447
 9476SOL     OW29326   3.038   3.513   4.960
 9476SOL    HW129327   3.081   3.471   4.881
 9476SOL    HW229328   2.999   3.442   5.019
 9477SOL     OW29329   0.162   3.231   2.515
 9477SOL    HW129330   0.063   3.223   2.507
 9477SOL    HW229331   0.206   3.175   2.446
 9478SOL     OW29332   4.541   3.527   6.189
 9478SOL    HW129333   4.635   3.516   6.158
 9478SOL    HW229334   4.505   3.615   6.157
 9479SOL     OW29335   5.543   6.506   6.671
 9479SOL    HW129336   5.609   6.497   6.745
 9479SOL    HW229337   5.501   6.597   6.675
 9480SOL     OW29338   4.933   4.330   0.189
 9480SOL    HW129339   4.915   4.338   0.091
 9480SOL    HW229340   4.846   4.323   0.238
 9481SOL     OW29341   5.739   3.194   1.192
 9481SOL    HW129342   5.754   3.102   1.229
 9481SOL    HW229343   5.655   3.232   1.229
 9482SOL     OW29344   6.125   0.895   3.011
 9482SOL    HW129345   6.184   0.816   3.028
 9482SOL    HW229346   6.145   0.966   3.078
 9483SOL     OW29347   1.468   1.951   0.686
 9483SOL    HW129348   1.389   2.003   0.656
 9483SOL    HW229349   1.466   1.941   0.785
 9484SOL     OW29350   4.444   1.509   3.028
 9484SOL    HW129351   4.458   1.478   3.122
 9484SOL    HW229352   4.528   1.549   2.993
 9485SOL     OW29353   0.685   0.175   2.424
 9485SOL    HW129354   0.766   0.134   2.383
 9485SOL    HW229355   0.700   0.273   2.436
 9486SOL     OW29356   2.387   4.723   1.428
 9486SOL    HW129357   2.397   4.758   1.522
 9486SOL    HW229358   2.352   4.795   1.369
 9487SOL     OW29359   3.048   3.661   2.681
 9487SOL    HW129360   3.040   3.564   2.704
 9487SOL    HW229361   3.003   3.679   2.593
 9488SOL     OW29362   2.819   6.470   0.892
 9488SOL    HW129363   2.895   6.451   0.830
 9488SOL    HW229364   2.819   6.403   0.966
 9489SOL     OW29365   4.020   4.052   1.385
 9489SOL    HW129366   4.054   4.017   1.298
 9489SOL    HW229367   3.948   3.991   1.420
 9490SOL     OW29368   6.733   6.352   0.635
 9490SOL    HW129369   6.766   6.267   0.674
 9490SOL    HW229370   6.680   6.403   0.703
 9491SOL     OW29371   6.963   4.263   3.588
 9491SOL    HW129372   6.938   4.181   3.536
 9491SOL    HW229373   6.989   4.336   3.524
 9492SOL     OW29374   3.436   3.463   2.711
 9492SOL    HW129375   3.514   3.421   2.664
 9492SOL    HW229376   3.428   3.424   2.803
 9493SOL     OW29377   4.013   5.134   3.844
 9493SOL    HW129378   4.042   5.187   3.764
 9493SOL    HW229379   3.951   5.061   3.814
 9494SOL     OW29380   4.651   4.285   1.649
 9494SOL    HW129381   4.589   4.250   1.720
 9494SOL    HW229382   4.733   4.229   1.647
 9495SOL     OW29383   5.582   1.783   4.685
 9495SOL    HW129384   5.550   1.739   4.600
 9495SOL    HW229385   5.551   1.878   4.687
 9496SOL     OW29386   4.993   5.152   0.388
 9496SOL    HW129387   4.916   5.118   0.442
 9496SOL    HW229388   4.988   5.251   0.382
 9497SOL     OW29389   5.524   4.749   0.543
 9497SOL    HW129390   5.597   4.681   0.538
 9497SOL    HW229391   5.556   4.836   0.505
 9498SOL     OW29392   5.440   0.886   6.009
 9498SOL    HW129393   5.484   0.962   6.057
 9498SOL    HW229394   5.371   0.844   6.069
 9499SOL     OW29395   2.202   3.965   5.869
 9499SOL    HW129396   2.226   3.964   5.966
 9499SOL    HW229397   2.174   3.873   5.841
 9500SOL     OW29398   3.786   0.099   1.494
 9500SOL    HW129399   3.810   0.140   1.582
 9500SOL    HW229400   3.718   0.156   1.448
 9501SOL     OW29401   2.848   1.185   4.832
 9501SOL    HW129402   2.945   1.183   4.856
 9501SOL    HW229403   2.810   1.093   4.841
 9502SOL     OW29404   0.375   1.800   4.302
 9502SOL    HW129405   0.324   1.873   4.348
 9502SOL    HW229406   0.466   1.792   4.343
 9503SOL     OW29407   0.698   1.490   1.766
 9503SOL    HW129408   0.654   1.440   1.840
 9503SOL    HW229409   0.774   1.544   1.803
 9504SOL     OW29410   0.540   1.668   0.669
 9504SOL    HW129411   0.585   1.642   0.755
 9504SOL    HW229412   0.448   1.702   0.689
 9505SOL     OW29413   5.517   4.097   3.922
 9505SOL    HW129414   5.615   4.077   3.912
 9505SOL    HW229415   5.489   4.078   4.016
 9506SOL     OW29416   0.115   3.367   6.625
 9506SOL    HW129417   0.041   3.306   6.596
 9506SOL    HW229418   0.168   3.396   6.545
 9507SOL     OW29419   1.346   1.051   3.249
 9507SOL    HW129420   1.331   1.061   3.151
 9507SOL    HW229421   1.336   1.140   3.294
 9508SOL     OW29422   5.759   2.954   0.646
 9508SOL    HW129423   5.676   2.975   0.698
 9508SOL    HW229424   5.812   3.038   0.635
 9509SOL     OW29425   1.134   0.218   5.668
 9509SOL    HW129426   1.057   0.201   5.729
 9509SOL    HW229427   1.159   0.133   5.621
 9510SOL     OW29428   0.737   4.433   1.828
 9510SOL    HW129429   0.746   4.346   1.878
 9510SOL    HW229430   0.723   4.415   1.731
 9511SOL     OW29431   0.912   1.134   6.940
 9511SOL    HW129432   0.990   1.082   6.904
 9511SOL    HW229433   0.846   1.070   6.980
 9512SOL     OW29434   5.639   1.122   2.316
 9512SOL    HW129435   5.571   1.055   2.346
 9512SOL    HW229436   5.653   1.190   2.387
 9513SOL     OW29437   1.316   3.561   4.778
 9513SOL    HW129438   1.383   3.551   4.851
 9513SOL    HW229439   1.317   3.479   4.720
 9514SOL     OW29440   2.619   4.051   0.233
 9514SOL    HW129441   2.634   3.953   0.221
 9514SOL    HW229442   2.705   4.100   0.221
 9515SOL     OW29443   1.567   5.486   0.305
 9515SOL    HW129444   1.604   5.417   0.367
 9515SOL    HW229445   1.575   5.454   0.211
 9516SOL     OW29446   5.361   3.761   4.829
 9516SOL    HW129447   5.333   3.820   4.905
 9516SOL    HW229448   5.339   3.666   4.852
 9517SOL     OW29449   1.608   4.805   0.210
 9517SOL    HW129450   1.557   4.874   0.262
 9517SOL    HW229451   1.690   4.847   0.172
 9518SOL     OW29452   0.679   1.929   6.807
 9518SOL    HW129453   0.690   2.016   6.759
 9518SOL    HW229454   0.657   1.857   6.742
 9519SOL     OW29455   4.088   3.139   3.786
 9519SOL    HW129456   4.062   3.103   3.875
 9519SOL    HW229457   4.117   3.064   3.726
 9520SOL     OW29458   6.982   0.534   3.138
 9520SOL    HW129459   0.034   0.555   3.194
 9520SOL    HW229460   6.934   0.456   3.178
 9521SOL     OW29461   3.380   4.100   1.413
 9521SOL    HW129462   3.471   4.140   1.425
 9521SOL    HW229463   3.339   4.134   1.328
 9522SOL     OW29464   4.311   6.177   2.585
 9522SOL    HW129465   4.245   6.150   2.655
 9522SOL    HW229466   4.400   6.192   2.628
 9523SOL     OW29467   2.759   4.741   5.318
 9523SOL    HW129468   2.737   4.669   5.253
 9523SOL    HW229469   2.857   4.742   5.335
 9524SOL     OW29470   1.806   2.527   0.325
 9524SOL    HW129471   1.776   2.437   0.292
 9524SOL    HW229472   1.838   2.519   0.419
 9525SOL     OW29473   1.540   2.248   4.980
 9525SOL    HW129474   1.617   2.223   4.921
 9525SOL    HW229475   1.484   2.317   4.933
 9526SOL     OW29476   6.353   4.255   1.405
 9526SOL    HW129477   6.379   4.288   1.314
 9526SOL    HW229478   6.334   4.157   1.401
 9527SOL     OW29479   2.742   0.602   5.501
 9527SOL    HW129480   2.786   0.623   5.413
 9527SOL    HW229481   2.719   0.687   5.548
 9528SOL     OW29482   6.723   1.423   0.262
 9528SOL    HW129483   6.772   1.504   0.229
 9528SOL    HW229484   6.768   1.341   0.229
 9529SOL     OW29485   6.509   3.475   6.838
 9529SOL    HW129486   6.455   3.417   6.899
 9529SOL    HW229487   6.451   3.507   6.762
 9530SOL     OW29488   1.286   3.237   3.472
 9530SOL    HW129489   1.364   3.292   3.445
 9530SOL    HW229490   1.242   3.278   3.552
 9531SOL     OW29491   4.981   4.292   2.061
 9531SOL    HW129492   5.007   4.245   2.146
 9531SOL    HW229493   4.903   4.244   2.020
 9532SOL     OW29494   0.311   5.416   0.853
 9532SOL    HW129495   0.231   5.476   0.851
 9532SOL    HW229496   0.342   5.404   0.947
 9533SOL     OW29497   1.334   5.632   4.106
 9533SOL    HW129498   1.351   5.728   4.129
 9533SOL    HW229499   1.262   5.627   4.037
 9534SOL     OW29500   5.832   4.281   5.099
 9534SOL    HW129501   5.931   4.291   5.091
 9534SOL    HW229502   5.790   4.372   5.109
 9535SOL     OW29503   1.855   0.583   5.817
 9535SOL    HW129504   1.792   0.661   5.809
 9535SOL    HW229505   1.948   0.613   5.796
 9536SOL     OW29506   2.965   3.830   5.265
 9536SOL    HW129507   2.897   3.768   5.303
 9536SOL    HW229508   2.923   3.887   5.195
 9537SOL     OW29509   2.027   0.814   4.301
 9537SOL    HW129510   2.124   0.820   4.323
 9537SOL    HW229511   1.979   0.892   4.340
 9538SOL     OW29512   5.132   0.875   4.374
 9538SOL    HW129513   5.219   0.868   4.422
 9538SOL    HW229514   5.100   0.783   4.350
 9539SOL     OW29515   3.225   4.079   4.383
 9539SOL    HW129516   3.243   4.109   4.476
 9539SOL    HW229517   3.143   4.021   4.382
 9540SOL     OW29518   5.368   4.946   4.420
 9540SOL    HW129519   5.379   4.994   4.507
 9540SOL    HW229520   5.434   4.981   4.354
 9541SOL     OW29521   3.007   0.524   6.099
 9541SOL    HW129522   2.981   0.428   6.089
 9541SOL    HW229523   3.052   0.537   6.187
 9542SOL     OW29524   5.208   4.945   5.067
 9542SOL    HW129525   5.207   4.845   5.072
 9542SOL    HW229526   5.238   4.974   4.977
 9543SOL     OW29527   3.665   0.841   6.517
 9543SOL    HW129528   3.687   0.786   6.597
 9543SOL    HW229529   3.707   0.801   6.435
 9544SOL     OW29530   5.490   3.028   3.722
 9544SOL    HW129531   5.453   2.999   3.634
 9544SOL    HW229532   5.509   2.948   3.779
 9545SOL     OW29533   5.453   5.246   2.939
 9545SOL    HW129534   5.392   5.206   2.870
 9545SOL    HW229535   5.485   5.336   2.908
 9546SOL     OW29536   3.855   1.889   6.312
 9546SOL    HW129537   3.865   1.987   6.300
 9546SOL    HW229538   3.930   1.841   6.267
 9547SOL     OW29539   2.568   5.508   4.299
 9547SOL    HW129540   2.473   5.532   4.317
 9547SOL    HW229541   2.587   5.515   4.201
 9548SOL     OW29542   6.915   4.510   4.745
 9548SOL    HW129543   6.894   4.466   4.658
 9548SOL    HW229544   6.840   4.571   4.771
 9549SOL     OW29545   3.421   1.871   1.267
 9549SOL    HW129546   3.479   1.895   1.344
 9549SOL    HW229547   3.326   1.866   1.297
 9550SOL     OW29548   0.100   0.644   0.275
 9550SOL    HW129549   0.148   0.674   0.193
 9550SOL    HW229550   0.162   0.594   0.335
 9551SOL     OW29551   5.968   3.047   5.828
 9551SOL    HW129552   6.034   2.977   5.853
 9551SOL    HW229553   5.984   3.128   5.885
 9552SOL     OW29554   2.529   6.023   4.886
 9552SOL    HW129555   2.510   5.951   4.819
 9552SOL    HW229556   2.481   6.003   4.971
 9553SOL     OW29557   5.883   2.453   0.072
 9553SOL    HW129558   5.874   2.509   7.018
 9553SOL    HW229559   5.854   2.506   0.152
 9554SOL     OW29560   2.383   6.555   2.876
 9554SOL    HW129561   2.289   6.555   2.844
 9554SOL    HW229562   2.418   6.461   2.880
 9555SOL     OW29563   0.795   1.486   2.577
 9555SOL    HW129564   0.740   1.438   2.509
 9555SOL    HW229565   0.831   1.570   2.538
 9556SOL     OW29566   1.880   4.525   2.205
 9556SOL    HW129567   1.897   4.608   2.153
 9556SOL    HW229568   1.805   4.541   2.270
 9557SOL     OW29569   6.350   6.120   1.383
 9557SOL    HW129570   6.266   6.175   1.382
 9557SOL    HW229571   6.375   6.097   1.289
 9558SOL     OW29572   6.037   5.794   5.869
 9558SOL    HW129573   6.001   5.729   5.934
 9558SOL    HW229574   6.070   5.746   5.788
 9559SOL     OW29575   0.674   4.873   0.834
 9559SOL    HW129576   0.590   4.843   0.790
 9559SOL    HW229577   0.693   4.816   0.914
 9560SOL     OW29578   2.968   1.422   3.015
 9560SOL    HW129579   3.021   1.350   2.969
 9560SOL    HW229580   3.030   1.479   3.068
 9561SOL     OW29581   1.345   0.832   1.223
 9561SOL    HW129582   1.441   0.842   1.198
 9561SOL    HW229583   1.290   0.818   1.140
 9562SOL     OW29584   2.933   0.461   5.658
 9562SOL    HW129585   2.954   0.513   5.741
 9562SOL    HW229586   2.855   0.503   5.611
 9563SOL     OW29587   0.416   6.827   0.374
 9563SOL    HW129588   0.391   6.876   0.291
 9563SOL    HW229589   0.444   6.892   0.444
 9564SOL     OW29590   2.934   1.370   0.560
 9564SOL    HW129591   2.935   1.306   0.483
 9564SOL    HW229592   3.003   1.441   0.545
 9565SOL     OW29593   4.430   0.644   4.857
 9565SOL    HW129594   4.331   0.634   4.871
 9565SOL    HW229595   4.449   0.734   4.817
 9566SOL     OW29596   3.339   5.674   6.636
 9566SOL    HW129597   3.396   5.655   6.715
 9566SOL    HW229598   3.286   5.758   6.652
 9567SOL     OW29599   4.797   5.020   0.514
 9567SOL    HW129600   4.769   4.959   0.440
 9567SOL    HW229601   4.735   5.008   0.592
 9568SOL     OW29602   4.386   2.780   6.191
 9568SOL    HW129603   4.298   2.822   6.212
 9568SOL    HW229604   4.405   2.708   6.258
 9569SOL     OW29605   6.622   0.857   2.673
 9569SOL    HW129606   6.597   0.886   2.581
 9569SOL    HW229607   6.612   0.934   2.736
 9570SOL     OW29608   0.521   3.260   1.759
 9570SOL    HW129609   0.444   3.276   1.697
 9570SOL    HW229610   0.605   3.295   1.719
 9571SOL     OW29611   3.127   3.507   6.432
 9571SOL    HW129612   3.169   3.597   6.424
 9571SOL    HW229613   3.161   3.448   6.359
 9572SOL     OW29614   2.337   4.893   1.918
 9572SOL    HW129615   2.418   4.949   1.930
 9572SOL    HW229616   2.260   4.934   1.967
 9573SOL     OW29617   0.747   2.157   6.660
 9573SOL    HW129618   0.651   2.188   6.656
 9573SOL    HW229619   0.800   2.207   6.591
 9574SOL     OW29620   4.107   3.224   3.104
 9574SOL    HW129621   4.055   3.237   3.188
 9574SOL    HW229622   4.155   3.135   3.108
 9575SOL     OW29623   0.483   0.917   1.547
 9575SOL    HW129624   0.497   0.862   1.629
 9575SOL    HW229625   0.416   0.989   1.566
 9576SOL     OW29626   2.139   1.691   0.909
 9576SOL    HW129627   2.208   1.731   0.969
 9576SOL    HW229628   2.117   1.756   0.836
 9577SOL     OW29629   1.047   0.197   6.042
 9577SOL    HW129630   0.989   0.221   5.964
 9577SOL    HW229631   1.105   0.276   6.065
 9578SOL     OW29632   0.923   4.257   2.757
 9578SOL    HW129633   1.007   4.295   2.795
 9578SOL    HW229634   0.887   4.187   2.819
 9579SOL     OW29635   0.605   4.754   3.439
 9579SOL    HW129636   0.639   4.722   3.350
 9579SOL    HW229637   0.660   4.830   3.471
 9580SOL     OW29638   4.558   3.592   0.619
 9580SOL    HW129639   4.538   3.663   0.551
 9580SOL    HW229640   4.563   3.634   0.710
 9581SOL     OW29641   0.576   6.727   5.690
 9581SOL    HW129642   0.668   6.712   5.653
 9581SOL    HW229643   0.539   6.812   5.653
 9582SOL     OW29644   4.506   4.955   5.332
 9582SOL    HW129645   4.420   5.001   5.355
 9582SOL    HW229646   4.487   4.881   5.267
 9583SOL     OW29647   3.617   4.195   1.507
 9583SOL    HW129648   3.632   4.216   1.603
 9583SOL    HW229649   3.701   4.159   1.467
 9584SOL     OW29650   0.291   4.943   6.268
 9584SOL    HW129651   0.240   4.858   6.280
 9584SOL    HW229652   0.352   4.956   6.345
 9585SOL     OW29653   6.570   6.724   4.476
 9585SOL    HW129654   6.638   6.743   4.406
 9585SOL    HW229655   6.496   6.670   4.437
 9586SOL     OW29656   5.144   4.944   1.879
 9586SOL    HW129657   5.162   4.876   1.808
 9586SOL    HW229658   5.133   4.898   1.967
 9587SOL     OW29659   0.814   0.676   1.288
 9587SOL    HW129660   0.896   0.648   1.239
 9587SOL    HW229661   0.824   0.652   1.385
 9588SOL     OW29662   6.625   0.428   1.450
 9588SOL    HW129663   6.662   0.500   1.392
 9588SOL    HW229664   6.555   0.377   1.399
 9589SOL     OW29665   2.140   4.664   6.688
 9589SOL    HW129666   2.200   4.661   6.768
 9589SOL    HW229667   2.191   4.697   6.609
 9590SOL     OW29668   6.203   2.656   2.187
 9590SOL    HW129669   6.152   2.668   2.272
 9590SOL    HW229670   6.182   2.565   2.149
 9591SOL     OW29671   3.028   5.747   5.397
 9591SOL    HW129672   2.994   5.791   5.479
 9591SOL    HW229673   3.010   5.649   5.401
 9592SOL     OW29674   3.461   4.443   0.745
 9592SOL    HW129675   3.430   4.420   0.653
 9592SOL    HW229676   3.424   4.377   0.810
 9593SOL     OW29677   0.409   0.671   5.480
 9593SOL    HW129678   0.400   0.745   5.414
 9593SOL    HW229679   0.320   0.628   5.494
 9594SOL     OW29680   1.472   5.276   2.820
 9594SOL    HW129681   1.458   5.226   2.905
 9594SOL    HW229682   1.512   5.365   2.840
 9595SOL     OW29683   0.489   3.060   4.691
 9595SOL    HW129684   0.418   3.122   4.723
 9595SOL    HW229685   0.453   3.000   4.620
 9596SOL     OW29686   0.297   5.492   5.826
 9596SOL    HW129687   0.226   5.529   5.766
 9596SOL    HW229688   0.355   5.429   5.774
 9597SOL     OW29689   1.304   4.623   1.314
 9597SOL    HW129690   1.288   4.685   1.391
 9597SOL    HW229691   1.216   4.593   1.277
 9598SOL     OW29692   0.915   4.318   3.740
 9598SOL    HW129693   1.001   4.366   3.723
 9598SOL    HW229694   0.876   4.349   3.826
 9599SOL     OW29695   3.394   0.032   4.457
 9599SOL    HW129696   3.395   6.978   4.514
 9599SOL    HW229697   3.327   0.097   4.494
 9600SOL     OW29698   2.351   6.456   6.749
 9600SOL    HW129699   2.344   6.450   6.649
 9600SOL    HW229700   2.270   6.503   6.784
 9601SOL     OW29701   4.725   3.834   0.547
 9601SOL    HW129702   4.658   3.834   0.472
 9601SOL    HW229703   4.786   3.756   0.537
 9602SOL     OW29704   6.476   4.904   5.875
 9602SOL    HW129705   6.520   4.928   5.789
 9602SOL    HW229706   6.420   4.822   5.862
 9603SOL     OW29707   4.077   1.993   4.500
 9603SOL    HW129708   4.040   2.063   4.438
 9603SOL    HW229709   4.155   1.948   4.457
 9604SOL     OW29710   4.915   0.026   6.549
 9604SOL    HW129711   4.883   0.061   6.461
 9604SOL    HW229712   4.859   0.064   6.623
 9605SOL     OW29713   0.808   5.913   3.733
 9605SOL    HW129714   0.816   5.907   3.833
 9605SOL    HW229715   0.719   5.878   3.704
 9606SOL     OW29716   1.786   6.605   6.836
 9606SOL    HW129717   1.798   6.695   6.795
 9606SOL    HW229718   1.876   6.565   6.856
 9607SOL     OW29719   1.732   1.756   0.056
 9607SOL    HW129720   1.746   1.855   0.062
 9607SOL    HW229721   1.818   1.711   0.033
 9608SOL     OW29722   6.740   5.283   2.773
 9608SOL    HW129723   6.735   5.333   2.859
 9608SOL    HW229724   6.722   5.347   2.697
 9609SOL     OW29725   2.691   4.338   6.956
 9609SOL    HW129726   2.723   4.418   7.006
 9609SOL    HW229727   2.659   4.365   6.865
 9610SOL     OW29728   1.197   4.465   3.704
 9610SOL    HW129729   1.171   4.500   3.794
 9610SOL    HW229730   1.248   4.380   3.715
 9611SOL     OW29731   0.975   6.456   6.830
 9611SOL    HW129732   0.991   6.365   6.868
 9611SOL    HW229733   1.061   6.508   6.830
 9612SOL     OW29734   0.432   4.216   1.500
 9612SOL    HW129735   0.404   4.151   1.570
 9612SOL    HW229736   0.436   4.170   1.411
 9613SOL     OW29737   5.175   6.780   3.427
 9613SOL    HW129738   5.139   6.872   3.412
 9613SOL    HW229739   5.255   6.785   3.487
 9614SOL     OW29740   3.400   2.579   0.908
 9614SOL    HW129741   3.464   2.587   0.985
 9614SOL    HW229742   3.318   2.531   0.939
 9615SOL     OW29743   1.967   6.843   0.216
 9615SOL    HW129744   1.868   6.847   0.200
 9615SOL    HW229745   1.990   6.757   0.260
 9616SOL     OW29746   4.231   3.747   1.393
 9616SOL    HW129747   4.304   3.725   1.459
 9616SOL    HW229748   4.150   3.778   1.443
 9617SOL     OW29749   1.992   2.797   2.976
 9617SOL    HW129750   1.939   2.851   2.910
 9617SOL    HW229751   1.951   2.706   2.984
 9618SOL     OW29752   4.216   6.976   5.552
 9618SOL    HW129753   4.296   6.983   5.493
 9618SOL    HW229754   4.220   0.018   5.623
 9619SOL     OW29755   1.312   6.740   0.481
 9619SOL    HW129756   1.215   6.762   0.483
 9619SOL    HW229757   1.333   6.675   0.554
 9620SOL     OW29758   4.892   1.749   6.305
 9620SOL    HW129759   4.814   1.793   6.350
 9620SOL    HW229760   4.869   1.654   6.285
 9621SOL     OW29761   0.787   1.079   1.933
 9621SOL    HW129762   0.709   1.135   1.905
 9621SOL    HW229763   0.853   1.076   1.858
 9622SOL     OW29764   6.536   1.183   0.112
 9622SOL    HW129765   6.486   1.169   0.198
 9622SOL    HW229766   6.581   1.098   0.086
 9623SOL     OW29767   2.637   4.268   6.073
 9623SOL    HW129768   2.601   4.177   6.093
 9623SOL    HW229769   2.692   4.265   5.989
 9624SOL     OW29770   6.858   4.528   2.489
 9624SOL    HW129771   6.884   4.534   2.393
 9624SOL    HW229772   6.759   4.541   2.497
 9625SOL     OW29773   4.996   5.594   7.011
 9625SOL    HW129774   4.945   5.548   0.055
 9625SOL    HW229775   5.019   5.527   6.940
 9626SOL     OW29776   3.358   5.752   0.101
 9626SOL    HW129777   3.315   5.721   0.186
 9626SOL    HW229778   3.435   5.812   0.123
 9627SOL     OW29779   6.346   5.922   3.313
 9627SOL    HW129780   6.413   5.970   3.258
 9627SOL    HW229781   6.377   5.917   3.408
 9628SOL     OW29782   5.287   4.687   0.087
 9628SOL    HW129783   5.348   4.705   0.164
 9628SOL    HW229784   5.226   4.765   0.074
 9629SOL     OW29785   0.577   6.647   2.386
 9629SOL    HW129786   0.675   6.630   2.398
 9629SOL    HW229787   0.559   6.745   2.391
 9630SOL     OW29788   6.304   6.220   5.674
 9630SOL    HW129789   6.295   6.229   5.575
 9630SOL    HW229790   6.384   6.272   5.705
 9631SOL     OW29791   6.732   6.938   6.874
 9631SOL    HW129792   6.812   6.880   6.888
 9631SOL    HW229793   6.700   6.928   6.779
 9632SOL     OW29794   2.008   6.155   2.929
 9632SOL    HW129795   2.009   6.189   3.023
 9632SOL    HW229796   1.914   6.136   2.901
 9633SOL     OW29797   5.363   5.217   6.732
 9633SOL    HW129798   5.412   5.272   6.664
 9633SOL    HW229799   5.411   5.130   6.746
 9634SOL     OW29800   1.485   6.086   3.634
 9634SOL    HW129801   1.387   6.095   3.622
 9634SOL    HW229802   1.515   6.142   3.712
 9635SOL     OW29803   1.338   4.988   5.627
 9635SOL    HW129804   1.280   4.931   5.686
 9635SOL    HW229805   1.409   4.931   5.585
 9636SOL     OW29806   3.678   1.717   6.433
 9636SOL    HW129807   3.742   1.671   6.495
 9636SOL    HW229808   3.729   1.775   6.370
 9637SOL     OW29809   2.958   2.026   6.333
 9637SOL    HW129810   2.900   2.084   6.391
 9637SOL    HW229811   3.051   2.024   6.370
 9638SOL     OW29812   6.867   3.498   6.447
 9638SOL    HW129813   6.827   3.571   6.392
 9638SOL    HW229814   6.837   3.409   6.414
 9639SOL     OW29815   3.855   1.635   2.216
 9639SOL    HW129816   3.920   1.701   2.254
 9639SOL    HW229817   3.763   1.674   2.218
 9640SOL     OW29818   2.792   2.069   3.105
 9640SOL    HW129819   2.766   2.100   3.196
 9640SOL    HW229820   2.880   2.021   3.110
 9641SOL     OW29821   4.921   6.359   0.904
 9641SOL    HW129822   4.977   6.291   0.951
 9641SOL    HW229823   4.941   6.450   0.941
 9642SOL     OW29824   3.297   6.323   5.403
 9642SOL    HW129825   3.243   6.407   5.412
 9642SOL    HW229826   3.344   6.323   5.315
 9643SOL     OW29827   5.689   5.339   4.209
 9643SOL    HW129828   5.640   5.283   4.143
 9643SOL    HW229829   5.758   5.394   4.162
 9644SOL     OW29830   1.171   4.507   5.528
 9644SOL    HW129831   1.189   4.552   5.615
 9644SOL    HW229832   1.199   4.566   5.452
 9645SOL     OW29833   4.001   4.790   3.316
 9645SOL    HW129834   4.073   4.748   3.371
 9645SOL    HW229835   3.932   4.721   3.294
 9646SOL     OW29836   2.750   4.829   2.155
 9646SOL    HW129837   2.753   4.746   2.099
 9646SOL    HW229838   2.734   4.908   2.095
 9647SOL     OW29839   6.189   5.237   1.287
 9647SOL    HW129840   6.272   5.192   1.320
 9647SOL    HW229841   6.210   5.293   1.208
 9648SOL     OW29842   3.900   2.166   6.866
 9648SOL    HW129843   3.995   2.167   6.836
 9648SOL    HW229844   3.894   2.126   6.958
 9649SOL     OW29845   2.641   5.592   6.806
 9649SOL    HW129846   2.582   5.525   6.850
 9649SOL    HW229847   2.664   5.664   6.871
 9650SOL     OW29848   5.405   4.880   2.522
 9650SOL    HW129849   5.491   4.929   2.517
 9650SOL    HW229850   5.378   4.869   2.618
 9651SOL     OW29851   0.139   0.611   6.446
 9651SOL    HW129852   0.116   0.658   6.361
 9651SOL    HW229853   0.085   0.527   6.454
 9652SOL     OW29854   2.301   5.113   0.689
 9652SOL    HW129855   2.273   5.040   0.626
 9652SOL    HW229856   2.308   5.199   0.638
 9653SOL     OW29857   4.083   5.475   4.624
 9653SOL    HW129858   4.153   5.506   4.559
 9653SOL    HW229859   4.023   5.551   4.648
 9654SOL     OW29860   3.675   3.230   1.095
 9654SOL    HW129861   3.660   3.157   1.028
 9654SOL    HW229862   3.586   3.262   1.129
 9655SOL     OW29863   0.030   1.524   6.996
 9655SOL    HW129864   6.976   1.478   6.963
 9655SOL    HW229865   0.110   1.470   6.971
 9656SOL     OW29866   2.753   2.639   1.519
 9656SOL    HW129867   2.752   2.693   1.435
 9656SOL    HW229868   2.683   2.674   1.582
 9657SOL     OW29869   6.710   1.531   4.036
 9657SOL    HW129870   6.770   1.467   3.988
 9657SOL    HW229871   6.666   1.592   3.970
 9658SOL     OW29872   5.827   1.649   2.879
 9658SOL    HW129873   5.916   1.673   2.917
 9658SOL    HW229874   5.769   1.731   2.876
 9659SOL     OW29875   6.801   4.171   0.025
 9659SOL    HW129876   6.787   4.122   6.968
 9659SOL    HW229877   6.750   4.257   0.024
 9660SOL     OW29878   0.362   5.821   1.366
 9660SOL    HW129879   0.461   5.825   1.383
 9660SOL    HW229880   0.339   5.879   1.288
 9661SOL     OW29881   3.847   6.085   2.053
 9661SOL    HW129882   3.868   6.097   1.956
 9661SOL    HW229883   3.928   6.108   2.107
 9662SOL     OW29884   5.208   2.573   5.201
 9662SOL    HW129885   5.116   2.545   5.173
 9662SOL    HW229886   5.225   2.667   5.171
 9663SOL     OW29887   1.071   5.819   4.259
 9663SOL    HW129888   1.095   5.753   4.330
 9663SOL    HW229889   1.104   5.787   4.170
 9664SOL     OW29890   6.021   6.528   3.749
 9664SOL    HW129891   6.039   6.575   3.663
 9664SOL    HW229892   6.106   6.517   3.800
 9665SOL     OW29893   5.481   6.033   6.394
 9665SOL    HW129894   5.388   6.068   6.402
 9665SOL    HW229895   5.527   6.040   6.483
 9666SOL     OW29896   6.124   4.158   1.658
 9666SOL    HW129897   6.094   4.147   1.564
 9666SOL    HW229898   6.199   4.223   1.662
 9667SOL     OW29899   3.266   3.774   3.841
 9667SOL    HW129900   3.175   3.796   3.878
 9667SOL    HW229901   3.334   3.786   3.913
 9668SOL     OW29902   5.631   1.710   6.861
 9668SOL    HW129903   5.702   1.780   6.871
 9668SOL    HW229904   5.589   1.718   6.770
 9669SOL     OW29905   0.836   0.197   1.851
 9669SOL    HW129906   0.821   0.250   1.935
 9669SOL    HW229907   0.760   0.133   1.838
 9670SOL     OW29908   5.233   4.665   6.604
 9670SOL    HW129909   5.161   4.604   6.572
 9670SOL    HW229910   5.209   4.702   6.693
 9671SOL     OW29911   6.451   5.475   6.546
 9671SOL    HW129912   6.533   5.507   6.594
 9671SOL    HW229913   6.421   5.543   6.480
 9672SOL     OW29914   1.333   5.925   4.575
 9672SOL    HW129915   1.273   5.861   4.527
 9672SOL    HW229916   1.329   6.014   4.529
 9673SOL     OW29917   5.776   4.008   0.061
 9673SOL    HW129918   5.749   3.984   0.154
 9673SOL    HW229919   5.711   3.968   7.025
 9674SOL     OW29920   2.547   5.926   3.314
 9674SOL    HW129921   2.619   5.934   3.384
 9674SOL    HW229922   2.587   5.894   3.229
 9675SOL     OW29923   6.006   1.995   1.097
 9675SOL    HW129924   5.998   2.084   1.053
 9675SOL    HW229925   5.970   1.924   1.035
 9676SOL     OW29926   1.275   3.847   5.309
 9676SOL    HW129927   1.278   3.825   5.211
 9676SOL    HW229928   1.225   3.776   5.358
 9677SOL     OW29929   1.710   5.796   5.523
 9677SOL    HW129930   1.756   5.710   5.548
 9677SOL    HW229931   1.753   5.872   5.572
 9678SOL     OW29932   3.139   3.400   2.758
 9678SOL    HW129933   3.065   3.336   2.776
 9678SOL    HW229934   3.227   3.352   2.759
 9679SOL     OW29935   2.022   1.181   2.202
 9679SOL    HW129936   1.983   1.153   2.114
 9679SOL    HW229937   2.099   1.120   2.225
 9680SOL     OW29938   6.261   0.201   3.774
 9680SOL    HW129939   6.270   0.299   3.788
 9680SOL    HW229940   6.175   0.182   3.726
 9681SOL     OW29941   3.598   1.015   0.580
 9681SOL    HW129942   3.583   0.976   0.671
 9681SOL    HW229943   3.570   1.111   0.578
 9682SOL     OW29944   5.068   5.087   3.792
 9682SOL    HW129945   4.981   5.078   3.743
 9682SOL    HW229946   5.081   5.182   3.820
 9683SOL     OW29947   2.810   5.563   0.904
 9683SOL    HW129948   2.877   5.635   0.885
 9683SOL    HW229949   2.811   5.496   0.831
 9684SOL     OW29950   0.244   1.988   4.984
 9684SOL    HW129951   0.145   1.978   4.995
 9684SOL    HW229952   0.286   2.004   5.074
 9685SOL     OW29953   1.976   3.562   0.756
 9685SOL    HW129954   1.884   3.587   0.786
 9685SOL    HW229955   2.019   3.641   0.710
 9686SOL     OW29956   6.508   1.916   0.750
 9686SOL    HW129957   6.411   1.940   0.738
 9686SOL    HW229958   6.516   1.825   0.791
 9687SOL     OW29959   1.921   1.240   3.584
 9687SOL    HW129960   1.904   1.338   3.578
 9687SOL    HW229961   1.936   1.203   3.492
 9688SOL     OW29962   6.606   1.978   3.204
 9688SOL    HW129963   6.706   1.982   3.203
 9688SOL    HW229964   6.571   2.010   3.116
 9689SOL     OW29965   1.586   5.981   0.488
 9689SOL    HW129966   1.542   5.922   0.419
 9689SOL    HW229967   1.596   5.930   0.573
 9690SOL     OW29968   5.754   5.595   6.436
 9690SOL    HW129969   5.717   5.681   6.471
 9690SOL    HW229970   5.809   5.551   6.507
 9691SOL     OW29971   2.848   5.035   1.741
 9691SOL    HW129972   2.946   5.054   1.742
 9691SOL    HW229973   2.832   4.939   1.765
 9692SOL     OW29974   2.876   5.516   2.619
 9692SOL    HW129975   2.834   5.603   2.595
 9692SOL    HW229976   2.886   5.460   2.537
 9693SOL     OW29977   6.232   5.789   0.783
 9693SOL    HW129978   6.311   5.806   0.724
 9693SOL    HW229979   6.188   5.704   0.756
 9694SOL     OW29980   2.193   0.820   6.433
 9694SOL    HW129981   2.254   0.744   6.410
 9694SOL    HW229982   2.239   0.907   6.415
 9695SOL     OW29983   6.866   4.090   1.526
 9695SOL    HW129984   6.808   4.108   1.446
 9695SOL    HW229985   6.817   4.030   1.589
 9696SOL     OW29986   5.131   2.618   0.928
 9696SOL    HW129987   5.160   2.699   0.978
 9696SOL    HW229988   5.101   2.548   0.993
 9697SOL     OW29989   0.071   6.249   0.146
 9697SOL    HW129990   0.126   6.184   0.094
 9697SOL    HW229991   0.092   6.342   0.116
 9698SOL     OW29992   5.004   2.149   6.000
 9698SOL    HW129993   5.014   2.058   6.039
 9698SOL    HW229994   5.095   2.186   5.978
 9699SOL     OW29995   0.318   4.274   6.702
 9699SOL    HW129996   0.228   4.313   6.685
 9699SOL    HW229997   0.389   4.339   6.673
 9700SOL     OW29998   4.423   5.211   5.110
 9700SOL    HW129999   4.489   5.138   5.128
 9700SOL    HW230000   4.367   5.187   5.031
 9701SOL     OW30001   3.701   5.062   4.865
 9701SOL    HW130002   3.702   5.160   4.845
 9701SOL    HW230003   3.647   5.045   4.947
 9702SOL     OW30004   4.645   0.751   0.233
 9702SOL    HW130005   4.641   0.651   0.229
 9702SOL    HW230006   4.687   0.786   0.150
 9703SOL     OW30007   3.883   5.231   4.106
 9703SOL    HW130008   3.862   5.140   4.143
 9703SOL    HW230009   3.908   5.223   4.009
 9704SOL     OW30010   3.097   1.213   2.900
 9704SOL    HW130011   3.197   1.209   2.889
 9704SOL    HW230012   3.064   1.130   2.943
 9705SOL     OW30013   4.804   5.811   6.640
 9705SOL    HW130014   4.795   5.766   6.729
 9705SOL    HW230015   4.723   5.791   6.585
 9706SOL     OW30016   0.330   2.818   0.697
 9706SOL    HW130017   0.269   2.768   0.758
 9706SOL    HW230018   0.351   2.908   0.736
 9707SOL     OW30019   6.407   4.351   1.148
 9707SOL    HW130020   6.470   4.403   1.089
 9707SOL    HW230021   6.319   4.342   1.102
 9708SOL     OW30022   1.210   2.432   2.539
 9708SOL    HW130023   1.290   2.478   2.501
 9708SOL    HW230024   1.127   2.478   2.508
 9709SOL     OW30025   5.911   5.934   2.149
 9709SOL    HW130026   5.927   5.931   2.248
 9709SOL    HW230027   5.969   5.866   2.104
 9710SOL     OW30028   0.649   1.589   2.223
 9710SOL    HW130029   0.610   1.672   2.184
 9710SOL    HW230030   0.747   1.586   2.205
 9711SOL     OW30031   1.663   3.670   5.964
 9711SOL    HW130032   1.606   3.661   5.882
 9711SOL    HW230033   1.605   3.674   6.045
 9712SOL     OW30034   6.329   4.479   5.736
 9712SOL    HW130035   6.299   4.575   5.740
 9712SOL    HW230036   6.306   4.433   5.821
 9713SOL     OW30037   1.331   5.031   3.745
 9713SOL    HW130038   1.364   4.982   3.664
 9713SOL    HW230039   1.231   5.028   3.747
 9714SOL     OW30040   2.785   1.427   1.686
 9714SOL    HW130041   2.785   1.472   1.776
 9714SOL    HW230042   2.743   1.336   1.694
 9715SOL     OW30043   5.401   4.752   6.268
 9715SOL    HW130044   5.336   4.827   6.278
 9715SOL    HW230045   5.447   4.735   6.355
 9716SOL     OW30046   4.109   2.864   6.288
 9716SOL    HW130047   4.054   2.934   6.242
 9716SOL    HW230048   4.063   2.836   6.372
 9717SOL     OW30049   5.930   5.094   5.556
 9717SOL    HW130050   5.962   5.138   5.640
 9717SOL    HW230051   5.970   5.003   5.549
 9718SOL     OW30052   4.687   2.638   1.746
 9718SOL    HW130053   4.719   2.731   1.768
 9718SOL    HW230054   4.595   2.643   1.707
 9719SOL     OW30055   0.204   1.861   6.975
 9719SOL    HW130056   0.182   1.804   0.025
 9719SOL    HW230057   0.299   1.890   6.980
 9720SOL     OW30058   0.048   6.069   1.994
 9720SOL    HW130059   0.003   6.094   2.080
 9720SOL    HW230060   0.087   5.977   2.002
 9721SOL     OW30061   0.904   3.548   0.942
 9721SOL    HW130062   0.970   3.592   0.881
 9721SOL    HW230063   0.948   3.471   0.989
 9722SOL     OW30064   0.501   0.357   3.481
 9722SOL    HW130065   0.450   0.313   3.407
 9722SOL    HW230066   0.584   0.399   3.445
 9723SOL     OW30067   2.216   6.142   3.703
 9723SOL    HW130068   2.277   6.172   3.630
 9723SOL    HW230069   2.234   6.046   3.725
 9724SOL     OW30070   2.331   3.680   0.282
 9724SOL    HW130071   2.243   3.631   0.285
 9724SOL    HW230072   2.389   3.649   0.357
 9725SOL     OW30073   3.923   4.472   6.599
 9725SOL    HW130074   4.003   4.415   6.616
 9725SOL    HW230075   3.840   4.419   6.614
 9726SOL     OW30076   4.626   0.217   3.908
 9726SOL    HW130077   4.636   0.119   3.924
 9726SOL    HW230078   4.705   0.251   3.857
 9727SOL     OW30079   0.433   3.406   4.921
 9727SOL    HW130080   0.446   3.451   4.833
 9727SOL    HW230081   0.462   3.310   4.914
 9728SOL     OW30082   0.281   0.108   5.770
 9728SOL    HW130083   0.229   0.188   5.740
 9728SOL    HW230084   0.236   0.025   5.736
 9729SOL     OW30085   1.144   4.412   2.847
 9729SOL    HW130086   1.204   4.475   2.797
 9729SOL    HW230087   1.091   4.464   2.914
 9730SOL     OW30088   0.191   3.171   2.779
 9730SOL    HW130089   0.165   3.209   2.690
 9730SOL    HW230090   0.236   3.241   2.834
 9731SOL     OW30091   4.498   3.890   0.817
 9731SOL    HW130092   4.399   3.873   0.809
 9731SOL    HW230093   4.530   3.859   0.906
 9732SOL     OW30094   5.377   5.807   3.405
 9732SOL    HW130095   5.382   5.725   3.463
 9732SOL    HW230096   5.390   5.781   3.309
 9733SOL     OW30097   5.103   5.211   0.032
 9733SOL    HW130098   5.154   5.238   6.979
 9733SOL    HW230099   5.133   5.268   0.110
 9734SOL     OW30100   5.534   1.676   3.181
 9734SOL    HW130101   5.521   1.577   3.178
 9734SOL    HW230102   5.629   1.697   3.158
 9735SOL     OW30103   1.911   4.776   3.134
 9735SOL    HW130104   1.998   4.731   3.152
 9735SOL    HW230105   1.837   4.710   3.142
 9736SOL     OW30106   5.947   2.035   6.174
 9736SOL    HW130107   5.914   1.975   6.247
 9736SOL    HW230108   6.047   2.041   6.178
 9737SOL     OW30109   6.675   2.963   4.748
 9737SOL    HW130110   6.604   2.933   4.811
 9737SOL    HW230111   6.672   3.063   4.738
 9738SOL     OW30112   2.352   7.013   2.896
 9738SOL    HW130113   2.434   7.005   2.953
 9738SOL    HW230114   2.271   6.995   2.952
 9739SOL     OW30115   6.588   5.638   2.005
 9739SOL    HW130116   6.509   5.586   1.973
 9739SOL    HW230117   6.636   5.585   2.076
 9740SOL     OW30118   6.468   2.508   4.068
 9740SOL    HW130119   6.441   2.589   4.120
 9740SOL    HW230120   6.427   2.427   4.110
 9741SOL     OW30121   4.873   1.899   2.808
 9741SOL    HW130122   4.864   1.940   2.717
 9741SOL    HW230123   4.926   1.815   2.801
 9742SOL     OW30124   3.870   0.206   2.103
 9742SOL    HW130125   3.959   0.181   2.065
 9742SOL    HW230126   3.809   0.126   2.098
 9743SOL     OW30127   1.463   1.411   4.529
 9743SOL    HW130128   1.393   1.443   4.466
 9743SOL    HW230129   1.432   1.327   4.574
 9744SOL     OW30130   0.430   0.381   3.149
 9744SOL    HW130131   0.379   0.357   3.067
 9744SOL    HW230132   0.519   0.335   3.148
 9745SOL     OW30133   6.420   2.990   6.084
 9745SOL    HW130134   6.464   2.905   6.113
 9745SOL    HW230135   6.468   3.027   6.005
 9746SOL     OW30136   6.426   0.919   6.311
 9746SOL    HW130137   6.393   0.944   6.403
 9746SOL    HW230138   6.369   0.963   6.242
 9747SOL     OW30139   1.871   0.633   1.980
 9747SOL    HW130140   1.964   0.644   2.015
 9747SOL    HW230141   1.830   0.550   2.018
 9748SOL     OW30142   1.192   1.271   3.356
 9748SOL    HW130143   1.176   1.345   3.422
 9748SOL    HW230144   1.239   1.308   3.276
 9749SOL     OW30145   2.191   1.659   4.921
 9749SOL    HW130146   2.097   1.624   4.918
 9749SOL    HW230147   2.221   1.679   4.828
 9750SOL     OW30148   5.311   4.553   3.370
 9750SOL    HW130149   5.350   4.465   3.399
 9750SOL    HW230150   5.384   4.614   3.340
 9751SOL     OW30151   1.891   1.058   0.807
 9751SOL    HW130152   1.805   1.020   0.841
 9751SOL    HW230153   1.874   1.105   0.720
 9752SOL     OW30154   5.241   1.564   7.012
 9752SOL    HW130155   5.302   1.500   0.030
 9752SOL    HW230156   5.155   1.571   0.034
 9753SOL     OW30157   5.695   5.133   5.078
 9753SOL    HW130158   5.715   5.176   5.166
 9753SOL    HW230159   5.693   5.033   5.090
 9754SOL     OW30160   0.865   1.357   6.805
 9754SOL    HW130161   0.829   1.406   6.884
 9754SOL    HW230162   0.892   1.264   6.833
 9755SOL     OW30163   4.105   3.839   5.212
 9755SOL    HW130164   4.013   3.801   5.224
 9755SOL    HW230165   4.172   3.765   5.215
 9756SOL     OW30166   6.097   3.190   0.337
 9756SOL    HW130167   6.119   3.136   0.418
 9756SOL    HW230168   6.061   3.130   0.265
 9757SOL     OW30169   5.575   3.340   3.513
 9757SOL    HW130170   5.562   3.426   3.464
 9757SOL    HW230171   5.511   3.335   3.590
 9758SOL     OW30172   2.813   6.987   7.027
 9758SOL    HW130173   2.754   6.946   6.957
 9758SOL    HW230174   2.780   6.961   0.089
 9759SOL     OW30175   2.107   0.193   6.908
 9759SOL    HW130176   2.062   0.165   6.993
 9759SOL    HW230177   2.205   0.180   6.916
 9760SOL     OW30178   4.566   3.589   5.354
 9760SOL    HW130179   4.618   3.572   5.270
 9760SOL    HW230180   4.545   3.502   5.398
 9761SOL     OW30181   5.919   6.712   1.547
 9761SOL    HW130182   5.977   6.658   1.486
 9761SOL    HW230183   5.946   6.695   1.642
 9762SOL     OW30184   2.568   2.443   4.204
 9762SOL    HW130185   2.641   2.380   4.177
 9762SOL    HW230186   2.538   2.421   4.297
 9763SOL     OW30187   4.242   2.201   1.643
 9763SOL    HW130188   4.262   2.217   1.740
 9763SOL    HW230189   4.314   2.145   1.603
 9764SOL     OW30190   1.002   2.679   2.785
 9764SOL    HW130191   1.020   2.587   2.820
 9764SOL    HW230192   0.928   2.676   2.718
 9765SOL     OW30193   6.424   1.765   3.118
 9765SOL    HW130194   6.501   1.828   3.126
 9765SOL    HW230195   6.410   1.742   3.021
 9766SOL     OW30196   2.777   0.513   3.189
 9766SOL    HW130197   2.841   0.440   3.166
 9766SOL    HW230198   2.772   0.578   3.113
 9767SOL     OW30199   5.204   2.064   5.084
 9767SOL    HW130200   5.278   2.025   5.138
 9767SOL    HW230201   5.230   2.155   5.053
 9768SOL     OW30202   4.358   1.628   2.034
 9768SOL    HW130203   4.429   1.563   2.009
 9768SOL    HW230204   4.364   1.709   1.976
 9769SOL     OW30205   1.725   1.459   2.092
 9769SOL    HW130206   1.795   1.498   2.032
 9769SOL    HW230207   1.768   1.421   2.173
 9770SOL     OW30208   5.389   0.459   6.990
 9770SOL    HW130209   5.488   0.472   6.984
 9770SOL    HW230210   5.347   0.481   6.901
 9771SOL     OW30211   3.663   4.933   1.626
 9771SOL    HW130212   3.675   4.852   1.568
 9771SOL    HW230213   3.586   4.918   1.688
 9772SOL     OW30214   1.194   6.340   2.359
 9772SOL    HW130215   1.157   6.258   2.314
 9772SOL    HW230216   1.133   6.367   2.434
 9773SOL     OW30217   5.618   6.959   4.167
 9773SOL    HW130218   5.539   6.912   4.207
 9773SOL    HW230219   5.702   6.920   4.203
 9774SOL     OW30220   6.536   4.905   2.126
 9774SOL    HW130221   6.465   4.967   2.094
 9774SOL    HW230222   6.626   4.947   2.113
 9775SOL     OW30223   3.270   1.498   3.388
 9775SOL    HW130224   3.204   1.486   3.313
 9775SOL    HW230225   3.298   1.594   3.393
 9776SOL     OW30226   6.889   5.606   4.291
 9776SOL    HW130227   6.965   5.597   4.356
 9776SOL    HW230228   6.915   5.671   4.219
 9777SOL     OW30229   5.904   5.015   6.508
 9777SOL    HW130230   5.860   4.966   6.583
 9777SOL    HW230231   5.983   5.065   6.542
 9778SOL     OW30232   0.197   0.547   3.528
 9778SOL    HW130233   0.209   0.607   3.448
 9778SOL    HW230234   0.115   0.492   3.516
 9779SOL     OW30235   2.075   1.519   4.679
 9779SOL    HW130236   2.155   1.566   4.642
 9779SOL    HW230237   1.992   1.559   4.639
 9780SOL     OW30238   2.470   2.148   1.159
 9780SOL    HW130239   2.378   2.148   1.197
 9780SOL    HW230240   2.469   2.193   1.069
 9781SOL     OW30241   1.188   3.723   3.922
 9781SOL    HW130242   1.098   3.766   3.932
 9781SOL    HW230243   1.239   3.732   4.007
 9782SOL     OW30244   6.783   0.648   1.367
 9782SOL    HW130245   6.695   0.686   1.337
 9782SOL    HW230246   6.858   0.697   1.323
 9783SOL     OW30247   4.888   2.181   2.178
 9783SOL    HW130248   4.789   2.180   2.184
 9783SOL    HW230249   4.917   2.144   2.089
 9784SOL     OW30250   4.519   1.439   3.940
 9784SOL    HW130251   4.441   1.481   3.893
 9784SOL    HW230252   4.531   1.345   3.909
 9785SOL     OW30253   7.002   4.261   4.891
 9785SOL    HW130254   6.941   4.239   4.815
 9785SOL    HW230255   6.960   4.333   4.947
 9786SOL     OW30256   2.271   4.745   6.450
 9786SOL    HW130257   2.327   4.827   6.442
 9786SOL    HW230258   2.323   4.665   6.420
 9787SOL     OW30259   5.010   3.474   1.488
 9787SOL    HW130260   4.985   3.444   1.581
 9787SOL    HW230261   4.930   3.467   1.428
 9788SOL     OW30262   0.852   0.715   3.692
 9788SOL    HW130263   0.813   0.784   3.753
 9788SOL    HW230264   0.907   0.760   3.621
 9789SOL     OW30265   1.354   5.846   6.823
 9789SOL    HW130266   1.295   5.832   6.744
 9789SOL    HW230267   1.298   5.857   6.905
 9790SOL     OW30268   5.704   4.056   5.698
 9790SOL    HW130269   5.613   4.092   5.676
 9790SOL    HW230270   5.754   4.038   5.614
 9791SOL     OW30271   0.430   1.253   3.216
 9791SOL    HW130272   0.393   1.303   3.294
 9791SOL    HW230273   0.517   1.211   3.242
 9792SOL     OW30274   5.336   5.594   1.400
 9792SOL    HW130275   5.369   5.561   1.489
 9792SOL    HW230276   5.239   5.573   1.391
 9793SOL     OW30277   5.347   5.257   3.377
 9793SOL    HW130278   5.288   5.298   3.306
 9793SOL    HW230279   5.427   5.216   3.334
 9794SOL     OW30280   6.172   4.049   6.561
 9794SOL    HW130281   6.135   3.979   6.499
 9794SOL    HW230282   6.105   4.069   6.633
 9795SOL     OW30283   1.535   1.915   4.256
 9795SOL    HW130284   1.536   1.827   4.210
 9795SOL    HW230285   1.602   1.976   4.212
 9796SOL     OW30286   3.772   3.432   0.832
 9796SOL    HW130287   3.861   3.469   0.860
 9796SOL    HW230288   3.700   3.473   0.888
 9797SOL     OW30289   3.422   4.396   6.560
 9797SOL    HW130290   3.467   4.440   6.482
 9797SOL    HW230291   3.372   4.465   6.613
 9798SOL     OW30292   2.402   1.060   0.780
 9798SOL    HW130293   2.388   1.121   0.858
 9798SOL    HW230294   2.492   1.078   0.740
 9799SOL     OW30295   3.331   3.311   3.134
 9799SOL    HW130296   3.346   3.408   3.118
 9799SOL    HW230297   3.395   3.278   3.204
 9800SOL     OW30298   3.044   6.472   5.283
 9800SOL    HW130299   2.962   6.489   5.228
 9800SOL    HW230300   3.118   6.530   5.250
 9801SOL     OW30301   4.437   4.690   0.558
 9801SOL    HW130302   4.356   4.742   0.530
 9801SOL    HW230303   4.476   4.644   0.478
 9802SOL     OW30304   0.083   2.619   2.018
 9802SOL    HW130305   0.168   2.667   1.993
 9802SOL    HW230306   0.071   2.622   2.117
 9803SOL     OW30307   6.040   1.459   0.051
 9803SOL    HW130308   6.017   1.512   0.133
 9803SOL    HW230309   6.139   1.461   0.037
 9804SOL     OW30310   0.527   5.798   3.397
 9804SOL    HW130311   0.512   5.859   3.475
 9804SOL    HW230312   0.579   5.718   3.427
 9805SOL     OW30313   1.207   5.644   6.076
 9805SOL    HW130314   1.204   5.688   5.987
 9805SOL    HW230315   1.173   5.550   6.068
 9806SOL     OW30316   1.252   1.715   0.618
 9806SOL    HW130317   1.214   1.624   0.634
 9806SOL    HW230318   1.240   1.771   0.700
 9807SOL     OW30319   2.165   2.472   6.774
 9807SOL    HW130320   2.121   2.435   6.856
 9807SOL    HW230321   2.258   2.503   6.797
 9808SOL     OW30322   5.505   0.888   5.740
 9808SOL    HW130323   5.504   0.987   5.725
 9808SOL    HW230324   5.494   0.868   5.837
 9809SOL     OW30325   0.804   1.500   6.139
 9809SOL    HW130326   0.787   1.496   6.238
 9809SOL    HW230327   0.755   1.425   6.095
 9810SOL     OW30328   2.798   2.342   3.458
 9810SOL    HW130329   2.776   2.413   3.526
 9810SOL    HW230330   2.891   2.310   3.473
 9811SOL     OW30331   5.878   5.597   3.811
 9811SOL    HW130332   5.889   5.588   3.910
 9811SOL    HW230333   5.968   5.591   3.768
 9812SOL     OW30334   3.290   2.570   6.165
 9812SOL    HW130335   3.259   2.665   6.165
 9812SOL    HW230336   3.265   2.526   6.079
 9813SOL     OW30337   5.696   6.232   6.758
 9813SOL    HW130338   5.627   6.163   6.737
 9813SOL    HW230339   5.740   6.262   6.674
 9814SOL     OW30340   0.934   0.961   6.527
 9814SOL    HW130341   1.019   0.930   6.484
 9814SOL    HW230342   0.907   1.049   6.489
 9815SOL     OW30343   6.739   2.062   1.889
 9815SOL    HW130344   6.641   2.056   1.867
 9815SOL    HW230345   6.754   2.022   1.980
 9816SOL     OW30346   6.299   1.447   6.945
 9816SOL    HW130347   6.320   1.488   6.856
 9816SOL    HW230348   6.360   1.369   6.960
 9817SOL     OW30349   3.097   5.713   2.031
 9817SOL    HW130350   3.010   5.725   1.984
 9817SOL    HW230351   3.109   5.786   2.099
 9818SOL     OW30352   1.661   1.275   3.438
 9818SOL    HW130353   1.575   1.288   3.488
 9818SOL    HW230354   1.720   1.355   3.452
 9819SOL     OW30355   4.962   3.426   5.202
 9819SOL    HW130356   5.030   3.484   5.159
 9819SOL    HW230357   4.872   3.470   5.196
 9820SOL     OW30358   3.279   2.619   6.666
 9820SOL    HW130359   3.340   2.557   6.616
 9820SOL    HW230360   3.249   2.693   6.605
 9821SOL     OW30361   4.111   1.770   1.040
 9821SOL    HW130362   4.048   1.825   1.095
 9821SOL    HW230363   4.088   1.779   0.943
 9822SOL     OW30364   3.687   5.543   4.058
 9822SOL    HW130365   3.645   5.626   4.023
 9822SOL    HW230366   3.773   5.566   4.105
 9823SOL     OW30367   1.383   0.403   2.058
 9823SOL    HW130368   1.366   0.374   1.964
 9823SOL    HW230369   1.461   0.353   2.095
 9824SOL     OW30370   2.140   5.903   5.601
 9824SOL    HW130371   2.076   5.953   5.543
 9824SOL    HW230372   2.097   5.817   5.630
 9825SOL     OW30373   5.797   5.723   5.072
 9825SOL    HW130374   5.862   5.732   5.147
 9825SOL    HW230375   5.807   5.634   5.028
 9826SOL     OW30376   3.548   6.339   5.163
 9826SOL    HW130377   3.563   6.244   5.137
 9826SOL    HW230378   3.460   6.370   5.128
 9827SOL     OW30379   2.136   4.646   3.180
 9827SOL    HW130380   2.228   4.677   3.205
 9827SOL    HW230381   2.108   4.572   3.242
 9828SOL     OW30382   3.342   2.101   5.104
 9828SOL    HW130383   3.288   2.185   5.111
 9828SOL    HW230384   3.399   2.106   5.021
 9829SOL     OW30385   4.698   6.121   6.277
 9829SOL    HW130386   4.693   6.023   6.257
 9829SOL    HW230387   4.735   6.170   6.199
 9830SOL     OW30388   5.390   1.181   1.922
 9830SOL    HW130389   5.447   1.259   1.896
 9830SOL    HW230390   5.340   1.204   2.006
 9831SOL     OW30391   0.850   4.606   1.458
 9831SOL    HW130392   0.877   4.628   1.552
 9831SOL    HW230393   0.853   4.507   1.445
 9832SOL     OW30394   4.671   5.381   3.846
 9832SOL    HW130395   4.682   5.435   3.930
 9832SOL    HW230396   4.579   5.397   3.809
 9833SOL     OW30397   3.548   3.299   3.346
 9833SOL    HW130398   3.612   3.370   3.316
 9833SOL    HW230399   3.579   3.261   3.434
 9834SOL     OW30400   2.159   5.016   5.836
 9834SOL    HW130401   2.120   4.930   5.868
 9834SOL    HW230402   2.113   5.044   5.751
 9835SOL     OW30403   3.765   2.926   4.131
 9835SOL    HW130404   3.731   3.013   4.166
 9835SOL    HW230405   3.689   2.872   4.094
 9836SOL     OW30406   0.427   4.289   4.520
 9836SOL    HW130407   0.399   4.242   4.604
 9836SOL    HW230408   0.498   4.356   4.541
 9837SOL     OW30409   5.765   1.760   2.534
 9837SOL    HW130410   5.698   1.799   2.472
 9837SOL    HW230411   5.733   1.769   2.629
 9838SOL     OW30412   1.465   6.936   1.048
 9838SOL    HW130413   1.427   6.968   1.135
 9838SOL    HW230414   1.408   6.863   1.011
 9839SOL     OW30415   4.705   0.610   3.447
 9839SOL    HW130416   4.717   0.542   3.518
 9839SOL    HW230417   4.612   0.646   3.449
 9840SOL     OW30418   4.560   1.955   0.062
 9840SOL    HW130419   4.480   2.009   0.090
 9840SOL    HW230420   4.637   2.017   0.047
 9841SOL     OW30421   0.987   4.835   3.649
 9841SOL    HW130422   0.983   4.864   3.745
 9841SOL    HW230423   0.991   4.736   3.644
 9842SOL     OW30424   3.741   3.460   0.277
 9842SOL    HW130425   3.748   3.369   0.236
 9842SOL    HW230426   3.785   3.460   0.367
 9843SOL     OW30427   6.714   0.596   2.103
 9843SOL    HW130428   6.794   0.572   2.159
 9843SOL    HW230429   6.742   0.658   2.030
 9844SOL     OW30430   6.254   0.412   4.322
 9844SOL    HW130431   6.333   0.354   4.301
 9844SOL    HW230432   6.258   0.440   4.418
 9845SOL     OW30433   0.866   2.444   2.866
 9845SOL    HW130434   0.824   2.517   2.811
 9845SOL    HW230435   0.846   2.355   2.824
 9846SOL     OW30436   4.867   1.363   0.384
 9846SOL    HW130437   4.884   1.457   0.353
 9846SOL    HW230438   4.835   1.308   0.306
 9847SOL     OW30439   4.061   3.286   2.021
 9847SOL    HW130440   4.013   3.351   1.962
 9847SOL    HW230441   4.056   3.316   2.116
 9848SOL     OW30442   3.560   4.566   5.304
 9848SOL    HW130443   3.587   4.472   5.327
 9848SOL    HW230444   3.461   4.570   5.291
 9849SOL     OW30445   0.804   6.844   6.523
 9849SOL    HW130446   0.739   6.919   6.509
 9849SOL    HW230447   0.827   6.837   6.620
 9850SOL     OW30448   7.027   0.188   3.756
 9850SOL    HW130449   7.014   0.277   3.800
 9850SOL    HW230450   6.955   0.173   3.688
 9851SOL     OW30451   3.191   6.315   4.274
 9851SOL    HW130452   3.176   6.256   4.354
 9851SOL    HW230453   3.232   6.401   4.303
 9852SOL     OW30454   1.234   1.761   5.172
 9852SOL    HW130455   1.274   1.804   5.253
 9852SOL    HW230456   1.304   1.746   5.103
 9853SOL     OW30457   6.986   3.404   4.827
 9853SOL    HW130458   0.029   3.472   4.838
 9853SOL    HW230459   6.972   3.355   4.913
 9854SOL     OW30460   0.769   5.470   5.299
 9854SOL    HW130461   0.708   5.507   5.369
 9854SOL    HW230462   0.724   5.393   5.253
 9855SOL     OW30463   1.202   3.502   1.017
 9855SOL    HW130464   1.194   3.514   0.918
 9855SOL    HW230465   1.225   3.589   1.060
 9856SOL     OW30466   5.779   4.753   4.157
 9856SOL    HW130467   5.848   4.812   4.199
 9856SOL    HW230468   5.720   4.714   4.229
 9857SOL     OW30469   5.495   2.761   3.065
 9857SOL    HW130470   5.419   2.737   3.125
 9857SOL    HW230471   5.470   2.843   3.012
 9858SOL     OW30472   1.184   6.979   1.614
 9858SOL    HW130473   1.215   6.884   1.617
 9858SOL    HW230474   1.132   6.999   1.697
 9859SOL     OW30475   6.595   4.958   4.779
 9859SOL    HW130476   6.689   4.923   4.770
 9859SOL    HW230477   6.590   5.049   4.738
 9860SOL     OW30478   1.953   2.192   4.939
 9860SOL    HW130479   2.027   2.258   4.952
 9860SOL    HW230480   1.991   2.104   4.912
 9861SOL     OW30481   3.118   1.059   4.054
 9861SOL    HW130482   3.216   1.037   4.056
 9861SOL    HW230483   3.083   1.050   3.961
 9862SOL     OW30484   2.703   4.227   0.851
 9862SOL    HW130485   2.686   4.214   0.948
 9862SOL    HW230486   2.645   4.165   0.798
 9863SOL     OW30487   3.102   6.025   1.171
 9863SOL    HW130488   3.114   6.062   1.263
 9863SOL    HW230489   3.167   6.068   1.109
 9864SOL     OW30490   3.037   6.875   5.849
 9864SOL    HW130491   3.119   6.819   5.840
 9864SOL    HW230492   3.063   6.971   5.860
 9865SOL     OW30493   0.574   6.642   4.889
 9865SOL    HW130494   0.636   6.580   4.839
 9865SOL    HW230495   0.532   6.592   4.964
 9866SOL     OW30496   6.139   4.316   4.935
 9866SOL    HW130497   6.103   4.224   4.924
 9866SOL    HW230498   6.151   4.359   4.845
 9867SOL     OW30499   5.414   2.239   2.871
 9867SOL    HW130500   5.407   2.326   2.822
 9867SOL    HW230501   5.328   2.189   2.863
 9868SOL     OW30502   0.576   3.795   3.710
 9868SOL    HW130503   0.654   3.742   3.678
 9868SOL    HW230504   0.500   3.734   3.732
 9869SOL     OW30505   0.337   2.767   1.043
 9869SOL    HW130506   0.398   2.803   1.113
 9869SOL    HW230507   0.385   2.700   0.987
 9870SOL     OW30508   4.390   1.007   2.030
 9870SOL    HW130509   4.435   1.081   2.081
 9870SOL    HW230510   4.328   0.958   2.091
 9871SOL     OW30511   6.880   2.755   6.040
 9871SOL    HW130512   6.863   2.782   6.135
 9871SOL    HW230513   6.861   2.833   5.980
 9872SOL     OW30514   2.169   5.335   5.366
 9872SOL    HW130515   2.164   5.257   5.430
 9872SOL    HW230516   2.080   5.349   5.323
 9873SOL     OW30517   1.790   2.158   5.810
 9873SOL    HW130518   1.719   2.185   5.745
 9873SOL    HW230519   1.823   2.067   5.788
 9874SOL     OW30520   0.632   3.163   4.396
 9874SOL    HW130521   0.556   3.097   4.400
 9874SOL    HW230522   0.695   3.146   4.472
 9875SOL     OW30523   6.896   6.330   1.474
 9875SOL    HW130524   6.849   6.244   1.493
 9875SOL    HW230525   6.936   6.366   1.558
 9876SOL     OW30526   4.219   0.250   3.849
 9876SOL    HW130527   4.244   0.192   3.927
 9876SOL    HW230528   4.137   0.214   3.805
 9877SOL     OW30529   6.884   4.274   4.084
 9877SOL    HW130530   6.861   4.229   3.998
 9877SOL    HW230531   6.924   4.364   4.065
 9878SOL     OW30532   1.788   3.280   6.701
 9878SOL    HW130533   1.692   3.253   6.696
 9878SOL    HW230534   1.840   3.235   6.628
 9879SOL     OW30535   0.903   4.686   5.793
 9879SOL    HW130536   0.918   4.785   5.798
 9879SOL    HW230537   0.964   4.640   5.858
 9880SOL     OW30538   2.652   1.063   7.024
 9880SOL    HW130539   2.687   0.991   6.963
 9880SOL    HW230540   2.677   1.153   6.987
 9881SOL     OW30541   5.429   0.392   4.668
 9881SOL    HW130542   5.420   0.379   4.569
 9881SOL    HW230543   5.435   0.489   4.688
 9882SOL     OW30544   3.401   3.446   4.488
 9882SOL    HW130545   3.488   3.425   4.532
 9882SOL    HW230546   3.353   3.516   4.541
 9883SOL     OW30547   1.840   6.147   1.696
 9883SOL    HW130548   1.820   6.076   1.764
 9883SOL    HW230549   1.893   6.220   1.738
 9884SOL     OW30550   2.512   3.010   6.978
 9884SOL    HW130551   2.488   3.107   6.970
 9884SOL    HW230552   2.475   2.974   0.035
 9885SOL     OW30553   0.832   3.130   3.943
 9885SOL    HW130554   0.764   3.171   3.883
 9885SOL    HW230555   0.922   3.134   3.899
 9886SOL     OW30556   5.994   6.569   1.797
 9886SOL    HW130557   5.954   6.570   1.888
 9886SOL    HW230558   5.953   6.496   1.743
 9887SOL     OW30559   3.677   0.052   0.364
 9887SOL    HW130560   3.618   0.106   0.305
 9887SOL    HW230561   3.689   0.100   0.451
 9888SOL     OW30562   6.011   5.662   3.125
 9888SOL    HW130563   5.976   5.744   3.169
 9888SOL    HW230564   5.961   5.582   3.159
 9889SOL     OW30565   0.443   4.796   3.027
 9889SOL    HW130566   0.497   4.730   3.079
 9889SOL    HW230567   0.441   4.769   2.931
 9890SOL     OW30568   6.386   3.035   0.426
 9890SOL    HW130569   6.479   2.998   0.415
 9890SOL    HW230570   6.382   3.089   0.511
 9891SOL     OW30571   5.493   5.159   1.366
 9891SOL    HW130572   5.576   5.182   1.316
 9891SOL    HW230573   5.466   5.236   1.424
 9892SOL     OW30574   2.026   4.918   3.761
 9892SOL    HW130575   1.927   4.903   3.759
 9892SOL    HW230576   2.073   4.837   3.727
 9893SOL     OW30577   6.563   5.635   2.845
 9893SOL    HW130578   6.598   5.721   2.807
 9893SOL    HW230579   6.623   5.603   2.918
 9894SOL     OW30580   2.754   2.139   5.888
 9894SOL    HW130581   2.810   2.187   5.821
 9894SOL    HW230582   2.662   2.179   5.889
 9895SOL     OW30583   6.019   2.251   6.456
 9895SOL    HW130584   6.053   2.323   6.516
 9895SOL    HW230585   5.968   2.292   6.380
 9896SOL     OW30586   4.031   3.271   0.835
 9896SOL    HW130587   4.055   3.251   0.740
 9896SOL    HW230588   3.931   3.273   0.844
 9897SOL     OW30589   5.476   1.064   2.827
 9897SOL    HW130590   5.448   1.140   2.886
 9897SOL    HW230591   5.433   0.979   2.858
 9898SOL     OW30592   0.926   4.771   5.316
 9898SOL    HW130593   0.926   4.697   5.249
 9898SOL    HW230594   0.854   4.755   5.383
 9899SOL     OW30595   5.897   4.351   2.191
 9899SOL    HW130596   5.861   4.444   2.196
 9899SOL    HW230597   5.980   4.351   2.135
 9900SOL     OW30598   1.691   1.873   2.963
 9900SOL    HW130599   1.683   1.961   2.917
 9900SOL    HW230600   1.729   1.806   2.900
 9901SOL     OW30601   1.323   1.848   6.710
 9901SOL    HW130602   1.248   1.888   6.761
 9901SOL    HW230603   1.374   1.785   6.768
 9902SOL     OW30604   3.659   3.185   0.477
 9902SOL    HW130605   3.576   3.186   0.423
 9902SOL    HW230606   3.723   3.118   0.439
 9903SOL     OW30607   4.745   0.088   2.078
 9903SOL    HW130608   4.781   0.081   1.985
 9903SOL    HW230609   4.679   0.163   2.082
 9904SOL     OW30610   0.370   3.818   6.915
 9904SOL    HW130611   0.359   3.916   6.927
 9904SOL    HW230612   0.462   3.797   6.882
 9905SOL     OW30613   1.858   6.394   0.499
 9905SOL    HW130614   1.791   6.320   0.504
 9905SOL    HW230615   1.818   6.472   0.450
 9906SOL     OW30616   1.310   2.899   6.563
 9906SOL    HW130617   1.388   2.907   6.501
 9906SOL    HW230618   1.265   2.988   6.572
 9907SOL     OW30619   2.862   6.303   3.548
 9907SOL    HW130620   2.787   6.340   3.494
 9907SOL    HW230621   2.871   6.205   3.531
 9908SOL     OW30622   0.412   3.208   6.577
 9908SOL    HW130623   0.320   3.180   6.551
 9908SOL    HW230624   0.412   3.305   6.603
 9909SOL     OW30625   3.649   1.029   3.098
 9909SOL    HW130626   3.657   0.967   3.176
 9909SOL    HW230627   3.692   1.116   3.119
 9910SOL     OW30628   0.335   4.822   1.606
 9910SOL    HW130629   0.249   4.780   1.581
 9910SOL    HW230630   0.399   4.752   1.638
 9911SOL     OW30631   4.871   4.834   2.973
 9911SOL    HW130632   4.849   4.890   3.053
 9911SOL    HW230633   4.938   4.881   2.916
 9912SOL     OW30634   3.866   0.452   2.598
 9912SOL    HW130635   3.824   0.395   2.528
 9912SOL    HW230636   3.880   0.398   2.681
 9913SOL     OW30637   5.838   2.866   2.322
 9913SOL    HW130638   5.753   2.822   2.349
 9913SOL    HW230639   5.821   2.963   2.304
 9914SOL     OW30640   1.213   0.665   5.589
 9914SOL    HW130641   1.310   0.639   5.591
 9914SOL    HW230642   1.170   0.638   5.675
 9915SOL     OW30643   5.642   3.429   4.309
 9915SOL    HW130644   5.662   3.501   4.242
 9915SOL    HW230645   5.696   3.348   4.289
 9916SOL     OW30646   2.595   2.411   3.181
 9916SOL    HW130647   2.567   2.438   3.273
 9916SOL    HW230648   2.683   2.362   3.186
 9917SOL     OW30649   3.563   3.913   4.962
 9917SOL    HW130650   3.470   3.950   4.955
 9917SOL    HW230651   3.580   3.850   4.887
 9918SOL     OW30652   2.047   1.364   6.933
 9918SOL    HW130653   2.048   1.464   6.925
 9918SOL    HW230654   1.990   1.325   6.862
 9919SOL     OW30655   2.164   5.137   2.261
 9919SOL    HW130656   2.237   5.113   2.326
 9919SOL    HW230657   2.080   5.156   2.311
 9920SOL     OW30658   3.809   0.064   2.442
 9920SOL    HW130659   3.793   6.994   2.440
 9920SOL    HW230660   3.907   0.081   2.452
 9921SOL     OW30661   6.359   6.059   3.691
 9921SOL    HW130662   6.347   6.150   3.653
 9921SOL    HW230663   6.269   6.020   3.713
 9922SOL     OW30664   4.782   4.215   1.108
 9922SOL    HW130665   4.726   4.295   1.128
 9922SOL    HW230666   4.870   4.245   1.070
 9923SOL     OW30667   6.842   2.366   6.836
 9923SOL    HW130668   6.802   2.414   6.914
 9923SOL    HW230669   6.851   2.269   6.856
 9924SOL     OW30670   5.541   1.419   1.765
 9924SOL    HW130671   5.589   1.453   1.845
 9924SOL    HW230672   5.603   1.362   1.711
 9925SOL     OW30673   2.034   3.751   5.350
 9925SOL    HW130674   2.036   3.841   5.393
 9925SOL    HW230675   2.076   3.756   5.260
 9926SOL     OW30676   2.731   2.261   1.243
 9926SOL    HW130677   2.768   2.172   1.218
 9926SOL    HW230678   2.633   2.262   1.224
 9927SOL     OW30679   0.786   2.315   2.029
 9927SOL    HW130680   0.758   2.279   1.940
 9927SOL    HW230681   0.873   2.274   2.056
 9928SOL     OW30682   6.142   4.163   2.098
 9928SOL    HW130683   6.202   4.109   2.039
 9928SOL    HW230684   6.150   4.130   2.192
 9929SOL     OW30685   3.020   4.024   5.468
 9929SOL    HW130686   3.003   3.954   5.399
 9929SOL    HW230687   2.995   4.113   5.433
 9930SOL     OW30688   6.839   0.693   5.692
 9930SOL    HW130689   6.919   0.680   5.751
 9930SOL    HW230690   6.862   0.760   5.621
 9931SOL     OW30691   0.524   6.098   4.899
 9931SOL    HW130692   0.553   6.048   4.980
 9931SOL    HW230693   0.541   6.042   4.818
 9932SOL     OW30694   1.621   2.174   0.452
 9932SOL    HW130695   1.561   2.252   0.431
 9932SOL    HW230696   1.631   2.165   0.551
 9933SOL     OW30697   2.955   1.148   3.605
 9933SOL    HW130698   3.049   1.168   3.576
 9933SOL    HW230699   2.901   1.233   3.603
 9934SOL     OW30700   5.920   1.985   0.544
 9934SOL    HW130701   5.836   2.034   0.522
 9934SOL    HW230702   5.999   2.044   0.523
 9935SOL     OW30703   2.762   2.463   1.034
 9935SOL    HW130704   2.753   2.552   1.078
 9935SOL    HW230705   2.779   2.393   1.105
 9936SOL     OW30706   5.288   4.620   6.073
 9936SOL    HW130707   5.316   4.663   6.159
 9936SOL    HW230708   5.358   4.556   6.044
 9937SOL     OW30709   0.606   0.685   2.872
 9937SOL    HW130710   0.655   0.755   2.924
 9937SOL    HW230711   0.574   0.725   2.786
 9938SOL     OW30712   5.642   0.571   3.984
 9938SOL    HW130713   5.621   0.669   3.981
 9938SOL    HW230714   5.722   0.552   3.927
 9939SOL     OW30715   1.441   3.534   0.782
 9939SOL    HW130716   1.457   3.519   0.879
 9939SOL    HW230717   1.386   3.459   0.745
 9940SOL     OW30718   0.465   0.045   3.293
 9940SOL    HW130719   0.392   0.069   3.228
 9940SOL    HW230720   0.430   0.052   3.387
 9941SOL     OW30721   3.621   5.234   5.672
 9941SOL    HW130722   3.681   5.216   5.594
 9941SOL    HW230723   3.677   5.259   5.751
 9942SOL     OW30724   4.651   4.726   2.460
 9942SOL    HW130725   4.689   4.666   2.389
 9942SOL    HW230726   4.563   4.690   2.490
 9943SOL     OW30727   1.466   4.557   6.172
 9943SOL    HW130728   1.408   4.503   6.232
 9943SOL    HW230729   1.441   4.653   6.178
 9944SOL     OW30730   0.658   5.276   5.997
 9944SOL    HW130731   0.562   5.306   6.001
 9944SOL    HW230732   0.717   5.351   6.027
 9945SOL     OW30733   6.025   3.994   6.998
 9945SOL    HW130734   6.008   3.979   6.900
 9945SOL    HW230735   5.938   3.993   0.018
 9946SOL     OW30736   5.800   0.088   3.161
 9946SOL    HW130737   5.734   0.125   3.095
 9946SOL    HW230738   5.810   0.152   3.237
 9947SOL     OW30739   1.253   1.708   3.996
 9947SOL    HW130740   1.296   1.688   3.908
 9947SOL    HW230741   1.159   1.674   3.996
 9948SOL     OW30742   6.653   5.981   4.958
 9948SOL    HW130743   6.656   5.889   4.919
 9948SOL    HW230744   6.738   6.029   4.937
 9949SOL     OW30745   0.148   4.811   4.282
 9949SOL    HW130746   0.099   4.842   4.200
 9949SOL    HW230747   0.088   4.752   4.336
 9950SOL     OW30748   6.671   5.107   6.215
 9950SOL    HW130749   6.684   5.009   6.199
 9950SOL    HW230750   6.712   5.133   6.302
 9951SOL     OW30751   1.174   2.904   2.794
 9951SOL    HW130752   1.100   2.837   2.787
 9951SOL    HW230753   1.238   2.875   2.866
 9952SOL     OW30754   0.631   3.745   1.850
 9952SOL    HW130755   0.710   3.688   1.871
 9952SOL    HW230756   0.555   3.720   1.910
 9953SOL     OW30757   6.674   2.551   3.937
 9953SOL    HW130758   6.593   2.518   3.985
 9953SOL    HW230759   6.653   2.639   3.893
 9954SOL     OW30760   2.290   1.825   5.101
 9954SOL    HW130761   2.254   1.749   5.047
 9954SOL    HW230762   2.384   1.844   5.072
 9955SOL     OW30763   4.498   3.295   6.867
 9955SOL    HW130764   4.588   3.306   6.911
 9955SOL    HW230765   4.430   3.271   6.936
 9956SOL     OW30766   0.380   4.656   2.243
 9956SOL    HW130767   0.294   4.701   2.217
 9956SOL    HW230768   0.359   4.581   2.307
 9957SOL     OW30769   5.364   0.147   1.257
 9957SOL    HW130770   5.327   0.218   1.317
 9957SOL    HW230771   5.440   0.186   1.204
 9958SOL     OW30772   3.545   5.424   6.547
 9958SOL    HW130773   3.589   5.375   6.472
 9958SOL    HW230774   3.596   5.508   6.566
 9959SOL     OW30775   4.143   3.574   1.739
 9959SOL    HW130776   4.096   3.597   1.654
 9959SOL    HW230777   4.076   3.555   1.811
 9960SOL     OW30778   6.840   6.147   1.166
 9960SOL    HW130779   6.897   6.065   1.165
 9960SOL    HW230780   6.816   6.170   1.260
 9961SOL     OW30781   1.620   4.624   2.410
 9961SOL    HW130782   1.523   4.613   2.435
 9961SOL    HW230783   1.630   4.702   2.348
 9962SOL     OW30784   3.554   0.496   1.796
 9962SOL    HW130785   3.641   0.520   1.838
 9962SOL    HW230786   3.512   0.578   1.757
 9963SOL     OW30787   2.861   2.458   0.602
 9963SOL    HW130788   2.881   2.497   0.511
 9963SOL    HW230789   2.762   2.442   0.610
 9964SOL     OW30790   4.184   5.124   5.948
 9964SOL    HW130791   4.108   5.158   6.003
 9964SOL    HW230792   4.254   5.086   6.009
 9965SOL     OW30793   3.935   5.375   5.074
 9965SOL    HW130794   3.935   5.464   5.028
 9965SOL    HW230795   3.852   5.367   5.130
 9966SOL     OW30796   3.036   4.885   2.093
 9966SOL    HW130797   2.961   4.821   2.109
 9966SOL    HW230798   3.001   4.979   2.095
 9967SOL     OW30799   6.245   5.716   2.660
 9967SOL    HW130800   6.325   5.684   2.608
 9967SOL    HW230801   6.254   5.814   2.675
 9968SOL     OW30802   4.505   5.770   0.078
 9968SOL    HW130803   4.440   5.713   0.028
 9968SOL    HW230804   4.471   5.863   0.085
 9969SOL     OW30805   1.198   3.851   4.179
 9969SOL    HW130806   1.197   3.780   4.250
 9969SOL    HW230807   1.287   3.897   4.179
 9970SOL     OW30808   5.774   4.762   1.713
 9970SOL    HW130809   5.757   4.713   1.798
 9970SOL    HW230810   5.867   4.799   1.713
 9971SOL     OW30811   1.232   2.525   1.470
 9971SOL    HW130812   1.241   2.613   1.424
 9971SOL    HW230813   1.221   2.540   1.568
 9972SOL     OW30814   2.968   3.915   1.354
 9972SOL    HW130815   2.977   4.014   1.344
 9972SOL    HW230816   2.963   3.873   1.263
 9973SOL     OW30817   4.663   2.840   5.189
 9973SOL    HW130818   4.711   2.919   5.152
 9973SOL    HW230819   4.682   2.760   5.131
 9974SOL     OW30820   6.964   1.618   2.990
 9974SOL    HW130821   6.944   1.537   3.046
 9974SOL    HW230822   6.886   1.639   2.932
 9975SOL     OW30823   1.042   5.036   6.495
 9975SOL    HW130824   1.035   5.052   6.594
 9975SOL    HW230825   0.961   5.073   6.450
 9976SOL     OW30826   0.673   5.148   5.681
 9976SOL    HW130827   0.732   5.228   5.685
 9976SOL    HW230828   0.681   5.096   5.766
 9977SOL     OW30829   5.402   4.652   5.678
 9977SOL    HW130830   5.352   4.601   5.608
 9977SOL    HW230831   5.338   4.685   5.747
 9978SOL     OW30832   0.175   1.764   5.745
 9978SOL    HW130833   0.173   1.848   5.690
 9978SOL    HW230834   0.224   1.693   5.695
 9979SOL     OW30835   5.738   4.258   5.913
 9979SOL    HW130836   5.650   4.232   5.954
 9979SOL    HW230837   5.751   4.207   5.828
 9980SOL     OW30838   2.159   0.554   0.734
 9980SOL    HW130839   2.167   0.532   0.831
 9980SOL    HW230840   2.149   0.469   0.682
 9981SOL     OW30841   1.689   2.303   1.208
 9981SOL    HW130842   1.603   2.262   1.175
 9981SOL    HW230843   1.718   2.375   1.145
 9982SOL     OW30844   1.937   1.051   4.367
 9982SOL    HW130845   1.978   1.103   4.292
 9982SOL    HW230846   2.003   1.045   4.443
 9983SOL     OW30847   6.680   1.764   2.434
 9983SOL    HW130848   6.608   1.797   2.373
 9983SOL    HW230849   6.752   1.832   2.441
 9984SOL     OW30850   0.279   6.159   0.649
 9984SOL    HW130851   0.220   6.081   0.629
 9984SOL    HW230852   0.223   6.243   0.653
 9985SOL     OW30853   2.915   5.195   0.881
 9985SOL    HW130854   2.987   5.238   0.937
 9985SOL    HW230855   2.870   5.265   0.825
 9986SOL     OW30856   6.193   4.789   0.524
 9986SOL    HW130857   6.139   4.863   0.485
 9986SOL    HW230858   6.147   4.753   0.605
 9987SOL     OW30859   5.230   2.620   1.606
 9987SOL    HW130860   5.261   2.695   1.665
 9987SOL    HW230861   5.149   2.578   1.646
 9988SOL     OW30862   0.227   5.156   4.196
 9988SOL    HW130863   0.243   5.085   4.265
 9988SOL    HW230864   0.296   5.148   4.124
 9989SOL     OW30865   5.823   3.827   1.795
 9989SOL    HW130866   5.776   3.867   1.874
 9989SOL    HW230867   5.908   3.876   1.779
 9990SOL     OW30868   1.769   6.032   3.197
 9990SOL    HW130869   1.849   5.978   3.220
 9990SOL    HW230870   1.753   6.101   3.267
 9991SOL     OW30871   2.180   3.312   4.104
 9991SOL    HW130872   2.272   3.302   4.144
 9991SOL    HW230873   2.112   3.282   4.171
 9992SOL     OW30874   3.279   3.321   0.840
 9992SOL    HW130875   3.195   3.295   0.886
 9992SOL    HW230876   3.345   3.245   0.845
 9993SOL     OW30877   3.525   6.466   3.967
 9993SOL    HW130878   3.448   6.502   4.019
 9993SOL    HW230879   3.590   6.540   3.948
 9994SOL     OW30880   0.085   3.851   3.150
 9994SOL    HW130881   0.044   3.762   3.167
 9994SOL    HW230882   0.032   3.900   3.081
 9995SOL     OW30883   3.805   1.247   3.174
 9995SOL    HW130884   3.777   1.231   3.269
 9995SOL    HW230885   3.791   1.343   3.150
 9996SOL     OW30886   3.026   4.038   0.967
 9996SOL    HW130887   3.030   4.138   0.957
 9996SOL    HW230888   3.108   4.006   1.014
 9997SOL     OW30889   5.611   0.885   3.296
 9997SOL    HW130890   5.639   0.859   3.204
 9997SOL    HW230891   5.521   0.929   3.293
 9998SOL     OW30892   5.139   3.827   2.025
 9998SOL    HW130893   5.080   3.857   2.100
 9998SOL    HW230894   5.185   3.742   2.050
 9999SOL     OW30895   0.433   6.312   4.647
 9999SOL    HW130896   0.445   6.250   4.724
 9999SOL    HW230897   0.518   6.318   4.595
10000SOL     OW30898   5.720   1.819   0.889
10000SOL    HW130899   5.655   1.842   0.961
10000SOL    HW230900   5.764   1.732   0.910
10001SOL     OW30901   3.195   6.994   1.972
10001SOL    HW130902   3.175   6.906   1.930
10001SOL    HW230903   3.131   7.010   2.048
10002SOL     OW30904   2.996   1.337   0.845
10002SOL    HW130905   2.919   1.395   0.869
10002SOL    HW230906   2.978   1.290   0.759
10003SOL     OW30907   3.266   1.814   2.605
10003SOL    HW130908   3.334   1.766   2.550
10003SOL    HW230909   3.303   1.902   2.634
10004SOL     OW30910   5.211   3.611   5.224
10004SOL    HW130911   5.187   3.640   5.317
10004SOL    HW230912   5.279   3.538   5.229
10005SOL     OW30913   3.630   5.235   2.951
10005SOL    HW130914   3.587   5.306   2.895
10005SOL    HW230915   3.654   5.274   3.040
10006SOL     OW30916   5.382   6.581   5.344
10006SOL    HW130917   5.447   6.506   5.356
10006SOL    HW230918   5.428   6.658   5.299
10007SOL     OW30919   0.709   3.731   4.562
10007SOL    HW130920   0.690   3.645   4.514
10007SOL    HW230921   0.751   3.712   4.650
10008SOL     OW30922   4.904   1.727   3.538
10008SOL    HW130923   4.898   1.768   3.447
10008SOL    HW230924   4.865   1.635   3.535
10009SOL     OW30925   2.210   4.372   1.749
10009SOL    HW130926   2.294   4.355   1.801
10009SOL    HW230927   2.224   4.347   1.653
10010SOL     OW30928   2.756   5.783   6.972
10010SOL    HW130929   2.797   5.873   6.956
10010SOL    HW230930   2.711   5.783   0.033
10011SOL     OW30931   0.303   4.087   6.895
10011SOL    HW130932   0.315   4.156   6.823
10011SOL    HW230933   0.371   4.103   6.967
10012SOL     OW30934   5.296   6.848   2.365
10012SOL    HW130935   5.228   6.777   2.381
10012SOL    HW230936   5.310   6.901   2.448
10013SOL     OW30937   1.335   3.137   3.810
10013SOL    HW130938   1.423   3.122   3.766
10013SOL    HW230939   1.315   3.235   3.811
10014SOL     OW30940   0.701   6.987   2.113
10014SOL    HW130941   0.795   6.984   2.079
10014SOL    HW230942   0.638   6.966   2.038
10015SOL     OW30943   4.234   5.265   0.583
10015SOL    HW130944   4.199   5.292   0.493
10015SOL    HW230945   4.162   5.276   0.651
10016SOL     OW30946   2.459   1.252   5.000
10016SOL    HW130947   2.547   1.295   4.985
10016SOL    HW230948   2.387   1.321   4.999
10017SOL     OW30949   1.440   1.633   2.855
10017SOL    HW130950   1.374   1.557   2.858
10017SOL    HW230951   1.532   1.596   2.844
10018SOL     OW30952   6.766   4.477   5.696
10018SOL    HW130953   6.762   4.390   5.746
10018SOL    HW230954   6.702   4.475   5.619
10019SOL     OW30955   0.173   1.478   3.035
10019SOL    HW130956   0.162   1.379   3.035
10019SOL    HW230957   0.084   1.522   3.022
10020SOL     OW30958   0.414   0.865   1.991
10020SOL    HW130959   0.451   0.807   1.919
10020SOL    HW230960   0.318   0.886   1.971
10021SOL     OW30961   0.594   3.054   2.598
10021SOL    HW130962   0.546   3.137   2.624
10021SOL    HW230963   0.599   3.047   2.499
10022SOL     OW30964   3.338   5.900   0.606
10022SOL    HW130965   3.273   5.869   0.675
10022SOL    HW230966   3.425   5.923   0.650
10023SOL     OW30967   1.932   5.104   5.008
10023SOL    HW130968   1.856   5.045   4.980
10023SOL    HW230969   2.018   5.053   5.000
10024SOL     OW30970   0.945   5.363   2.670
10024SOL    HW130971   0.930   5.462   2.672
10024SOL    HW230972   1.028   5.341   2.721
10025SOL     OW30973   1.386   3.141   2.007
10025SOL    HW130974   1.440   3.116   1.927
10025SOL    HW230975   1.427   3.221   2.052
10026SOL     OW30976   4.967   6.979   3.047
10026SOL    HW130977   5.065   6.961   3.057
10026SOL    HW230978   4.949   0.047   3.064
10027SOL     OW30979   0.519   2.438   5.037
10027SOL    HW130980   0.435   2.391   5.064
10027SOL    HW230981   0.591   2.418   5.104
10028SOL     OW30982   1.847   1.592   1.895
10028SOL    HW130983   1.792   1.673   1.875
10028SOL    HW230984   1.934   1.619   1.936
10029SOL     OW30985   1.772   2.824   3.641
10029SOL    HW130986   1.839   2.887   3.601
10029SOL    HW230987   1.683   2.840   3.599
10030SOL     OW30988   3.427   0.401   5.177
10030SOL    HW130989   3.340   0.385   5.223
10030SOL    HW230990   3.502   0.375   5.238
10031SOL     OW30991   5.067   5.018   4.483
10031SOL    HW130992   5.021   4.989   4.400
10031SOL    HW230993   5.145   5.076   4.460
10032SOL     OW30994   4.653   0.377   5.760
10032SOL    HW130995   4.633   0.462   5.809
10032SOL    HW230996   4.637   0.390   5.662
10033SOL     OW30997   4.568   2.205   4.207
10033SOL    HW130998   4.600   2.246   4.292
10033SOL    HW230999   4.471   2.185   4.213
10034SOL     OW31000   2.825   0.354   3.779
10034SOL    HW131001   2.776   0.400   3.705
10034SOL    HW231002   2.765   0.286   3.822
10035SOL     OW31003   6.407   4.465   0.691
10035SOL    HW131004   6.463   4.434   0.613
10035SOL    HW231005   6.317   4.423   0.685
10036SOL     OW31006   7.014   0.540   0.517
10036SOL    HW131007   0.074   0.496   0.506
10036SOL    HW231008   7.026   0.639   0.527
10037SOL     OW31009   6.525   0.478   0.155
10037SOL    HW131010   6.538   0.540   0.232
10037SOL    HW231011   6.578   0.511   0.076
10038SOL     OW31012   4.457   0.230   6.576
10038SOL    HW131013   4.408   0.159   6.628
10038SOL    HW231014   4.397   0.308   6.562
10039SOL     OW31015   5.122   6.472   5.651
10039SOL    HW131016   5.152   6.546   5.590
10039SOL    HW231017   5.023   6.475   5.661
10040SOL     OW31018   4.442   5.772   6.077
10040SOL    HW131019   4.359   5.716   6.078
10040SOL    HW231020   4.420   5.863   6.041
10041SOL     OW31021   5.391   5.680   6.299
10041SOL    HW131022   5.367   5.703   6.393
10041SOL    HW231023   5.309   5.651   6.250
10042SOL     OW31024   0.998   1.243   5.183
10042SOL    HW131025   1.078   1.196   5.219
10042SOL    HW231026   0.939   1.178   5.134
10043SOL     OW31027   0.185   1.411   4.100
10043SOL    HW131028   0.266   1.428   4.044
10043SOL    HW231029   0.211   1.403   4.196
10044SOL     OW31030   3.012   1.926   3.151
10044SOL    HW131031   3.014   1.841   3.203
10044SOL    HW231032   3.085   1.986   3.183
10045SOL     OW31033   4.842   6.943   3.532
10045SOL    HW131034   4.804   7.018   3.478
10045SOL    HW231035   4.921   6.976   3.584
10046SOL     OW31036   1.440   3.183   1.308
10046SOL    HW131037   1.380   3.156   1.232
10046SOL    HW231038   1.426   3.280   1.328
10047SOL     OW31039   5.551   3.539   5.134
10047SOL    HW131040   5.506   3.627   5.116
10047SOL    HW231041   5.544   3.481   5.053
10048SOL     OW31042   3.934   2.004   2.385
10048SOL    HW131043   3.937   2.068   2.308
10048SOL    HW231044   3.994   1.926   2.364
10049SOL     OW31045   0.346   0.251   6.337
10049SOL    HW131046   0.442   0.257   6.363
10049SOL    HW231047   0.328   0.313   6.261
10050SOL     OW31048   6.456   2.417   5.485
10050SOL    HW131049   6.395   2.484   5.441
10050SOL    HW231050   6.551   2.440   5.465
10051SOL     OW31051   6.418   1.913   5.392
10051SOL    HW131052   6.398   1.840   5.457
10051SOL    HW231053   6.398   2.001   5.433
10052SOL     OW31054   2.747   2.097   2.803
10052SOL    HW131055   2.749   2.134   2.896
10052SOL    HW231056   2.839   2.064   2.779
10053SOL     OW31057   3.760   5.734   1.812
10053SOL    HW131058   3.823   5.667   1.852
10053SOL    HW231059   3.666   5.700   1.820
10054SOL     OW31060   4.527   5.575   6.281
10054SOL    HW131061   4.481   5.638   6.219
10054SOL    HW231062   4.461   5.514   6.323
10055SOL     OW31063   6.147   2.251   5.645
10055SOL    HW131064   6.149   2.351   5.653
10055SOL    HW231065   6.176   2.210   5.732
10056SOL     OW31066   6.370   4.818   1.391
10056SOL    HW131067   6.412   4.902   1.356
10056SOL    HW231068   6.413   4.739   1.348
10057SOL     OW31069   3.877   2.214   4.671
10057SOL    HW131070   3.970   2.220   4.636
10057SOL    HW231071   3.867   2.273   4.752
10058SOL     OW31072   0.690   3.983   4.491
10058SOL    HW131073   0.610   3.994   4.432
10058SOL    HW231074   0.696   3.888   4.522
10059SOL     OW31075   5.304   6.454   0.751
10059SOL    HW131076   5.286   6.369   0.703
10059SOL    HW231077   5.393   6.490   0.724
10060SOL     OW31078   2.084   1.684   1.986
10060SOL    HW131079   2.150   1.621   1.944
10060SOL    HW231080   2.110   1.778   1.964
10061SOL     OW31081   5.389   1.338   4.690
10061SOL    HW131082   5.300   1.362   4.727
10061SOL    HW231083   5.447   1.419   4.687
10062SOL     OW31084   6.428   0.270   4.606
10062SOL    HW131085   6.523   0.298   4.616
10062SOL    HW231086   6.369   0.351   4.610
10063SOL     OW31087   1.603   1.469   3.793
10063SOL    HW131088   1.604   1.519   3.706
10063SOL    HW231089   1.684   1.410   3.798
10064SOL     OW31090   5.250   6.080   6.659
10064SOL    HW131091   5.177   6.146   6.642
10064SOL    HW231092   5.238   6.040   6.750
10065SOL     OW31093   2.275   0.125   2.666
10065SOL    HW131094   2.313   0.078   2.746
10065SOL    HW231095   2.343   0.190   2.631
10066SOL     OW31096   1.120   1.072   3.562
10066SOL    HW131097   1.218   1.071   3.579
10066SOL    HW231098   1.100   1.128   3.482
10067SOL     OW31099   6.386   4.132   4.996
10067SOL    HW131100   6.367   4.086   5.082
10067SOL    HW231101   6.330   4.215   4.989
10068SOL     OW31102   6.348   3.225   3.133
10068SOL    HW131103   6.365   3.136   3.176
10068SOL    HW231104   6.330   3.212   3.035
10069SOL     OW31105   1.940   5.412   3.575
10069SOL    HW131106   1.840   5.405   3.572
10069SOL    HW231107   1.974   5.438   3.485
10070SOL     OW31108   6.598   7.027   4.676
10070SOL    HW131109   6.506   6.993   4.694
10070SOL    HW231110   6.613   0.083   4.727
10071SOL     OW31111   5.688   5.572   3.613
10071SOL    HW131112   5.713   5.515   3.535
10071SOL    HW231113   5.757   5.561   3.685
10072SOL     OW31114   0.507   6.012   3.684
10072SOL    HW131115   0.409   5.992   3.685
10072SOL    HW231116   0.540   6.020   3.777
10073SOL     OW31117   5.955   4.592   4.886
10073SOL    HW131118   6.031   4.595   4.822
10073SOL    HW231119   5.990   4.579   4.979
10074SOL     OW31120   1.260   1.072   5.337
10074SOL    HW131121   1.244   1.148   5.400
10074SOL    HW231122   1.357   1.066   5.315
10075SOL     OW31123   1.244   2.762   3.039
10075SOL    HW131124   1.152   2.792   3.063
10075SOL    HW231125   1.238   2.674   2.991
10076SOL     OW31126   6.823   0.214   3.578
10076SOL    HW131127   6.802   0.119   3.558
10076SOL    HW231128   6.754   0.273   3.537
10077SOL     OW31129   3.810   3.406   5.685
10077SOL    HW131130   3.772   3.314   5.695
10077SOL    HW231131   3.777   3.464   5.758
10078SOL     OW31132   0.114   5.724   3.678
10078SOL    HW131133   0.035   5.716   3.618
10078SOL    HW231134   0.084   5.727   3.773
10079SOL     OW31135   0.384   4.110   2.063
10079SOL    HW131136   0.466   4.073   2.021
10079SOL    HW231137   0.379   4.209   2.046
10080SOL     OW31138   3.540   1.448   5.320
10080SOL    HW131139   3.505   1.367   5.367
10080SOL    HW231140   3.504   1.449   5.226
10081SOL     OW31141   0.257   0.055   0.643
10081SOL    HW131142   0.211   0.046   0.732
10081SOL    HW231143   0.336   7.024   0.640
10082SOL     OW31144   0.155   4.774   2.160
10082SOL    HW131145   0.169   4.785   2.062
10082SOL    HW231146   0.064   4.809   2.185
10083SOL     OW31147   4.834   0.803   3.084
10083SOL    HW131148   4.842   0.730   3.151
10083SOL    HW231149   4.821   0.764   2.993
10084SOL     OW31150   3.227   1.023   5.681
10084SOL    HW131151   3.309   1.046   5.733
10084SOL    HW231152   3.156   1.092   5.696
10085SOL     OW31153   1.157   6.513   2.103
10085SOL    HW131154   1.201   6.593   2.144
10085SOL    HW231155   1.093   6.473   2.170
10086SOL     OW31156   5.623   5.493   1.966
10086SOL    HW131157   5.587   5.400   1.957
10086SOL    HW231158   5.718   5.489   1.996
10087SOL     OW31159   0.348   6.688   3.743
10087SOL    HW131160   0.374   6.596   3.773
10087SOL    HW231161   0.252   6.704   3.766
10088SOL     OW31162   6.875   0.307   0.115
10088SOL    HW131163   6.782   0.275   0.098
10088SOL    HW231164   6.895   0.386   0.058
10089SOL     OW31165   3.015   2.198   2.523
10089SOL    HW131166   2.959   2.260   2.468
10089SOL    HW231167   3.099   2.177   2.474
10090SOL     OW31168   1.113   4.986   1.098
10090SOL    HW131169   1.054   5.019   1.023
10090SOL    HW231170   1.068   4.910   1.145
10091SOL     OW31171   1.273   3.740   5.723
10091SOL    HW131172   1.316   3.828   5.706
10091SOL    HW231173   1.211   3.719   5.647
10092SOL     OW31174   1.653   3.248   4.758
10092SOL    HW131175   1.675   3.246   4.661
10092SOL    HW231176   1.554   3.255   4.770
10093SOL     OW31177   6.875   3.780   4.581
10093SOL    HW131178   6.875   3.835   4.497
10093SOL    HW231179   6.937   3.820   4.648
10094SOL     OW31180   1.884   5.858   2.185
10094SOL    HW131181   1.900   5.906   2.272
10094SOL    HW231182   1.846   5.768   2.203
10095SOL     OW31183   6.172   2.049   5.195
10095SOL    HW131184   6.121   1.964   5.194
10095SOL    HW231185   6.231   2.052   5.275
10096SOL     OW31186   5.295   5.016   2.249
10096SOL    HW131187   5.238   4.943   2.212
10096SOL    HW231188   5.320   4.995   2.344
10097SOL     OW31189   0.956   1.056   0.620
10097SOL    HW131190   1.021   1.045   0.696
10097SOL    HW231191   0.871   1.008   0.641
10098SOL     OW31192   2.344   0.546   5.326
10098SOL    HW131193   2.370   0.466   5.380
10098SOL    HW231194   2.266   0.591   5.369
10099SOL     OW31195   6.913   5.073   1.092
10099SOL    HW131196   6.889   5.041   1.184
10099SOL    HW231197   6.833   5.067   1.033
10100SOL     OW31198   4.964   0.065   4.622
10100SOL    HW131199   5.044   0.078   4.679
10100SOL    HW231200   4.992   0.027   4.533
10101SOL     OW31201   5.885   3.976   1.351
10101SOL    HW131202   5.893   3.919   1.269
10101SOL    HW231203   5.822   3.933   1.415
10102SOL     OW31204   1.240   0.950   2.441
10102SOL    HW131205   1.322   0.958   2.384
10102SOL    HW231206   1.226   1.034   2.492
10103SOL     OW31207   2.377   1.569   6.162
10103SOL    HW131208   2.465   1.556   6.117
10103SOL    HW231209   2.392   1.588   6.259
10104SOL     OW31210   1.262   2.398   4.023
10104SOL    HW131211   1.295   2.422   3.931
10104SOL    HW231212   1.324   2.331   4.063
10105SOL     OW31213   1.044   0.532   0.650
10105SOL    HW131214   1.121   0.545   0.588
10105SOL    HW231215   1.028   0.616   0.701
10106SOL     OW31216   4.220   6.742   0.631
10106SOL    HW131217   4.319   6.741   0.615
10106SOL    HW231218   4.186   6.648   0.634
10107SOL     OW31219   0.369   1.098   6.623
10107SOL    HW131220   0.324   1.132   6.706
10107SOL    HW231221   0.390   1.001   6.633
10108SOL     OW31222   6.558   6.520   0.113
10108SOL    HW131223   6.544   6.425   0.143
10108SOL    HW231224   6.555   6.581   0.192
10109SOL     OW31225   4.459   0.409   0.772
10109SOL    HW131226   4.517   0.486   0.749
10109SOL    HW231227   4.424   0.367   0.688
10110SOL     OW31228   4.450   6.002   5.094
10110SOL    HW131229   4.362   6.030   5.057
10110SOL    HW231230   4.474   5.911   5.059
10111SOL     OW31231   5.335   3.737   3.735
10111SOL    HW131232   5.264   3.784   3.786
10111SOL    HW231233   5.293   3.677   3.667
10112SOL     OW31234   5.773   3.723   3.780
10112SOL    HW131235   5.816   3.645   3.825
10112SOL    HW231236   5.709   3.690   3.710
10113SOL     OW31237   4.277   0.154   5.756
10113SOL    HW131238   4.241   0.187   5.843
10113SOL    HW231239   4.289   0.230   5.693
10114SOL     OW31240   6.100   1.225   0.926
10114SOL    HW131241   6.023   1.164   0.943
10114SOL    HW231242   6.106   1.245   0.828
10115SOL     OW31243   3.769   1.479   4.440
10115SOL    HW131244   3.829   1.437   4.371
10115SOL    HW231245   3.824   1.534   4.503
10116SOL     OW31246   0.171   5.930   0.574
10116SOL    HW131247   0.076   5.900   0.582
10116SOL    HW231248   0.192   5.952   0.478
10117SOL     OW31249   6.845   6.077   5.280
10117SOL    HW131250   6.799   6.118   5.201
10117SOL    HW231251   6.917   6.015   5.247
10118SOL     OW31252   2.057   5.234   2.877
10118SOL    HW131253   2.092   5.257   2.968
10118SOL    HW231254   1.968   5.276   2.864
10119SOL     OW31255   0.747   5.717   4.456
10119SOL    HW131256   0.824   5.667   4.416
10119SOL    HW231257   0.781   5.790   4.515
10120SOL     OW31258   1.863   3.916   4.837
10120SOL    HW131259   1.933   3.846   4.825
10120SOL    HW231260   1.903   4.006   4.818
10121SOL     OW31261   6.545   4.104   6.344
10121SOL    HW131262   6.511   4.057   6.262
10121SOL    HW231263   6.592   4.188   6.318
10122SOL     OW31264   6.206   2.732   1.370
10122SOL    HW131265   6.183   2.639   1.397
10122SOL    HW231266   6.290   2.732   1.315
10123SOL     OW31267   5.836   6.984   0.222
10123SOL    HW131268   5.917   7.021   0.267
10123SOL    HW231269   5.864   6.923   0.148
10124SOL     OW31270   1.625   3.974   0.401
10124SOL    HW131271   1.555   4.021   0.348
10124SOL    HW231272   1.609   3.875   0.398
10125SOL     OW31273   1.819   1.320   2.310
10125SOL    HW131274   1.780   1.276   2.391
10125SOL    HW231275   1.900   1.270   2.281
10126SOL     OW31276   0.457   6.792   5.967
10126SOL    HW131277   0.398   6.718   5.935
10126SOL    HW231278   0.546   6.785   5.922
10127SOL     OW31279   2.620   4.636   6.805
10127SOL    HW131280   2.665   4.638   6.895
10127SOL    HW231281   2.676   4.685   6.739
10128SOL     OW31282   2.217   1.352   1.233
10128SOL    HW131283   2.199   1.314   1.324
10128SOL    HW231284   2.130   1.376   1.189
10129SOL     OW31285   5.849   2.038   2.957
10129SOL    HW131286   5.864   2.011   2.862
10129SOL    HW231287   5.792   1.971   3.003
10130SOL     OW31288   1.217   3.742   1.976
10130SOL    HW131289   1.247   3.671   1.914
10130SOL    HW231290   1.158   3.806   1.928
10131SOL     OW31291   1.409   7.011   4.191
10131SOL    HW131292   1.374   6.973   4.104
10131SOL    HW231293   1.454   0.069   4.173
10132SOL     OW31294   3.282   0.054   5.294
10132SOL    HW131295   3.243   0.146   5.290
10132SOL    HW231296   3.287   0.016   5.202
10133SOL     OW31297   4.350   6.396   1.054
10133SOL    HW131298   4.265   6.368   1.010
10133SOL    HW231299   4.338   6.487   1.095
10134SOL     OW31300   0.109   6.470   3.556
10134SOL    HW131301   0.058   6.419   3.487
10134SOL    HW231302   0.134   6.409   3.631
10135SOL     OW31303   4.939   3.314   3.758
10135SOL    HW131304   4.955   3.228   3.808
10135SOL    HW231305   4.963   3.302   3.662
10136SOL     OW31306   4.873   0.221   3.242
10136SOL    HW131307   4.795   0.259   3.292
10136SOL    HW231308   4.881   0.267   3.153
10137SOL     OW31309   5.886   4.276   4.042
10137SOL    HW131310   5.939   4.250   3.961
10137SOL    HW231311   5.827   4.354   4.021
10138SOL     OW31312   5.130   3.533   0.622
10138SOL    HW131313   5.054   3.564   0.680
10138SOL    HW231314   5.193   3.608   0.605
10139SOL     OW31315   3.835   4.061   3.385
10139SOL    HW131316   3.833   4.079   3.484
10139SOL    HW231317   3.910   3.999   3.364
10140SOL     OW31318   6.076   6.240   0.037
10140SOL    HW131319   6.104   6.334   0.053
10140SOL    HW231320   6.052   6.227   6.970
10141SOL     OW31321   4.100   1.938   5.152
10141SOL    HW131322   4.025   1.872   5.142
10141SOL    HW231323   4.186   1.890   5.164
10142SOL     OW31324   6.205   6.353   4.826
10142SOL    HW131325   6.123   6.307   4.791
10142SOL    HW231326   6.255   6.291   4.887
10143SOL     OW31327   4.593   1.314   6.304
10143SOL    HW131328   4.576   1.412   6.312
10143SOL    HW231329   4.536   1.264   6.370
10144SOL     OW31330   3.678   0.526   6.452
10144SOL    HW131331   3.677   0.542   6.551
10144SOL    HW231332   3.717   0.436   6.433
10145SOL     OW31333   2.836   5.763   4.622
10145SOL    HW131334   2.835   5.665   4.644
10145SOL    HW231335   2.793   5.777   4.533
10146SOL     OW31336   4.237   5.144   4.908
10146SOL    HW131337   4.298   5.065   4.915
10146SOL    HW231338   4.175   5.131   4.830
10147SOL     OW31339   5.291   3.943   5.408
10147SOL    HW131340   5.224   3.873   5.434
10147SOL    HW231341   5.281   4.023   5.467
10148SOL     OW31342   4.783   5.755   6.910
10148SOL    HW131343   4.738   5.829   6.959
10148SOL    HW231344   4.863   5.723   6.961
10149SOL     OW31345   5.937   3.149   0.607
10149SOL    HW131346   6.025   3.192   0.630
10149SOL    HW231347   5.894   3.199   0.532
10150SOL     OW31348   3.997   4.095   0.129
10150SOL    HW131349   3.902   4.127   0.130
10150SOL    HW231350   4.008   4.021   0.195
10151SOL     OW31351   0.864   6.753   6.799
10151SOL    HW131352   0.870   6.755   6.899
10151SOL    HW231353   0.948   6.714   6.761
10152SOL     OW31354   6.706   6.103   4.213
10152SOL    HW131355   6.715   6.202   4.199
10152SOL    HW231356   6.681   6.085   4.308
10153SOL     OW31357   5.038   6.506   4.225
10153SOL    HW131358   4.976   6.526   4.149
10153SOL    HW231359   5.014   6.417   4.264
10154SOL     OW31360   5.085   6.802   5.862
10154SOL    HW131361   4.992   6.773   5.885
10154SOL    HW231362   5.101   6.789   5.765
10155SOL     OW31363   3.931   2.368   5.611
10155SOL    HW131364   3.851   2.317   5.641
10155SOL    HW231365   3.949   2.444   5.673
10156SOL     OW31366   6.165   0.756   2.633
10156SOL    HW131367   6.085   0.773   2.691
10156SOL    HW231368   6.209   0.670   2.660
10157SOL     OW31369   0.049   2.191   0.853
10157SOL    HW131370   0.037   2.126   0.777
10157SOL    HW231371   6.990   2.211   0.895
10158SOL     OW31372   5.680   4.534   0.557
10158SOL    HW131373   5.776   4.518   0.577
10158SOL    HW231374   5.626   4.526   0.641
10159SOL     OW31375   2.581   3.343   0.170
10159SOL    HW131376   2.611   3.267   0.228
10159SOL    HW231377   2.586   3.315   0.074
10160SOL     OW31378   1.891   3.077   2.326
10160SOL    HW131379   1.960   3.148   2.320
10160SOL    HW231380   1.901   3.028   2.413
10161SOL     OW31381   2.824   2.755   0.133
10161SOL    HW131382   2.896   2.687   0.119
10161SOL    HW231383   2.820   2.817   0.055
10162SOL     OW31384   3.486   4.724   1.028
10162SOL    HW131385   3.502   4.720   0.929
10162SOL    HW231386   3.517   4.812   1.063
10163SOL     OW31387   6.142   4.293   6.300
10163SOL    HW131388   6.217   4.348   6.264
10163SOL    HW231389   6.172   4.243   6.381
10164SOL     OW31390   5.816   4.009   4.692
10164SOL    HW131391   5.826   4.090   4.636
10164SOL    HW231392   5.856   3.930   4.645
10165SOL     OW31393   6.760   1.876   2.854
10165SOL    HW131394   6.737   1.780   2.868
10165SOL    HW231395   6.802   1.913   2.937
10166SOL     OW31396   3.292   2.089   1.889
10166SOL    HW131397   3.220   2.113   1.955
10166SOL    HW231398   3.336   2.172   1.856
10167SOL     OW31399   2.549   3.612   0.108
10167SOL    HW131400   2.563   3.515   0.125
10167SOL    HW231401   2.460   3.640   0.144
10168SOL     OW31402   5.681   3.302   6.194
10168SOL    HW131403   5.767   3.354   6.193
10168SOL    HW231404   5.694   3.218   6.246
10169SOL     OW31405   6.703   4.009   3.709
10169SOL    HW131406   6.721   3.955   3.627
10169SOL    HW231407   6.604   4.017   3.723
10170SOL     OW31408   0.177   5.616   5.605
10170SOL    HW131409   0.093   5.627   5.553
10170SOL    HW231410   0.204   5.704   5.646
10171SOL     OW31411   6.811   2.143   4.919
10171SOL    HW131412   6.890   2.125   4.860
10171SOL    HW231413   6.751   2.210   4.875
10172SOL     OW31414   0.357   5.712   4.816
10172SOL    HW131415   0.327   5.661   4.896
10172SOL    HW231416   0.317   5.803   4.817
10173SOL     OW31417   1.277   3.321   0.720
10173SOL    HW131418   1.222   3.360   0.646
10173SOL    HW231419   1.221   3.257   0.773
10174SOL     OW31420   5.159   4.898   3.221
10174SOL    HW131421   5.111   4.860   3.300
10174SOL    HW231422   5.105   4.972   3.182
10175SOL     OW31423   5.671   1.287   3.684
10175SOL    HW131424   5.707   1.196   3.701
10175SOL    HW231425   5.612   1.315   3.759
10176SOL     OW31426   0.456   3.730   4.900
10176SOL    HW131427   0.535   3.683   4.861
10176SOL    HW231428   0.433   3.690   4.988
10177SOL     OW31429   2.457   0.595   1.191
10177SOL    HW131430   2.412   0.557   1.272
10177SOL    HW231431   2.425   0.547   1.109
10178SOL     OW31432   0.657   0.518   6.042
10178SOL    HW131433   0.756   0.507   6.030
10178SOL    HW231434   0.637   0.614   6.063
10179SOL     OW31435   0.461   1.894   6.978
10179SOL    HW131436   0.500   1.843   0.026
10179SOL    HW231437   0.535   1.933   6.923
10180SOL     OW31438   4.173   1.100   5.768
10180SOL    HW131439   4.152   1.049   5.685
10180SOL    HW231440   4.252   1.159   5.751
10181SOL     OW31441   6.441   3.481   1.065
10181SOL    HW131442   6.353   3.480   1.017
10181SOL    HW231443   6.424   3.472   1.164
10182SOL     OW31444   4.411   0.901   1.760
10182SOL    HW131445   4.311   0.899   1.760
10182SOL    HW231446   4.444   0.902   1.855
10183SOL     OW31447   6.930   2.316   6.497
10183SOL    HW131448   6.886   2.251   6.435
10183SOL    HW231449   6.894   2.303   6.590
10184SOL     OW31450   4.382   1.265   5.755
10184SOL    HW131451   4.433   1.310   5.682
10184SOL    HW231452   4.395   1.315   5.841
10185SOL     OW31453   6.325   6.057   2.560
10185SOL    HW131454   6.291   6.143   2.522
10185SOL    HW231455   6.371   6.076   2.647
10186SOL     OW31456   5.593   3.257   3.900
10186SOL    HW131457   5.654   3.189   3.940
10186SOL    HW231458   5.535   3.215   3.830
10187SOL     OW31459   1.099   3.596   0.721
10187SOL    HW131460   1.137   3.646   0.643
10187SOL    HW231461   1.026   3.535   0.688
10188SOL     OW31462   3.746   5.414   0.633
10188SOL    HW131463   3.742   5.514   0.636
10188SOL    HW231464   3.694   5.377   0.710
10189SOL     OW31465   1.000   1.054   6.168
10189SOL    HW131466   1.058   1.133   6.149
10189SOL    HW231467   1.043   0.997   6.238
10190SOL     OW31468   5.035   3.174   2.122
10190SOL    HW131469   4.992   3.215   2.041
10190SOL    HW231470   5.001   3.081   2.134
10191SOL     OW31471   5.238   5.913   6.126
10191SOL    HW131472   5.272   5.917   6.032
10191SOL    HW231473   5.212   5.818   6.148
10192SOL     OW31474   4.394   1.342   5.175
10192SOL    HW131475   4.472   1.280   5.179
10192SOL    HW231476   4.339   1.332   5.258
10193SOL     OW31477   3.905   3.490   1.873
10193SOL    HW131478   3.836   3.552   1.909
10193SOL    HW231479   3.885   3.470   1.777
10194SOL     OW31480   5.739   5.816   5.400
10194SOL    HW131481   5.833   5.839   5.426
10194SOL    HW231482   5.700   5.754   5.468
10195SOL     OW31483   5.894   5.866   0.664
10195SOL    HW131484   5.970   5.881   0.601
10195SOL    HW231485   5.881   5.768   0.678
10196SOL     OW31486   4.852   1.282   3.854
10196SOL    HW131487   4.932   1.224   3.841
10196SOL    HW231488   4.846   1.309   3.950
10197SOL     OW31489   5.942   1.612   5.292
10197SOL    HW131490   5.920   1.542   5.361
10197SOL    HW231491   5.906   1.583   5.203
10198SOL     OW31492   2.958   6.534   2.377
10198SOL    HW131493   2.953   6.532   2.277
10198SOL    HW231494   3.048   6.502   2.406
10199SOL     OW31495   2.120   3.512   0.361
10199SOL    HW131496   2.055   3.539   0.432
10199SOL    HW231497   2.172   3.433   0.392
10200SOL     OW31498   4.984   2.463   6.411
10200SOL    HW131499   5.070   2.500   6.376
10200SOL    HW231500   5.001   2.373   6.452
10201SOL     OW31501   1.546   5.185   0.937
10201SOL    HW131502   1.623   5.154   0.882
10201SOL    HW231503   1.565   5.170   1.034
10202SOL     OW31504   3.359   4.717   1.278
10202SOL    HW131505   3.393   4.719   1.372
10202SOL    HW231506   3.436   4.720   1.214
10203SOL     OW31507   6.202   2.761   2.998
10203SOL    HW131508   6.117   2.815   2.999
10203SOL    HW231509   6.280   2.823   3.001
10204SOL     OW31510   4.900   6.437   0.439
10204SOL    HW131511   4.900   6.405   0.344
10204SOL    HW231512   4.988   6.480   0.460
10205SOL     OW31513   1.818   0.144   1.865
10205SOL    HW131514   1.829   0.081   1.943
10205SOL    HW231515   1.907   0.182   1.840
10206SOL     OW31516   6.651   0.608   6.960
10206SOL    HW131517   6.745   0.611   6.927
10206SOL    HW231518   6.588   0.627   6.885
10207SOL     OW31519   1.302   1.831   0.391
10207SOL    HW131520   1.281   1.784   0.477
10207SOL    HW231521   1.384   1.790   0.350
10208SOL     OW31522   6.032   4.751   3.779
10208SOL    HW131523   6.115   4.805   3.763
10208SOL    HW231524   5.968   4.803   3.834
10209SOL     OW31525   0.493   6.955   0.667
10209SOL    HW131526   0.548   0.003   0.698
10209SOL    HW231527   0.522   6.872   0.715
10210SOL     OW31528   4.927   6.871   1.594
10210SOL    HW131529   4.912   6.969   1.584
10210SOL    HW231530   4.987   6.854   1.672
10211SOL     OW31531   4.172   6.358   4.917
10211SOL    HW131532   4.193   6.401   5.005
10211SOL    HW231533   4.189   6.259   4.923
10212SOL     OW31534   0.382   0.683   5.135
10212SOL    HW131535   0.413   0.646   5.048
10212SOL    HW231536   0.390   0.613   5.206
10213SOL     OW31537   5.888   2.695   1.671
10213SOL    HW131538   5.943   2.616   1.698
10213SOL    HW231539   5.823   2.717   1.743
10214SOL     OW31540   0.910   1.447   2.022
10214SOL    HW131541   0.904   1.531   2.075
10214SOL    HW231542   0.857   1.375   2.066
10215SOL     OW31543   3.645   3.245   3.621
10215SOL    HW131544   3.616   3.219   3.713
10215SOL    HW231545   3.677   3.340   3.621
10216SOL     OW31546   0.320   1.037   1.210
10216SOL    HW131547   0.315   1.085   1.297
10216SOL    HW231548   0.379   0.956   1.220
10217SOL     OW31549   3.398   1.230   2.916
10217SOL    HW131550   3.385   1.248   3.014
10217SOL    HW231551   3.463   1.296   2.879
10218SOL     OW31552   1.843   1.512   1.535
10218SOL    HW131553   1.825   1.603   1.571
10218SOL    HW231554   1.865   1.450   1.610
10219SOL     OW31555   0.637   1.710   3.296
10219SOL    HW131556   0.665   1.708   3.392
10219SOL    HW231557   0.679   1.634   3.247
10220SOL     OW31558   5.140   2.053   0.777
10220SOL    HW131559   5.186   2.029   0.862
10220SOL    HW231560   5.183   2.005   0.700
10221SOL     OW31561   0.976   4.843   3.919
10221SOL    HW131562   0.884   4.803   3.917
10221SOL    HW231563   0.979   4.914   3.988
10222SOL     OW31564   2.957   3.990   5.751
10222SOL    HW131565   2.933   3.989   5.654
10222SOL    HW231566   2.919   3.909   5.795
10223SOL     OW31567   1.611   5.081   1.600
10223SOL    HW131568   1.693   5.085   1.543
10223SOL    HW231569   1.537   5.133   1.557
10224SOL     OW31570   6.249   2.906   5.181
10224SOL    HW131571   6.249   2.808   5.201
10224SOL    HW231572   6.302   2.955   5.250
10225SOL     OW31573   0.971   5.055   5.596
10225SOL    HW131574   0.880   5.018   5.573
10225SOL    HW231575   0.964   5.154   5.609
10226SOL     OW31576   2.607   0.524   5.976
10226SOL    HW131577   2.541   0.568   5.916
10226SOL    HW231578   2.666   0.464   5.922
10227SOL     OW31579   5.552   4.860   1.284
10227SOL    HW131580   5.521   4.951   1.312
10227SOL    HW231581   5.652   4.860   1.275
10228SOL     OW31582   0.083   6.549   2.050
10228SOL    HW131583   7.022   6.517   2.022
10228SOL    HW231584   0.074   6.636   2.099
10229SOL     OW31585   1.400   3.215   4.724
10229SOL    HW131586   1.397   3.115   4.719
10229SOL    HW231587   1.349   3.254   4.648
10230SOL     OW31588   5.897   6.136   3.052
10230SOL    HW131589   5.938   6.190   2.979
10230SOL    HW231590   5.837   6.194   3.108
10231SOL     OW31591   6.857   4.760   5.175
10231SOL    HW131592   6.925   4.757   5.248
10231SOL    HW231593   6.883   4.695   5.103
10232SOL     OW31594   3.508   1.359   3.455
10232SOL    HW131595   3.480   1.454   3.467
10232SOL    HW231596   3.606   1.355   3.440
10233SOL     OW31597   3.799   4.019   4.911
10233SOL    HW131598   3.713   3.977   4.938
10233SOL    HW231599   3.789   4.061   4.821
10234SOL     OW31600   6.031   0.780   0.848
10234SOL    HW131601   6.092   0.722   0.793
10234SOL    HW231602   5.948   0.800   0.794
10235SOL     OW31603   2.313   2.800   1.547
10235SOL    HW131604   2.362   2.873   1.594
10235SOL    HW231605   2.345   2.793   1.452
10236SOL     OW31606   2.568   1.211   0.432
10236SOL    HW131607   2.586   1.146   0.358
10236SOL    HW231608   2.568   1.304   0.395
10237SOL     OW31609   0.868   3.779   6.706
10237SOL    HW131610   0.920   3.852   6.750
10237SOL    HW231611   0.873   3.696   6.761
10238SOL     OW31612   3.926   4.173   1.672
10238SOL    HW131613   3.829   4.199   1.677
10238SOL    HW231614   3.941   4.093   1.730
10239SOL     OW31615   1.473   3.508   4.985
10239SOL    HW131616   1.471   3.525   5.084
10239SOL    HW231617   1.567   3.511   4.952
10240SOL     OW31618   2.103   5.380   2.145
10240SOL    HW131619   2.031   5.339   2.089
10240SOL    HW231620   2.168   5.309   2.172
10241SOL     OW31621   6.291   6.802   3.262
10241SOL    HW131622   6.366   6.738   3.279
10241SOL    HW231623   6.204   6.753   3.265
10242SOL     OW31624   0.325   1.513   1.073
10242SOL    HW131625   0.236   1.512   1.028
10242SOL    HW231626   0.376   1.594   1.045
10243SOL     OW31627   2.159   4.466   2.453
10243SOL    HW131628   2.178   4.564   2.459
10243SOL    HW231629   2.171   4.436   2.358
10244SOL     OW31630   1.869   4.301   0.732
10244SOL    HW131631   1.905   4.309   0.639
10244SOL    HW231632   1.901   4.378   0.787
10245SOL     OW31633   3.376   3.890   1.595
10245SOL    HW131634   3.356   3.942   1.512
10245SOL    HW231635   3.301   3.904   1.661
10246SOL     OW31636   3.725   3.604   4.181
10246SOL    HW131637   3.778   3.572   4.103
10246SOL    HW231638   3.656   3.670   4.151
10247SOL     OW31639   6.698   3.727   5.347
10247SOL    HW131640   6.724   3.702   5.440
10247SOL    HW231641   6.602   3.754   5.346
10248SOL     OW31642   1.877   6.248   2.351
10248SOL    HW131643   1.876   6.151   2.374
10248SOL    HW231644   1.848   6.260   2.256
10249SOL     OW31645   4.080   5.983   6.887
10249SOL    HW131646   4.033   5.922   6.823
10249SOL    HW231647   4.172   6.002   6.854
10250SOL     OW31648   6.751   3.288   2.175
10250SOL    HW131649   6.815   3.316   2.247
10250SOL    HW231650   6.790   3.212   2.123
10251SOL     OW31651   1.793   1.984   5.069
10251SOL    HW131652   1.812   2.077   5.035
10251SOL    HW231653   1.870   1.952   5.124
10252SOL     OW31654   4.165   4.324   6.539
10252SOL    HW131655   4.215   4.296   6.622
10252SOL    HW231656   4.231   4.348   6.468
10253SOL     OW31657   2.894   5.717   0.445
10253SOL    HW131658   2.914   5.628   0.405
10253SOL    HW231659   2.969   5.780   0.425
10254SOL     OW31660   4.979   0.879   5.342
10254SOL    HW131661   5.049   0.900   5.411
10254SOL    HW231662   4.936   0.964   5.312
10255SOL     OW31663   2.427   6.385   1.262
10255SOL    HW131664   2.425   6.323   1.340
10255SOL    HW231665   2.415   6.333   1.177
10256SOL     OW31666   4.370   2.206   2.281
10256SOL    HW131667   4.357   2.107   2.287
10256SOL    HW231668   4.285   2.252   2.307
10257SOL     OW31669   1.885   5.000   4.096
10257SOL    HW131670   1.881   5.066   4.020
10257SOL    HW231671   1.929   5.043   4.174
10258SOL     OW31672   3.890   2.116   3.625
10258SOL    HW131673   3.932   2.087   3.539
10258SOL    HW231674   3.959   2.163   3.681
10259SOL     OW31675   0.755   4.206   2.549
10259SOL    HW131676   0.805   4.217   2.635
10259SOL    HW231677   0.794   4.267   2.480
10260SOL     OW31678   1.116   1.570   3.183
10260SOL    HW131679   1.195   1.527   3.140
10260SOL    HW231680   1.049   1.595   3.113
10261SOL     OW31681   6.415   5.144   1.380
10261SOL    HW131682   6.507   5.181   1.388
10261SOL    HW231683   6.386   5.105   1.467
10262SOL     OW31684   2.361   0.057   5.814
10262SOL    HW131685   2.401   6.999   5.786
10262SOL    HW231686   2.305   0.094   5.739
10263SOL     OW31687   5.570   0.362   0.326
10263SOL    HW131688   5.645   0.298   0.342
10263SOL    HW231689   5.484   0.312   0.323
10264SOL     OW31690   6.436   6.783   6.765
10264SOL    HW131691   6.528   6.818   6.748
10264SOL    HW231692   6.441   6.687   6.794
10265SOL     OW31693   2.990   2.591   1.690
10265SOL    HW131694   2.935   2.569   1.609
10265SOL    HW231695   2.963   2.532   1.766
10266SOL     OW31696   3.512   2.904   4.069
10266SOL    HW131697   3.430   2.928   4.018
10266SOL    HW231698   3.494   2.913   4.167
10267SOL     OW31699   5.403   2.675   0.285
10267SOL    HW131700   5.449   2.702   0.369
10267SOL    HW231701   5.398   2.753   0.223
10268SOL     OW31702   6.419   6.226   2.291
10268SOL    HW131703   6.334   6.240   2.241
10268SOL    HW231704   6.496   6.259   2.236
10269SOL     OW31705   0.591   3.850   6.756
10269SOL    HW131706   0.687   3.822   6.761
10269SOL    HW231707   0.584   3.931   6.697
10270SOL     OW31708   3.476   4.924   2.370
10270SOL    HW131709   3.377   4.919   2.363
10270SOL    HW231710   3.505   4.888   2.459
10271SOL     OW31711   3.621   2.920   6.400
10271SOL    HW131712   3.661   3.011   6.390
10271SOL    HW231713   3.626   2.871   6.314
10272SOL     OW31714   1.276   0.918   5.798
10272SOL    HW131715   1.269   0.821   5.821
10272SOL    HW231716   1.338   0.930   5.720
10273SOL     OW31717   3.132   5.947   2.908
10273SOL    HW131718   3.224   5.929   2.944
10273SOL    HW231719   3.105   5.873   2.846
10274SOL     OW31720   0.415   4.950   5.834
10274SOL    HW131721   0.417   4.855   5.802
10274SOL    HW231722   0.500   4.970   5.883
10275SOL     OW31723   0.766   6.144   2.346
10275SOL    HW131724   0.840   6.147   2.279
10275SOL    HW231725   0.683   6.108   2.303
10276SOL     OW31726   5.359   5.726   5.081
10276SOL    HW131727   5.290   5.690   5.144
10276SOL    HW231728   5.404   5.650   5.034
10277SOL     OW31729   2.056   6.340   5.190
10277SOL    HW131730   2.049   6.340   5.090
10277SOL    HW231731   2.015   6.424   5.225
10278SOL     OW31732   1.725   1.738   3.426
10278SOL    HW131733   1.766   1.829   3.415
10278SOL    HW231734   1.680   1.711   3.341
10279SOL     OW31735   1.545   4.667   4.247
10279SOL    HW131736   1.590   4.577   4.243
10279SOL    HW231737   1.614   4.739   4.245
10280SOL     OW31738   0.081   2.390   6.816
10280SOL    HW131739   0.114   2.484   6.805
10280SOL    HW231740   7.010   2.388   6.811
10281SOL     OW31741   5.488   1.152   3.180
10281SOL    HW131742   5.457   1.247   3.175
10281SOL    HW231743   5.580   1.149   3.218
10282SOL     OW31744   5.224   3.468   4.516
10282SOL    HW131745   5.222   3.373   4.548
10282SOL    HW231746   5.300   3.516   4.560
10283SOL     OW31747   2.055   3.108   1.201
10283SOL    HW131748   1.991   3.184   1.191
10283SOL    HW231749   2.028   3.053   1.280
10284SOL     OW31750   4.934   2.509   5.340
10284SOL    HW131751   4.994   2.430   5.323
10284SOL    HW231752   4.851   2.500   5.285
10285SOL     OW31753   5.488   6.577   2.747
10285SOL    HW131754   5.398   6.559   2.787
10285SOL    HW231755   5.559   6.567   2.816
10286SOL     OW31756   3.460   1.918   3.925
10286SOL    HW131757   3.472   1.946   3.830
10286SOL    HW231758   3.547   1.883   3.961
10287SOL     OW31759   2.960   6.186   1.904
10287SOL    HW131760   3.036   6.121   1.912
10287SOL    HW231761   2.950   6.237   1.989
10288SOL     OW31762   4.938   5.745   3.153
10288SOL    HW131763   4.913   5.834   3.114
10288SOL    HW231764   4.965   5.757   3.249
10289SOL     OW31765   2.656   6.224   6.756
10289SOL    HW131766   2.688   6.146   6.702
10289SOL    HW231767   2.661   6.307   6.701
10290SOL     OW31768   3.093   3.957   3.179
10290SOL    HW131769   3.013   3.905   3.209
10290SOL    HW231770   3.135   4.002   3.258
10291SOL     OW31771   4.075   1.786   2.383
10291SOL    HW131772   4.143   1.720   2.353
10291SOL    HW231773   4.034   1.754   2.469
10292SOL     OW31774   1.448   2.439   5.289
10292SOL    HW131775   1.500   2.389   5.220
10292SOL    HW231776   1.409   2.374   5.354
10293SOL     OW31777   1.465   3.580   2.350
10293SOL    HW131778   1.464   3.614   2.444
10293SOL    HW231779   1.549   3.610   2.305
10294SOL     OW31780   4.925   2.465   3.424
10294SOL    HW131781   4.915   2.420   3.513
10294SOL    HW231782   4.835   2.493   3.390
10295SOL     OW31783   0.327   3.271   6.172
10295SOL    HW131784   0.368   3.181   6.191
10295SOL    HW231785   0.227   3.264   6.177
10296SOL     OW31786   5.215   1.435   6.742
10296SOL    HW131787   5.211   1.456   6.840
10296SOL    HW231788   5.187   1.515   6.689
10297SOL     OW31789   1.915   0.867   6.403
10297SOL    HW131790   2.008   0.832   6.390
10297SOL    HW231791   1.850   0.794   6.382
10298SOL     OW31792   2.880   4.602   0.918
10298SOL    HW131793   2.959   4.663   0.921
10298SOL    HW231794   2.799   4.653   0.889
10299SOL     OW31795   4.555   4.751   3.090
10299SOL    HW131796   4.494   4.686   3.135
10299SOL    HW231797   4.520   4.771   2.998
10300SOL     OW31798   1.427   4.104   2.616
10300SOL    HW131799   1.369   4.129   2.694
10300SOL    HW231800   1.379   4.037   2.560
10301SOL     OW31801   4.917   1.841   4.274
10301SOL    HW131802   4.950   1.809   4.363
10301SOL    HW231803   4.968   1.923   4.247
10302SOL     OW31804   2.093   6.350   4.928
10302SOL    HW131805   2.050   6.328   4.840
10302SOL    HW231806   2.170   6.289   4.944
10303SOL     OW31807   1.528   5.837   2.693
10303SOL    HW131808   1.476   5.849   2.778
10303SOL    HW231809   1.482   5.884   2.618
10304SOL     OW31810   5.434   0.159   1.612
10304SOL    HW131811   5.531   0.135   1.614
10304SOL    HW231812   5.405   0.189   1.702
10305SOL     OW31813   1.328   4.106   6.401
10305SOL    HW131814   1.373   4.121   6.489
10305SOL    HW231815   1.237   4.067   6.416
10306SOL     OW31816   5.163   5.811   6.947
10306SOL    HW131817   5.096   5.885   6.931
10306SOL    HW231818   5.115   5.729   6.978
10307SOL     OW31819   2.847   2.052   5.427
10307SOL    HW131820   2.921   2.044   5.360
10307SOL    HW231821   2.837   2.148   5.453
10308SOL     OW31822   1.439   3.934   3.030
10308SOL    HW131823   1.496   3.984   2.965
10308SOL    HW231824   1.493   3.914   3.112
10309SOL     OW31825   6.841   1.674   6.727
10309SOL    HW131826   6.902   1.595   6.724
10309SOL    HW231827   6.765   1.660   6.663
10310SOL     OW31828   3.265   3.877   0.594
10310SOL    HW131829   3.276   3.789   0.639
10310SOL    HW231830   3.179   3.919   0.625
10311SOL     OW31831   6.736   6.028   0.508
10311SOL    HW131832   6.814   6.014   0.448
10311SOL    HW231833   6.655   6.052   0.454
10312SOL     OW31834   3.758   5.746   2.425
10312SOL    HW131835   3.785   5.687   2.501
10312SOL    HW231836   3.811   5.722   2.344
10313SOL     OW31837   4.415   6.379   1.965
10313SOL    HW131838   4.319   6.399   1.985
10313SOL    HW231839   4.421   6.295   1.911
10314SOL     OW31840   6.558   0.702   1.865
10314SOL    HW131841   6.609   0.622   1.897
10314SOL    HW231842   6.498   0.675   1.790
10315SOL     OW31843   5.199   5.382   5.089
10315SOL    HW131844   5.262   5.329   5.146
10315SOL    HW231845   5.186   5.472   5.128
10316SOL     OW31846   5.880   1.203   5.247
10316SOL    HW131847   5.807   1.164   5.191
10316SOL    HW231848   5.944   1.254   5.188
10317SOL     OW31849   4.989   5.722   5.591
10317SOL    HW131850   4.902   5.672   5.598
10317SOL    HW231851   5.064   5.656   5.590
10318SOL     OW31852   5.543   0.066   6.354
10318SOL    HW131853   5.536   6.997   6.335
10318SOL    HW231854   5.560   0.080   6.451
10319SOL     OW31855   0.770   2.452   5.617
10319SOL    HW131856   0.857   2.433   5.662
10319SOL    HW231857   0.786   2.484   5.524
10320SOL     OW31858   0.453   0.236   2.222
10320SOL    HW131859   0.485   0.143   2.243
10320SOL    HW231860   0.482   0.298   2.294
10321SOL     OW31861   3.908   1.819   1.760
10321SOL    HW131862   3.894   1.917   1.778
10321SOL    HW231863   3.872   1.766   1.836
10322SOL     OW31864   6.282   5.431   5.398
10322SOL    HW131865   6.238   5.398   5.482
10322SOL    HW231866   6.367   5.478   5.422
10323SOL     OW31867   6.015   3.407   5.401
10323SOL    HW131868   5.952   3.440   5.331
10323SOL    HW231869   5.967   3.345   5.463
10324SOL     OW31870   2.971   3.185   1.965
10324SOL    HW131871   3.036   3.171   2.040
10324SOL    HW231872   2.883   3.144   1.990
10325SOL     OW31873   6.585   3.989   2.506
10325SOL    HW131874   6.542   4.023   2.590
10325SOL    HW231875   6.543   3.901   2.482
10326SOL     OW31876   3.597   5.238   0.434
10326SOL    HW131877   3.664   5.199   0.372
10326SOL    HW231878   3.641   5.306   0.493
10327SOL     OW31879   2.347   1.520   0.957
10327SOL    HW131880   2.367   1.478   0.868
10327SOL    HW231881   2.251   1.546   0.960
10328SOL     OW31882   6.394   2.210   1.364
10328SOL    HW131883   6.334   2.140   1.327
10328SOL    HW231884   6.369   2.299   1.326
10329SOL     OW31885   3.757   0.671   3.841
10329SOL    HW131886   3.818   0.654   3.919
10329SOL    HW231887   3.664   0.686   3.874
10330SOL     OW31888   4.831   0.818   2.465
10330SOL    HW131889   4.925   0.795   2.442
10330SOL    HW231890   4.810   0.910   2.431
10331SOL     OW31891   6.439   0.494   6.107
10331SOL    HW131892   6.470   0.435   6.181
10331SOL    HW231893   6.344   0.521   6.123
10332SOL     OW31894   6.480   0.326   1.198
10332SOL    HW131895   6.402   0.380   1.165
10332SOL    HW231896   6.526   0.282   1.120
10333SOL     OW31897   6.744   4.660   4.880
10333SOL    HW131898   6.645   4.671   4.883
10333SOL    HW231899   6.785   4.739   4.833
10334SOL     OW31900   3.409   0.042   3.773
10334SOL    HW131901   3.416   0.134   3.810
10334SOL    HW231902   3.479   0.029   3.702
10335SOL     OW31903   2.798   4.115   6.733
10335SOL    HW131904   2.731   4.088   6.663
10335SOL    HW231905   2.770   4.079   6.822
10336SOL     OW31906   6.537   0.143   2.230
10336SOL    HW131907   6.532   0.097   2.142
10336SOL    HW231908   6.554   0.241   2.216
10337SOL     OW31909   6.937   6.694   5.629
10337SOL    HW131910   6.842   6.669   5.644
10337SOL    HW231911   6.989   6.612   5.604
10338SOL     OW31912   2.157   6.457   2.752
10338SOL    HW131913   2.150   6.543   2.702
10338SOL    HW231914   2.098   6.389   2.709
10339SOL     OW31915   3.569   4.307   6.796
10339SOL    HW131916   3.511   4.346   6.724
10339SOL    HW231917   3.600   4.216   6.767
10340SOL     OW31918   1.905   4.018   1.588
10340SOL    HW131919   1.999   4.047   1.573
10340SOL    HW231920   1.903   3.921   1.610
10341SOL     OW31921   2.116   3.318   2.483
10341SOL    HW131922   2.030   3.356   2.449
10341SOL    HW231923   2.144   3.366   2.566
10342SOL     OW31924   1.429   0.039   4.912
10342SOL    HW131925   1.353   0.039   4.846
10342SOL    HW231926   1.509   7.026   4.869
10343SOL     OW31927   3.628   6.234   0.247
10343SOL    HW131928   3.721   6.264   0.264
10343SOL    HW231929   3.578   6.229   0.333
10344SOL     OW31930   4.367   4.012   1.335
10344SOL    HW131931   4.301   3.947   1.371
10344SOL    HW231932   4.352   4.024   1.237
10345SOL     OW31933   1.571   1.434   6.622
10345SOL    HW131934   1.649   1.495   6.606
10345SOL    HW231935   1.564   1.414   6.720
10346SOL     OW31936   6.913   5.646   1.660
10346SOL    HW131937   6.961   5.732   1.643
10346SOL    HW231938   6.926   5.620   1.756
10347SOL     OW31939   4.257   1.959   3.362
10347SOL    HW131940   4.352   1.937   3.385
10347SOL    HW231941   4.242   2.057   3.378
10348SOL     OW31942   6.236   2.027   0.354
10348SOL    HW131943   6.320   2.017   0.301
10348SOL    HW231944   6.204   2.122   0.348
10349SOL     OW31945   0.965   0.787   0.771
10349SOL    HW131946   1.010   0.872   0.797
10349SOL    HW231947   0.888   0.806   0.710
10350SOL     OW31948   2.369   0.091   5.313
10350SOL    HW131949   2.378   0.163   5.244
10350SOL    HW231950   2.311   0.018   5.277
10351SOL     OW31951   4.324   4.795   6.116
10351SOL    HW131952   4.419   4.793   6.085
10351SOL    HW231953   4.262   4.790   6.037
10352SOL     OW31954   3.762   1.662   5.948
10352SOL    HW131955   3.815   1.734   5.902
10352SOL    HW231956   3.709   1.702   6.023
10353SOL     OW31957   6.714   2.474   5.668
10353SOL    HW131958   6.656   2.410   5.719
10353SOL    HW231959   6.716   2.447   5.571
10354SOL     OW31960   5.629   2.633   2.140
10354SOL    HW131961   5.708   2.592   2.094
10354SOL    HW231962   5.559   2.563   2.153
10355SOL     OW31963   1.700   0.151   2.352
10355SOL    HW131964   1.725   0.057   2.373
10355SOL    HW231965   1.617   0.153   2.297
10356SOL     OW31966   0.625   4.522   5.798
10356SOL    HW131967   0.684   4.602   5.807
10356SOL    HW231968   0.677   4.440   5.821
10357SOL     OW31969   1.665   3.394   5.950
10357SOL    HW131970   1.675   3.377   5.852
10357SOL    HW231971   1.673   3.492   5.968
10358SOL     OW31972   6.058   2.615   3.236
10358SOL    HW131973   6.119   2.619   3.157
10358SOL    HW231974   5.963   2.616   3.205
10359SOL     OW31975   0.484   1.880   1.990
10359SOL    HW131976   0.479   1.976   2.018
10359SOL    HW231977   0.519   1.874   1.896
10360SOL     OW31978   4.928   5.486   3.364
10360SOL    HW131979   4.879   5.573   3.377
10360SOL    HW231980   4.961   5.453   3.453
10361SOL     OW31981   3.158   0.241   3.200
10361SOL    HW131982   3.245   0.215   3.158
10361SOL    HW231983   3.143   0.187   3.282
10362SOL     OW31984   0.252   4.985   4.771
10362SOL    HW131985   0.281   4.920   4.701
10362SOL    HW231986   0.217   5.068   4.727
10363SOL     OW31987   5.356   1.409   1.577
10363SOL    HW131988   5.429   1.411   1.646
10363SOL    HW231989   5.352   1.318   1.536
10364SOL     OW31990   3.021   3.240   1.523
10364SOL    HW131991   3.092   3.195   1.576
10364SOL    HW231992   2.957   3.286   1.585
10365SOL     OW31993   4.604   4.718   6.038
10365SOL    HW131994   4.610   4.618   6.047
10365SOL    HW231995   4.633   4.761   6.124
10366SOL     OW31996   3.822   0.509   4.351
10366SOL    HW131997   3.811   0.419   4.394
10366SOL    HW231998   3.754   0.572   4.387
10367SOL     OW31999   6.362   1.613   2.678
10367SOL    HW132000   6.299   1.536   2.669
10367SOL    HW232001   6.453   1.586   2.646
10368SOL     OW32002   1.702   1.236   1.625
10368SOL    HW132003   1.613   1.242   1.670
10368SOL    HW232004   1.768   1.292   1.675
10369SOL     OW32005   3.946   1.105   5.390
10369SOL    HW132006   4.029   1.153   5.361
10369SOL    HW232007   3.867   1.142   5.342
10370SOL     OW32008   5.531   1.442   5.588
10370SOL    HW132009   5.605   1.376   5.587
10370SOL    HW232010   5.487   1.443   5.677
10371SOL     OW32011   3.143   6.172   4.494
10371SOL    HW132012   3.222   6.120   4.526
10371SOL    HW232013   3.065   6.156   4.555
10372SOL     OW32014   1.110   1.492   6.951
10372SOL    HW132015   1.147   1.439   6.876
10372SOL    HW232016   1.014   1.514   6.932
10373SOL     OW32017   2.180   6.007   4.834
10373SOL    HW132018   2.207   6.057   4.751
10373SOL    HW232019   2.088   6.033   4.860
10374SOL     OW32020   3.778   0.985   2.498
10374SOL    HW132021   3.743   0.900   2.539
10374SOL    HW232022   3.816   1.043   2.569
10375SOL     OW32023   2.936   1.636   6.013
10375SOL    HW132024   2.983   1.556   5.977
10375SOL    HW232025   2.924   1.704   5.940
10376SOL     OW32026   1.521   6.467   4.017
10376SOL    HW132027   1.462   6.446   4.095
10376SOL    HW232028   1.568   6.554   4.035
10377SOL     OW32029   0.174   0.492   4.042
10377SOL    HW132030   0.211   0.457   4.128
10377SOL    HW232031   0.223   0.575   4.015
10378SOL     OW32032   6.672   0.161   6.209
10378SOL    HW132033   6.636   0.149   6.116
10378SOL    HW232034   6.616   0.228   6.258
10379SOL     OW32035   3.546   6.616   4.863
10379SOL    HW132036   3.540   6.689   4.794
10379SOL    HW232037   3.477   6.632   4.933
10380SOL     OW32038   0.156   1.298   3.784
10380SOL    HW132039   0.102   1.315   3.702
10380SOL    HW232040   0.142   1.373   3.849
10381SOL     OW32041   4.196   5.751   6.491
10381SOL    HW132042   4.286   5.754   6.535
10381SOL    HW232043   4.205   5.778   6.395
10382SOL     OW32044   2.142   4.461   0.254
10382SOL    HW132045   2.174   4.498   0.341
10382SOL    HW232046   2.042   4.465   0.251
10383SOL     OW32047   0.697   4.058   0.809
10383SOL    HW132048   0.621   4.062   0.744
10383SOL    HW232049   0.664   4.076   0.901
10384SOL     OW32050   0.788   0.406   1.138
10384SOL    HW132051   0.716   0.436   1.199
10384SOL    HW232052   0.801   0.474   1.066
10385SOL     OW32053   3.773   0.385   6.960
10385SOL    HW132054   3.680   0.422   6.960
10385SOL    HW232055   3.804   0.373   6.866
10386SOL     OW32056   5.790   3.246   5.175
10386SOL    HW132057   5.791   3.187   5.256
10386SOL    HW232058   5.813   3.339   5.202
10387SOL     OW32059   3.948   2.166   2.157
10387SOL    HW132060   3.851   2.171   2.132
10387SOL    HW232061   4.004   2.159   2.074
10388SOL     OW32062   1.606   5.769   3.138
10388SOL    HW132063   1.686   5.735   3.189
10388SOL    HW232064   1.535   5.798   3.202
10389SOL     OW32065   0.377   6.920   1.693
10389SOL    HW132066   0.320   6.969   1.627
10389SOL    HW232067   0.321   6.893   1.771
10390SOL     OW32068   1.737   3.738   1.565
10390SOL    HW132069   1.828   3.720   1.603
10390SOL    HW232070   1.719   3.672   1.492
10391SOL     OW32071   1.370   5.903   5.054
10391SOL    HW132072   1.402   5.951   5.137
10391SOL    HW232073   1.347   5.809   5.077
10392SOL     OW32074   6.439   4.237   0.114
10392SOL    HW132075   6.386   4.175   0.055
10392SOL    HW232076   6.477   4.185   0.191
10393SOL     OW32077   2.346   1.882   2.882
10393SOL    HW132078   2.417   1.818   2.911
10393SOL    HW232079   2.267   1.874   2.943
10394SOL     OW32080   2.856   6.571   6.010
10394SOL    HW132081   2.757   6.567   6.024
10394SOL    HW232082   2.895   6.647   6.063
10395SOL     OW32083   6.229   0.496   3.841
10395SOL    HW132084   6.153   0.473   3.901
10395SOL    HW232085   6.206   0.578   3.788
10396SOL     OW32086   1.992   0.141   4.531
10396SOL    HW132087   2.048   0.061   4.507
10396SOL    HW232088   1.898   0.127   4.499
10397SOL     OW32089   3.441   1.783   3.261
10397SOL    HW132090   3.530   1.792   3.307
10397SOL    HW232091   3.368   1.780   3.329
10398SOL     OW32092   5.925   2.730   0.662
10398SOL    HW132093   5.888   2.669   0.592
10398SOL    HW232094   5.874   2.815   0.664
10399SOL     OW32095   4.437   1.377   4.916
10399SOL    HW132096   4.526   1.416   4.893
10399SOL    HW232097   4.426   1.376   5.016
10400SOL     OW32098   3.472   5.922   1.989
10400SOL    HW132099   3.400   5.920   2.058
10400SOL    HW232100   3.511   5.830   1.980
10401SOL     OW32101   6.934   0.394   2.325
10401SOL    HW132102   6.918   0.295   2.334
10401SOL    HW232103   6.857   0.444   2.365
10402SOL     OW32104   0.357   2.623   5.390
10402SOL    HW132105   0.394   2.606   5.481
10402SOL    HW232106   0.331   2.536   5.348
10403SOL     OW32107   5.101   1.469   2.158
10403SOL    HW132108   5.096   1.567   2.142
10403SOL    HW232109   5.036   1.422   2.098
10404SOL     OW32110   0.774   6.579   3.286
10404SOL    HW132111   0.821   6.492   3.271
10404SOL    HW232112   0.710   6.570   3.362
10405SOL     OW32113   1.228   5.460   4.876
10405SOL    HW132114   1.196   5.502   4.791
10405SOL    HW232115   1.214   5.523   4.952
10406SOL     OW32116   2.155   3.765   5.071
10406SOL    HW132117   2.236   3.823   5.066
10406SOL    HW232118   2.183   3.671   5.091
10407SOL     OW32119   1.847   0.642   6.748
10407SOL    HW132120   1.847   0.573   6.675
10407SOL    HW232121   1.771   0.624   6.811
10408SOL     OW32122   4.382   5.786   2.676
10408SOL    HW132123   4.331   5.834   2.604
10408SOL    HW232124   4.355   5.822   2.766
10409SOL     OW32125   1.021   4.653   0.778
10409SOL    HW132126   1.005   4.563   0.818
10409SOL    HW232127   1.098   4.647   0.713
10410SOL     OW32128   5.465   1.599   1.067
10410SOL    HW132129   5.428   1.680   1.023
10410SOL    HW232130   5.452   1.606   1.166
10411SOL     OW32131   3.094   5.418   3.865
10411SOL    HW132132   3.191   5.440   3.864
10411SOL    HW232133   3.082   5.319   3.876
10412SOL     OW32134   0.484   1.406   0.591
10412SOL    HW132135   0.392   1.375   0.568
10412SOL    HW232136   0.481   1.502   0.619
10413SOL     OW32137   0.767   2.253   0.969
10413SOL    HW132138   0.699   2.323   0.945
10413SOL    HW232139   0.856   2.281   0.934
10414SOL     OW32140   4.536   6.083   5.708
10414SOL    HW132141   4.628   6.048   5.691
10414SOL    HW232142   4.542   6.170   5.755
10415SOL     OW32143   2.005   5.128   4.334
10415SOL    HW132144   2.089   5.181   4.322
10415SOL    HW232145   1.986   5.118   4.431
10416SOL     OW32146   0.484   1.324   5.792
10416SOL    HW132147   0.487   1.224   5.783
10416SOL    HW232148   0.547   1.365   5.726
10417SOL     OW32149   4.682   4.305   4.055
10417SOL    HW132150   4.747   4.321   3.980
10417SOL    HW232151   4.718   4.234   4.116
10418SOL     OW32152   6.431   4.368   5.191
10418SOL    HW132153   6.509   4.306   5.186
10418SOL    HW232154   6.418   4.397   5.286
10419SOL     OW32155   2.982   0.636   5.139
10419SOL    HW132156   3.080   0.632   5.123
10419SOL    HW232157   2.962   0.706   5.207
10420SOL     OW32158   6.792   3.520   3.043
10420SOL    HW132159   6.762   3.604   2.999
10420SOL    HW232160   6.717   3.454   3.043
10421SOL     OW32161   1.197   3.413   3.890
10421SOL    HW132162   1.192   3.381   3.985
10421SOL    HW232163   1.195   3.513   3.889
10422SOL     OW32164   6.722   3.788   5.640
10422SOL    HW132165   6.726   3.756   5.735
10422SOL    HW232166   6.733   3.887   5.638
10423SOL     OW32167   4.138   5.110   4.659
10423SOL    HW132168   4.122   5.195   4.608
10423SOL    HW232169   4.171   5.039   4.597
10424SOL     OW32170   4.705   2.150   6.964
10424SOL    HW132171   4.756   2.219   7.015
10424SOL    HW232172   4.762   2.112   6.891
10425SOL     OW32173   0.757   6.327   1.672
10425SOL    HW132174   0.757   6.412   1.619
10425SOL    HW232175   0.673   6.276   1.654
10426SOL     OW32176   4.748   3.422   5.573
10426SOL    HW132177   4.779   3.515   5.554
10426SOL    HW232178   4.782   3.361   5.502
10427SOL     OW32179   5.268   5.409   5.742
10427SOL    HW132180   5.310   5.487   5.787
10427SOL    HW232181   5.186   5.381   5.792
10428SOL     OW32182   1.404   1.961   3.698
10428SOL    HW132183   1.306   1.967   3.715
10428SOL    HW232184   1.437   2.047   3.660
10429SOL     OW32185   1.613   3.997   2.841
10429SOL    HW132186   1.607   3.962   2.747
10429SOL    HW232187   1.710   4.005   2.866
10430SOL     OW32188   3.452   5.995   4.344
10430SOL    HW132189   3.366   5.981   4.296
10430SOL    HW232190   3.522   6.024   4.279
10431SOL     OW32191   3.016   0.768   3.971
10431SOL    HW132192   2.994   0.715   4.053
10431SOL    HW232193   3.114   0.789   3.970
10432SOL     OW32194   0.839   0.881   5.506
10432SOL    HW132195   0.825   0.866   5.604
10432SOL    HW232196   0.930   0.847   5.480
10433SOL     OW32197   0.590   6.171   1.548
10433SOL    HW132198   0.554   6.095   1.602
10433SOL    HW232199   0.651   6.136   1.477
10434SOL     OW32200   4.890   6.535   4.640
10434SOL    HW132201   4.934   6.599   4.577
10434SOL    HW232202   4.895   6.442   4.603
10435SOL     OW32203   1.211   2.074   6.294
10435SOL    HW132204   1.171   2.006   6.354
10435SOL    HW232205   1.302   2.099   6.327
10436SOL     OW32206   6.164   3.597   4.269
10436SOL    HW132207   6.113   3.629   4.188
10436SOL    HW232208   6.139   3.502   4.287
10437SOL     OW32209   5.367   5.257   5.234
10437SOL    HW132210   5.410   5.166   5.238
10437SOL    HW232211   5.438   5.327   5.236
10438SOL     OW32212   0.058   6.498   5.591
10438SOL    HW132213   0.080   6.438   5.668
10438SOL    HW232214   0.137   6.503   5.530
10439SOL     OW32215   6.254   0.490   4.589
10439SOL    HW132216   6.272   0.583   4.621
10439SOL    HW232217   6.163   0.461   4.620
10440SOL     OW32218   0.165   0.530   6.957
10440SOL    HW132219   0.069   0.555   6.959
10440SOL    HW232220   0.188   0.492   6.868
10441SOL     OW32221   3.361   1.798   0.570
10441SOL    HW132222   3.277   1.840   0.603
10441SOL    HW232223   3.416   1.768   0.648
10442SOL     OW32224   3.612   0.955   5.458
10442SOL    HW132225   3.681   0.890   5.426
10442SOL    HW232226   3.521   0.916   5.446
10443SOL     OW32227   6.505   2.045   2.948
10443SOL    HW132228   6.583   2.016   2.893
10443SOL    HW232229   6.420   2.009   2.909
10444SOL     OW32230   3.369   4.983   3.179
10444SOL    HW132231   3.459   4.987   3.135
10444SOL    HW232232   3.377   5.017   3.273
10445SOL     OW32233   0.456   3.740   2.244
10445SOL    HW132234   0.495   3.832   2.254
10445SOL    HW232235   0.415   3.712   2.330
10446SOL     OW32236   1.850   4.535   6.064
10446SOL    HW132237   1.849   4.437   6.082
10446SOL    HW232238   1.941   4.572   6.085
10447SOL     OW32239   6.284   1.040   1.765
10447SOL    HW132240   6.299   0.958   1.709
10447SOL    HW232241   6.372   1.080   1.791
10448SOL     OW32242   2.986   0.691   3.195
10448SOL    HW132243   2.919   0.677   3.123
10448SOL    HW232244   2.950   0.656   3.282
10449SOL     OW32245   3.751   5.617   6.878
10449SOL    HW132246   3.751   5.542   6.944
10449SOL    HW232247   3.843   5.629   6.841
10450SOL     OW32248   6.493   0.657   6.329
10450SOL    HW132249   6.435   0.738   6.319
10450SOL    HW232250   6.588   0.681   6.312
10451SOL     OW32251   2.987   0.685   3.507
10451SOL    HW132252   2.896   0.716   3.534
10451SOL    HW232253   3.027   0.629   3.579
10452SOL     OW32254   0.012   2.510   2.781
10452SOL    HW132255   6.953   2.548   2.753
10452SOL    HW232256   0.031   2.538   2.875
10453SOL     OW32257   4.753   5.961   3.296
10453SOL    HW132258   4.715   5.977   3.205
10453SOL    HW232259   4.826   6.027   3.313
10454SOL     OW32260   6.057   1.155   7.029
10454SOL    HW132261   6.128   1.098   6.988
10454SOL    HW232262   6.059   1.246   6.987
10455SOL     OW32263   6.463   6.003   4.117
10455SOL    HW132264   6.549   6.038   4.153
10455SOL    HW232265   6.393   6.006   4.189
10456SOL     OW32266   0.085   5.759   0.289
10456SOL    HW132267   7.022   5.794   0.306
10456SOL    HW232268   0.101   5.677   0.344
10457SOL     OW32269   4.565   3.689   7.006
10457SOL    HW132270   4.583   3.646   6.917
10457SOL    HW232271   4.552   3.618   0.046
10458SOL     OW32272   6.732   0.495   6.094
10458SOL    HW132273   6.777   0.485   6.005
10458SOL    HW232274   6.646   0.546   6.082
10459SOL     OW32275   5.763   5.039   0.726
10459SOL    HW132276   5.774   4.952   0.677
10459SOL    HW232277   5.780   5.025   0.824
10460SOL     OW32278   6.788   4.005   1.778
10460SOL    HW132279   6.791   4.035   1.873
10460SOL    HW232280   6.795   3.905   1.774
10461SOL     OW32281   6.628   4.457   5.440
10461SOL    HW132282   6.671   4.375   5.402
10461SOL    HW232283   6.537   4.433   5.475
10462SOL     OW32284   4.818   1.536   2.118
10462SOL    HW132285   4.734   1.516   2.067
10462SOL    HW232286   4.797   1.541   2.216
10463SOL     OW32287   4.583   1.774   6.049
10463SOL    HW132288   4.541   1.695   6.094
10463SOL    HW232289   4.682   1.764   6.051
10464SOL     OW32290   5.541   6.020   2.109
10464SOL    HW132291   5.467   6.043   2.172
10464SOL    HW232292   5.607   5.962   2.155
10465SOL     OW32293   5.041   4.636   2.638
10465SOL    HW132294   5.111   4.568   2.615
10465SOL    HW232295   5.012   4.622   2.733
10466SOL     OW32296   5.015   4.440   6.488
10466SOL    HW132297   5.003   4.466   6.583
10466SOL    HW232298   5.095   4.380   6.480
10467SOL     OW32299   1.616   2.772   6.741
10467SOL    HW132300   1.620   2.742   6.645
10467SOL    HW232301   1.709   2.772   6.779
10468SOL     OW32302   3.552   4.986   3.436
10468SOL    HW132303   3.471   4.954   3.484
10468SOL    HW232304   3.621   5.014   3.503
10469SOL     OW32305   4.606   4.452   6.070
10469SOL    HW132306   4.685   4.409   6.113
10469SOL    HW232307   4.560   4.387   6.010
10470SOL     OW32308   2.762   1.910   3.467
10470SOL    HW132309   2.723   1.984   3.523
10470SOL    HW232310   2.692   1.876   3.405
10471SOL     OW32311   3.008   0.633   0.091
10471SOL    HW132312   2.989   0.536   0.081
10471SOL    HW232313   3.044   0.669   0.005
10472SOL     OW32314   2.912   5.383   1.371
10472SOL    HW132315   2.976   5.435   1.316
10472SOL    HW232316   2.846   5.445   1.413
10473SOL     OW32317   5.778   6.176   5.829
10473SOL    HW132318   5.738   6.170   5.738
10473SOL    HW232319   5.853   6.243   5.828
10474SOL     OW32320   4.700   1.185   3.601
10474SOL    HW132321   4.738   1.213   3.689
10474SOL    HW232322   4.601   1.170   3.612
10475SOL     OW32323   2.727   6.723   1.733
10475SOL    HW132324   2.658   6.789   1.764
10475SOL    HW232325   2.753   6.745   1.639
10476SOL     OW32326   5.143   6.526   6.224
10476SOL    HW132327   5.107   6.614   6.193
10476SOL    HW232328   5.120   6.514   6.321
10477SOL     OW32329   0.127   0.273   4.462
10477SOL    HW132330   0.063   0.197   4.451
10477SOL    HW232331   0.076   0.356   4.486
10478SOL     OW32332   6.969   6.716   0.059
10478SOL    HW132333   6.903   6.669   0.001
10478SOL    HW232334   6.961   6.684   0.153
10479SOL     OW32335   6.572   1.484   2.283
10479SOL    HW132336   6.597   1.435   2.199
10479SOL    HW232337   6.482   1.527   2.271
10480SOL     OW32338   1.049   0.394   1.930
10480SOL    HW132339   0.993   0.331   1.877
10480SOL    HW232340   0.993   0.439   1.999
10481SOL     OW32341   1.756   6.206   2.750
10481SOL    HW132342   1.692   6.202   2.673
10481SOL    HW232343   1.706   6.222   2.835
10482SOL     OW32344   6.459   5.111   4.384
10482SOL    HW132345   6.476   5.031   4.326
10482SOL    HW232346   6.363   5.113   4.411
10483SOL     OW32347   5.517   6.038   0.215
10483SOL    HW132348   5.573   6.020   0.134
10483SOL    HW232349   5.440   6.096   0.190
10484SOL     OW32350   4.530   1.599   1.212
10484SOL    HW132351   4.516   1.555   1.124
10484SOL    HW232352   4.442   1.611   1.258
10485SOL     OW32353   3.253   4.622   0.044
10485SOL    HW132354   3.279   4.644   0.138
10485SOL    HW232355   3.297   4.536   0.016
10486SOL     OW32356   6.857   1.171   0.152
10486SOL    HW132357   6.924   1.102   0.177
10486SOL    HW232358   6.860   1.186   0.054
10487SOL     OW32359   5.185   6.601   2.228
10487SOL    HW132360   5.122   6.567   2.298
10487SOL    HW232361   5.276   6.564   2.244
10488SOL     OW32362   2.830   2.256   6.425
10488SOL    HW132363   2.900   2.300   6.368
10488SOL    HW232364   2.745   2.248   6.373
10489SOL     OW32365   0.495   6.863   5.393
10489SOL    HW132366   0.408   6.874   5.344
10489SOL    HW232367   0.506   6.938   5.458
10490SOL     OW32368   6.076   1.353   1.979
10490SOL    HW132369   5.995   1.392   2.024
10490SOL    HW232370   6.046   1.290   1.907
10491SOL     OW32371   1.358   3.470   0.038
10491SOL    HW132372   1.371   3.374   0.014
10491SOL    HW232373   1.261   3.491   0.044
10492SOL     OW32374   5.954   4.001   5.844
10492SOL    HW132375   6.008   3.931   5.796
10492SOL    HW232376   5.863   4.007   5.803
10493SOL     OW32377   3.039   1.328   1.688
10493SOL    HW132378   3.087   1.316   1.601
10493SOL    HW232379   2.945   1.356   1.670
10494SOL     OW32380   4.699   3.401   5.837
10494SOL    HW132381   4.718   3.390   5.740
10494SOL    HW232382   4.626   3.468   5.850
10495SOL     OW32383   2.271   6.923   0.457
10495SOL    HW132384   2.307   6.830   0.460
10495SOL    HW232385   2.303   6.968   0.374
10496SOL     OW32386   0.700   5.929   0.577
10496SOL    HW132387   0.771   5.860   0.594
10496SOL    HW232388   0.672   5.926   0.481
10497SOL     OW32389   2.138   6.966   2.089
10497SOL    HW132390   2.118   7.021   2.170
10497SOL    HW232391   2.237   6.951   2.083
10498SOL     OW32392   3.426   6.502   1.584
10498SOL    HW132393   3.372   6.529   1.505
10498SOL    HW232394   3.438   6.403   1.584
10499SOL     OW32395   3.324   6.583   2.418
10499SOL    HW132396   3.312   6.676   2.383
10499SOL    HW232397   3.252   6.562   2.485
10500SOL     OW32398   0.327   0.743   6.575
10500SOL    HW132399   0.264   0.673   6.541
10500SOL    HW232400   0.357   0.718   6.667
10501SOL     OW32401   2.159   5.313   3.143
10501SOL    HW132402   2.237   5.372   3.163
10501SOL    HW232403   2.081   5.340   3.200
10502SOL     OW32404   2.993   0.766   0.963
10502SOL    HW132405   3.092   0.760   0.976
10502SOL    HW232406   2.951   0.800   1.048
10503SOL     OW32407   4.021   2.881   0.018
10503SOL    HW132408   3.968   2.839   0.092
10503SOL    HW232409   3.959   2.910   6.974
10504SOL     OW32410   2.094   2.088   0.015
10504SOL    HW132411   2.134   2.067   0.104
10504SOL    HW232412   2.166   2.099   6.976
10505SOL     OW32413   5.930   5.310   0.707
10505SOL    HW132414   5.851   5.272   0.755
10505SOL    HW232415   6.013   5.264   0.737
10506SOL     OW32416   0.054   5.127   6.371
10506SOL    HW132417   0.080   5.148   6.277
10506SOL    HW232418   0.114   5.056   6.407
10507SOL     OW32419   2.621   6.846   6.908
10507SOL    HW132420   2.565   6.857   6.990
10507SOL    HW232421   2.621   6.750   6.880
10508SOL     OW32422   5.956   6.029   4.894
10508SOL    HW132423   5.865   6.005   4.926
10508SOL    HW232424   5.952   6.114   4.842
10509SOL     OW32425   0.953   6.233   5.650
10509SOL    HW132426   0.916   6.322   5.625
10509SOL    HW232427   0.949   6.172   5.571
10510SOL     OW32428   4.973   5.832   5.995
10510SOL    HW132429   4.993   5.756   6.057
10510SOL    HW232430   5.050   5.844   5.932
10511SOL     OW32431   4.952   2.469   1.313
10511SOL    HW132432   5.031   2.442   1.259
10511SOL    HW232433   4.939   2.568   1.307
10512SOL     OW32434   3.678   0.673   5.823
10512SOL    HW132435   3.680   0.589   5.769
10512SOL    HW232436   3.749   0.735   5.791
10513SOL     OW32437   6.978   2.496   4.829
10513SOL    HW132438   0.029   2.553   4.848
10513SOL    HW232439   6.895   2.552   4.837
10514SOL     OW32440   6.899   3.703   0.289
10514SOL    HW132441   6.908   3.768   0.365
10514SOL    HW232442   6.817   3.725   0.237
10515SOL     OW32443   6.629   2.732   2.934
10515SOL    HW132444   6.588   2.641   2.945
10515SOL    HW232445   6.686   2.753   3.013
10516SOL     OW32446   4.276   1.178   6.764
10516SOL    HW132447   4.190   1.228   6.753
10516SOL    HW232448   4.335   1.228   6.828
10517SOL     OW32449   7.013   1.933   2.722
10517SOL    HW132450   0.010   1.846   2.681
10517SOL    HW232451   6.919   1.927   2.756
10518SOL     OW32452   0.915   4.815   6.442
10518SOL    HW132453   0.952   4.728   6.476
10518SOL    HW232454   0.983   4.887   6.453
10519SOL     OW32455   2.339   2.404   6.336
10519SOL    HW132456   2.240   2.391   6.333
10519SOL    HW232457   2.374   2.411   6.243
10520SOL     OW32458   2.023   2.638   6.300
10520SOL    HW132459   1.927   2.653   6.278
10520SOL    HW232460   2.038   2.542   6.322
10521SOL     OW32461   6.176   5.675   1.786
10521SOL    HW132462   6.101   5.674   1.852
10521SOL    HW232463   6.152   5.733   1.708
10522SOL     OW32464   6.151   0.847   0.299
10522SOL    HW132465   6.098   0.917   0.250
10522SOL    HW232466   6.199   0.789   0.234
10523SOL     OW32467   0.838   5.915   4.640
10523SOL    HW132468   0.858   5.858   4.719
10523SOL    HW232469   0.923   5.940   4.594
10524SOL     OW32470   2.305   0.853   4.794
10524SOL    HW132471   2.240   0.902   4.852
10524SOL    HW232472   2.389   0.906   4.786
10525SOL     OW32473   3.122   0.112   5.811
10525SOL    HW132474   3.213   0.075   5.791
10525SOL    HW232475   3.081   0.145   5.727
10526SOL     OW32476   0.613   0.143   2.700
10526SOL    HW132477   0.628   0.192   2.614
10526SOL    HW232478   0.692   0.156   2.760
10527SOL     OW32479   6.449   2.663   4.636
10527SOL    HW132480   6.502   2.665   4.551
10527SOL    HW232481   6.494   2.604   4.703
10528SOL     OW32482   0.482   3.253   5.809
10528SOL    HW132483   0.407   3.195   5.776
10528SOL    HW232484   0.520   3.304   5.732
10529SOL     OW32485   2.394   6.232   3.530
10529SOL    HW132486   2.459   6.289   3.579
10529SOL    HW232487   2.367   6.277   3.445
10530SOL     OW32488   1.928   1.377   6.243
10530SOL    HW132489   1.939   1.363   6.144
10530SOL    HW232490   1.934   1.289   6.290
10531SOL     OW32491   0.972   2.523   4.235
10531SOL    HW132492   0.923   2.593   4.288
10531SOL    HW232493   1.009   2.564   4.152
10532SOL     OW32494   2.183   4.148   0.359
10532SOL    HW132495   2.242   4.144   0.279
10532SOL    HW232496   2.164   4.055   0.391
10533SOL     OW32497   3.146   1.831   4.876
10533SOL    HW132498   3.130   1.858   4.970
10533SOL    HW232499   3.176   1.910   4.823
10534SOL     OW32500   6.044   5.413   1.441
10534SOL    HW132501   6.080   5.349   1.373
10534SOL    HW232502   6.056   5.507   1.409
10535SOL     OW32503   0.845   1.799   1.146
10535SOL    HW132504   0.782   1.721   1.148
10535SOL    HW232505   0.817   1.862   1.073
10536SOL     OW32506   3.837   0.663   3.012
10536SOL    HW132507   3.909   0.666   2.944
10536SOL    HW232508   3.839   0.746   3.068
10537SOL     OW32509   3.562   5.313   4.179
10537SOL    HW132510   3.601   5.287   4.267
10537SOL    HW232511   3.629   5.366   4.127
10538SOL     OW32512   4.673   2.951   6.812
10538SOL    HW132513   4.615   2.939   6.892
10538SOL    HW232514   4.745   3.017   6.833
10539SOL     OW32515   0.581   4.387   6.638
10539SOL    HW132516   0.665   4.352   6.598
10539SOL    HW232517   0.548   4.465   6.585
10540SOL     OW32518   1.163   2.168   5.172
10540SOL    HW132519   1.152   2.234   5.097
10540SOL    HW232520   1.078   2.163   5.224
10541SOL     OW32521   3.660   3.618   1.779
10541SOL    HW132522   3.622   3.555   1.712
10541SOL    HW232523   3.596   3.629   1.855
10542SOL     OW32524   6.608   1.907   6.636
10542SOL    HW132525   6.518   1.945   6.616
10542SOL    HW232526   6.606   1.861   6.725
10543SOL     OW32527   6.937   1.170   5.174
10543SOL    HW132528   6.889   1.257   5.169
10543SOL    HW232529   6.991   1.166   5.259
10544SOL     OW32530   1.308   0.102   2.672
10544SOL    HW132531   1.372   0.081   2.746
10544SOL    HW232532   1.316   0.199   2.649
10545SOL     OW32533   5.700   1.224   2.758
10545SOL    HW132534   5.693   1.309   2.811
10545SOL    HW232535   5.635   1.157   2.795
10546SOL     OW32536   0.389   0.928   6.099
10546SOL    HW132537   0.388   0.884   6.189
10546SOL    HW232538   0.359   1.023   6.108
10547SOL     OW32539   4.623   1.963   1.946
10547SOL    HW132540   4.528   1.962   1.914
10547SOL    HW232541   4.684   1.950   1.868
10548SOL     OW32542   5.197   3.947   4.969
10548SOL    HW132543   5.141   4.029   4.952
10548SOL    HW232544   5.278   3.973   5.020
10549SOL     OW32545   6.539   0.245   2.543
10549SOL    HW132546   6.506   0.171   2.485
10549SOL    HW232547   6.509   0.333   2.504
10550SOL     OW32548   4.576   6.264   5.012
10550SOL    HW132549   4.551   6.248   4.916
10550SOL    HW232550   4.572   6.178   5.062
10551SOL     OW32551   1.467   2.840   5.642
10551SOL    HW132552   1.458   2.901   5.721
10551SOL    HW232553   1.550   2.864   5.591
10552SOL     OW32554   3.746   2.091   6.085
10552SOL    HW132555   3.753   2.050   5.994
10552SOL    HW232556   3.837   2.120   6.116
10553SOL     OW32557   1.280   5.286   1.743
10553SOL    HW132558   1.292   5.221   1.669
10553SOL    HW232559   1.363   5.341   1.753
10554SOL     OW32560   5.044   5.394   6.825
10554SOL    HW132561   5.098   5.445   6.758
10554SOL    HW232562   4.985   5.329   6.777
10555SOL     OW32563   2.589   3.310   1.060
10555SOL    HW132564   2.615   3.391   1.113
10555SOL    HW232565   2.610   3.228   1.111
10556SOL     OW32566   2.141   2.404   4.961
10556SOL    HW132567   2.237   2.411   4.987
10556SOL    HW232568   2.115   2.485   4.908
10557SOL     OW32569   1.960   2.338   3.410
10557SOL    HW132570   1.979   2.381   3.498
10557SOL    HW232571   1.985   2.401   3.336
10558SOL     OW32572   4.098   0.601   4.403
10558SOL    HW132573   4.117   0.548   4.320
10558SOL    HW232574   4.003   0.587   4.431
10559SOL     OW32575   4.385   0.746   1.247
10559SOL    HW132576   4.408   0.651   1.265
10559SOL    HW232577   4.469   0.797   1.224
10560SOL     OW32578   2.944   6.933   3.918
10560SOL    HW132579   3.029   6.985   3.928
10560SOL    HW232580   2.963   6.835   3.932
10561SOL     OW32581   2.605   4.998   0.707
10561SOL    HW132582   2.668   4.922   0.719
10561SOL    HW232583   2.526   4.985   0.767
10562SOL     OW32584   5.187   5.888   0.576
10562SOL    HW132585   5.202   5.984   0.556
10562SOL    HW232586   5.166   5.877   0.674
10563SOL     OW32587   1.184   0.550   4.024
10563SOL    HW132588   1.273   0.506   4.017
10563SOL    HW232589   1.186   0.619   4.096
10564SOL     OW32590   5.911   6.698   2.354
10564SOL    HW132591   5.813   6.707   2.337
10564SOL    HW232592   5.960   6.771   2.306
10565SOL     OW32593   0.085   0.785   5.196
10565SOL    HW132594   0.109   0.696   5.157
10565SOL    HW232595   0.168   0.834   5.222
10566SOL     OW32596   4.118   2.616   6.926
10566SOL    HW132597   4.084   2.574   6.842
10566SOL    HW232598   4.092   2.713   6.928
10567SOL     OW32599   2.485   2.108   4.193
10567SOL    HW132600   2.502   2.014   4.162
10567SOL    HW232601   2.550   2.170   4.149
10568SOL     OW32602   5.697   1.501   1.440
10568SOL    HW132603   5.678   1.415   1.486
10568SOL    HW232604   5.611   1.550   1.425
10569SOL     OW32605   6.099   2.476   1.741
10569SOL    HW132606   6.185   2.521   1.766
10569SOL    HW232607   6.093   2.387   1.787
10570SOL     OW32608   1.727   5.168   3.031
10570SOL    HW132609   1.713   5.259   3.069
10570SOL    HW232610   1.719   5.173   2.931
10571SOL     OW32611   0.220   4.413   4.400
10571SOL    HW132612   0.301   4.387   4.452
10571SOL    HW232613   0.247   4.468   4.320
10572SOL     OW32614   6.780   3.842   3.461
10572SOL    HW132615   6.829   3.767   3.505
10572SOL    HW232616   6.845   3.901   3.413
10573SOL     OW32617   4.495   6.211   4.744
10573SOL    HW132618   4.448   6.260   4.671
10573SOL    HW232619   4.431   6.148   4.789
10574SOL     OW32620   1.456   1.652   4.189
10574SOL    HW132621   1.395   1.665   4.110
10574SOL    HW232622   1.530   1.590   4.164
10575SOL     OW32623   6.976   1.087   3.250
10575SOL    HW132624   7.014   1.142   3.325
10575SOL    HW232625   0.020   1.035   3.206
10576SOL     OW32626   0.159   6.611   5.375
10576SOL    HW132627   0.211   6.639   5.294
10576SOL    HW232628   0.120   6.691   5.419
10577SOL     OW32629   1.711   2.384   6.447
10577SOL    HW132630   1.645   2.407   6.519
10577SOL    HW232631   1.735   2.287   6.454
10578SOL     OW32632   6.601   0.340   3.501
10578SOL    HW132633   6.616   0.424   3.553
10578SOL    HW232634   6.526   0.288   3.543
10579SOL     OW32635   3.592   1.407   0.589
10579SOL    HW132636   3.521   1.339   0.569
10579SOL    HW232637   3.588   1.432   0.686
10580SOL     OW32638   0.094   0.301   0.270
10580SOL    HW132639   0.051   0.372   0.214
10580SOL    HW232640   0.110   0.219   0.214
10581SOL     OW32641   6.073   6.579   2.988
10581SOL    HW132642   6.031   6.529   2.913
10581SOL    HW232643   6.088   6.674   2.961
10582SOL     OW32644   4.314   4.896   0.060
10582SOL    HW132645   4.273   4.963   0.123
10582SOL    HW232646   4.254   4.883   7.010
10583SOL     OW32647   3.896   1.068   5.659
10583SOL    HW132648   3.872   1.146   5.715
10583SOL    HW232649   3.884   1.091   5.562
10584SOL     OW32650   6.224   6.432   1.125
10584SOL    HW132651   6.150   6.400   1.184
10584SOL    HW232652   6.284   6.492   1.176
10585SOL     OW32653   1.444   3.280   5.389
10585SOL    HW132654   1.491   3.222   5.322
10585SOL    HW232655   1.365   3.231   5.426
10586SOL     OW32656   1.193   5.946   4.852
10586SOL    HW132657   1.259   5.919   4.922
10586SOL    HW232658   1.232   5.932   4.761
10587SOL     OW32659   6.189   4.782   0.118
10587SOL    HW132660   6.135   4.829   0.187
10587SOL    HW232661   6.132   4.757   0.040
10588SOL     OW32662   0.550   3.994   2.499
10588SOL    HW132663   0.632   4.047   2.520
10588SOL    HW232664   0.482   4.054   2.457
10589SOL     OW32665   5.807   1.554   4.304
10589SOL    HW132666   5.810   1.458   4.276
10589SOL    HW232667   5.868   1.567   4.383
10590SOL     OW32668   0.708   0.411   1.735
10590SOL    HW132669   0.765   0.333   1.760
10590SOL    HW232670   0.627   0.378   1.686
10591SOL     OW32671   1.125   1.281   6.474
10591SOL    HW132672   1.028   1.255   6.479
10591SOL    HW232673   1.134   1.363   6.418
10592SOL     OW32674   6.448   2.691   0.394
10592SOL    HW132675   6.451   2.664   0.490
10592SOL    HW232676   6.508   2.770   0.379
10593SOL     OW32677   2.685   5.199   0.568
10593SOL    HW132678   2.650   5.169   0.479
10593SOL    HW232679   2.662   5.131   0.637
10594SOL     OW32680   5.521   0.621   2.769
10594SOL    HW132681   5.564   0.703   2.729
10594SOL    HW232682   5.441   0.596   2.715
10595SOL     OW32683   3.399   0.361   6.168
10595SOL    HW132684   3.415   0.437   6.104
10595SOL    HW232685   3.315   0.378   6.220
10596SOL     OW32686   4.615   0.200   0.878
10596SOL    HW132687   4.565   0.284   0.853
10596SOL    HW232688   4.698   0.194   0.824
10597SOL     OW32689   3.077   0.949   5.156
10597SOL    HW132690   3.076   0.903   5.245
10597SOL    HW232691   2.990   0.935   5.110
10598SOL     OW32692   2.784   2.891   6.908
10598SOL    HW132693   2.684   2.890   6.916
10598SOL    HW232694   2.810   2.874   6.813
10599SOL     OW32695   5.100   2.541   6.934
10599SOL    HW132696   5.024   2.549   6.869
10599SOL    HW232697   5.124   2.632   6.969
10600SOL     OW32698   1.536   3.342   0.460
10600SOL    HW132699   1.568   3.288   0.538
10600SOL    HW232700   1.549   3.290   0.375
10601SOL     OW32701   1.693   4.941   6.337
10601SOL    HW132702   1.772   4.977   6.386
10601SOL    HW232703   1.670   5.002   6.261
10602SOL     OW32704   5.269   1.413   3.172
10602SOL    HW132705   5.252   1.322   3.209
10602SOL    HW232706   5.289   1.477   3.247
10603SOL     OW32707   2.326   5.861   3.695
10603SOL    HW132708   2.416   5.904   3.686
10603SOL    HW232709   2.337   5.765   3.721
10604SOL     OW32710   6.143   4.218   5.375
10604SOL    HW132711   6.177   4.147   5.313
10604SOL    HW232712   6.220   4.265   5.417
10605SOL     OW32713   1.928   4.907   0.952
10605SOL    HW132714   1.950   4.960   0.870
10605SOL    HW232715   1.875   4.964   1.015
10606SOL     OW32716   6.298   6.898   2.738
10606SOL    HW132717   6.348   6.977   2.774
10606SOL    HW232718   6.360   6.820   2.729
10607SOL     OW32719   4.209   3.794   5.795
10607SOL    HW132720   4.146   3.849   5.849
10607SOL    HW232721   4.232   3.710   5.845
10608SOL     OW32722   5.697   2.063   5.716
10608SOL    HW132723   5.771   2.005   5.750
10608SOL    HW232724   5.619   2.059   5.778
10609SOL     OW32725   3.649   6.859   1.747
10609SOL    HW132726   3.709   6.800   1.801
10609SOL    HW232727   3.559   6.815   1.738
10610SOL     OW32728   0.142   3.664   6.400
10610SOL    HW132729   0.200   3.583   6.408
10610SOL    HW232730   0.078   3.666   6.476
10611SOL     OW32731   4.480   3.537   5.811
10611SOL    HW132732   4.467   3.600   5.734
10611SOL    HW232733   4.391   3.513   5.849
10612SOL     OW32734   2.739   6.899   5.898
10612SOL    HW132735   2.765   6.866   5.988
10612SOL    HW232736   2.807   6.869   5.831
10613SOL     OW32737   7.023   0.230   5.283
10613SOL    HW132738   6.941   0.180   5.310
10613SOL    HW232739   7.015   0.258   5.187
10614SOL     OW32740   6.459   2.305   4.358
10614SOL    HW132741   6.442   2.243   4.434
10614SOL    HW232742   6.557   2.323   4.351
10615SOL     OW32743   3.630   6.109   5.762
10615SOL    HW132744   3.538   6.132   5.729
10615SOL    HW232745   3.623   6.037   5.832
10616SOL     OW32746   3.024   6.258   0.534
10616SOL    HW132747   2.983   6.192   0.473
10616SOL    HW232748   3.115   6.227   0.562
10617SOL     OW32749   2.278   2.837   0.851
10617SOL    HW132750   2.237   2.928   0.856
10617SOL    HW232751   2.282   2.807   0.756
10618SOL     OW32752   5.982   3.650   6.968
10618SOL    HW132753   5.927   3.574   7.002
10618SOL    HW232754   6.071   3.651   7.014
10619SOL     OW32755   0.399   3.670   1.669
10619SOL    HW132756   0.480   3.683   1.726
10619SOL    HW232757   0.326   3.731   1.700
10620SOL     OW32758   1.188   5.712   5.797
10620SOL    HW132759   1.282   5.731   5.768
10620SOL    HW232760   1.139   5.666   5.723
10621SOL     OW32761   1.390   6.364   1.098
10621SOL    HW132762   1.372   6.391   1.192
10621SOL    HW232763   1.481   6.395   1.070
10622SOL     OW32764   5.010   1.269   1.457
10622SOL    HW132765   5.019   1.325   1.539
10622SOL    HW232766   4.913   1.252   1.439
10623SOL     OW32767   6.599   4.305   4.066
10623SOL    HW132768   6.604   4.266   3.974
10623SOL    HW232769   6.691   4.304   4.107
10624SOL     OW32770   0.962   1.399   4.710
10624SOL    HW132771   1.048   1.356   4.740
10624SOL    HW232772   0.909   1.426   4.790
10625SOL     OW32773   0.738   4.666   0.256
10625SOL    HW132774   0.709   4.720   0.335
10625SOL    HW232775   0.740   4.724   0.175
10626SOL     OW32776   0.906   2.616   1.301
10626SOL    HW132777   0.866   2.536   1.346
10626SOL    HW232778   0.862   2.630   1.212
10627SOL     OW32779   5.302   5.599   1.917
10627SOL    HW132780   5.210   5.639   1.919
10627SOL    HW232781   5.357   5.638   1.991
10628SOL     OW32782   5.482   5.311   6.025
10628SOL    HW132783   5.477   5.389   5.963
10628SOL    HW232784   5.490   5.345   6.119
10629SOL     OW32785   2.564   4.672   4.975
10629SOL    HW132786   2.659   4.653   5.000
10629SOL    HW232787   2.529   4.597   4.919
10630SOL     OW32788   6.558   0.946   3.581
10630SOL    HW132789   6.620   0.999   3.523
10630SOL    HW232790   6.611   0.888   3.643
10631SOL     OW32791   1.706   4.981   4.924
10631SOL    HW132792   1.696   4.987   4.824
10631SOL    HW232793   1.674   4.892   4.956
10632SOL     OW32794   5.576   1.744   3.985
10632SOL    HW132795   5.541   1.739   3.891
10632SOL    HW232796   5.523   1.811   4.037
10633SOL     OW32797   2.608   4.075   1.377
10633SOL    HW132798   2.664   4.078   1.460
10633SOL    HW232799   2.546   3.997   1.382
10634SOL     OW32800   3.093   5.301   1.079
10634SOL    HW132801   3.062   5.385   1.123
10634SOL    HW232802   3.163   5.257   1.135
10635SOL     OW32803   3.520   1.292   1.472
10635SOL    HW132804   3.499   1.202   1.508
10635SOL    HW232805   3.488   1.299   1.378
10636SOL     OW32806   1.243   2.171   1.778
10636SOL    HW132807   1.275   2.170   1.683
10636SOL    HW232808   1.274   2.087   1.823
10637SOL     OW32809   3.286   4.644   5.333
10637SOL    HW132810   3.328   4.691   5.410
10637SOL    HW232811   3.245   4.558   5.364
10638SOL     OW32812   6.911   5.188   2.462
10638SOL    HW132813   6.988   5.251   2.452
10638SOL    HW232814   6.888   5.178   2.559
10639SOL     OW32815   0.232   2.242   3.232
10639SOL    HW132816   0.328   2.220   3.220
10639SOL    HW232817   0.217   2.340   3.216
10640SOL     OW32818   4.284   0.446   6.359
10640SOL    HW132819   4.284   0.454   6.260
10640SOL    HW232820   4.371   0.477   6.396
10641SOL     OW32821   3.222   1.773   0.143
10641SOL    HW132822   3.261   1.838   0.078
10641SOL    HW232823   3.206   1.820   0.230
10642SOL     OW32824   0.095   2.315   1.747
10642SOL    HW132825   0.131   2.407   1.733
10642SOL    HW232826   0.169   2.254   1.776
10643SOL     OW32827   1.980   4.857   5.510
10643SOL    HW132828   1.964   4.938   5.453
10643SOL    HW232829   1.951   4.876   5.604
10644SOL     OW32830   5.392   1.919   3.198
10644SOL    HW132831   5.460   1.990   3.187
10644SOL    HW232832   5.435   1.829   3.191
10645SOL     OW32833   0.613   1.131   4.464
10645SOL    HW132834   0.669   1.144   4.382
10645SOL    HW232835   0.660   1.071   4.528
10646SOL     OW32836   0.576   1.728   5.135
10646SOL    HW132837   0.654   1.675   5.103
10646SOL    HW232838   0.521   1.672   5.197
10647SOL     OW32839   4.347   5.976   6.757
10647SOL    HW132840   4.367   5.878   6.763
10647SOL    HW232841   4.406   6.017   6.688
10648SOL     OW32842   4.841   3.539   6.369
10648SOL    HW132843   4.928   3.554   6.322
10648SOL    HW232844   4.767   3.534   6.302
10649SOL     OW32845   0.367   4.552   3.461
10649SOL    HW132846   0.453   4.603   3.456
10649SOL    HW232847   0.387   4.454   3.455
10650SOL     OW32848   1.393   6.153   2.806
10650SOL    HW132849   1.477   6.171   2.856
10650SOL    HW232850   1.396   6.201   2.718
10651SOL     OW32851   5.305   0.066   5.799
10651SOL    HW132852   5.346   0.017   5.876
10651SOL    HW232853   5.297   0.163   5.821
10652SOL     OW32854   3.580   0.140   6.796
10652SOL    HW132855   3.562   0.056   6.845
10652SOL    HW232856   3.574   0.218   6.859
10653SOL     OW32857   4.946   4.641   4.210
10653SOL    HW132858   5.017   4.701   4.245
10653SOL    HW232859   4.862   4.693   4.196
10654SOL     OW32860   4.638   1.248   0.877
10654SOL    HW132861   4.701   1.326   0.875
10654SOL    HW232862   4.651   1.192   0.796
10655SOL     OW32863   3.200   5.381   1.547
10655SOL    HW132864   3.101   5.396   1.558
10655SOL    HW232865   3.239   5.348   1.632
10656SOL     OW32866   6.082   2.394   0.660
10656SOL    HW132867   5.984   2.413   0.660
10656SOL    HW232868   6.106   2.344   0.577
10657SOL     OW32869   6.084   6.616   0.493
10657SOL    HW132870   6.021   6.608   0.569
10657SOL    HW232871   6.166   6.667   0.522
10658SOL     OW32872   6.818   3.902   4.839
10658SOL    HW132873   6.826   3.980   4.778
10658SOL    HW232874   6.758   3.833   4.798
10659SOL     OW32875   6.611   6.479   0.838
10659SOL    HW132876   6.686   6.449   0.898
10659SOL    HW232877   6.530   6.499   0.893
10660SOL     OW32878   4.901   4.593   6.288
10660SOL    HW132879   4.865   4.531   6.218
10660SOL    HW232880   4.970   4.545   6.343
10661SOL     OW32881   6.987   6.631   2.336
10661SOL    HW132882   7.017   6.707   2.278
10661SOL    HW232883   0.038   6.580   2.369
10662SOL     OW32884   5.775   0.787   2.070
10662SOL    HW132885   5.795   0.885   2.064
10662SOL    HW232886   5.861   0.736   2.071
10663SOL     OW32887   0.480   6.886   1.304
10663SOL    HW132888   0.394   6.836   1.290
10663SOL    HW232889   0.473   6.940   1.388
10664SOL     OW32890   2.010   3.973   6.124
10664SOL    HW132891   2.089   4.025   6.093
10664SOL    HW232892   1.989   3.901   6.058
10665SOL     OW32893   1.239   0.689   0.213
10665SOL    HW132894   1.243   0.646   0.304
10665SOL    HW232895   1.232   0.788   0.223
10666SOL     OW32896   3.781   4.617   0.375
10666SOL    HW132897   3.834   4.583   0.298
10666SOL    HW232898   3.724   4.543   0.411
10667SOL     OW32899   3.553   2.217   5.651
10667SOL    HW132900   3.587   2.131   5.613
10667SOL    HW232901   3.527   2.278   5.576
10668SOL     OW32902   1.105   1.485   5.080
10668SOL    HW132903   1.053   1.403   5.105
10668SOL    HW232904   1.184   1.495   5.141
10669SOL     OW32905   6.690   6.706   0.586
10669SOL    HW132906   6.759   6.669   0.648
10669SOL    HW232907   6.717   6.798   0.558
10670SOL     OW32908   5.227   4.513   5.491
10670SOL    HW132909   5.151   4.449   5.500
10670SOL    HW232910   5.192   4.604   5.469
10671SOL     OW32911   2.176   3.064   2.595
10671SOL    HW132912   2.152   3.153   2.557
10671SOL    HW232913   2.172   3.069   2.695
10672SOL     OW32914   6.837   2.761   0.564
10672SOL    HW132915   6.740   2.778   0.580
10672SOL    HW232916   6.877   2.720   0.645
10673SOL     OW32917   2.035   2.109   5.403
10673SOL    HW132918   2.133   2.116   5.423
10673SOL    HW232919   1.989   2.061   5.477
10674SOL     OW32920   4.041   3.664   0.502
10674SOL    HW132921   4.011   3.570   0.485
10674SOL    HW232922   3.965   3.716   0.541
10675SOL     OW32923   1.935   1.162   6.380
10675SOL    HW132924   1.837   1.168   6.397
10675SOL    HW232925   1.966   1.068   6.393
10676SOL     OW32926   6.077   6.981   6.417
10676SOL    HW132927   6.028   0.039   6.424
10676SOL    HW232928   6.046   6.931   6.336
10677SOL     OW32929   0.740   0.894   2.340
10677SOL    HW132930   0.825   0.946   2.343
10677SOL    HW232931   0.686   0.924   2.262
10678SOL     OW32932   3.618   5.218   3.294
10678SOL    HW132933   3.581   5.140   3.344
10678SOL    HW232934   3.699   5.190   3.243
10679SOL     OW32935   5.425   5.018   6.041
10679SOL    HW132936   5.454   5.112   6.021
10679SOL    HW232937   5.392   4.975   5.957
10680SOL     OW32938   2.241   2.467   3.897
10680SOL    HW132939   2.174   2.445   3.826
10680SOL    HW232940   2.194   2.480   3.985
10681SOL     OW32941   0.067   3.950   6.684
10681SOL    HW132942   7.020   3.889   6.707
10681SOL    HW232943   0.082   4.014   6.759
10682SOL     OW32944   1.897   2.069   3.404
10682SOL    HW132945   1.926   2.165   3.400
10682SOL    HW232946   1.891   2.032   3.311
10683SOL     OW32947   3.123   2.097   3.835
10683SOL    HW132948   3.090   2.052   3.752
10683SOL    HW232949   3.092   2.046   3.915
10684SOL     OW32950   4.255   4.065   0.052
10684SOL    HW132951   4.157   4.083   0.057
10684SOL    HW232952   4.271   3.979   0.003
10685SOL     OW32953   7.027   3.993   2.439
10685SOL    HW132954   0.015   4.013   2.342
10685SOL    HW232955   0.071   3.933   2.473
10686SOL     OW32956   4.186   6.027   6.287
10686SOL    HW132957   4.095   6.012   6.325
10686SOL    HW232958   4.188   6.114   6.238
10687SOL     OW32959   0.210   5.545   1.908
10687SOL    HW132960   0.261   5.562   1.824
10687SOL    HW232961   0.220   5.449   1.934
10688SOL     OW32962   5.861   4.004   2.406
10688SOL    HW132963   5.818   3.939   2.342
10688SOL    HW232964   5.807   4.009   2.490
10689SOL     OW32965   0.278   0.112   3.017
10689SOL    HW132966   0.203   0.046   3.007
10689SOL    HW232967   0.364   0.069   2.987
10690SOL     OW32968   5.617   5.391   3.272
10690SOL    HW132969   5.716   5.402   3.283
10690SOL    HW232970   5.599   5.305   3.225
10691SOL     OW32971   0.014   2.005   2.208
10691SOL    HW132972   0.041   2.096   2.175
10691SOL    HW232973   6.954   1.981   2.169
10692SOL     OW32974   2.933   5.637   3.937
10692SOL    HW132975   2.956   5.716   3.879
10692SOL    HW232976   2.993   5.561   3.915
10693SOL     OW32977   2.026   0.802   1.256
10693SOL    HW132978   2.000   0.851   1.173
10693SOL    HW232979   1.979   0.714   1.259
10694SOL     OW32980   3.526   6.457   0.807
10694SOL    HW132981   3.592   6.386   0.830
10694SOL    HW232982   3.554   6.544   0.846
10695SOL     OW32983   6.431   2.067   3.878
10695SOL    HW132984   6.504   2.037   3.939
10695SOL    HW232985   6.444   2.164   3.855
10696SOL     OW32986   6.697   4.588   1.515
10696SOL    HW132987   6.789   4.575   1.477
10696SOL    HW232988   6.685   4.684   1.540
10697SOL     OW32989   0.337   6.304   4.002
10697SOL    HW132990   0.364   6.216   4.043
10697SOL    HW232991   0.413   6.342   3.951
10698SOL     OW32992   3.451   6.864   4.075
10698SOL    HW132993   3.370   6.917   4.098
10698SOL    HW232994   3.441   6.824   3.984
10699SOL     OW32995   4.728   1.830   3.038
10699SOL    HW132996   4.787   1.881   2.976
10699SOL    HW232997   4.714   1.738   3.003
10700SOL     OW32998   1.241   0.286   0.344
10700SOL    HW132999   1.264   0.349   0.270
10700SOL    HW233000   1.325   0.246   0.381
10701SOL     OW33001   4.247   6.170   0.044
10701SOL    HW133002   4.215   6.128   0.129
10701SOL    HW233003   4.169   6.201   7.020
10702SOL     OW33004   5.380   2.405   1.547
10702SOL    HW133005   5.362   2.333   1.615
10702SOL    HW233006   5.315   2.480   1.560
10703SOL     OW33007   3.805   3.264   3.907
10703SOL    HW133008   3.883   3.207   3.884
10703SOL    HW233009   3.836   3.345   3.957
10704SOL     OW33010   4.800   6.403   2.229
10704SOL    HW133011   4.826   6.380   2.135
10704SOL    HW233012   4.882   6.423   2.282
10705SOL     OW33013   1.324   3.887   0.405
10705SOL    HW133014   1.383   3.823   0.356
10705SOL    HW233015   1.338   3.877   0.504
10706SOL     OW33016   4.743   0.410   1.700
10706SOL    HW133017   4.672   0.346   1.670
10706SOL    HW233018   4.821   0.404   1.638
10707SOL     OW33019   0.246   6.926   5.246
10707SOL    HW133020   0.204   6.931   5.156
10707SOL    HW233021   0.177   6.946   5.316
10708SOL     OW33022   4.778   0.951   1.435
10708SOL    HW133023   4.747   0.939   1.529
10708SOL    HW233024   4.714   0.906   1.373
10709SOL     OW33025   6.120   0.533   5.573
10709SOL    HW133026   6.158   0.514   5.664
10709SOL    HW233027   6.061   0.613   5.577
10710SOL     OW33028   0.223   6.401   4.823
10710SOL    HW133029   0.205   6.344   4.904
10710SOL    HW233030   0.284   6.352   4.761
10711SOL     OW33031   2.211   0.004   3.733
10711SOL    HW133032   2.166   0.065   3.668
10711SOL    HW233033   2.303   0.036   3.752
10712SOL     OW33034   3.998   1.460   4.207
10712SOL    HW133035   4.088   1.469   4.165
10712SOL    HW233036   4.006   1.408   4.292
10713SOL     OW33037   1.949   5.494   1.710
10713SOL    HW133038   2.027   5.511   1.769
10713SOL    HW233039   1.953   5.401   1.674
10714SOL     OW33040   0.065   3.960   4.683
10714SOL    HW133041   0.078   4.042   4.626
10714SOL    HW233042   0.051   3.988   4.778
10715SOL     OW33043   5.571   0.468   3.634
10715SOL    HW133044   5.659   0.483   3.591
10715SOL    HW233045   5.583   0.410   3.715
10716SOL     OW33046   6.418   1.200   3.412
10716SOL    HW133047   6.404   1.104   3.388
10716SOL    HW233048   6.330   1.243   3.432
10717SOL     OW33049   0.614   1.605   1.162
10717SOL    HW133050   0.643   1.512   1.137
10717SOL    HW233051   0.623   1.617   1.261
10718SOL     OW33052   6.855   5.320   0.411
10718SOL    HW133053   6.785   5.274   0.466
10718SOL    HW233054   6.937   5.262   0.406
10719SOL     OW33055   5.067   6.818   2.062
10719SOL    HW133056   5.060   6.814   1.963
10719SOL    HW233057   5.119   6.739   2.095
10720SOL     OW33058   6.821   3.429   5.957
10720SOL    HW133059   6.911   3.422   6.001
10720SOL    HW233060   6.833   3.432   5.858
10721SOL     OW33061   5.815   2.190   4.011
10721SOL    HW133062   5.797   2.094   4.032
10721SOL    HW233063   5.746   2.224   3.947
10722SOL     OW33064   6.894   3.549   0.026
10722SOL    HW133065   6.971   3.533   6.994
10722SOL    HW233066   6.918   3.619   0.092
10723SOL     OW33067   5.618   3.923   6.916
10723SOL    HW133068   5.563   3.841   6.932
10723SOL    HW233069   5.560   3.994   6.877
10724SOL     OW33070   4.234   6.741   6.185
10724SOL    HW133071   4.251   6.785   6.097
10724SOL    HW233072   4.173   6.662   6.171
10725SOL     OW33073   0.032   5.361   4.356
10725SOL    HW133074   0.096   5.425   4.314
10725SOL    HW233075   0.019   5.283   4.295
10726SOL     OW33076   5.510   0.420   5.050
10726SOL    HW133077   5.432   0.480   5.029
10726SOL    HW233078   5.535   0.431   5.146
10727SOL     OW33079   1.696   4.502   5.194
10727SOL    HW133080   1.628   4.478   5.126
10727SOL    HW233081   1.718   4.599   5.188
10728SOL     OW33082   5.428   6.909   3.280
10728SOL    HW133083   5.503   6.859   3.236
10728SOL    HW233084   5.393   6.856   3.357
10729SOL     OW33085   6.405   1.825   2.475
10729SOL    HW133086   6.416   1.925   2.470
10729SOL    HW233087   6.415   1.795   2.570
10730SOL     OW33088   2.175   5.736   2.084
10730SOL    HW133089   2.166   5.764   1.989
10730SOL    HW233090   2.098   5.773   2.137
10731SOL     OW33091   3.027   5.541   0.657
10731SOL    HW133092   3.043   5.623   0.602
10731SOL    HW233093   3.101   5.531   0.724
10732SOL     OW33094   6.050   6.673   3.226
10732SOL    HW133095   6.059   6.634   3.135
10732SOL    HW233096   5.970   6.733   3.229
10733SOL     OW33097   6.278   1.748   0.153
10733SOL    HW133098   6.356   1.748   0.217
10733SOL    HW233099   6.224   1.665   0.167
10734SOL     OW33100   0.634   0.081   6.029
10734SOL    HW133101   0.535   0.072   6.022
10734SOL    HW233102   0.657   0.142   6.105
10735SOL     OW33103   0.816   5.284   2.438
10735SOL    HW133104   0.800   5.363   2.379
10735SOL    HW233105   0.891   5.303   2.500
10736SOL     OW33106   0.612   0.715   3.548
10736SOL    HW133107   0.607   0.622   3.513
10736SOL    HW233108   0.688   0.722   3.613
10737SOL     OW33109   0.816   2.156   1.226
10737SOL    HW133110   0.738   2.113   1.271
10737SOL    HW233111   0.790   2.181   1.132
10738SOL     OW33112   2.699   1.076   3.047
10738SOL    HW133113   2.781   1.028   3.079
10738SOL    HW233114   2.619   1.018   3.063
10739SOL     OW33115   5.719   1.891   2.085
10739SOL    HW133116   5.720   1.810   2.026
10739SOL    HW233117   5.810   1.931   2.090
10740SOL     OW33118   1.566   6.500   5.565
10740SOL    HW133119   1.600   6.541   5.480
10740SOL    HW233120   1.618   6.418   5.586
10741SOL     OW33121   2.020   2.401   3.723
10741SOL    HW133122   1.966   2.407   3.807
10741SOL    HW233123   2.020   2.489   3.676
10742SOL     OW33124   5.759   6.170   2.119
10742SOL    HW133125   5.661   6.158   2.103
10742SOL    HW233126   5.801   6.082   2.140
10743SOL     OW33127   3.754   1.271   5.252
10743SOL    HW133128   3.791   1.281   5.160
10743SOL    HW233129   3.709   1.356   5.279
10744SOL     OW33130   3.134   0.783   1.988
10744SOL    HW133131   3.141   0.852   2.060
10744SOL    HW233132   3.038   0.761   1.971
10745SOL     OW33133   2.621   4.732   0.855
10745SOL    HW133134   2.594   4.689   0.768
10745SOL    HW233135   2.543   4.781   0.894
10746SOL     OW33136   2.292   5.898   1.137
10746SOL    HW133137   2.266   5.810   1.099
10746SOL    HW233138   2.360   5.941   1.078
10747SOL     OW33139   5.297   1.852   3.467
10747SOL    HW133140   5.300   1.942   3.509
10747SOL    HW233141   5.341   1.855   3.377
10748SOL     OW33142   4.991   5.733   1.200
10748SOL    HW133143   4.997   5.819   1.251
10748SOL    HW233144   5.067   5.727   1.135
10749SOL     OW33145   5.934   4.645   3.210
10749SOL    HW133146   6.031   4.668   3.214
10749SOL    HW233147   5.917   4.561   3.262
10750SOL     OW33148   5.015   4.276   4.344
10750SOL    HW133149   4.976   4.353   4.394
10750SOL    HW233150   5.003   4.192   4.397
10751SOL     OW33151   1.026   3.049   4.906
10751SOL    HW133152   1.080   3.073   4.987
10751SOL    HW233153   0.942   3.103   4.906
10752SOL     OW33154   5.845   4.896   6.992
10752SOL    HW133155   5.942   4.921   6.987
10752SOL    HW233156   5.789   4.969   6.955
10753SOL     OW33157   4.444   0.348   4.106
10753SOL    HW133158   4.509   0.311   4.039
10753SOL    HW233159   4.481   0.432   4.145
10754SOL     OW33160   0.564   2.959   1.703
10754SOL    HW133161   0.532   2.904   1.781
10754SOL    HW233162   0.573   3.055   1.732
10755SOL     OW33163   0.066   1.546   0.914
10755SOL    HW133164   0.028   1.594   0.993
10755SOL    HW233165   7.024   1.489   0.872
10756SOL     OW33166   6.627   2.406   0.020
10756SOL    HW133167   6.715   2.368   0.048
10756SOL    HW233168   6.574   2.433   0.101
10757SOL     OW33169   0.052   4.262   0.423
10757SOL    HW133170   0.022   4.300   0.511
10757SOL    HW233171   7.004   4.214   0.380
10758SOL     OW33172   0.610   5.713   6.076
10758SOL    HW133173   0.557   5.776   6.019
10758SOL    HW233174   0.574   5.715   6.170
10759SOL     OW33175   1.350   3.014   6.241
10759SOL    HW133176   1.260   2.977   6.219
10759SOL    HW233177   1.375   3.084   6.174
10760SOL     OW33178   1.263   5.852   0.817
10760SOL    HW133179   1.317   5.859   0.901
10760SOL    HW233180   1.216   5.939   0.800
10761SOL     OW33181   0.693   2.767   6.292
10761SOL    HW133182   0.776   2.811   6.326
10761SOL    HW233183   0.641   2.731   6.370
10762SOL     OW33184   4.042   0.807   5.949
10762SOL    HW133185   3.973   0.862   5.996
10762SOL    HW233186   4.103   0.766   6.016
10763SOL     OW33187   5.074   0.566   2.337
10763SOL    HW133188   5.135   0.537   2.264
10763SOL    HW233189   5.098   0.658   2.367
10764SOL     OW33190   4.852   1.178   5.594
10764SOL    HW133191   4.909   1.186   5.676
10764SOL    HW233192   4.858   1.085   5.558
10765SOL     OW33193   5.365   1.206   2.425
10765SOL    HW133194   5.366   1.111   2.394
10765SOL    HW233195   5.295   1.217   2.497
10766SOL     OW33196   1.744   4.699   0.480
10766SOL    HW133197   1.729   4.655   0.391
10766SOL    HW233198   1.840   4.694   0.504
10767SOL     OW33199   2.133   6.350   0.890
10767SOL    HW133200   2.047   6.391   0.921
10767SOL    HW233201   2.127   6.333   0.792
10768SOL     OW33202   4.818   5.462   0.567
10768SOL    HW133203   4.860   5.503   0.487
10768SOL    HW233204   4.886   5.453   0.640
10769SOL     OW33205   2.692   4.356   5.307
10769SOL    HW133206   2.730   4.433   5.255
10769SOL    HW233207   2.764   4.288   5.324
10770SOL     OW33208   5.289   0.185   4.439
10770SOL    HW133209   5.289   0.137   4.351
10770SOL    HW233210   5.200   0.174   4.483
10771SOL     OW33211   4.303   0.116   5.308
10771SOL    HW133212   4.260   0.070   5.230
10771SOL    HW233213   4.356   0.050   5.360
10772SOL     OW33214   6.314   6.629   4.040
10772SOL    HW133215   6.404   6.664   4.012
10772SOL    HW233216   6.305   6.534   4.011
10773SOL     OW33217   0.097   4.407   6.868
10773SOL    HW133218   0.101   4.322   6.921
10773SOL    HW233219   0.133   4.483   6.923
10774SOL     OW33220   1.717   2.561   1.087
10774SOL    HW133221   1.703   2.581   0.990
10774SOL    HW233222   1.653   2.615   1.142
10775SOL     OW33223   1.959   4.363   1.925
10775SOL    HW133224   1.897   4.303   1.876
10775SOL    HW233225   2.051   4.354   1.888
10776SOL     OW33226   0.196   0.361   2.542
10776SOL    HW133227   0.116   0.341   2.598
10776SOL    HW233228   0.177   0.338   2.447
10777SOL     OW33229   3.905   0.372   3.518
10777SOL    HW133230   4.004   0.367   3.528
10777SOL    HW233231   3.872   0.460   3.554
10778SOL     OW33232   6.397   5.930   4.607
10778SOL    HW133233   6.372   5.833   4.611
10778SOL    HW233234   6.328   5.984   4.654
10779SOL     OW33235   6.228   4.848   2.923
10779SOL    HW133236   6.209   4.776   2.856
10779SOL    HW233237   6.260   4.807   3.008
10780SOL     OW33238   6.833   5.427   4.096
10780SOL    HW133239   6.847   5.495   4.168
10780SOL    HW233240   6.884   5.344   4.119
10781SOL     OW33241   5.436   0.579   4.414
10781SOL    HW133242   5.521   0.572   4.467
10781SOL    HW233243   5.430   0.670   4.374
10782SOL     OW33244   6.297   3.111   4.829
10782SOL    HW133245   6.367   3.042   4.810
10782SOL    HW233246   6.328   3.169   4.905
10783SOL     OW33247   1.892   2.615   2.438
10783SOL    HW133248   1.944   2.640   2.356
10783SOL    HW233249   1.937   2.538   2.484
10784SOL     OW33250   2.465   6.270   2.151
10784SOL    HW133251   2.391   6.203   2.151
10784SOL    HW233252   2.511   6.269   2.062
10785SOL     OW33253   1.662   5.210   1.842
10785SOL    HW133254   1.643   5.172   1.751
10785SOL    HW233255   1.743   5.166   1.880
10786SOL     OW33256   4.034   1.999   2.641
10786SOL    HW133257   3.968   1.977   2.570
10786SOL    HW233258   4.127   1.986   2.605
10787SOL     OW33259   3.077   1.350   4.310
10787SOL    HW133260   3.001   1.286   4.307
10787SOL    HW233261   3.043   1.443   4.321
10788SOL     OW33262   1.512   4.320   0.313
10788SOL    HW133263   1.505   4.413   0.277
10788SOL    HW233264   1.428   4.270   0.292
10789SOL     OW33265   6.296   0.936   0.568
10789SOL    HW133266   6.215   0.993   0.558
10789SOL    HW233267   6.279   0.846   0.527
10790SOL     OW33268   6.878   1.246   5.822
10790SOL    HW133269   6.834   1.326   5.863
10790SOL    HW233270   6.855   1.242   5.725
10791SOL     OW33271   1.936   1.827   2.275
10791SOL    HW133272   1.936   1.747   2.335
10791SOL    HW233273   2.025   1.834   2.230
10792SOL     OW33274   3.454   2.724   1.155
10792SOL    HW133275   3.371   2.668   1.144
10792SOL    HW233276   3.445   2.783   1.235
10793SOL     OW33277   5.237   1.875   4.494
10793SOL    HW133278   5.297   1.802   4.461
10793SOL    HW233279   5.143   1.842   4.497
10794SOL     OW33280   3.568   3.384   1.592
10794SOL    HW133281   3.622   3.446   1.536
10794SOL    HW233282   3.560   3.296   1.547
10795SOL     OW33283   6.840   3.821   2.734
10795SOL    HW133284   6.824   3.781   2.643
10795SOL    HW233285   6.779   3.900   2.746
10796SOL     OW33286   4.974   0.299   6.105
10796SOL    HW133287   4.994   0.245   6.024
10796SOL    HW233288   5.020   0.259   6.184
10797SOL     OW33289   3.802   2.915   6.850
10797SOL    HW133290   3.752   2.830   6.865
10797SOL    HW233291   3.737   2.990   6.841
10798SOL     OW33292   2.411   6.962   6.475
10798SOL    HW133293   2.331   6.904   6.464
10798SOL    HW233294   2.405   7.012   6.561
10799SOL     OW33295   3.398   2.063   2.596
10799SOL    HW133296   3.492   2.086   2.574
10799SOL    HW233297   3.345   2.056   2.511
10800SOL     OW33298   2.581   6.643   0.973
10800SOL    HW133299   2.512   6.580   0.936
10800SOL    HW233300   2.669   6.596   0.978
10801SOL     OW33301   2.018   6.455   5.612
10801SOL    HW133302   1.925   6.437   5.577
10801SOL    HW233303   2.066   6.369   5.624
10802SOL     OW33304   1.830   2.696   3.901
10802SOL    HW133305   1.919   2.718   3.942
10802SOL    HW233306   1.814   2.756   3.822
10803SOL     OW33307   5.610   4.644   5.897
10803SOL    HW133308   5.568   4.669   5.809
10803SOL    HW233309   5.656   4.723   5.936
10804SOL     OW33310   6.480   4.017   1.161
10804SOL    HW133311   6.519   3.956   1.092
10804SOL    HW233312   6.428   4.090   1.115
10805SOL     OW33313   3.456   6.796   0.140
10805SOL    HW133314   3.541   6.847   0.129
10805SOL    HW233315   3.477   6.699   0.154
10806SOL     OW33316   5.810   3.811   0.393
10806SOL    HW133317   5.870   3.887   0.367
10806SOL    HW233318   5.848   3.764   0.473
10807SOL     OW33319   3.485   6.234   3.667
10807SOL    HW133320   3.473   6.232   3.766
10807SOL    HW233321   3.520   6.146   3.635
10808SOL     OW33322   0.966   4.052   6.821
10808SOL    HW133323   1.046   4.057   6.762
10808SOL    HW233324   0.995   4.046   6.916
10809SOL     OW33325   2.864   1.176   4.383
10809SOL    HW133326   2.788   1.136   4.433
10809SOL    HW233327   2.846   1.172   4.285
10810SOL     OW33328   0.525   1.050   5.848
10810SOL    HW133329   0.617   1.059   5.886
10810SOL    HW233330   0.461   1.026   5.921
10811SOL     OW33331   3.826   5.021   5.864
10811SOL    HW133332   3.899   5.033   5.797
10811SOL    HW233333   3.789   5.111   5.889
10812SOL     OW33334   0.041   2.663   2.295
10812SOL    HW133335   0.068   2.596   2.365
10812SOL    HW233336   0.051   2.755   2.331
10813SOL     OW33337   3.090   6.509   1.834
10813SOL    HW133338   3.046   6.499   1.745
10813SOL    HW233339   3.172   6.453   1.838
10814SOL     OW33340   1.692   0.102   5.879
10814SOL    HW133341   1.644   0.166   5.940
10814SOL    HW233342   1.631   0.026   5.857
10815SOL     OW33343   4.716   4.150   3.122
10815SOL    HW133344   4.724   4.224   3.055
10815SOL    HW233345   4.620   4.127   3.135
10816SOL     OW33346   1.377   1.316   2.446
10816SOL    HW133347   1.403   1.403   2.487
10816SOL    HW233348   1.339   1.332   2.355
10817SOL     OW33349   5.518   6.914   2.922
10817SOL    HW133350   5.503   7.002   2.966
10817SOL    HW233351   5.435   6.888   2.871
10818SOL     OW33352   5.727   3.008   6.646
10818SOL    HW133353   5.775   2.999   6.734
10818SOL    HW233354   5.642   3.059   6.660
10819SOL     OW33355   0.536   3.817   6.391
10819SOL    HW133356   0.440   3.844   6.403
10819SOL    HW233357   0.549   3.782   6.298
10820SOL     OW33358   0.424   0.046   3.985
10820SOL    HW133359   0.452   0.001   3.901
10820SOL    HW233360   0.421   0.145   3.970
10821SOL     OW33361   6.884   6.395   1.952
10821SOL    HW133362   6.915   6.320   1.893
10821SOL    HW233363   6.832   6.461   1.897
10822SOL     OW33364   1.172   3.568   2.405
10822SOL    HW133365   1.265   3.577   2.370
10822SOL    HW233366   1.175   3.525   2.496
10823SOL     OW33367   2.351   5.801   1.842
10823SOL    HW133368   2.386   5.842   1.759
10823SOL    HW233369   2.269   5.851   1.872
10824SOL     OW33370   5.071   0.041   3.397
10824SOL    HW133371   5.035   0.076   3.310
10824SOL    HW233372   5.032   0.095   3.472
10825SOL     OW33373   2.796   1.469   1.096
10825SOL    HW133374   2.745   1.505   1.019
10825SOL    HW233375   2.793   1.535   1.172
10826SOL     OW33376   6.695   3.755   2.017
10826SOL    HW133377   6.757   3.744   2.095
10826SOL    HW233378   6.609   3.708   2.036
10827SOL     OW33379   5.987   3.269   3.924
10827SOL    HW133380   5.926   3.201   3.965
10827SOL    HW233381   6.078   3.260   3.963
10828SOL     OW33382   1.034   5.994   1.269
10828SOL    HW133383   1.077   6.065   1.326
10828SOL    HW233384   1.018   5.912   1.325
10829SOL     OW33385   2.482   3.679   1.346
10829SOL    HW133386   2.404   3.617   1.346
10829SOL    HW233387   2.475   3.741   1.268
10830SOL     OW33388   5.989   3.075   4.709
10830SOL    HW133389   5.931   3.094   4.788
10830SOL    HW233390   6.083   3.104   4.729
10831SOL     OW33391   5.043   0.492   2.634
10831SOL    HW133392   4.952   0.530   2.653
10831SOL    HW233393   5.070   0.516   2.541
10832SOL     OW33394   0.803   2.483   0.563
10832SOL    HW133395   0.724   2.534   0.598
10832SOL    HW233396   0.813   2.500   0.465
10833SOL     OW33397   2.338   0.476   3.611
10833SOL    HW133398   2.245   0.508   3.592
10833SOL    HW233399   2.390   0.550   3.655
10834SOL     OW33400   0.260   1.591   5.146
10834SOL    HW133401   0.292   1.589   5.052
10834SOL    HW233402   0.161   1.597   5.149
10835SOL     OW33403   6.874   1.543   2.345
10835SOL    HW133404   6.800   1.609   2.361
10835SOL    HW233405   6.840   1.470   2.286
10836SOL     OW33406   0.332   1.560   5.654
10836SOL    HW133407   0.383   1.540   5.570
10836SOL    HW233408   0.337   1.481   5.716
10837SOL     OW33409   6.970   4.724   0.381
10837SOL    HW133410   6.874   4.717   0.409
10837SOL    HW233411   6.984   4.673   0.296
10838SOL     OW33412   5.814   0.662   5.917
10838SOL    HW133413   5.790   0.705   6.005
10838SOL    HW233414   5.741   0.600   5.890
10839SOL     OW33415   2.905   2.268   0.147
10839SOL    HW133416   2.845   2.340   0.110
10839SOL    HW233417   2.867   2.234   0.233
10840SOL     OW33418   3.457   6.213   1.639
10840SOL    HW133419   3.389   6.141   1.631
10840SOL    HW233420   3.513   6.198   1.720
10841SOL     OW33421   3.980   6.326   5.967
10841SOL    HW133422   3.964   6.289   5.876
10841SOL    HW233423   3.914   6.399   5.987
10842SOL     OW33424   6.475   2.727   1.295
10842SOL    HW133425   6.571   2.732   1.267
10842SOL    HW233426   6.434   2.642   1.259
10843SOL     OW33427   1.180   1.797   1.779
10843SOL    HW133428   1.165   1.848   1.694
10843SOL    HW233429   1.226   1.711   1.758
10844SOL     OW33430   6.939   6.100   4.579
10844SOL    HW133431   6.963   6.043   4.500
10844SOL    HW233432   6.934   6.195   4.550
10845SOL     OW33433   1.029   1.207   1.726
10845SOL    HW133434   1.085   1.193   1.645
10845SOL    HW233435   1.083   1.253   1.797
10846SOL     OW33436   4.867   1.760   0.595
10846SOL    HW133437   4.785   1.813   0.616
10846SOL    HW233438   4.948   1.810   0.626
10847SOL     OW33439   2.354   1.552   5.794
10847SOL    HW133440   2.411   1.634   5.788
10847SOL    HW233441   2.404   1.474   5.756
10848SOL     OW33442   2.657   1.578   6.967
10848SOL    HW133443   2.745   1.622   6.955
10848SOL    HW233444   2.602   1.629   0.005
10849SOL     OW33445   2.858   4.796   3.817
10849SOL    HW133446   2.957   4.787   3.808
10849SOL    HW233447   2.813   4.756   3.737
10850SOL     OW33448   3.993   6.634   6.953
10850SOL    HW133449   3.955   6.551   6.993
10850SOL    HW233450   4.027   6.694   7.025
10851SOL     OW33451   3.145   2.969   5.924
10851SOL    HW133452   3.225   2.929   5.879
10851SOL    HW233453   3.067   2.908   5.912
10852SOL     OW33454   0.130   0.716   6.194
10852SOL    HW133455   0.117   0.635   6.137
10852SOL    HW233456   0.059   0.783   6.171
10853SOL     OW33457   3.010   1.603   4.326
10853SOL    HW133458   2.931   1.583   4.383
10853SOL    HW233459   2.995   1.689   4.277
10854SOL     OW33460   5.641   0.519   6.951
10854SOL    HW133461   5.722   0.462   6.960
10854SOL    HW233462   5.662   0.597   6.892
10855SOL     OW33463   2.676   6.013   2.717
10855SOL    HW133464   2.606   6.029   2.786
10855SOL    HW233465   2.647   6.056   2.631
10856SOL     OW33466   6.443   6.740   0.770
10856SOL    HW133467   6.526   6.710   0.725
10856SOL    HW233468   6.406   6.667   0.826
10857SOL     OW33469   6.059   2.134   3.107
10857SOL    HW133470   5.997   2.099   3.037
10857SOL    HW233471   6.149   2.092   3.095
10858SOL     OW33472   1.533   3.734   0.274
10858SOL    HW133473   1.551   3.661   0.208
10858SOL    HW233474   1.518   3.694   0.365
10859SOL     OW33475   1.560   3.860   3.286
10859SOL    HW133476   1.507   3.924   3.341
10859SOL    HW233477   1.644   3.835   3.335
10860SOL     OW33478   6.468   1.502   0.279
10860SOL    HW133479   6.496   1.587   0.324
10860SOL    HW233480   6.543   1.436   0.281
10861SOL     OW33481   3.628   2.784   1.840
10861SOL    HW133482   3.684   2.791   1.922
10861SOL    HW233483   3.636   2.868   1.787
10862SOL     OW33484   2.271   2.120   6.022
10862SOL    HW133485   2.171   2.122   6.024
10862SOL    HW233486   2.305   2.188   5.958
10863SOL     OW33487   2.764   0.119   2.956
10863SOL    HW133488   2.723   0.201   2.916
10863SOL    HW233489   2.820   0.072   2.888
10864SOL     OW33490   2.761   4.453   1.129
10864SOL    HW133491   2.803   4.499   1.051
10864SOL    HW233492   2.743   4.519   1.202
10865SOL     OW33493   5.199   2.709   3.600
10865SOL    HW133494   5.202   2.713   3.700
10865SOL    HW233495   5.107   2.686   3.570
10866SOL     OW33496   6.373   2.952   0.895
10866SOL    HW133497   6.311   2.895   0.950
10866SOL    HW233498   6.445   2.895   0.857
10867SOL     OW33499   2.675   3.112   0.275
10867SOL    HW133500   2.748   3.067   0.225
10867SOL    HW233501   2.667   3.073   0.367
10868SOL     OW33502   0.897   2.211   3.426
10868SOL    HW133503   0.826   2.276   3.455
10868SOL    HW233504   0.883   2.188   3.330
10869NA      NA33505   0.785   1.661   5.937
10870NA      NA33506   4.503   4.404   5.176
10871NA      NA33507   1.944   5.035   2.759
10872NA      NA33508   5.165   4.116   3.802
10873NA      NA33509   4.266   2.376   5.276
10874NA      NA33510   2.912   4.892   1.375
10875NA      NA33511   1.345   4.968   0.532
10876NA      NA33512   4.059   4.266   1.497
10877NA      NA33513   4.662   4.008   0.684
10878NA      NA33514   3.520   1.284   5.848
10879NA      NA33515   5.034   5.776   2.074
10880NA      NA33516   1.519   0.435   5.548
10881NA      NA33517   4.878   4.992   1.687
10882NA      NA33518   3.197   3.464   0.212
   7.02894   7.02894   7.02894
