Generated by trjconv : CNT in water t= 297.00000
33518
    1C        C    1   2.848   2.767   4.750
    1C        C    2   2.903   2.715   4.869
    1C        C    3   2.843   2.766   4.985
    1C        C    4   2.857   2.779   4.263
    1C        C    5   2.907   2.730   4.386
    1C        C    6   2.854   2.779   4.507
    1C        C    7   3.015   2.638   4.629
    1C        C    8   2.901   2.722   4.628
    1C        C    9   3.078   2.596   4.748
    1C        C   10   3.014   2.628   4.870
    1C        C   11   3.184   2.490   4.976
    1C        C   12   3.063   2.560   4.983
    1C        C   13   2.853   2.775   3.773
    1C        C   14   2.904   2.722   3.893
    1C        C   15   2.853   2.771   4.016
    1C        C   16   3.017   2.641   4.140
    1C        C   17   2.906   2.729   4.140
    1C        C   18   3.077   2.606   4.262
    1C        C   19   3.018   2.643   4.385
    1C        C   20   3.209   2.552   4.505
    1C        C   21   3.078   2.604   4.507
    1C        C   22   3.277   2.524   4.626
    1C        C   23   3.208   2.539   4.749
    1C        C   24   3.419   2.482   4.867
    1C        C   25   3.277   2.501   4.867
    1C        C   26   3.496   2.470   4.983
    1C        C   27   2.855   2.770   3.286
    1C        C   28   2.906   2.723   3.410
    1C        C   29   2.855   2.778   3.530
    1C        C   30   3.020   2.642   3.654
    1C        C   31   2.909   2.729   3.651
    1C        C   32   3.079   2.599   3.775
    1C        C   33   3.018   2.639   3.896
    1C        C   34   3.210   2.552   4.020
    1C        C   35   3.078   2.603   4.019
    1C        C   36   3.279   2.539   4.143
    1C        C   37   3.210   2.558   4.265
    1C        C   38   3.417   2.497   4.383
    1C        C   39   3.279   2.529   4.385
    1C        C   40   3.488   2.494   4.505
    1C        C   41   3.415   2.499   4.626
    1C        C   42   3.633   2.492   4.747
    1C        C   43   3.491   2.491   4.745
    1C        C   44   3.711   2.485   4.864
    1C        C   45   3.635   2.476   4.982
    1C        C   46   2.843   2.760   2.796
    1C        C   47   2.900   2.716   2.918
    1C        C   48   2.848   2.761   3.041
    1C        C   49   3.022   2.641   3.165
    1C        C   50   2.904   2.720   3.164
    1C        C   51   3.083   2.604   3.286
    1C        C   52   3.020   2.641   3.408
    1C        C   53   3.211   2.552   3.530
    1C        C   54   3.081   2.607   3.531
    1C        C   55   3.277   2.528   3.653
    1C        C   56   3.209   2.545   3.776
    1C        C   57   3.416   2.501   3.899
    1C        C   58   3.277   2.526   3.898
    1C        C   59   3.488   2.503   4.020
    1C        C   60   3.417   2.508   4.142
    1C        C   61   3.629   2.504   4.261
    1C        C   62   3.488   2.488   4.262
    1C        C   63   3.700   2.511   4.382
    1C        C   64   3.629   2.499   4.504
    1C        C   65   3.837   2.548   4.622
    1C        C   66   3.701   2.511   4.624
    1C        C   67   3.912   2.560   4.742
    1C        C   68   3.845   2.527   4.862
    1C        C   69   4.053   2.589   4.980
    1C        C   70   3.922   2.541   4.979
    1C        C   71   2.825   2.737   2.310
    1C        C   72   2.886   2.699   2.431
    1C        C   73   2.835   2.748   2.553
    1C        C   74   3.009   2.626   2.676
    1C        C   75   2.894   2.708   2.675
    1C        C   76   3.074   2.596   2.798
    1C        C   77   3.015   2.635   2.920
    1C        C   78   3.209   2.545   3.040
    1C        C   79   3.079   2.602   3.042
    1C        C   80   3.275   2.522   3.163
    1C        C   81   3.211   2.543   3.287
    1C        C   82   3.416   2.495   3.409
    1C        C   83   3.278   2.523   3.409
    1C        C   84   3.488   2.495   3.531
    1C        C   85   3.417   2.506   3.652
    1C        C   86   3.626   2.505   3.769
    1C        C   87   3.485   2.497   3.776
    1C        C   88   3.697   2.519   3.890
    1C        C   89   3.629   2.514   4.014
    1C        C   90   3.833   2.557   4.137
    1C        C   91   3.696   2.521   4.138
    1C        C   92   3.899   2.586   4.259
    1C        C   93   3.834   2.556   4.381
    1C        C   94   4.030   2.640   4.503
    1C        C   95   3.906   2.572   4.501
    1C        C   96   4.094   2.675   4.624
    1C        C   97   4.037   2.628   4.744
    1C        C   98   4.192   2.772   4.865
    1C        C   99   4.102   2.660   4.866
    1C        C  100   4.228   2.841   4.981
    1C        C  101   2.824   2.730   2.071
    1C        C  102   2.996   2.600   2.195
    1C        C  103   2.876   2.679   2.191
    1C        C  104   3.067   2.574   2.315
    1C        C  105   3.003   2.619   2.432
    1C        C  106   3.200   2.537   2.555
    1C        C  107   3.069   2.589   2.553
    1C        C  108   3.272   2.518   2.675
    1C        C  109   3.205   2.542   2.797
    1C        C  110   3.415   2.501   2.918
    1C        C  111   3.275   2.521   2.918
    1C        C  112   3.485   2.492   3.041
    1C        C  113   3.415   2.502   3.163
    1C        C  114   3.627   2.502   3.281
    1C        C  115   3.485   2.496   3.285
    1C        C  116   3.698   2.512   3.403
    1C        C  117   3.629   2.506   3.526
    1C        C  118   3.836   2.546   3.649
    1C        C  119   3.698   2.517   3.648
    1C        C  120   3.902   2.574   3.771
    1C        C  121   3.834   2.553   3.893
    1C        C  122   4.022   2.650   4.016
    1C        C  123   3.900   2.579   4.015
    1C        C  124   4.085   2.683   4.138
    1C        C  125   4.028   2.644   4.261
    1C        C  126   4.201   2.768   4.381
    1C        C  127   4.092   2.678   4.382
    1C        C  128   4.251   2.821   4.502
    1C        C  129   4.201   2.768   4.622
    1C        C  130   4.329   2.938   4.743
    1C        C  131   4.248   2.821   4.744
    1C        C  132   4.364   3.006   4.862
    1C        C  133   4.290   2.966   4.974
    1C        C  134   3.177   2.476   2.083
    1C        C  135   3.045   2.522   2.085
    1C        C  136   3.263   2.480   2.193
    1C        C  137   3.200   2.523   2.312
    1C        C  138   3.406   2.480   2.431
    1C        C  139   3.267   2.503   2.435
    1C        C  140   3.481   2.480   2.551
    1C        C  141   3.411   2.496   2.673
    1C        C  142   3.625   2.495   2.793
    1C        C  143   3.483   2.491   2.795
    1C        C  144   3.693   2.513   2.915
    1C        C  145   3.626   2.497   3.038
    1C        C  146   3.833   2.548   3.158
    1C        C  147   3.698   2.508   3.159
    1C        C  148   3.901   2.571   3.280
    1C        C  149   3.835   2.545   3.402
    1C        C  150   4.025   2.633   3.526
    1C        C  151   3.902   2.564   3.525
    1C        C  152   4.085   2.676   3.646
    1C        C  153   4.027   2.641   3.770
    1C        C  154   4.196   2.768   3.893
    1C        C  155   4.083   2.684   3.893
    1C        C  156   4.252   2.814   4.015
    1C        C  157   4.197   2.769   4.137
    1C        C  158   4.344   2.924   4.257
    1C        C  159   4.251   2.818   4.258
    1C        C  160   4.384   2.985   4.378
    1C        C  161   4.338   2.932   4.501
    1C        C  162   4.449   3.115   4.619
    1C        C  163   4.376   2.994   4.622
    1C        C  164   4.476   3.183   4.739
    1C        C  165   4.444   3.122   4.862
    1C        C  166   4.514   3.326   4.975
    1C        C  167   4.489   3.190   4.977
    1C        C  168   3.480   2.430   2.078
    1C        C  169   3.403   2.460   2.191
    1C        C  170   3.620   2.470   2.310
    1C        C  171   3.478   2.465   2.311
    1C        C  172   3.695   2.485   2.429
    1C        C  173   3.622   2.482   2.551
    1C        C  174   3.829   2.546   2.670
    1C        C  175   3.695   2.499   2.670
    1C        C  176   3.896   2.570   2.791
    1C        C  177   3.830   2.550   2.915
    1C        C  178   4.029   2.628   3.035
    1C        C  179   3.899   2.572   3.036
    1C        C  180   4.088   2.668   3.156
    1C        C  181   4.028   2.633   3.280
    1C        C  182   4.196   2.757   3.400
    1C        C  183   4.087   2.668   3.403
    1C        C  184   4.247   2.807   3.522
    1C        C  185   4.197   2.762   3.647
    1C        C  186   4.339   2.919   3.770
    1C        C  187   4.246   2.812   3.769
    1C        C  188   4.380   2.983   3.890
    1C        C  189   4.339   2.926   4.012
    1C        C  190   4.448   3.108   4.132
    1C        C  191   4.382   2.983   4.134
    1C        C  192   4.475   3.176   4.253
    1C        C  193   4.451   3.109   4.375
    1C        C  194   4.516   3.313   4.493
    1C        C  195   4.479   3.177   4.496
    1C        C  196   4.527   3.389   4.612
    1C        C  197   4.514   3.320   4.734
    1C        C  198   4.554   3.537   4.854
    1C        C  199   4.529   3.396   4.854
    1C        C  200   4.585   3.620   4.966
    1C        C  201   3.619   2.418   2.076
    1C        C  202   3.830   2.510   2.190
    1C        C  203   3.695   2.461   2.190
    1C        C  204   3.902   2.542   2.308
    1C        C  205   3.831   2.522   2.428
    1C        C  206   4.025   2.620   2.545
    1C        C  207   3.899   2.556   2.547
    1C        C  208   4.086   2.660   2.666
    1C        C  209   4.022   2.633   2.790
    1C        C  210   4.200   2.748   2.911
    1C        C  211   4.087   2.665   2.911
    1C        C  212   4.253   2.800   3.031
    1C        C  213   4.199   2.755   3.154
    1C        C  214   4.342   2.910   3.276
    1C        C  215   4.249   2.804   3.277
    1C        C  216   4.374   2.973   3.398
    1C        C  217   4.333   2.919   3.522
    1C        C  218   4.433   3.104   3.642
    1C        C  219   4.370   2.978   3.645
    1C        C  220   4.466   3.171   3.762
    1C        C  221   4.446   3.107   3.886
    1C        C  222   4.507   3.309   4.007
    1C        C  223   4.477   3.171   4.008
    1C        C  224   4.514   3.384   4.126
    1C        C  225   4.506   3.314   4.249
    1C        C  226   4.523   3.525   4.369
    1C        C  227   4.519   3.384   4.371
    1C        C  228   4.521   3.599   4.489
    1C        C  229   4.529   3.530   4.612
    1C        C  230   4.494   3.742   4.731
    1C        C  231   4.535   3.605   4.731
    1C        C  232   4.489   3.818   4.850
    1C        C  233   4.549   3.755   4.960
    1C        C  234   4.020   2.611   2.065
    1C        C  235   3.902   2.539   2.073
    1C        C  236   4.085   2.653   2.182
    1C        C  237   4.024   2.615   2.304
    1C        C  238   4.205   2.734   2.423
    1C        C  239   4.089   2.653   2.424
    1C        C  240   4.257   2.786   2.544
    1C        C  241   4.200   2.744   2.666
    1C        C  242   4.341   2.903   2.785
    1C        C  243   4.250   2.795   2.787
    1C        C  244   4.384   2.963   2.906
    1C        C  245   4.338   2.913   3.030
    1C        C  246   4.438   3.098   3.155
    1C        C  247   4.374   2.971   3.153
    1C        C  248   4.467   3.164   3.276
    1C        C  249   4.434   3.101   3.398
    1C        C  250   4.504   3.303   3.517
    1C        C  251   4.456   3.170   3.519
    1C        C  252   4.513   3.374   3.638
    1C        C  253   4.503   3.308   3.763
    1C        C  254   4.527   3.519   3.882
    1C        C  255   4.521   3.378   3.884
    1C        C  256   4.523   3.593   4.002
    1C        C  257   4.523   3.525   4.126
    1C        C  258   4.485   3.735   4.245
    1C        C  259   4.516   3.597   4.247
    1C        C  260   4.471   3.806   4.366
    1C        C  261   4.487   3.736   4.488
    1C        C  262   4.420   3.940   4.607
    1C        C  263   4.472   3.809   4.609
    1C        C  264   4.392   4.005   4.729
    1C        C  265   4.426   3.944   4.851
    1C        C  266   4.322   4.134   4.961
    1C        C  267   4.398   4.018   4.967
    1C        C  268   4.266   2.777   2.065
    1C        C  269   4.197   2.738   2.181
    1C        C  270   4.349   2.892   2.302
    1C        C  271   4.256   2.784   2.301
    1C        C  272   4.387   2.957   2.422
    1C        C  273   4.341   2.899   2.543
    1C        C  274   4.450   3.085   2.666
    1C        C  275   4.378   2.963   2.663
    1C        C  276   4.469   3.156   2.786
    1C        C  277   4.443   3.091   2.909
    1C        C  278   4.508   3.293   3.028
    1C        C  279   4.468   3.158   3.031
    1C        C  280   4.514   3.367   3.149
    1C        C  281   4.509   3.299   3.272
    1C        C  282   4.517   3.512   3.393
    1C        C  283   4.518   3.371   3.394
    1C        C  284   4.515   3.586   3.514
    1C        C  285   4.518   3.515   3.637
    1C        C  286   4.487   3.725   3.755
    1C        C  287   4.516   3.587   3.758
    1C        C  288   4.473   3.796   3.877
    1C        C  289   4.495   3.731   4.001
    1C        C  290   4.427   3.935   4.120
    1C        C  291   4.473   3.801   4.121
    1C        C  292   4.396   4.002   4.240
    1C        C  293   4.420   3.938   4.364
    1C        C  294   4.321   4.128   4.483
    1C        C  295   4.387   4.003   4.485
    1C        C  296   4.284   4.189   4.605
    1C        C  297   4.326   4.132   4.727
    1C        C  298   4.198   4.316   4.843
    1C        C  299   4.283   4.201   4.844
    1C        C  300   4.171   4.405   4.952
    1C        C  301   4.354   2.885   2.064
    1C        C  302   4.476   3.068   2.178
    1C        C  303   4.399   2.947   2.181
    1C        C  304   4.492   3.142   2.298
    1C        C  305   4.457   3.080   2.420
    1C        C  306   4.507   3.285   2.539
    1C        C  307   4.481   3.146   2.542
    1C        C  308   4.513   3.357   2.661
    1C        C  309   4.510   3.291   2.786
    1C        C  310   4.527   3.503   2.901
    1C        C  311   4.529   3.362   2.907
    1C        C  312   4.514   3.572   3.023
    1C        C  313   4.513   3.508   3.150
    1C        C  314   4.485   3.720   3.264
    1C        C  315   4.515   3.582   3.270
    1C        C  316   4.471   3.789   3.386
    1C        C  317   4.492   3.725   3.511
    1C        C  318   4.426   3.927   3.631
    1C        C  319   4.476   3.795   3.633
    1C        C  320   4.395   3.993   3.752
    1C        C  321   4.421   3.927   3.875
    1C        C  322   4.318   4.113   3.993
    1C        C  323   4.395   3.995   3.996
    1C        C  324   4.275   4.172   4.114
    1C        C  325   4.320   4.121   4.238
    1C        C  326   4.191   4.291   4.359
    1C        C  327   4.283   4.184   4.359
    1C        C  328   4.138   4.343   4.479
    1C        C  329   4.190   4.294   4.601
    1C        C  330   4.026   4.438   4.717
    1C        C  331   4.135   4.347   4.719
    1C        C  332   3.973   4.499   4.833
    1C        C  333   4.050   4.475   4.948
    1C        C  334   4.555   3.269   2.063
    1C        C  335   4.540   3.130   2.066
    1C        C  336   4.543   3.350   2.176
    1C        C  337   4.524   3.280   2.298
    1C        C  338   4.526   3.497   2.416
    1C        C  339   4.523   3.356   2.417
    1C        C  340   4.521   3.570   2.537
    1C        C  341   4.519   3.498   2.658
    1C        C  342   4.496   3.711   2.773
    1C        C  343   4.525   3.573   2.778
    1C        C  344   4.474   3.780   2.895
    1C        C  345   4.487   3.711   3.018
    1C        C  346   4.418   3.914   3.141
    1C        C  347   4.466   3.782   3.138
    1C        C  348   4.392   3.983   3.261
    1C        C  349   4.424   3.922   3.385
    1C        C  350   4.324   4.109   3.503
    1C        C  351   4.399   3.989   3.507
    1C        C  352   4.279   4.166   3.624
    1C        C  353   4.320   4.113   3.749
    1C        C  354   4.182   4.274   3.870
    1C        C  355   4.276   4.169   3.870
    1C        C  356   4.128   4.325   3.990
    1C        C  357   4.182   4.278   4.113
    1C        C  358   4.016   4.407   4.235
    1C        C  359   4.136   4.332   4.235
    1C        C  360   3.957   4.454   4.354
    1C        C  361   4.020   4.422   4.476
    1C        C  362   3.828   4.519   4.597
    1C        C  363   3.958   4.464   4.596
    1C        C  364   3.764   4.554   4.718
    1C        C  365   3.841   4.549   4.836
    1C        C  366   3.632   4.594   4.951
    1C        C  367   3.770   4.578   4.953
    1C        C  368   4.515   3.563   2.056
    1C        C  369   4.525   3.490   2.175
    1C        C  370   4.502   3.707   2.287
    1C        C  371   4.517   3.567   2.293
    1C        C  372   4.481   3.776   2.409
    1C        C  373   4.500   3.709   2.532
    1C        C  374   4.431   3.914   2.653
    1C        C  375   4.480   3.782   2.652
    1C        C  376   4.397   3.978   2.774
    1C        C  377   4.430   3.914   2.896
    1C        C  378   4.316   4.096   3.015
    1C        C  379   4.393   3.977   3.016
    1C        C  380   4.273   4.154   3.136
    1C        C  381   4.315   4.101   3.261
    1C        C  382   4.178   4.264   3.382
    1C        C  383   4.277   4.163   3.382
    1C        C  384   4.126   4.315   3.504
    1C        C  385   4.179   4.266   3.625
    1C        C  386   4.006   4.390   3.744
    1C        C  387   4.125   4.315   3.746
    1C        C  388   3.946   4.430   3.866
    1C        C  389   4.012   4.405   3.988
    1C        C  390   3.825   4.497   4.111
    1C        C  391   3.954   4.438   4.112
    1C        C  392   3.756   4.520   4.232
    1C        C  393   3.827   4.509   4.354
    1C        C  394   3.620   4.559   4.476
    1C        C  395   3.760   4.538   4.475
    1C        C  396   3.550   4.568   4.599
    1C        C  397   3.624   4.569   4.720
    1C        C  398   3.409   4.554   4.841
    1C        C  399   3.549   4.572   4.840
    1C        C  400   3.338   4.520   4.957
    1C        C  401   4.506   3.701   2.051
    1C        C  402   4.452   3.915   2.171
    1C        C  403   4.489   3.779   2.166
    1C        C  404   4.411   3.979   2.289
    1C        C  405   4.437   3.910   2.410
    1C        C  406   4.333   4.100   2.527
    1C        C  407   4.405   3.978   2.529
    1C        C  408   4.282   4.155   2.647
    1C        C  409   4.318   4.095   2.770
    1C        C  410   4.183   4.258   2.891
    1C        C  411   4.277   4.153   2.892
    1C        C  412   4.128   4.304   3.013
    1C        C  413   4.176   4.257   3.137
    1C        C  414   4.010   4.389   3.256
    1C        C  415   4.126   4.309   3.259
    1C        C  416   3.948   4.425   3.378
    1C        C  417   4.012   4.399   3.501
    1C        C  418   3.815   4.481   3.619
    1C        C  419   3.945   4.426   3.622
    1C        C  420   3.753   4.510   3.742
    1C        C  421   3.817   4.487   3.866
    1C        C  422   3.615   4.542   3.990
    1C        C  423   3.754   4.513   3.990
    1C        C  424   3.545   4.551   4.112
    1C        C  425   3.617   4.546   4.233
    1C        C  426   3.406   4.544   4.359
    1C        C  427   3.547   4.556   4.356
    1C        C  428   3.335   4.545   4.481
    1C        C  429   3.409   4.562   4.599
    1C        C  430   3.199   4.517   4.725
    1C        C  431   3.338   4.546   4.720
    1C        C  432   3.124   4.495   4.843
    1C        C  433   3.201   4.497   4.960
    1C        C  434   4.383   4.122   2.050
    1C        C  435   4.451   3.999   2.059
    1C        C  436   4.307   4.167   2.163
    1C        C  437   4.339   4.102   2.285
    1C        C  438   4.185   4.252   2.402
    1C        C  439   4.288   4.156   2.406
    1C        C  440   4.130   4.300   2.523
    1C        C  441   4.184   4.256   2.647
    1C        C  442   4.007   4.376   2.768
    1C        C  443   4.127   4.301   2.768
    1C        C  444   3.949   4.416   2.890
    1C        C  445   4.010   4.381   3.013
    1C        C  446   3.816   4.472   3.130
    1C        C  447   3.946   4.417   3.134
    1C        C  448   3.750   4.491   3.253
    1C        C  449   3.815   4.474   3.377
    1C        C  450   3.608   4.532   3.499
    1C        C  451   3.747   4.505   3.497
    1C        C  452   3.542   4.542   3.623
    1C        C  453   3.614   4.538   3.745
    1C        C  454   3.404   4.549   3.869
    1C        C  455   3.546   4.549   3.867
    1C        C  456   3.334   4.540   3.991
    1C        C  457   3.404   4.544   4.113
    1C        C  458   3.199   4.501   4.237
    1C        C  459   3.336   4.535   4.237
    1C        C  460   3.131   4.488   4.360
    1C        C  461   3.196   4.515   4.482
    1C        C  462   2.998   4.439   4.605
    1C        C  463   3.128   4.493   4.604
    1C        C  464   2.928   4.412   4.724
    1C        C  465   2.988   4.449   4.847
    1C        C  466   2.800   4.342   4.961
    1C        C  467   2.907   4.432   4.964
    1C        C  468   4.125   4.286   2.041
    1C        C  469   4.189   4.247   2.159
    1C        C  470   4.014   4.377   2.279
    1C        C  471   4.132   4.298   2.279
    1C        C  472   3.946   4.405   2.400
    1C        C  473   4.010   4.374   2.522
    1C        C  474   3.820   4.469   2.646
    1C        C  475   3.949   4.411   2.644
    1C        C  476   3.752   4.495   2.766
    1C        C  477   3.821   4.476   2.888
    1C        C  478   3.611   4.526   3.011
    1C        C  479   3.749   4.497   3.008
    1C        C  480   3.540   4.536   3.133
    1C        C  481   3.612   4.523   3.254
    1C        C  482   3.400   4.528   3.381
    1C        C  483   3.540   4.536   3.375
    1C        C  484   3.330   4.527   3.504
    1C        C  485   3.401   4.544   3.625
    1C        C  486   3.195   4.501   3.748
    1C        C  487   3.332   4.535   3.748
    1C        C  488   3.130   4.476   3.871
    1C        C  489   3.199   4.496   3.992
    1C        C  490   3.004   4.418   4.119
    1C        C  491   3.131   4.481   4.115
    1C        C  492   2.944   4.385   4.242
    1C        C  493   3.002   4.429   4.363
    1C        C  494   2.825   4.312   4.484
    1C        C  495   2.937   4.398   4.484
    1C        C  496   2.769   4.262   4.604
    1C        C  497   2.818   4.321   4.723
    1C        C  498   2.668   4.170   4.849
    1C        C  499   2.757   4.280   4.843
    1C        C  500   2.600   4.122   4.961
    1C        C  501   4.010   4.363   2.043
    1C        C  502   3.816   4.464   2.159
    1C        C  503   3.947   4.410   2.159
    1C        C  504   3.746   4.482   2.280
    1C        C  505   3.816   4.458   2.401
    1C        C  506   3.611   4.510   2.525
    1C        C  507   3.749   4.481   2.524
    1C        C  508   3.536   4.517   2.644
    1C        C  509   3.612   4.512   2.764
    1C        C  510   3.403   4.524   2.891
    1C        C  511   3.544   4.527   2.887
    1C        C  512   3.329   4.523   3.011
    1C        C  513   3.399   4.535   3.133
    1C        C  514   3.194   4.494   3.259
    1C        C  515   3.332   4.524   3.257
    1C        C  516   3.126   4.469   3.380
    1C        C  517   3.193   4.491   3.503
    1C        C  518   3.002   4.409   3.625
    1C        C  519   3.127   4.475   3.627
    1C        C  520   2.944   4.375   3.749
    1C        C  521   3.004   4.411   3.872
    1C        C  522   2.841   4.284   3.998
    1C        C  523   2.949   4.375   3.997
    1C        C  524   2.790   4.239   4.121
    1C        C  525   2.835   4.294   4.243
    1C        C  526   2.701   4.134   4.369
    1C        C  527   2.779   4.252   4.365
    1C        C  528   2.661   4.079   4.492
    1C        C  529   2.685   4.149   4.612
    1C        C  530   2.585   3.962   4.734
    1C        C  531   2.638   4.094   4.734
    1C        C  532   2.540   3.906   4.857
    1C        C  533   2.530   4.000   4.964
    1C        C  534   3.621   4.558   2.049
    1C        C  535   3.753   4.511   2.043
    1C        C  536   3.535   4.538   2.162
    1C        C  537   3.607   4.509   2.280
    1C        C  538   3.398   4.514   2.404
    1C        C  539   3.539   4.517   2.404
    1C        C  540   3.324   4.513   2.524
    1C        C  541   3.395   4.519   2.646
    1C        C  542   3.191   4.484   2.769
    1C        C  543   3.329   4.516   2.771
    1C        C  544   3.125   4.462   2.892
    1C        C  545   3.193   4.487   3.014
    1C        C  546   3.001   4.402   3.136
    1C        C  547   3.126   4.468   3.137
    1C        C  548   2.943   4.366   3.259
    1C        C  549   2.998   4.410   3.382
    1C        C  550   2.831   4.281   3.506
    1C        C  551   2.937   4.374   3.505
    1C        C  552   2.782   4.234   3.630
    1C        C  553   2.832   4.288   3.750
    1C        C  554   2.706   4.122   3.878
    1C        C  555   2.791   4.235   3.875
    1C        C  556   2.658   4.068   4.000
    1C        C  557   2.702   4.128   4.120
    1C        C  558   2.598   3.950   4.246
    1C        C  559   2.666   4.074   4.245
    1C        C  560   2.571   3.886   4.369
    1C        C  561   2.599   3.951   4.491
    1C        C  562   2.536   3.753   4.618
    1C        C  563   2.567   3.890   4.614
    1C        C  564   2.520   3.684   4.741
    1C        C  565   2.521   3.764   4.858
    1C        C  566   2.534   3.550   4.978
    1C        C  567   2.534   3.689   4.976
    1C        C  568   3.328   4.475   2.042
    1C        C  569   3.395   4.511   2.160
    1C        C  570   3.185   4.483   2.284
    1C        C  571   3.325   4.509   2.283
    1C        C  572   3.115   4.463   2.406
    1C        C  573   3.185   4.488   2.526
    1C        C  574   2.993   4.402   2.651
    1C        C  575   3.119   4.466   2.649
    1C        C  576   2.933   4.361   2.773
    1C        C  577   3.000   4.397   2.892
    1C        C  578   2.833   4.269   3.017
    1C        C  579   2.941   4.361   3.015
    1C        C  580   2.786   4.221   3.141
    1C        C  581   2.835   4.277   3.262
    1C        C  582   2.698   4.115   3.386
    1C        C  583   2.785   4.226   3.384
    1C        C  584   2.666   4.057   3.511
    1C        C  585   2.699   4.120   3.633
    1C        C  586   2.600   3.937   3.759
    1C        C  587   2.665   4.062   3.757
    1C        C  588   2.570   3.875   3.882
    1C        C  589   2.594   3.942   4.004
    1C        C  590   2.535   3.741   4.130
    1C        C  591   2.568   3.879   4.128
    1C        C  592   2.526   3.675   4.254
    1C        C  593   2.537   3.749   4.374
    1C        C  594   2.517   3.539   4.499
    1C        C  595   2.524   3.681   4.498
    1C        C  596   2.526   3.469   4.621
    1C        C  597   2.519   3.542   4.742
    1C        C  598   2.536   3.329   4.862
    1C        C  599   2.535   3.470   4.863
    1C        C  600   2.548   3.255   4.980
    1C        C  601   3.195   4.441   2.046
    1C        C  602   2.984   4.397   2.162
    1C        C  603   3.119   4.444   2.164
    1C        C  604   2.925   4.366   2.287
    1C        C  605   2.989   4.401   2.408
    1C        C  606   2.822   4.272   2.531
    1C        C  607   2.931   4.361   2.531
    1C        C  608   2.773   4.220   2.652
    1C        C  609   2.828   4.267   2.773
    1C        C  610   2.685   4.114   2.899
    1C        C  611   2.777   4.221   2.897
    1C        C  612   2.653   4.053   3.022
    1C        C  613   2.696   4.112   3.143
    1C        C  614   2.592   3.929   3.270
    1C        C  615   2.654   4.056   3.266
    1C        C  616   2.562   3.865   3.393
    1C        C  617   2.598   3.933   3.512
    1C        C  618   2.528   3.737   3.642
    1C        C  619   2.570   3.872   3.636
    1C        C  620   2.519   3.666   3.764
    1C        C  621   2.534   3.738   3.885
    1C        C  622   2.515   3.529   4.013
    1C        C  623   2.525   3.670   4.008
    1C        C  624   2.516   3.459   4.136
    1C        C  625   2.516   3.534   4.256
    1C        C  626   2.540   3.325   4.383
    1C        C  627   2.521   3.465   4.379
    1C        C  628   2.561   3.255   4.504
    1C        C  629   2.546   3.329   4.623
    1C        C  630   2.603   3.121   4.746
    1C        C  631   2.558   3.256   4.743
    1C        C  632   2.625   3.051   4.867
    1C        C  633   2.568   3.116   4.981
    1C        C  634   2.782   4.307   2.057
    1C        C  635   2.895   4.390   2.050
    1C        C  636   2.745   4.236   2.172
    1C        C  637   2.809   4.283   2.288
    1C        C  638   2.682   4.111   2.412
    1C        C  639   2.768   4.223   2.409
    1C        C  640   2.642   4.051   2.533
    1C        C  641   2.682   4.112   2.654
    1C        C  642   2.581   3.928   2.782
    1C        C  643   2.644   4.054   2.777
    1C        C  644   2.559   3.859   2.903
    1C        C  645   2.590   3.926   3.024
    1C        C  646   2.531   3.726   3.153
    1C        C  647   2.567   3.863   3.148
    1C        C  648   2.511   3.658   3.275
    1C        C  649   2.527   3.729   3.397
    1C        C  650   2.507   3.522   3.525
    1C        C  651   2.522   3.663   3.522
    1C        C  652   2.513   3.451   3.647
    1C        C  653   2.513   3.525   3.768
    1C        C  654   2.536   3.317   3.893
    1C        C  655   2.516   3.457   3.891
    1C        C  656   2.562   3.254   4.017
    1C        C  657   2.546   3.321   4.140
    1C        C  658   2.613   3.122   4.260
    1C        C  659   2.563   3.254   4.263
    1C        C  660   2.643   3.059   4.383
    1C        C  661   2.615   3.125   4.505
    1C        C  662   2.721   2.941   4.628
    1C        C  663   2.640   3.057   4.626
    1C        C  664   2.758   2.877   4.749
    1C        C  665   2.701   2.929   4.869
    1C        C  666   2.745   2.864   4.985
    1C        C  667   2.686   4.027   2.058
    1C        C  668   2.681   4.110   2.171
    1C        C  669   2.584   3.919   2.294
    1C        C  670   2.645   4.048   2.292
    1C        C  671   2.555   3.853   2.416
    1C        C  672   2.584   3.922   2.536
    1C        C  673   2.519   3.724   2.663
    1C        C  674   2.561   3.859   2.660
    1C        C  675   2.512   3.653   2.785
    1C        C  676   2.528   3.721   2.908
    1C        C  677   2.514   3.514   3.035
    1C        C  678   2.519   3.655   3.032
    1C        C  679   2.513   3.445   3.158
    1C        C  680   2.500   3.517   3.279
    1C        C  681   2.529   3.311   3.407
    1C        C  682   2.505   3.450   3.403
    1C        C  683   2.544   3.241   3.529
    1C        C  684   2.528   3.311   3.651
    1C        C  685   2.590   3.108   3.776
    1C        C  686   2.550   3.243   3.773
    1C        C  687   2.636   3.050   3.897
    1C        C  688   2.609   3.121   4.017
    1C        C  689   2.719   2.938   4.136
    1C        C  690   2.642   3.057   4.138
    1C        C  691   2.764   2.885   4.259
    1C        C  692   2.720   2.941   4.382
    1C        C  693   2.762   2.886   4.505
    1C        C  694   2.630   3.899   2.059
    1C        C  695   2.533   3.709   2.180
    1C        C  696   2.574   3.844   2.175
    1C        C  697   2.507   3.642   2.301
    1C        C  698   2.520   3.717   2.420
    1C        C  699   2.496   3.509   2.545
    1C        C  700   2.504   3.650   2.544
    1C        C  701   2.509   3.441   2.668
    1C        C  702   2.511   3.512   2.790
    1C        C  703   2.534   3.302   2.916
    1C        C  704   2.516   3.442   2.913
    1C        C  705   2.553   3.237   3.040
    1C        C  706   2.538   3.306   3.162
    1C        C  707   2.600   3.107   3.286
    1C        C  708   2.550   3.239   3.286
    1C        C  709   2.634   3.048   3.410
    1C        C  710   2.595   3.110   3.531
    1C        C  711   2.707   2.932   3.649
    1C        C  712   2.620   3.044   3.654
    1C        C  713   2.756   2.878   3.770
    1C        C  714   2.714   2.933   3.893
    1C        C  715   2.764   2.881   4.015
    1C        C  716   2.456   3.504   2.067
    1C        C  717   2.502   3.637   2.064
    1C        C  718   2.472   3.424   2.185
    1C        C  719   2.491   3.501   2.303
    1C        C  720   2.522   3.294   2.429
    1C        C  721   2.489   3.432   2.427
    1C        C  722   2.546   3.229   2.552
    1C        C  723   2.529   3.301   2.672
    1C        C  724   2.598   3.100   2.794
    1C        C  725   2.549   3.232   2.794
    1C        C  726   2.629   3.038   2.918
    1C        C  727   2.601   3.104   3.040
    1C        C  728   2.709   2.925   3.161
    1C        C  729   2.633   3.044   3.163
    1C        C  730   2.758   2.873   3.283
    1C        C  731   2.715   2.932   3.403
    1C        C  732   2.758   2.881   3.528
    1C        C  733   2.494   3.200   2.075
    1C        C  734   2.498   3.284   2.187
    1C        C  735   2.585   3.088   2.309
    1C        C  736   2.528   3.218   2.310
    1C        C  737   2.624   3.028   2.430
    1C        C  738   2.596   3.097   2.551
    1C        C  739   2.701   2.914   2.671
    1C        C  740   2.623   3.032   2.673
    1C        C  741   2.748   2.864   2.795
    1C        C  742   2.710   2.922   2.918
    1C        C  743   2.754   2.866   3.040
    1C        C  744   2.547   3.072   2.074
    1C        C  745   2.695   2.907   2.184
    1C        C  746   2.615   3.024   2.187
    1C        C  747   2.732   2.844   2.304
    1C        C  748   2.696   2.907   2.426
    1C        C  749   2.742   2.855   2.549
    1C        C  750   2.742   2.843   2.069
    1C        C  751   3.662   2.305   1.989
    1C        O  752   3.680   2.189   2.033
    1C        O  753   3.711   2.341   1.863
    1C        C  754   4.622   3.048   1.974
    1C        O  755   4.606   3.052   1.849
    1C        O  756   4.732   2.974   2.019
    1C        C  757   4.460   4.224   1.976
    1C        O  758   4.499   4.331   2.030
    1C        O  759   4.464   4.226   1.836
    1C        C  760   3.579   4.668   1.959
    1C        O  761   3.611   4.787   1.988
    1C        O  762   3.560   4.644   1.823
    1C        C  763   2.881   4.496   1.948
    1C        O  764   2.921   4.480   1.829
    1C        O  765   2.776   4.588   1.955
    1C        C  766   2.337   3.476   1.984
    1C        O  767   2.350   3.419   1.873
    1C        O  768   2.214   3.542   1.997
    1C        C  769   4.695   3.589   5.060
    1C        O  770   4.660   3.539   5.171
    1C        O  771   4.821   3.649   5.052
    1C        C  772   4.278   4.464   5.035
    1C        O  773   4.333   4.407   5.133
    1C        O  774   4.310   4.600   5.023
    1C        C  775   4.117   2.579   5.113
    1C        O  776   4.213   2.502   5.141
    1C        O  777   4.053   2.607   5.235
    1C        C  778   2.892   4.537   5.067
    1C        O  779   2.828   4.642   5.040
    1C        O  780   2.957   4.514   5.189
    1C        C  781   2.455   3.048   5.049
    1C        O  782   2.362   2.993   4.985
    1C        O  783   2.459   2.991   5.176
    1C        C  784   2.407   4.001   5.046
    1C        O  785   2.315   4.085   5.025
    1C        O  786   2.424   3.954   5.177
    1C        C  787   2.955   2.426   2.017
    1C        O  788   2.932   2.437   1.894
    1C        O  789   2.889   2.322   2.081
    1C        C  790   3.189   2.359   5.045
    1C        O  791   3.130   2.262   4.990
    1C        O  792   3.211   2.367   5.183
    1C        H  793   4.235   3.040   5.027
    1C        H  794   4.244   2.789   5.073
    1C        H  795   4.506   3.134   5.067
    1C        H  796   4.469   3.382   5.055
    1C        H  797   4.599   3.818   5.031
    1C        H  798   4.446   3.999   5.061
    1C        H  799   4.286   4.173   5.054
    1C        H  800   3.999   4.487   5.041
    1C        H  801   3.821   4.604   5.044
    1C        H  802   3.582   4.614   5.043
    1C        H  803   3.385   4.544   5.050
    1C        H  804   3.168   4.424   5.032
    1C        H  805   3.898   2.466   5.051
    1C        H  806   3.679   2.494   5.078
    1C        H  807   2.989   2.508   5.040
    1C        H  808   3.448   2.499   5.074
    1C        H  809   2.913   2.774   5.066
    1C        H  810   2.700   2.884   5.080
    1C        H  811   2.548   3.303   5.076
    1C        H  812   2.560   3.517   5.076
    1C        H  813   2.521   3.738   5.070
    1C        H  814   2.554   4.201   5.016
    1C        H  815   2.734   4.337   5.045
    1C        H  816   2.722   2.890   1.975
    1C        H  817   2.832   2.671   1.983
    1C        H  818   3.199   2.400   2.011
    1C        H  819   3.437   2.447   1.981
    1C        H  820   3.874   2.486   1.984
    1C        H  821   4.049   2.644   1.968
    1C        H  822   4.287   2.699   1.995
    1C        H  823   4.391   2.921   1.971
    1C        H  824   4.633   3.300   1.996
    1C        H  825   4.525   3.518   1.959
    1C        H  826   4.526   3.755   1.961
    1C        H  827   3.806   4.530   1.953
    1C        H  828   3.968   4.392   1.949
    1C        H  829   4.162   4.256   1.944
    1C        H  830   4.517   3.975   1.979
    1C        H  831   2.671   3.829   1.989
    1C        H  832   2.708   4.074   1.964
    1C        H  833   2.718   4.306   1.971
    1C        H  834   3.380   4.489   1.949
    1C        H  835   3.146   4.406   1.958
    1C        H  836   2.505   2.999   2.008
    1C        H  837   2.475   3.233   1.975
    1C        H  838   2.486   3.689   1.973
    2V3OU   H29  839   2.801   3.555   3.220
    2V3OU   C27  840   2.791   3.505   3.320
    2V3OU   H27  841   2.730   3.574   3.385
    2V3OU   H28  842   2.739   3.407   3.308
    2V3OU   O11  843   2.916   3.486   3.389
    2V3OU   C15  844   2.928   3.401   3.497
    2V3OU   C13  845   3.056   3.381   3.553
    2V3OU   C14  846   3.080   3.281   3.648
    2V3OU   C16  847   2.984   3.192   3.693
    2V3OU    H6  848   2.998   3.104   3.759
    2V3OU   C12  849   3.217   3.233   3.680
    2V3OU    O2  850   3.240   3.120   3.728
    2V3OU   C10  851   3.330   3.305   3.620
    2V3OU    C8  852   3.460   3.269   3.651
    2V3OU   O10  853   3.497   3.157   3.719
    2V3OU   H26  854   3.412   3.115   3.740
    2V3OU    C6  855   3.567   3.348   3.600
    2V3OU    C5  856   3.541   3.468   3.534
    2V3OU    C4  857   3.705   3.293   3.613
    2V3OU    H4  858   3.724   3.234   3.707
    2V3OU    H5  859   3.713   3.221   3.526
    2V3OU    C2  860   3.815   3.400   3.611
    2V3OU    O6  861   3.813   3.473   3.734
    2V3OU   H21  862   3.769   3.557   3.712
    2V3OU    C3  863   3.785   3.499   3.499
    2V3OU    H2  864   3.870   3.573   3.500
    2V3OU    H3  865   3.791   3.439   3.405
    2V3OU   C25  866   3.953   3.335   3.602
    2V3OU    O7  867   4.001   3.300   3.494
    2V3OU   C26  868   4.030   3.291   3.725
    2V3OU   H22  869   4.066   3.383   3.777
    2V3OU   H23  870   4.117   3.228   3.694
    2V3OU    O8  871   3.968   3.209   3.821
    2V3OU   H24  872   3.930   3.269   3.888
    2V3OU    C1  873   3.651   3.569   3.514
    2V3OU    H1  874   3.628   3.620   3.416
    2V3OU    O3  875   3.660   3.656   3.627
    2V3OU   C19  876   3.625   3.794   3.612
    2V3OU    H9  877   3.524   3.799   3.563
    2V3OU    O4  878   3.716   3.853   3.522
    2V3OU   C20  879   3.844   3.878   3.579
    2V3OU   H10  880   3.900   3.780   3.584
    2V3OU   C24  881   3.615   3.861   3.749
    2V3OU   H16  882   3.549   3.799   3.815
    2V3OU   H17  883   3.564   3.960   3.735
    2V3OU   C23  884   3.754   3.880   3.811
    2V3OU   H15  885   3.797   3.776   3.825
    2V3OU    N1  886   3.736   3.960   3.931
    2V3OU   H19  887   3.808   3.929   3.993
    2V3OU   H20  888   3.655   3.928   3.980
    2V3OU   C21  889   3.851   3.952   3.713
    2V3OU   H11  890   3.955   3.933   3.751
    2V3OU    O5  891   3.830   4.093   3.717
    2V3OU   H18  892   3.779   4.112   3.797
    2V3OU   C22  893   3.911   3.953   3.465
    2V3OU   H12  894   3.857   4.050   3.448
    2V3OU   H13  895   3.907   3.892   3.372
    2V3OU   H14  896   4.020   3.969   3.488
    2V3OU   C11  897   3.166   3.471   3.518
    2V3OU    O1  898   3.144   3.586   3.473
    2V3OU    C9  899   3.303   3.423   3.544
    2V3OU    C7  900   3.407   3.508   3.508
    2V3OU    O9  901   3.391   3.620   3.429
    2V3OU   H25  902   3.295   3.638   3.433
    2V3OU   C17  903   2.831   3.316   3.553
    2V3OU    H7  904   2.733   3.364   3.544
    2V3OU   C18  905   2.855   3.219   3.649
    2V3OU    H8  906   2.788   3.172   3.722
    3SOL     OW  907   2.614   5.558   6.258
    3SOL    HW1  908   2.663   5.585   6.175
    3SOL    HW2  909   2.601   5.459   6.259
    4SOL     OW  910   6.620   0.490   1.136
    4SOL    HW1  911   6.702   0.442   1.105
    4SOL    HW2  912   6.592   0.454   1.225
    5SOL     OW  913   4.447   2.278   1.964
    5SOL    HW1  914   4.362   2.303   2.010
    5SOL    HW2  915   4.426   2.231   1.878
    6SOL     OW  916   4.305   1.695   1.959
    6SOL    HW1  917   4.253   1.668   2.041
    6SOL    HW2  918   4.372   1.765   1.985
    7SOL     OW  919   0.792   3.914   3.467
    7SOL    HW1  920   0.817   3.819   3.481
    7SOL    HW2  921   0.693   3.922   3.459
    8SOL     OW  922   2.632   2.059   5.434
    8SOL    HW1  923   2.710   2.115   5.460
    8SOL    HW2  924   2.547   2.110   5.449
    9SOL     OW  925   5.409   1.723   5.844
    9SOL    HW1  926   5.350   1.796   5.809
    9SOL    HW2  927   5.355   1.640   5.857
   10SOL     OW  928   2.938   5.298   5.214
   10SOL    HW1  929   2.862   5.363   5.210
   10SOL    HW2  930   2.909   5.214   5.260
   11SOL     OW  931   2.361   1.607   5.906
   11SOL    HW1  932   2.403   1.619   5.996
   11SOL    HW2  933   2.381   1.686   5.849
   12SOL     OW  934   3.102   4.823   3.601
   12SOL    HW1  935   3.155   4.852   3.680
   12SOL    HW2  936   3.012   4.790   3.631
   13SOL     OW  937   3.126   6.729   4.276
   13SOL    HW1  938   3.225   6.716   4.284
   13SOL    HW2  939   3.105   6.769   4.187
   14SOL     OW  940   3.944   5.218   6.393
   14SOL    HW1  941   3.879   5.148   6.422
   14SOL    HW2  942   3.989   5.189   6.308
   15SOL     OW  943   0.473   6.708   1.080
   15SOL    HW1  944   0.559   6.671   1.043
   15SOL    HW2  945   0.396   6.674   1.025
   16SOL     OW  946   5.367   2.980   6.264
   16SOL    HW1  947   5.284   3.000   6.212
   16SOL    HW2  948   5.361   3.022   6.354
   17SOL     OW  949   5.811   6.883   6.860
   17SOL    HW1  950   5.776   6.793   6.834
   17SOL    HW2  951   5.911   6.879   6.864
   18SOL     OW  952   3.140   0.882   5.490
   18SOL    HW1  953   3.165   0.979   5.497
   18SOL    HW2  954   3.223   0.827   5.482
   19SOL     OW  955   0.420   2.229   2.564
   19SOL    HW1  956   0.372   2.210   2.479
   19SOL    HW2  957   0.492   2.295   2.548
   20SOL     OW  958   4.962   1.417   5.305
   20SOL    HW1  959   4.941   1.440   5.210
   20SOL    HW2  960   4.987   1.321   5.311
   21SOL     OW  961   2.930   1.425   2.019
   21SOL    HW1  962   2.970   1.481   1.946
   21SOL    HW2  963   2.835   1.404   1.997
   22SOL     OW  964   0.944   6.126   0.470
   22SOL    HW1  965   0.851   6.121   0.432
   22SOL    HW2  966   0.956   6.214   0.516
   23SOL     OW  967   4.257   5.496   2.006
   23SOL    HW1  968   4.307   5.503   2.092
   23SOL    HW2  969   4.286   5.569   1.944
   24SOL     OW  970   3.494   0.528   2.402
   24SOL    HW1  971   3.398   0.502   2.392
   24SOL    HW2  972   3.518   0.597   2.334
   25SOL     OW  973   2.513   0.059   3.511
   25SOL    HW1  974   2.576   0.013   3.449
   25SOL    HW2  975   2.455   0.122   3.460
   26SOL     OW  976   6.452   1.698   0.296
   26SOL    HW1  977   6.383   1.662   0.360
   26SOL    HW2  978   6.531   1.730   0.348
   27SOL     OW  979   1.746   0.932   2.420
   27SOL    HW1  980   1.677   1.003   2.426
   27SOL    HW2  981   1.837   0.973   2.429
   28SOL     OW  982   1.452   0.045   5.165
   28SOL    HW1  983   1.379   0.105   5.198
   28SOL    HW2  984   1.414   7.008   5.100
   29SOL     OW  985   6.447   1.700   1.584
   29SOL    HW1  986   6.363   1.700   1.637
   29SOL    HW2  987   6.500   1.783   1.605
   30SOL     OW  988   4.354   0.784   3.683
   30SOL    HW1  989   4.338   0.742   3.772
   30SOL    HW2  990   4.452   0.780   3.661
   31SOL     OW  991   0.499   2.215   6.568
   31SOL    HW1  992   0.572   2.283   6.561
   31SOL    HW2  993   0.533   2.126   6.538
   32SOL     OW  994   0.639   2.083   2.687
   32SOL    HW1  995   0.722   2.101   2.635
   32SOL    HW2  996   0.559   2.093   2.628
   33SOL     OW  997   1.071   4.366   5.242
   33SOL    HW1  998   1.104   4.424   5.316
   33SOL    HW2  999   1.140   4.298   5.219
   34SOL     OW 1000   2.586   6.826   4.868
   34SOL    HW1 1001   2.566   6.923   4.884
   34SOL    HW2 1002   2.560   6.773   4.949
   35SOL     OW 1003   4.794   2.251   5.473
   35SOL    HW1 1004   4.749   2.169   5.507
   35SOL    HW2 1005   4.893   2.244   5.488
   36SOL     OW 1006   4.432   1.908   4.429
   36SOL    HW1 1007   4.439   1.849   4.509
   36SOL    HW2 1008   4.517   1.959   4.419
   37SOL     OW 1009   1.661   1.190   5.874
   37SOL    HW1 1010   1.750   1.236   5.881
   37SOL    HW2 1011   1.608   1.206   5.957
   38SOL     OW 1012   1.515   5.018   2.418
   38SOL    HW1 1013   1.613   5.007   2.432
   38SOL    HW2 1014   1.498   5.088   2.349
   39SOL     OW 1015   6.251   4.678   6.550
   39SOL    HW1 1016   6.183   4.625   6.501
   39SOL    HW2 1017   6.293   4.621   6.621
   40SOL     OW 1018   4.007   2.232   0.788
   40SOL    HW1 1019   3.907   2.230   0.792
   40SOL    HW2 1020   4.042   2.139   0.787
   41SOL     OW 1021   6.809   3.509   3.511
   41SOL    HW1 1022   6.802   3.546   3.604
   41SOL    HW2 1023   6.884   3.554   3.463
   42SOL     OW 1024   3.279   5.900   4.626
   42SOL    HW1 1025   3.198   5.958   4.631
   42SOL    HW2 1026   3.351   5.948   4.574
   43SOL     OW 1027   4.492   0.471   5.300
   43SOL    HW1 1028   4.552   0.490   5.378
   43SOL    HW2 1029   4.401   0.446   5.334
   44SOL     OW 1030   5.531   2.343   5.408
   44SOL    HW1 1031   5.514   2.429   5.360
   44SOL    HW2 1032   5.494   2.267   5.354
   45SOL     OW 1033   4.236   4.792   1.304
   45SOL    HW1 1034   4.277   4.701   1.313
   45SOL    HW2 1035   4.298   4.851   1.252
   46SOL     OW 1036   0.807   2.814   4.002
   46SOL    HW1 1037   0.743   2.774   4.068
   46SOL    HW2 1038   0.768   2.897   3.963
   47SOL     OW 1039   4.292   4.099   0.805
   47SOL    HW1 1040   4.344   4.071   0.885
   47SOL    HW2 1041   4.306   4.032   0.731
   48SOL     OW 1042   6.601   2.830   6.752
   48SOL    HW1 1043   6.541   2.909   6.740
   48SOL    HW2 1044   6.598   2.800   6.847
   49SOL     OW 1045   6.113   3.160   2.068
   49SOL    HW1 1046   6.203   3.143   2.026
   49SOL    HW2 1047   6.045   3.099   2.026
   50SOL     OW 1048   6.015   1.179   5.376
   50SOL    HW1 1049   6.037   1.273   5.349
   50SOL    HW2 1050   6.007   1.122   5.294
   51SOL     OW 1051   2.442   6.662   2.938
   51SOL    HW1 1052   2.379   6.693   2.867
   51SOL    HW2 1053   2.534   6.650   2.899
   52SOL     OW 1054   5.769   3.130   1.755
   52SOL    HW1 1055   5.709   3.210   1.766
   52SOL    HW2 1056   5.787   3.115   1.658
   53SOL     OW 1057   4.880   1.531   3.984
   53SOL    HW1 1058   4.973   1.522   3.948
   53SOL    HW2 1059   4.845   1.623   3.965
   54SOL     OW 1060   5.880   6.403   1.292
   54SOL    HW1 1061   5.790   6.434   1.260
   54SOL    HW2 1062   5.921   6.342   1.224
   55SOL     OW 1063   2.382   2.753   4.910
   55SOL    HW1 1064   2.300   2.746   4.853
   55SOL    HW2 1065   2.391   2.847   4.943
   56SOL     OW 1066   0.591   0.918   1.323
   56SOL    HW1 1067   0.509   0.949   1.371
   56SOL    HW2 1068   0.570   0.837   1.269
   57SOL     OW 1069   4.447   1.219   1.500
   57SOL    HW1 1070   4.471   1.169   1.583
   57SOL    HW2 1071   4.527   1.268   1.465
   58SOL     OW 1072   0.918   6.326   6.055
   58SOL    HW1 1073   0.950   6.284   5.970
   58SOL    HW2 1074   0.948   6.421   6.059
   59SOL     OW 1075   6.943   3.707   6.380
   59SOL    HW1 1076   6.872   3.776   6.375
   59SOL    HW2 1077   6.905   3.622   6.418
   60SOL     OW 1078   5.275   2.785   4.314
   60SOL    HW1 1079   5.222   2.817   4.236
   60SOL    HW2 1080   5.305   2.863   4.368
   61SOL     OW 1081   6.967   1.470   4.447
   61SOL    HW1 1082   6.913   1.444   4.528
   61SOL    HW2 1083   0.007   1.400   4.429
   62SOL     OW 1084   1.991   1.238   1.843
   62SOL    HW1 1085   2.060   1.297   1.886
   62SOL    HW2 1086   1.996   1.249   1.743
   63SOL     OW 1087   3.885   0.179   4.587
   63SOL    HW1 1088   3.837   0.139   4.664
   63SOL    HW2 1089   3.871   0.123   4.505
   64SOL     OW 1090   0.149   2.601   6.434
   64SOL    HW1 1091   0.116   2.585   6.342
   64SOL    HW2 1092   0.175   2.514   6.476
   65SOL     OW 1093   0.491   4.931   6.269
   65SOL    HW1 1094   0.590   4.917   6.262
   65SOL    HW2 1095   0.445   4.842   6.266
   66SOL     OW 1096   2.894   0.872   3.179
   66SOL    HW1 1097   2.983   0.907   3.151
   66SOL    HW2 1098   2.838   0.948   3.213
   67SOL     OW 1099   0.002   2.820   6.131
   67SOL    HW1 1100   6.955   2.810   6.197
   67SOL    HW2 1101   0.051   2.905   6.151
   68SOL     OW 1102   0.335   1.418   6.931
   68SOL    HW1 1103   0.310   1.454   7.021
   68SOL    HW2 1104   0.435   1.421   6.921
   69SOL     OW 1105   1.479   2.737   5.348
   69SOL    HW1 1106   1.503   2.745   5.445
   69SOL    HW2 1107   1.469   2.828   5.308
   70SOL     OW 1108   5.305   4.965   4.070
   70SOL    HW1 1109   5.250   4.891   4.108
   70SOL    HW2 1110   5.398   4.932   4.054
   71SOL     OW 1111   4.397   2.057   3.429
   71SOL    HW1 1112   4.493   2.037   3.445
   71SOL    HW2 1113   4.344   2.032   3.511
   72SOL     OW 1114   0.891   1.298   3.017
   72SOL    HW1 1115   0.812   1.327   2.962
   72SOL    HW2 1116   0.975   1.317   2.966
   73SOL     OW 1117   3.502   0.233   0.974
   73SOL    HW1 1118   3.419   0.179   0.976
   73SOL    HW2 1119   3.492   0.308   0.908
   74SOL     OW 1120   3.690   0.951   0.078
   74SOL    HW1 1121   3.684   1.012   7.027
   74SOL    HW2 1122   3.694   0.856   0.047
   75SOL     OW 1123   4.767   0.975   1.585
   75SOL    HW1 1124   4.680   0.961   1.631
   75SOL    HW2 1125   4.760   0.942   1.490
   76SOL     OW 1126   3.229   3.065   6.916
   76SOL    HW1 1127   3.162   2.991   6.911
   76SOL    HW2 1128   3.181   3.153   6.921
   77SOL     OW 1129   0.849   0.408   3.413
   77SOL    HW1 1130   0.925   0.422   3.476
   77SOL    HW2 1131   0.823   0.495   3.372
   78SOL     OW 1132   4.863   1.520   0.697
   78SOL    HW1 1133   4.812   1.596   0.656
   78SOL    HW2 1134   4.961   1.535   0.683
   79SOL     OW 1135   2.938   6.127   1.877
   79SOL    HW1 1136   2.963   6.154   1.784
   79SOL    HW2 1137   3.012   6.150   1.940
   80SOL     OW 1138   4.409   1.744   4.206
   80SOL    HW1 1139   4.418   1.828   4.259
   80SOL    HW2 1140   4.353   1.761   4.125
   81SOL     OW 1141   1.881   7.015   2.162
   81SOL    HW1 1142   1.834   6.967   2.236
   81SOL    HW2 1143   1.813   0.031   2.104
   82SOL     OW 1144   5.605   5.674   1.258
   82SOL    HW1 1145   5.611   5.730   1.341
   82SOL    HW2 1146   5.696   5.669   1.215
   83SOL     OW 1147   0.279   0.548   6.879
   83SOL    HW1 1148   0.318   0.473   6.932
   83SOL    HW2 1149   0.242   0.617   6.941
   84SOL     OW 1150   6.144   3.528   2.877
   84SOL    HW1 1151   6.175   3.441   2.840
   84SOL    HW2 1152   6.201   3.554   2.955
   85SOL     OW 1153   1.685   1.376   3.055
   85SOL    HW1 1154   1.607   1.340   3.106
   85SOL    HW2 1155   1.770   1.357   3.105
   86SOL     OW 1156   0.024   1.263   0.011
   86SOL    HW1 1157   0.004   1.178   6.991
   86SOL    HW2 1158   7.010   1.340   6.993
   87SOL     OW 1159   4.419   4.053   1.058
   87SOL    HW1 1160   4.458   3.962   1.047
   87SOL    HW2 1161   4.483   4.110   1.110
   88SOL     OW 1162   3.461   2.346   6.184
   88SOL    HW1 1163   3.473   2.251   6.157
   88SOL    HW2 1164   3.541   2.377   6.235
   89SOL     OW 1165   3.300   2.545   0.143
   89SOL    HW1 1166   3.315   2.643   0.160
   89SOL    HW2 1167   3.385   2.505   0.109
   90SOL     OW 1168   3.711   5.167   2.590
   90SOL    HW1 1169   3.774   5.182   2.513
   90SOL    HW2 1170   3.619   5.196   2.564
   91SOL     OW 1171   6.594   4.006   6.200
   91SOL    HW1 1172   6.566   3.975   6.108
   91SOL    HW2 1173   6.618   4.103   6.196
   92SOL     OW 1174   4.228   4.255   1.105
   92SOL    HW1 1175   4.315   4.300   1.084
   92SOL    HW2 1176   4.238   4.156   1.094
   93SOL     OW 1177   3.071   3.288   6.929
   93SOL    HW1 1178   3.044   3.312   7.022
   93SOL    HW2 1179   2.997   3.313   6.866
   94SOL     OW 1180   3.120   5.532   6.514
   94SOL    HW1 1181   3.063   5.539   6.432
   94SOL    HW2 1182   3.166   5.443   6.515
   95SOL     OW 1183   2.050   1.442   2.872
   95SOL    HW1 1184   1.964   1.477   2.835
   95SOL    HW2 1185   2.037   1.416   2.968
   96SOL     OW 1186   4.319   5.219   5.382
   96SOL    HW1 1187   4.267   5.304   5.378
   96SOL    HW2 1188   4.396   5.230   5.445
   97SOL     OW 1189   1.994   3.490   5.882
   97SOL    HW1 1190   2.021   3.517   5.790
   97SOL    HW2 1191   1.991   3.390   5.888
   98SOL     OW 1192   1.220   2.230   0.189
   98SOL    HW1 1193   1.220   2.165   0.113
   98SOL    HW2 1194   1.282   2.305   0.168
   99SOL     OW 1195   4.185   3.612   1.513
   99SOL    HW1 1196   4.206   3.533   1.454
   99SOL    HW2 1197   4.116   3.669   1.469
  100SOL     OW 1198   0.321   0.046   4.241
  100SOL    HW1 1199   0.354   6.984   4.268
  100SOL    HW2 1200   0.356   0.069   4.150
  101SOL     OW 1201   0.608   4.868   2.063
  101SOL    HW1 1202   0.605   4.809   2.144
  101SOL    HW2 1203   0.517   4.874   2.022
  102SOL     OW 1204   3.536   5.504   2.163
  102SOL    HW1 1205   3.572   5.428   2.216
  102SOL    HW2 1206   3.537   5.481   2.066
  103SOL     OW 1207   2.141   2.448   2.352
  103SOL    HW1 1208   2.211   2.381   2.376
  103SOL    HW2 1209   2.161   2.486   2.261
  104SOL     OW 1210   1.530   6.157   2.800
  104SOL    HW1 1211   1.521   6.066   2.840
  104SOL    HW2 1212   1.523   6.226   2.873
  105SOL     OW 1213   6.357   1.247   6.321
  105SOL    HW1 1214   6.263   1.272   6.345
  105SOL    HW2 1215   6.365   1.244   6.221
  106SOL     OW 1216   3.752   6.390   3.697
  106SOL    HW1 1217   3.687   6.315   3.704
  106SOL    HW2 1218   3.734   6.442   3.613
  107SOL     OW 1219   0.704   0.929   0.447
  107SOL    HW1 1220   0.661   0.853   0.399
  107SOL    HW2 1221   0.699   1.011   0.390
  108SOL     OW 1222   3.952   6.498   6.454
  108SOL    HW1 1223   3.994   6.436   6.520
  108SOL    HW2 1224   3.860   6.465   6.431
  109SOL     OW 1225   2.886   1.418   2.289
  109SOL    HW1 1226   2.905   1.422   2.191
  109SOL    HW2 1227   2.876   1.510   2.325
  110SOL     OW 1228   3.408   5.726   4.436
  110SOL    HW1 1229   3.356   5.785   4.498
  110SOL    HW2 1230   3.485   5.686   4.486
  111SOL     OW 1231   2.061   1.364   3.871
  111SOL    HW1 1232   2.006   1.354   3.787
  111SOL    HW2 1233   2.158   1.364   3.847
  112SOL     OW 1234   3.822   6.312   0.010
  112SOL    HW1 1235   3.870   6.285   6.955
  112SOL    HW2 1236   3.728   6.279   0.006
  113SOL     OW 1237   0.630   6.096   3.180
  113SOL    HW1 1238   0.630   6.125   3.084
  113SOL    HW2 1239   0.712   6.132   3.225
  114SOL     OW 1240   1.342   5.826   1.753
  114SOL    HW1 1241   1.246   5.801   1.739
  114SOL    HW2 1242   1.401   5.755   1.715
  115SOL     OW 1243   5.240   6.882   2.693
  115SOL    HW1 1244   5.204   6.930   2.773
  115SOL    HW2 1245   5.293   6.802   2.724
  116SOL     OW 1246   0.230   5.684   1.327
  116SOL    HW1 1247   0.244   5.728   1.239
  116SOL    HW2 1248   0.160   5.613   1.318
  117SOL     OW 1249   0.459   0.787   0.978
  117SOL    HW1 1250   0.444   0.886   0.976
  117SOL    HW2 1251   0.407   0.744   0.905
  118SOL     OW 1252   1.351   1.822   2.457
  118SOL    HW1 1253   1.362   1.812   2.358
  118SOL    HW2 1254   1.364   1.918   2.483
  119SOL     OW 1255   0.645   0.283   0.449
  119SOL    HW1 1256   0.629   0.324   0.359
  119SOL    HW2 1257   0.559   0.247   0.485
  120SOL     OW 1258   5.318   0.739   4.527
  120SOL    HW1 1259   5.410   0.735   4.566
  120SOL    HW2 1260   5.254   0.774   4.595
  121SOL     OW 1261   1.256   3.726   0.273
  121SOL    HW1 1262   1.181   3.752   0.213
  121SOL    HW2 1263   1.292   3.807   0.319
  122SOL     OW 1264   1.687   3.204   0.601
  122SOL    HW1 1265   1.604   3.249   0.634
  122SOL    HW2 1266   1.763   3.225   0.663
  123SOL     OW 1267   1.289   1.667   1.741
  123SOL    HW1 1268   1.246   1.745   1.694
  123SOL    HW2 1269   1.255   1.582   1.701
  124SOL     OW 1270   2.857   2.662   0.974
  124SOL    HW1 1271   2.769   2.632   0.938
  124SOL    HW2 1272   2.860   2.762   0.974
  125SOL     OW 1273   4.538   2.976   0.775
  125SOL    HW1 1274   4.499   2.928   0.696
  125SOL    HW2 1275   4.604   3.043   0.744
  126SOL     OW 1276   3.437   3.260   2.659
  126SOL    HW1 1277   3.497   3.254   2.579
  126SOL    HW2 1278   3.483   3.311   2.731
  127SOL     OW 1279   0.253   5.128   6.634
  127SOL    HW1 1280   0.350   5.109   6.619
  127SOL    HW2 1281   0.202   5.103   6.552
  128SOL     OW 1282   5.031   3.258   1.616
  128SOL    HW1 1283   5.104   3.268   1.549
  128SOL    HW2 1284   5.051   3.182   1.677
  129SOL     OW 1285   3.067   2.843   0.193
  129SOL    HW1 1286   3.012   2.764   0.219
  129SOL    HW2 1287   3.025   2.888   0.114
  130SOL     OW 1288   6.950   0.274   4.219
  130SOL    HW1 1289   6.860   0.274   4.176
  130SOL    HW2 1290   6.981   0.181   4.232
  131SOL     OW 1291   5.093   0.433   3.892
  131SOL    HW1 1292   5.059   0.495   3.962
  131SOL    HW2 1293   5.186   0.404   3.915
  132SOL     OW 1294   2.951   2.571   1.657
  132SOL    HW1 1295   3.004   2.512   1.597
  132SOL    HW2 1296   2.933   2.524   1.743
  133SOL     OW 1297   5.354   0.981   3.989
  133SOL    HW1 1298   5.345   0.888   3.954
  133SOL    HW2 1299   5.450   1.010   3.983
  134SOL     OW 1300   6.784   0.889   3.124
  134SOL    HW1 1301   6.758   0.970   3.072
  134SOL    HW2 1302   6.872   0.904   3.169
  135SOL     OW 1303   5.329   3.985   4.433
  135SOL    HW1 1304   5.347   3.926   4.354
  135SOL    HW2 1305   5.366   3.942   4.516
  136SOL     OW 1306   1.662   5.139   5.248
  136SOL    HW1 1307   1.736   5.182   5.197
  136SOL    HW2 1308   1.583   5.127   5.188
  137SOL     OW 1309   4.477   1.752   3.860
  137SOL    HW1 1310   4.482   1.713   3.769
  137SOL    HW2 1311   4.398   1.715   3.909
  138SOL     OW 1312   1.015   3.871   2.972
  138SOL    HW1 1313   0.952   3.942   2.942
  138SOL    HW2 1314   0.972   3.815   3.042
  139SOL     OW 1315   1.702   6.105   5.426
  139SOL    HW1 1316   1.669   6.198   5.437
  139SOL    HW2 1317   1.633   6.050   5.378
  140SOL     OW 1318   1.386   6.317   3.848
  140SOL    HW1 1319   1.392   6.416   3.862
  140SOL    HW2 1320   1.306   6.296   3.792
  141SOL     OW 1321   6.742   2.638   5.622
  141SOL    HW1 1322   6.728   2.632   5.721
  141SOL    HW2 1323   6.788   2.724   5.600
  142SOL     OW 1324   1.985   3.433   1.924
  142SOL    HW1 1325   2.069   3.471   1.964
  142SOL    HW2 1326   1.910   3.440   1.990
  143SOL     OW 1327   5.748   5.046   0.995
  143SOL    HW1 1328   5.762   4.994   1.080
  143SOL    HW2 1329   5.812   5.123   0.993
  144SOL     OW 1330   2.290   4.593   5.440
  144SOL    HW1 1331   2.381   4.598   5.480
  144SOL    HW2 1332   2.298   4.585   5.340
  145SOL     OW 1333   2.670   5.427   1.270
  145SOL    HW1 1334   2.572   5.428   1.287
  145SOL    HW2 1335   2.713   5.357   1.326
  146SOL     OW 1336   5.302   0.412   6.917
  146SOL    HW1 1337   5.311   0.507   6.887
  146SOL    HW2 1338   5.277   0.355   6.839
  147SOL     OW 1339   5.227   0.687   5.867
  147SOL    HW1 1340   5.135   0.661   5.837
  147SOL    HW2 1341   5.272   0.737   5.793
  148SOL     OW 1342   0.442   5.429   1.307
  148SOL    HW1 1343   0.462   5.421   1.405
  148SOL    HW2 1344   0.450   5.524   1.279
  149SOL     OW 1345   3.415   2.069   5.079
  149SOL    HW1 1346   3.504   2.023   5.077
  149SOL    HW2 1347   3.409   2.133   5.002
  150SOL     OW 1348   5.481   0.149   6.839
  150SOL    HW1 1349   5.489   0.249   6.844
  150SOL    HW2 1350   5.504   0.110   6.928
  151SOL     OW 1351   3.567   0.817   1.824
  151SOL    HW1 1352   3.488   0.850   1.876
  151SOL    HW2 1353   3.605   0.893   1.771
  152SOL     OW 1354   0.030   1.607   0.647
  152SOL    HW1 1355   7.013   1.519   0.657
  152SOL    HW2 1356   0.086   1.607   0.564
  153SOL     OW 1357   2.802   6.297   3.106
  153SOL    HW1 1358   2.829   6.266   3.197
  153SOL    HW2 1359   2.800   6.219   3.043
  154SOL     OW 1360   0.438   3.532   0.918
  154SOL    HW1 1361   0.353   3.541   0.970
  154SOL    HW2 1362   0.424   3.566   0.825
  155SOL     OW 1363   0.615   1.276   3.388
  155SOL    HW1 1364   0.668   1.234   3.315
  155SOL    HW2 1365   0.609   1.375   3.372
  156SOL     OW 1366   6.652   0.207   0.023
  156SOL    HW1 1367   6.595   0.210   6.970
  156SOL    HW2 1368   6.705   0.292   0.031
  157SOL     OW 1369   5.492   3.459   0.451
  157SOL    HW1 1370   5.515   3.523   0.525
  157SOL    HW2 1371   5.572   3.402   0.430
  158SOL     OW 1372   2.039   2.623   1.005
  158SOL    HW1 1373   2.070   2.555   1.071
  158SOL    HW2 1374   2.046   2.714   1.046
  159SOL     OW 1375   3.990   4.909   1.298
  159SOL    HW1 1376   3.971   4.968   1.377
  159SOL    HW2 1377   4.080   4.865   1.310
  160SOL     OW 1378   5.893   0.213   0.858
  160SOL    HW1 1379   5.812   0.189   0.805
  160SOL    HW2 1380   5.907   0.312   0.855
  161SOL     OW 1381   1.125   0.242   2.787
  161SOL    HW1 1382   1.118   0.245   2.688
  161SOL    HW2 1383   1.138   0.335   2.822
  162SOL     OW 1384   3.804   5.843   6.605
  162SOL    HW1 1385   3.740   5.885   6.670
  162SOL    HW2 1386   3.880   5.801   6.655
  163SOL     OW 1387   6.894   5.941   2.286
  163SOL    HW1 1388   6.827   6.009   2.257
  163SOL    HW2 1389   6.939   5.902   2.207
  164SOL     OW 1390   1.034   3.751   2.674
  164SOL    HW1 1391   1.058   3.728   2.579
  164SOL    HW2 1392   1.091   3.697   2.736
  165SOL     OW 1393   4.733   4.942   6.463
  165SOL    HW1 1394   4.816   4.996   6.480
  165SOL    HW2 1395   4.662   4.970   6.529
  166SOL     OW 1396   0.336   3.580   1.908
  166SOL    HW1 1397   0.300   3.489   1.927
  166SOL    HW2 1398   0.378   3.618   1.991
  167SOL     OW 1399   6.105   1.685   6.476
  167SOL    HW1 1400   6.099   1.709   6.573
  167SOL    HW2 1401   6.198   1.702   6.443
  168SOL     OW 1402   4.060   1.976   0.827
  168SOL    HW1 1403   4.033   1.931   0.912
  168SOL    HW2 1404   4.057   1.910   0.752
  169SOL     OW 1405   5.895   3.005   0.193
  169SOL    HW1 1406   5.865   2.956   0.111
  169SOL    HW2 1407   5.892   2.943   0.271
  170SOL     OW 1408   6.840   5.622   2.257
  170SOL    HW1 1409   6.810   5.648   2.349
  170SOL    HW2 1410   6.776   5.658   2.190
  171SOL     OW 1411   2.485   4.723   6.970
  171SOL    HW1 1412   2.411   4.771   6.922
  171SOL    HW2 1413   2.449   4.677   0.022
  172SOL     OW 1414   6.043   1.576   3.087
  172SOL    HW1 1415   5.977   1.650   3.105
  172SOL    HW2 1416   6.092   1.596   3.003
  173SOL     OW 1417   5.510   1.241   4.646
  173SOL    HW1 1418   5.470   1.276   4.731
  173SOL    HW2 1419   5.442   1.187   4.598
  174SOL     OW 1420   4.303   5.302   3.619
  174SOL    HW1 1421   4.233   5.322   3.688
  174SOL    HW2 1422   4.298   5.205   3.594
  175SOL     OW 1423   3.734   0.830   0.956
  175SOL    HW1 1424   3.656   0.780   0.919
  175SOL    HW2 1425   3.746   0.806   1.053
  176SOL     OW 1426   5.842   4.670   2.233
  176SOL    HW1 1427   5.860   4.613   2.313
  176SOL    HW2 1428   5.809   4.614   2.157
  177SOL     OW 1429   5.157   3.671   4.659
  177SOL    HW1 1430   5.196   3.651   4.748
  177SOL    HW2 1431   5.230   3.677   4.591
  178SOL     OW 1432   2.965   4.870   5.787
  178SOL    HW1 1433   2.901   4.943   5.761
  178SOL    HW2 1434   2.988   4.816   5.706
  179SOL     OW 1435   3.885   0.505   6.798
  179SOL    HW1 1436   3.865   0.516   6.895
  179SOL    HW2 1437   3.833   0.429   6.761
  180SOL     OW 1438   2.552   0.488   0.711
  180SOL    HW1 1439   2.454   0.496   0.733
  180SOL    HW2 1440   2.564   0.486   0.612
  181SOL     OW 1441   2.741   3.640   5.652
  181SOL    HW1 1442   2.688   3.692   5.719
  181SOL    HW2 1443   2.838   3.658   5.664
  182SOL     OW 1444   3.965   2.225   6.505
  182SOL    HW1 1445   3.971   2.325   6.509
  182SOL    HW2 1446   4.011   2.193   6.422
  183SOL     OW 1447   3.746   2.173   4.013
  183SOL    HW1 1448   3.790   2.205   4.097
  183SOL    HW2 1449   3.811   2.175   3.937
  184SOL     OW 1450   0.012   6.714   3.532
  184SOL    HW1 1451   7.019   6.673   3.620
  184SOL    HW2 1452   0.028   6.642   3.465
  185SOL     OW 1453   0.940   1.396   4.726
  185SOL    HW1 1454   0.963   1.303   4.697
  185SOL    HW2 1455   0.884   1.440   4.655
  186SOL     OW 1456   6.077   1.461   4.267
  186SOL    HW1 1457   6.027   1.406   4.334
  186SOL    HW2 1458   6.115   1.401   4.197
  187SOL     OW 1459   5.714   6.767   2.378
  187SOL    HW1 1460   5.705   6.694   2.311
  187SOL    HW2 1461   5.723   6.728   2.469
  188SOL     OW 1462   0.780   3.292   3.979
  188SOL    HW1 1463   0.713   3.239   4.030
  188SOL    HW2 1464   0.871   3.254   3.994
  189SOL     OW 1465   2.042   5.302   0.139
  189SOL    HW1 1466   2.063   5.358   0.059
  189SOL    HW2 1467   2.102   5.329   0.215
  190SOL     OW 1468   6.383   4.141   5.765
  190SOL    HW1 1469   6.475   4.177   5.746
  190SOL    HW2 1470   6.323   4.160   5.687
  191SOL     OW 1471   6.382   1.546   6.672
  191SOL    HW1 1472   6.433   1.611   6.729
  191SOL    HW2 1473   6.433   1.528   6.588
  192SOL     OW 1474   0.172   4.872   1.618
  192SOL    HW1 1475   0.103   4.900   1.685
  192SOL    HW2 1476   0.259   4.916   1.640
  193SOL     OW 1477   5.181   3.815   5.357
  193SOL    HW1 1478   5.188   3.820   5.456
  193SOL    HW2 1479   5.222   3.730   5.324
  194SOL     OW 1480   3.597   6.837   3.520
  194SOL    HW1 1481   3.540   6.915   3.494
  194SOL    HW2 1482   3.663   6.818   3.447
  195SOL     OW 1483   1.704   1.097   4.385
  195SOL    HW1 1484   1.610   1.094   4.353
  195SOL    HW2 1485   1.749   1.010   4.364
  196SOL     OW 1486   2.603   0.288   6.547
  196SOL    HW1 1487   2.684   0.320   6.596
  196SOL    HW2 1488   2.553   0.367   6.510
  197SOL     OW 1489   2.854   0.130   0.677
  197SOL    HW1 1490   2.865   0.230   0.671
  197SOL    HW2 1491   2.757   0.107   0.671
  198SOL     OW 1492   4.375   6.565   2.441
  198SOL    HW1 1493   4.415   6.500   2.506
  198SOL    HW2 1494   4.429   6.565   2.357
  199SOL     OW 1495   6.702   1.088   3.366
  199SOL    HW1 1496   6.734   1.007   3.416
  199SOL    HW2 1497   6.780   1.148   3.348
  200SOL     OW 1498   1.362   3.695   1.844
  200SOL    HW1 1499   1.321   3.704   1.935
  200SOL    HW2 1500   1.292   3.715   1.774
  201SOL     OW 1501   5.213   0.051   6.632
  201SOL    HW1 1502   5.219   0.151   6.642
  201SOL    HW2 1503   5.300   0.010   6.659
  202SOL     OW 1504   5.198   7.017   6.030
  202SOL    HW1 1505   5.232   0.003   6.124
  202SOL    HW2 1506   5.127   6.946   6.032
  203SOL     OW 1507   5.021   2.271   5.060
  203SOL    HW1 1508   4.933   2.253   5.015
  203SOL    HW2 1509   5.068   2.345   5.012
  204SOL     OW 1510   6.759   0.633   6.568
  204SOL    HW1 1511   6.856   0.628   6.590
  204SOL    HW2 1512   6.712   0.689   6.636
  205SOL     OW 1513   0.848   0.936   2.676
  205SOL    HW1 1514   0.878   1.015   2.622
  205SOL    HW2 1515   0.869   0.951   2.772
  206SOL     OW 1516   0.223   4.866   2.461
  206SOL    HW1 1517   0.316   4.888   2.431
  206SOL    HW2 1518   0.197   4.929   2.535
  207SOL     OW 1519   4.241   0.471   4.291
  207SOL    HW1 1520   4.223   0.561   4.251
  207SOL    HW2 1521   4.267   0.482   4.387
  208SOL     OW 1522   5.237   3.855   5.656
  208SOL    HW1 1523   5.203   3.774   5.703
  208SOL    HW2 1524   5.185   3.935   5.686
  209SOL     OW 1525   1.012   4.788   4.804
  209SOL    HW1 1526   1.005   4.776   4.903
  209SOL    HW2 1527   1.059   4.708   4.765
  210SOL     OW 1528   4.026   1.721   1.671
  210SOL    HW1 1529   4.007   1.771   1.756
  210SOL    HW2 1530   4.102   1.658   1.687
  211SOL     OW 1531   1.344   6.333   3.384
  211SOL    HW1 1532   1.428   6.359   3.336
  211SOL    HW2 1533   1.329   6.397   3.460
  212SOL     OW 1534   2.255   4.640   2.168
  212SOL    HW1 1535   2.311   4.676   2.093
  212SOL    HW2 1536   2.213   4.716   2.217
  213SOL     OW 1537   3.430   0.836   5.533
  213SOL    HW1 1538   3.468   0.897   5.603
  213SOL    HW2 1539   3.461   0.742   5.551
  214SOL     OW 1540   4.078   5.706   2.008
  214SOL    HW1 1541   4.108   5.613   2.027
  214SOL    HW2 1542   4.158   5.766   1.998
  215SOL     OW 1543   2.781   3.914   1.636
  215SOL    HW1 1544   2.849   3.848   1.670
  215SOL    HW2 1545   2.782   3.915   1.536
  216SOL     OW 1546   1.691   6.060   4.882
  216SOL    HW1 1547   1.726   5.998   4.953
  216SOL    HW2 1548   1.591   6.062   4.887
  217SOL     OW 1549   2.693   2.431   3.463
  217SOL    HW1 1550   2.753   2.373   3.408
  217SOL    HW2 1551   2.656   2.504   3.406
  218SOL     OW 1552   0.365   3.145   4.481
  218SOL    HW1 1553   0.359   3.164   4.383
  218SOL    HW2 1554   0.449   3.095   4.501
  219SOL     OW 1555   3.392   6.259   6.101
  219SOL    HW1 1556   3.461   6.231   6.035
  219SOL    HW2 1557   3.346   6.178   6.138
  220SOL     OW 1558   3.708   6.718   6.715
  220SOL    HW1 1559   3.671   6.640   6.766
  220SOL    HW2 1560   3.692   6.704   6.617
  221SOL     OW 1561   0.096   4.046   2.345
  221SOL    HW1 1562   0.107   4.084   2.436
  221SOL    HW2 1563   0.182   4.005   2.316
  222SOL     OW 1564   2.252   5.068   5.788
  222SOL    HW1 1565   2.171   5.027   5.830
  222SOL    HW2 1566   2.264   5.161   5.822
  223SOL     OW 1567   6.011   3.671   1.147
  223SOL    HW1 1568   6.031   3.588   1.199
  223SOL    HW2 1569   5.946   3.650   1.074
  224SOL     OW 1570   2.748   1.560   3.718
  224SOL    HW1 1571   2.788   1.475   3.683
  224SOL    HW2 1572   2.732   1.551   3.816
  225SOL     OW 1573   5.364   1.280   5.781
  225SOL    HW1 1574   5.388   1.271   5.684
  225SOL    HW2 1575   5.296   1.211   5.806
  226SOL     OW 1576   1.396   0.258   5.887
  226SOL    HW1 1577   1.310   0.270   5.936
  226SOL    HW2 1578   1.378   0.252   5.789
  227SOL     OW 1579   1.422   4.185   2.275
  227SOL    HW1 1580   1.409   4.257   2.343
  227SOL    HW2 1581   1.398   4.219   2.184
  228SOL     OW 1582   3.346   6.651   3.897
  228SOL    HW1 1583   3.362   6.571   3.954
  228SOL    HW2 1584   3.248   6.671   3.895
  229SOL     OW 1585   4.970   6.811   0.544
  229SOL    HW1 1586   5.017   6.729   0.578
  229SOL    HW2 1587   4.940   6.866   0.622
  230SOL     OW 1588   2.542   4.634   2.731
  230SOL    HW1 1589   2.626   4.609   2.682
  230SOL    HW2 1590   2.511   4.557   2.786
  231SOL     OW 1591   6.792   1.914   6.474
  231SOL    HW1 1592   6.801   1.816   6.495
  231SOL    HW2 1593   6.702   1.946   6.505
  232SOL     OW 1594   1.394   3.983   6.306
  232SOL    HW1 1595   1.432   3.905   6.357
  232SOL    HW2 1596   1.464   4.021   6.246
  233SOL     OW 1597   2.331   1.461   3.796
  233SOL    HW1 1598   2.289   1.547   3.766
  233SOL    HW2 1599   2.363   1.470   3.890
  234SOL     OW 1600   2.981   6.310   5.478
  234SOL    HW1 1601   3.061   6.289   5.421
  234SOL    HW2 1602   2.988   6.259   5.564
  235SOL     OW 1603   3.255   3.678   2.010
  235SOL    HW1 1604   3.207   3.614   1.950
  235SOL    HW2 1605   3.203   3.693   2.093
  236SOL     OW 1606   6.067   2.723   6.473
  236SOL    HW1 1607   6.102   2.703   6.565
  236SOL    HW2 1608   6.029   2.816   6.472
  237SOL     OW 1609   6.620   6.596   0.877
  237SOL    HW1 1610   6.674   6.636   0.804
  237SOL    HW2 1611   6.681   6.560   0.948
  238SOL     OW 1612   5.954   2.313   6.639
  238SOL    HW1 1613   5.986   2.218   6.645
  238SOL    HW2 1614   6.031   2.373   6.619
  239SOL     OW 1615   0.186   5.748   6.976
  239SOL    HW1 1616   0.202   5.838   7.017
  239SOL    HW2 1617   0.246   5.737   6.897
  240SOL     OW 1618   0.429   2.631   6.255
  240SOL    HW1 1619   0.377   2.704   6.300
  240SOL    HW2 1620   0.527   2.644   6.271
  241SOL     OW 1621   1.481   6.968   4.239
  241SOL    HW1 1622   1.566   6.921   4.216
  241SOL    HW2 1623   1.494   0.038   4.227
  242SOL     OW 1624   2.391   2.767   6.100
  242SOL    HW1 1625   2.344   2.733   6.182
  242SOL    HW2 1626   2.402   2.866   6.107
  243SOL     OW 1627   5.751   0.317   6.505
  243SOL    HW1 1628   5.778   0.265   6.424
  243SOL    HW2 1629   5.742   0.254   6.582
  244SOL     OW 1630   4.896   3.181   4.557
  244SOL    HW1 1631   4.966   3.206   4.624
  244SOL    HW2 1632   4.811   3.230   4.576
  245SOL     OW 1633   0.044   2.418   5.096
  245SOL    HW1 1634   0.117   2.439   5.161
  245SOL    HW2 1635   0.005   2.329   5.118
  246SOL     OW 1636   4.959   3.105   2.946
  246SOL    HW1 1637   4.937   3.184   2.888
  246SOL    HW2 1638   5.057   3.103   2.965
  247SOL     OW 1639   2.733   1.018   1.987
  247SOL    HW1 1640   2.706   0.922   1.976
  247SOL    HW2 1641   2.651   1.074   1.995
  248SOL     OW 1642   4.191   1.597   4.571
  248SOL    HW1 1643   4.279   1.642   4.586
  248SOL    HW2 1644   4.117   1.662   4.588
  249SOL     OW 1645   4.922   6.829   5.741
  249SOL    HW1 1646   4.858   6.801   5.812
  249SOL    HW2 1647   4.906   6.775   5.658
  250SOL     OW 1648   5.003   1.879   6.336
  250SOL    HW1 1649   4.916   1.859   6.379
  250SOL    HW2 1650   5.061   1.797   6.337
  251SOL     OW 1651   4.414   4.661   6.615
  251SOL    HW1 1652   4.337   4.717   6.644
  251SOL    HW2 1653   4.469   4.636   6.694
  252SOL     OW 1654   7.019   0.594   6.712
  252SOL    HW1 1655   0.071   0.559   6.664
  252SOL    HW2 1656   7.010   0.547   6.800
  253SOL     OW 1657   2.075   3.999   7.020
  253SOL    HW1 1658   2.023   3.951   6.950
  253SOL    HW2 1659   2.054   4.097   7.016
  254SOL     OW 1660   6.286   2.978   3.910
  254SOL    HW1 1661   6.274   3.061   3.856
  254SOL    HW2 1662   6.248   2.899   3.861
  255SOL     OW 1663   1.594   3.266   4.240
  255SOL    HW1 1664   1.527   3.335   4.269
  255SOL    HW2 1665   1.661   3.253   4.313
  256SOL     OW 1666   6.001   4.304   0.067
  256SOL    HW1 1667   6.012   4.402   0.054
  256SOL    HW2 1668   5.951   4.265   7.019
  257SOL     OW 1669   3.963   5.872   4.619
  257SOL    HW1 1670   3.917   5.935   4.682
  257SOL    HW2 1671   4.054   5.907   4.597
  258SOL     OW 1672   5.676   4.825   4.522
  258SOL    HW1 1673   5.586   4.797   4.556
  258SOL    HW2 1674   5.724   4.875   4.594
  259SOL     OW 1675   2.009   3.136   2.098
  259SOL    HW1 1676   1.921   3.115   2.055
  259SOL    HW2 1677   2.073   3.166   2.028
  260SOL     OW 1678   4.985   1.100   1.515
  260SOL    HW1 1679   4.896   1.059   1.536
  260SOL    HW2 1680   5.031   1.125   1.600
  261SOL     OW 1681   6.694   3.932   1.122
  261SOL    HW1 1682   6.618   3.867   1.120
  261SOL    HW2 1683   6.725   3.950   1.028
  262SOL     OW 1684   0.522   3.820   1.321
  262SOL    HW1 1685   0.586   3.895   1.309
  262SOL    HW2 1686   0.516   3.796   1.418
  263SOL     OW 1687   0.720   1.155   3.809
  263SOL    HW1 1688   0.691   1.061   3.792
  263SOL    HW2 1689   0.716   1.174   3.907
  264SOL     OW 1690   5.554   4.280   5.004
  264SOL    HW1 1691   5.574   4.187   4.972
  264SOL    HW2 1692   5.608   4.346   4.951
  265SOL     OW 1693   4.422   4.922   3.210
  265SOL    HW1 1694   4.485   4.983   3.257
  265SOL    HW2 1695   4.375   4.864   3.276
  266SOL     OW 1696   3.393   3.520   5.787
  266SOL    HW1 1697   3.413   3.424   5.810
  266SOL    HW2 1698   3.294   3.531   5.774
  267SOL     OW 1699   6.676   2.758   6.099
  267SOL    HW1 1700   6.584   2.790   6.078
  267SOL    HW2 1701   6.680   2.727   6.194
  268SOL     OW 1702   4.726   6.159   5.511
  268SOL    HW1 1703   4.799   6.220   5.481
  268SOL    HW2 1704   4.683   6.115   5.432
  269SOL     OW 1705   1.588   2.267   0.499
  269SOL    HW1 1706   1.585   2.201   0.424
  269SOL    HW2 1707   1.502   2.262   0.551
  270SOL     OW 1708   6.955   0.213   2.269
  270SOL    HW1 1709   6.994   0.280   2.205
  270SOL    HW2 1710   6.893   0.152   2.219
  271SOL     OW 1711   2.485   2.687   0.696
  271SOL    HW1 1712   2.571   2.699   0.747
  271SOL    HW2 1713   2.497   2.615   0.628
  272SOL     OW 1714   3.488   5.821   3.962
  272SOL    HW1 1715   3.438   5.808   4.047
  272SOL    HW2 1716   3.552   5.745   3.948
  273SOL     OW 1717   1.698   4.854   5.194
  273SOL    HW1 1718   1.690   4.948   5.228
  273SOL    HW2 1719   1.772   4.807   5.243
  274SOL     OW 1720   4.855   2.385   3.728
  274SOL    HW1 1721   4.860   2.325   3.808
  274SOL    HW2 1722   4.896   2.473   3.750
  275SOL     OW 1723   0.143   5.856   6.248
  275SOL    HW1 1724   0.216   5.844   6.180
  275SOL    HW2 1725   0.100   5.946   6.236
  276SOL     OW 1726   0.257   5.261   3.112
  276SOL    HW1 1727   0.313   5.184   3.142
  276SOL    HW2 1728   0.290   5.345   3.155
  277SOL     OW 1729   2.696   1.816   0.274
  277SOL    HW1 1730   2.618   1.854   0.324
  277SOL    HW2 1731   2.781   1.838   0.323
  278SOL     OW 1732   6.682   3.968   1.988
  278SOL    HW1 1733   6.742   3.891   1.966
  278SOL    HW2 1734   6.614   3.979   1.916
  279SOL     OW 1735   6.094   2.998   4.760
  279SOL    HW1 1736   6.079   3.011   4.858
  279SOL    HW2 1737   6.171   2.937   4.745
  280SOL     OW 1738   3.661   6.760   2.683
  280SOL    HW1 1739   3.639   6.855   2.705
  280SOL    HW2 1740   3.585   6.719   2.632
  281SOL     OW 1741   2.990   4.811   2.357
  281SOL    HW1 1742   2.934   4.878   2.406
  281SOL    HW2 1743   2.934   4.764   2.288
  282SOL     OW 1744   4.036   2.468   5.569
  282SOL    HW1 1745   4.041   2.505   5.661
  282SOL    HW2 1746   3.940   2.468   5.538
  283SOL     OW 1747   6.922   1.436   5.473
  283SOL    HW1 1748   6.976   1.356   5.446
  283SOL    HW2 1749   6.872   1.416   5.557
  284SOL     OW 1750   0.644   4.183   4.913
  284SOL    HW1 1751   0.577   4.153   4.844
  284SOL    HW2 1752   0.598   4.195   5.001
  285SOL     OW 1753   5.359   5.582   6.770
  285SOL    HW1 1754   5.331   5.489   6.743
  285SOL    HW2 1755   5.283   5.645   6.756
  286SOL     OW 1756   3.923   4.829   5.178
  286SOL    HW1 1757   3.859   4.895   5.217
  286SOL    HW2 1758   3.918   4.743   5.228
  287SOL     OW 1759   0.724   5.159   6.635
  287SOL    HW1 1760   0.813   5.172   6.592
  287SOL    HW2 1761   0.657   5.130   6.567
  288SOL     OW 1762   3.840   1.285   0.535
  288SOL    HW1 1763   3.816   1.194   0.569
  288SOL    HW2 1764   3.820   1.353   0.605
  289SOL     OW 1765   0.114   5.289   4.892
  289SOL    HW1 1766   0.161   5.242   4.817
  289SOL    HW2 1767   0.168   5.281   4.975
  290SOL     OW 1768   4.723   1.875   3.176
  290SOL    HW1 1769   4.779   1.957   3.185
  290SOL    HW2 1770   4.628   1.901   3.164
  291SOL     OW 1771   3.720   1.011   4.468
  291SOL    HW1 1772   3.634   1.033   4.514
  291SOL    HW2 1773   3.740   0.914   4.479
  292SOL     OW 1774   4.326   1.745   3.198
  292SOL    HW1 1775   4.327   1.831   3.147
  292SOL    HW2 1776   4.414   1.733   3.244
  293SOL     OW 1777   3.882   6.039   1.716
  293SOL    HW1 1778   3.964   6.095   1.707
  293SOL    HW2 1779   3.901   5.947   1.681
  294SOL     OW 1780   6.637   5.574   6.875
  294SOL    HW1 1781   6.575   5.632   6.929
  294SOL    HW2 1782   6.613   5.579   6.779
  295SOL     OW 1783   2.970   1.855   5.180
  295SOL    HW1 1784   3.029   1.911   5.122
  295SOL    HW2 1785   2.924   1.787   5.124
  296SOL     OW 1786   6.352   2.144   1.944
  296SOL    HW1 1787   6.435   2.187   1.981
  296SOL    HW2 1788   6.280   2.213   1.935
  297SOL     OW 1789   2.980   4.840   2.797
  297SOL    HW1 1790   3.040   4.817   2.720
  297SOL    HW2 1791   3.029   4.824   2.883
  298SOL     OW 1792   4.090   0.376   6.942
  298SOL    HW1 1793   4.048   0.303   6.888
  298SOL    HW2 1794   4.173   0.408   6.895
  299SOL     OW 1795   4.756   2.149   6.246
  299SOL    HW1 1796   4.825   2.119   6.312
  299SOL    HW2 1797   4.800   2.175   6.160
  300SOL     OW 1798   4.705   0.667   2.210
  300SOL    HW1 1799   4.608   0.689   2.217
  300SOL    HW2 1800   4.723   0.579   2.254
  301SOL     OW 1801   4.966   1.790   0.399
  301SOL    HW1 1802   5.010   1.871   0.438
  301SOL    HW2 1803   5.033   1.736   0.348
  302SOL     OW 1804   6.736   0.818   2.613
  302SOL    HW1 1805   6.638   0.830   2.593
  302SOL    HW2 1806   6.788   0.890   2.567
  303SOL     OW 1807   6.019   6.006   1.978
  303SOL    HW1 1808   6.022   6.073   2.053
  303SOL    HW2 1809   5.972   5.923   2.010
  304SOL     OW 1810   2.038   6.080   5.792
  304SOL    HW1 1811   2.109   6.149   5.807
  304SOL    HW2 1812   2.018   6.073   5.694
  305SOL     OW 1813   1.347   3.080   0.588
  305SOL    HW1 1814   1.406   3.029   0.526
  305SOL    HW2 1815   1.269   3.117   0.536
  306SOL     OW 1816   0.938   1.008   2.933
  306SOL    HW1 1817   0.997   0.982   3.010
  306SOL    HW2 1818   0.880   1.085   2.960
  307SOL     OW 1819   4.850   4.330   0.910
  307SOL    HW1 1820   4.894   4.306   0.997
  307SOL    HW2 1821   4.914   4.382   0.854
  308SOL     OW 1822   5.872   3.744   4.613
  308SOL    HW1 1823   5.959   3.733   4.564
  308SOL    HW2 1824   5.806   3.789   4.553
  309SOL     OW 1825   1.742   5.807   0.439
  309SOL    HW1 1826   1.785   5.721   0.465
  309SOL    HW2 1827   1.763   5.828   0.344
  310SOL     OW 1828   5.033   5.857   5.124
  310SOL    HW1 1829   4.998   5.930   5.066
  310SOL    HW2 1830   5.131   5.870   5.139
  311SOL     OW 1831   3.317   4.893   3.122
  311SOL    HW1 1832   3.256   4.886   3.043
  311SOL    HW2 1833   3.265   4.878   3.206
  312SOL     OW 1834   4.062   1.774   4.168
  312SOL    HW1 1835   4.087   1.787   4.264
  312SOL    HW2 1836   4.009   1.853   4.137
  313SOL     OW 1837   3.493   3.484   2.076
  313SOL    HW1 1838   3.584   3.504   2.112
  313SOL    HW2 1839   3.458   3.564   2.027
  314SOL     OW 1840   2.742   4.804   6.515
  314SOL    HW1 1841   2.762   4.794   6.417
  314SOL    HW2 1842   2.819   4.767   6.568
  315SOL     OW 1843   1.060   3.292   4.344
  315SOL    HW1 1844   1.062   3.199   4.380
  315SOL    HW2 1845   0.967   3.315   4.315
  316SOL     OW 1846   3.534   0.737   4.366
  316SOL    HW1 1847   3.496   0.681   4.439
  316SOL    HW2 1848   3.631   0.753   4.383
  317SOL     OW 1849   0.060   2.058   1.300
  317SOL    HW1 1850   0.108   2.002   1.232
  317SOL    HW2 1851   0.121   2.128   1.335
  318SOL     OW 1852   0.041   6.186   6.866
  318SOL    HW1 1853   0.051   6.088   6.845
  318SOL    HW2 1854   0.113   6.237   6.820
  319SOL     OW 1855   6.402   1.305   3.928
  319SOL    HW1 1856   6.442   1.216   3.947
  319SOL    HW2 1857   6.440   1.373   3.992
  320SOL     OW 1858   5.772   2.842   7.020
  320SOL    HW1 1859   5.679   2.806   7.021
  320SOL    HW2 1860   5.836   2.769   0.013
  321SOL     OW 1861   3.838   1.829   6.801
  321SOL    HW1 1862   3.818   1.755   6.736
  321SOL    HW2 1863   3.839   1.917   6.753
  322SOL     OW 1864   3.163   3.419   3.974
  322SOL    HW1 1865   3.227   3.492   3.950
  322SOL    HW2 1866   3.142   3.423   4.071
  323SOL     OW 1867   0.862   2.950   5.858
  323SOL    HW1 1868   0.938   2.917   5.801
  323SOL    HW2 1869   0.775   2.929   5.813
  324SOL     OW 1870   3.122   0.916   3.008
  324SOL    HW1 1871   3.165   0.884   2.924
  324SOL    HW2 1872   3.108   1.015   3.003
  325SOL     OW 1873   0.464   2.865   2.050
  325SOL    HW1 1874   0.380   2.856   1.996
  325SOL    HW2 1875   0.461   2.949   2.103
  326SOL     OW 1876   0.927   4.483   6.199
  326SOL    HW1 1877   0.997   4.523   6.140
  326SOL    HW2 1878   0.965   4.465   6.289
  327SOL     OW 1879   1.720   4.783   2.235
  327SOL    HW1 1880   1.751   4.793   2.141
  327SOL    HW2 1881   1.636   4.729   2.238
  328SOL     OW 1882   1.621   5.594   1.825
  328SOL    HW1 1883   1.661   5.685   1.839
  328SOL    HW2 1884   1.551   5.600   1.754
  329SOL     OW 1885   2.854   3.421   5.133
  329SOL    HW1 1886   2.856   3.427   5.034
  329SOL    HW2 1887   2.893   3.505   5.172
  330SOL     OW 1888   3.553   6.527   1.413
  330SOL    HW1 1889   3.500   6.611   1.408
  330SOL    HW2 1890   3.651   6.549   1.418
  331SOL     OW 1891   4.216   5.833   0.478
  331SOL    HW1 1892   4.230   5.907   0.413
  331SOL    HW2 1893   4.245   5.747   0.438
  332SOL     OW 1894   5.380   2.096   5.513
  332SOL    HW1 1895   5.411   2.189   5.536
  332SOL    HW2 1896   5.438   2.058   5.441
  333SOL     OW 1897   4.563   0.931   5.606
  333SOL    HW1 1898   4.647   0.963   5.561
  333SOL    HW2 1899   4.584   0.902   5.699
  334SOL     OW 1900   3.446   1.364   0.557
  334SOL    HW1 1901   3.497   1.335   0.638
  334SOL    HW2 1902   3.491   1.330   0.474
  335SOL     OW 1903   4.479   6.266   6.077
  335SOL    HW1 1904   4.460   6.364   6.070
  335SOL    HW2 1905   4.442   6.230   6.163
  336SOL     OW 1906   2.706   1.315   3.351
  336SOL    HW1 1907   2.718   1.415   3.347
  336SOL    HW2 1908   2.608   1.294   3.353
  337SOL     OW 1909   0.254   3.313   5.981
  337SOL    HW1 1910   0.211   3.329   6.070
  337SOL    HW2 1911   0.231   3.221   5.949
  338SOL     OW 1912   2.873   2.297   1.520
  338SOL    HW1 1913   2.802   2.227   1.517
  338SOL    HW2 1914   2.927   2.285   1.603
  339SOL     OW 1915   4.398   5.568   4.998
  339SOL    HW1 1916   4.325   5.622   5.039
  339SOL    HW2 1917   4.447   5.623   4.930
  340SOL     OW 1918   5.186   4.098   5.293
  340SOL    HW1 1919   5.210   4.002   5.294
  340SOL    HW2 1920   5.264   4.152   5.262
  341SOL     OW 1921   6.101   6.904   3.982
  341SOL    HW1 1922   6.073   6.995   4.014
  341SOL    HW2 1923   6.135   6.851   4.060
  342SOL     OW 1924   5.584   3.917   0.238
  342SOL    HW1 1925   5.601   3.994   0.299
  342SOL    HW2 1926   5.583   3.832   0.290
  343SOL     OW 1927   0.964   6.546   1.248
  343SOL    HW1 1928   0.940   6.640   1.223
  343SOL    HW2 1929   0.933   6.528   1.342
  344SOL     OW 1930   1.299   3.119   1.671
  344SOL    HW1 1931   1.298   3.080   1.579
  344SOL    HW2 1932   1.393   3.121   1.705
  345SOL     OW 1933   5.248   2.342   3.795
  345SOL    HW1 1934   5.150   2.324   3.802
  345SOL    HW2 1935   5.299   2.271   3.843
  346SOL     OW 1936   1.703   1.017   2.716
  346SOL    HW1 1937   1.802   1.021   2.732
  346SOL    HW2 1938   1.658   0.978   2.796
  347SOL     OW 1939   2.873   5.474   6.967
  347SOL    HW1 1940   2.812   5.395   6.976
  347SOL    HW2 1941   2.837   5.549   7.022
  348SOL     OW 1942   4.782   4.046   2.348
  348SOL    HW1 1943   4.739   4.132   2.321
  348SOL    HW2 1944   4.831   4.008   2.269
  349SOL     OW 1945   0.031   5.352   0.674
  349SOL    HW1 1946   0.068   5.373   0.765
  349SOL    HW2 1947   6.985   5.415   0.654
  350SOL     OW 1948   2.828   2.450   1.291
  350SOL    HW1 1949   2.840   2.421   1.386
  350SOL    HW2 1950   2.883   2.532   1.274
  351SOL     OW 1951   2.665   3.919   0.735
  351SOL    HW1 1952   2.568   3.931   0.758
  351SOL    HW2 1953   2.676   3.917   0.636
  352SOL     OW 1954   3.102   6.806   3.975
  352SOL    HW1 1955   3.035   6.880   3.982
  352SOL    HW2 1956   3.191   6.843   3.949
  353SOL     OW 1957   2.984   0.103   0.067
  353SOL    HW1 1958   3.071   0.056   0.054
  353SOL    HW2 1959   2.909   0.041   0.045
  354SOL     OW 1960   4.221   2.849   0.677
  354SOL    HW1 1961   4.311   2.827   0.638
  354SOL    HW2 1962   4.173   2.911   0.615
  355SOL     OW 1963   1.440   3.812   2.848
  355SOL    HW1 1964   1.413   3.858   2.764
  355SOL    HW2 1965   1.383   3.845   2.924
  356SOL     OW 1966   1.973   6.752   5.886
  356SOL    HW1 1967   1.952   6.664   5.845
  356SOL    HW2 1968   2.002   6.739   5.981
  357SOL     OW 1969   0.003   6.094   5.573
  357SOL    HW1 1970   0.067   6.135   5.508
  357SOL    HW2 1971   0.048   6.020   5.622
  358SOL     OW 1972   4.878   6.338   0.561
  358SOL    HW1 1973   4.790   6.297   0.586
  358SOL    HW2 1974   4.892   6.420   0.616
  359SOL     OW 1975   3.078   2.284   1.715
  359SOL    HW1 1976   3.168   2.255   1.747
  359SOL    HW2 1977   3.031   2.335   1.787
  360SOL     OW 1978   1.294   4.223   6.029
  360SOL    HW1 1979   1.261   4.167   5.954
  360SOL    HW2 1980   1.376   4.273   6.000
  361SOL     OW 1981   6.408   6.535   2.758
  361SOL    HW1 1982   6.427   6.634   2.760
  361SOL    HW2 1983   6.322   6.519   2.711
  362SOL     OW 1984   3.658   2.991   1.352
  362SOL    HW1 1985   3.578   2.948   1.309
  362SOL    HW2 1986   3.632   3.080   1.389
  363SOL     OW 1987   5.528   4.303   3.014
  363SOL    HW1 1988   5.610   4.251   3.039
  363SOL    HW2 1989   5.524   4.386   3.070
  364SOL     OW 1990   6.503   5.198   6.477
  364SOL    HW1 1991   6.476   5.117   6.425
  364SOL    HW2 1992   6.470   5.281   6.430
  365SOL     OW 1993   5.586   6.833   1.960
  365SOL    HW1 1994   5.536   6.864   2.041
  365SOL    HW2 1995   5.683   6.823   1.983
  366SOL     OW 1996   5.187   0.630   6.664
  366SOL    HW1 1997   5.274   0.628   6.713
  366SOL    HW2 1998   5.193   0.698   6.590
  367SOL     OW 1999   5.588   2.892   1.773
  367SOL    HW1 2000   5.646   2.970   1.749
  367SOL    HW2 2001   5.538   2.861   1.692
  368SOL     OW 2002   0.808   2.805   5.610
  368SOL    HW1 2003   0.881   2.842   5.551
  368SOL    HW2 2004   0.731   2.868   5.610
  369SOL     OW 2005   5.995   4.913   2.299
  369SOL    HW1 2006   6.045   4.916   2.386
  369SOL    HW2 2007   5.957   4.822   2.285
  370SOL     OW 2008   1.852   1.333   5.120
  370SOL    HW1 2009   1.758   1.360   5.097
  370SOL    HW2 2010   1.893   1.405   5.176
  371SOL     OW 2011   1.785   4.583   5.672
  371SOL    HW1 2012   1.828   4.537   5.595
  371SOL    HW2 2013   1.850   4.592   5.747
  372SOL     OW 2014   1.339   6.339   6.641
  372SOL    HW1 2015   1.364   6.305   6.551
  372SOL    HW2 2016   1.365   6.435   6.648
  373SOL     OW 2017   6.057   6.441   4.552
  373SOL    HW1 2018   6.006   6.376   4.497
  373SOL    HW2 2019   5.995   6.489   4.615
  374SOL     OW 2020   2.901   1.942   4.016
  374SOL    HW1 2021   2.952   2.021   3.983
  374SOL    HW2 2022   2.881   1.881   3.939
  375SOL     OW 2023   0.890   4.763   4.287
  375SOL    HW1 2024   0.911   4.851   4.331
  375SOL    HW2 2025   0.803   4.729   4.321
  376SOL     OW 2026   2.852   1.197   5.185
  376SOL    HW1 2027   2.842   1.194   5.285
  376SOL    HW2 2028   2.892   1.285   5.158
  377SOL     OW 2029   1.156   2.112   1.204
  377SOL    HW1 2030   1.196   2.039   1.260
  377SOL    HW2 2031   1.177   2.095   1.108
  378SOL     OW 2032   4.737   2.439   6.449
  378SOL    HW1 2033   4.687   2.368   6.399
  378SOL    HW2 2034   4.835   2.430   6.431
  379SOL     OW 2035   6.061   2.744   1.676
  379SOL    HW1 2036   6.002   2.762   1.598
  379SOL    HW2 2037   6.028   2.663   1.725
  380SOL     OW 2038   2.683   1.371   0.553
  380SOL    HW1 2039   2.648   1.280   0.574
  380SOL    HW2 2040   2.779   1.365   0.525
  381SOL     OW 2041   1.323   3.962   2.630
  381SOL    HW1 2042   1.346   3.881   2.575
  381SOL    HW2 2043   1.235   3.999   2.599
  382SOL     OW 2044   6.022   0.236   6.700
  382SOL    HW1 2045   6.031   0.176   6.620
  382SOL    HW2 2046   5.950   0.201   6.760
  383SOL     OW 2047   4.024   3.939   6.553
  383SOL    HW1 2048   4.110   3.984   6.577
  383SOL    HW2 2049   3.985   3.984   6.472
  384SOL     OW 2050   0.033   5.349   3.557
  384SOL    HW1 2051   0.036   5.430   3.615
  384SOL    HW2 2052   7.012   5.370   3.473
  385SOL     OW 2053   3.197   4.497   5.374
  385SOL    HW1 2054   3.135   4.511   5.297
  385SOL    HW2 2055   3.213   4.400   5.388
  386SOL     OW 2056   2.484   0.030   5.124
  386SOL    HW1 2057   2.482   0.120   5.168
  386SOL    HW2 2058   2.536   0.036   5.039
  387SOL     OW 2059   1.325   6.920   2.114
  387SOL    HW1 2060   1.422   6.944   2.108
  387SOL    HW2 2061   1.315   6.824   2.140
  388SOL     OW 2062   1.231   1.631   4.962
  388SOL    HW1 2063   1.266   1.720   4.993
  388SOL    HW2 2064   1.219   1.632   4.863
  389SOL     OW 2065   3.667   3.580   1.284
  389SOL    HW1 2066   3.700   3.502   1.231
  389SOL    HW2 2067   3.703   3.665   1.245
  390SOL     OW 2068   3.103   1.729   1.612
  390SOL    HW1 2069   3.172   1.718   1.540
  390SOL    HW2 2070   3.103   1.824   1.642
  391SOL     OW 2071   1.878   2.648   6.653
  391SOL    HW1 2072   1.861   2.746   6.643
  391SOL    HW2 2073   1.792   2.598   6.641
  392SOL     OW 2074   1.912   4.405   1.058
  392SOL    HW1 2075   1.851   4.398   1.136
  392SOL    HW2 2076   1.991   4.462   1.082
  393SOL     OW 2077   1.466   4.339   6.859
  393SOL    HW1 2078   1.480   4.422   6.913
  393SOL    HW2 2079   1.516   4.263   6.902
  394SOL     OW 2080   0.039   1.855   0.076
  394SOL    HW1 2081   0.091   1.773   0.050
  394SOL    HW2 2082   6.979   1.827   0.114
  395SOL     OW 2083   4.809   4.105   2.897
  395SOL    HW1 2084   4.783   4.152   2.813
  395SOL    HW2 2085   4.830   4.010   2.877
  396SOL     OW 2086   3.237   3.717   1.624
  396SOL    HW1 2087   3.147   3.757   1.641
  396SOL    HW2 2088   3.289   3.715   1.709
  397SOL     OW 2089   5.722   1.530   5.354
  397SOL    HW1 2090   5.785   1.582   5.413
  397SOL    HW2 2091   5.708   1.439   5.393
  398SOL     OW 2092   1.348   0.346   2.069
  398SOL    HW1 2093   1.369   0.284   1.994
  398SOL    HW2 2094   1.256   0.327   2.104
  399SOL     OW 2095   5.779   5.800   2.258
  399SOL    HW1 2096   5.796   5.898   2.252
  399SOL    HW2 2097   5.708   5.775   2.193
  400SOL     OW 2098   6.490   6.137   5.923
  400SOL    HW1 2099   6.417   6.069   5.930
  400SOL    HW2 2100   6.475   6.208   5.992
  401SOL     OW 2101   5.770   0.605   6.392
  401SOL    HW1 2102   5.730   0.522   6.429
  401SOL    HW2 2103   5.866   0.611   6.419
  402SOL     OW 2104   6.096   0.008   3.610
  402SOL    HW1 2105   6.042   6.952   3.607
  402SOL    HW2 2106   6.039   0.082   3.646
  403SOL     OW 2107   3.653   2.036   4.368
  403SOL    HW1 2108   3.619   2.128   4.389
  403SOL    HW2 2109   3.585   1.986   4.315
  404SOL     OW 2110   1.563   5.252   3.939
  404SOL    HW1 2111   1.521   5.296   4.018
  404SOL    HW2 2112   1.494   5.242   3.866
  405SOL     OW 2113   1.771   3.251   2.209
  405SOL    HW1 2114   1.769   3.343   2.171
  405SOL    HW2 2115   1.806   3.187   2.141
  406SOL     OW 2116   1.012   3.784   4.862
  406SOL    HW1 2117   0.934   3.730   4.893
  406SOL    HW2 2118   1.097   3.735   4.880
  407SOL     OW 2119   1.430   0.929   4.405
  407SOL    HW1 2120   1.469   0.943   4.495
  407SOL    HW2 2121   1.486   0.863   4.354
  408SOL     OW 2122   1.351   2.666   3.275
  408SOL    HW1 2123   1.369   2.701   3.183
  408SOL    HW2 2124   1.429   2.688   3.335
  409SOL     OW 2125   6.886   3.145   2.129
  409SOL    HW1 2126   6.849   3.061   2.169
  409SOL    HW2 2127   6.812   3.196   2.085
  410SOL     OW 2128   1.974   1.631   0.928
  410SOL    HW1 2129   1.894   1.660   0.980
  410SOL    HW2 2130   1.987   1.693   0.850
  411SOL     OW 2131   6.151   6.987   1.662
  411SOL    HW1 2132   6.074   0.012   1.695
  411SOL    HW2 2133   6.124   6.890   1.657
  412SOL     OW 2134   3.325   5.792   3.709
  412SOL    HW1 2135   3.341   5.819   3.804
  412SOL    HW2 2136   3.362   5.863   3.648
  413SOL     OW 2137   5.375   3.425   1.635
  413SOL    HW1 2138   5.360   3.396   1.540
  413SOL    HW2 2139   5.350   3.521   1.645
  414SOL     OW 2140   3.405   5.213   3.719
  414SOL    HW1 2141   3.452   5.274   3.783
  414SOL    HW2 2142   3.306   5.226   3.727
  415SOL     OW 2143   1.214   5.909   6.932
  415SOL    HW1 2144   1.314   5.902   6.932
  415SOL    HW2 2145   1.175   5.823   6.899
  416SOL     OW 2146   4.619   6.514   4.848
  416SOL    HW1 2147   4.593   6.609   4.836
  416SOL    HW2 2148   4.707   6.497   4.802
  417SOL     OW 2149   2.013   5.861   6.414
  417SOL    HW1 2150   1.974   5.770   6.403
  417SOL    HW2 2151   1.994   5.895   6.506
  418SOL     OW 2152   4.182   6.949   6.943
  418SOL    HW1 2153   4.173   7.010   6.864
  418SOL    HW2 2154   4.269   6.966   6.989
  419SOL     OW 2155   2.099   6.869   1.620
  419SOL    HW1 2156   2.096   6.919   1.706
  419SOL    HW2 2157   2.147   6.782   1.633
  420SOL     OW 2158   5.888   1.048   0.283
  420SOL    HW1 2159   5.917   0.952   0.290
  420SOL    HW2 2160   5.902   1.093   0.371
  421SOL     OW 2161   0.215   3.800   5.566
  421SOL    HW1 2162   0.185   3.858   5.491
  421SOL    HW2 2163   0.288   3.740   5.535
  422SOL     OW 2164   5.587   3.513   1.248
  422SOL    HW1 2165   5.576   3.563   1.334
  422SOL    HW2 2166   5.606   3.578   1.174
  423SOL     OW 2167   0.736   1.948   6.001
  423SOL    HW1 2168   0.719   2.017   5.930
  423SOL    HW2 2169   0.726   1.857   5.962
  424SOL     OW 2170   1.436   5.664   0.889
  424SOL    HW1 2171   1.413   5.629   0.798
  424SOL    HW2 2172   1.485   5.593   0.939
  425SOL     OW 2173   4.903   1.711   3.336
  425SOL    HW1 2174   4.845   1.765   3.275
  425SOL    HW2 2175   4.893   1.614   3.314
  426SOL     OW 2176   3.292   2.012   4.511
  426SOL    HW1 2177   3.226   1.939   4.494
  426SOL    HW2 2178   3.374   1.974   4.552
  427SOL     OW 2179   5.609   6.326   3.787
  427SOL    HW1 2180   5.624   6.295   3.693
  427SOL    HW2 2181   5.580   6.421   3.787
  428SOL     OW 2182   4.268   0.434   3.698
  428SOL    HW1 2183   4.341   0.503   3.688
  428SOL    HW2 2184   4.305   0.344   3.677
  429SOL     OW 2185   1.324   4.577   1.768
  429SOL    HW1 2186   1.230   4.610   1.766
  429SOL    HW2 2187   1.325   4.480   1.742
  430SOL     OW 2188   0.777   0.180   4.445
  430SOL    HW1 2189   0.686   0.171   4.407
  430SOL    HW2 2190   0.835   0.105   4.412
  431SOL     OW 2191   2.652   0.486   1.018
  431SOL    HW1 2192   2.620   0.485   0.923
  431SOL    HW2 2193   2.720   0.415   1.031
  432SOL     OW 2194   6.305   1.606   0.659
  432SOL    HW1 2195   6.394   1.646   0.682
  432SOL    HW2 2196   6.233   1.674   0.674
  433SOL     OW 2197   1.735   6.542   4.914
  433SOL    HW1 2198   1.757   6.585   4.826
  433SOL    HW2 2199   1.789   6.459   4.924
  434SOL     OW 2200   3.911   5.528   3.493
  434SOL    HW1 2201   3.816   5.550   3.517
  434SOL    HW2 2202   3.924   5.429   3.496
  435SOL     OW 2203   4.628   2.729   6.477
  435SOL    HW1 2204   4.675   2.641   6.462
  435SOL    HW2 2205   4.689   2.804   6.452
  436SOL     OW 2206   3.169   5.855   2.529
  436SOL    HW1 2207   3.118   5.774   2.501
  436SOL    HW2 2208   3.166   5.923   2.455
  437SOL     OW 2209   0.610   1.408   6.878
  437SOL    HW1 2210   0.656   1.425   6.965
  437SOL    HW2 2211   0.678   1.395   6.806
  438SOL     OW 2212   2.236   4.260   3.249
  438SOL    HW1 2213   2.255   4.357   3.264
  438SOL    HW2 2214   2.219   4.244   3.151
  439SOL     OW 2215   6.017   4.938   2.564
  439SOL    HW1 2216   6.052   5.032   2.557
  439SOL    HW2 2217   5.924   4.939   2.600
  440SOL     OW 2218   2.345   1.678   4.746
  440SOL    HW1 2219   2.342   1.778   4.738
  440SOL    HW2 2220   2.419   1.652   4.808
  441SOL     OW 2221   0.624   3.178   4.169
  441SOL    HW1 2222   0.529   3.197   4.191
  441SOL    HW2 2223   0.640   3.080   4.172
  442SOL     OW 2224   4.164   5.543   5.326
  442SOL    HW1 2225   4.218   5.619   5.289
  442SOL    HW2 2226   4.127   5.490   5.250
  443SOL     OW 2227   6.069   4.481   3.720
  443SOL    HW1 2228   6.079   4.386   3.749
  443SOL    HW2 2229   6.029   4.484   3.628
  444SOL     OW 2230   4.951   0.545   0.223
  444SOL    HW1 2231   4.956   0.638   0.261
  444SOL    HW2 2232   5.038   0.498   0.240
  445SOL     OW 2233   0.443   5.909   3.080
  445SOL    HW1 2234   0.423   5.932   2.984
  445SOL    HW2 2235   0.515   5.969   3.114
  446SOL     OW 2236   3.228   5.035   3.409
  446SOL    HW1 2237   3.156   5.035   3.339
  446SOL    HW2 2238   3.186   5.046   3.499
  447SOL     OW 2239   0.343   2.892   6.396
  447SOL    HW1 2240   0.256   2.927   6.428
  447SOL    HW2 2241   0.412   2.899   6.468
  448SOL     OW 2242   2.000   0.825   3.765
  448SOL    HW1 2243   1.909   0.805   3.730
  448SOL    HW2 2244   2.002   0.813   3.864
  449SOL     OW 2245   2.650   1.330   4.041
  449SOL    HW1 2246   2.727   1.329   3.976
  449SOL    HW2 2247   2.674   1.275   4.121
  450SOL     OW 2248   1.536   4.787   3.056
  450SOL    HW1 2249   1.504   4.725   2.984
  450SOL    HW2 2250   1.513   4.881   3.031
  451SOL     OW 2251   1.262   2.424   4.066
  451SOL    HW1 2252   1.236   2.491   3.997
  451SOL    HW2 2253   1.187   2.411   4.130
  452SOL     OW 2254   5.375   6.311   0.536
  452SOL    HW1 2255   5.310   6.386   0.545
  452SOL    HW2 2256   5.434   6.328   0.457
  453SOL     OW 2257   4.402   0.254   6.408
  453SOL    HW1 2258   4.464   0.227   6.334
  453SOL    HW2 2259   4.310   0.223   6.387
  454SOL     OW 2260   6.904   4.332   5.853
  454SOL    HW1 2261   6.957   4.269   5.797
  454SOL    HW2 2262   6.965   4.375   5.920
  455SOL     OW 2263   5.345   2.544   4.755
  455SOL    HW1 2264   5.396   2.556   4.841
  455SOL    HW2 2265   5.404   2.500   4.688
  456SOL     OW 2266   0.204   0.108   3.722
  456SOL    HW1 2267   0.178   0.022   3.764
  456SOL    HW2 2268   0.252   0.090   3.636
  457SOL     OW 2269   1.873   2.886   4.256
  457SOL    HW1 2270   1.903   2.801   4.213
  457SOL    HW2 2271   1.775   2.881   4.273
  458SOL     OW 2272   3.403   6.174   2.700
  458SOL    HW1 2273   3.356   6.107   2.758
  458SOL    HW2 2274   3.468   6.127   2.641
  459SOL     OW 2275   1.656   6.902   5.899
  459SOL    HW1 2276   1.625   6.980   5.953
  459SOL    HW2 2277   1.743   6.925   5.855
  460SOL     OW 2278   2.595   0.084   4.870
  460SOL    HW1 2279   2.685   0.127   4.879
  460SOL    HW2 2280   2.560   0.100   4.777
  461SOL     OW 2281   6.963   5.810   5.313
  461SOL    HW1 2282   6.964   5.774   5.220
  461SOL    HW2 2283   0.027   5.808   5.351
  462SOL     OW 2284   3.908   3.434   0.026
  462SOL    HW1 2285   3.943   3.474   0.110
  462SOL    HW2 2286   3.827   3.484   7.024
  463SOL     OW 2287   5.829   6.014   3.826
  463SOL    HW1 2288   5.829   6.096   3.769
  463SOL    HW2 2289   5.840   5.933   3.769
  464SOL     OW 2290   3.104   1.152   5.353
  464SOL    HW1 2291   3.098   1.220   5.280
  464SOL    HW2 2292   3.183   1.171   5.410
  465SOL     OW 2293   0.708   2.792   0.127
  465SOL    HW1 2294   0.702   2.693   0.139
  465SOL    HW2 2295   0.619   2.833   0.150
  466SOL     OW 2296   1.971   6.251   4.051
  466SOL    HW1 2297   1.985   6.163   4.005
  466SOL    HW2 2298   2.060   6.291   4.073
  467SOL     OW 2299   2.115   1.237   0.910
  467SOL    HW1 2300   2.055   1.285   0.974
  467SOL    HW2 2301   2.210   1.267   0.926
  468SOL     OW 2302   3.979   6.187   5.515
  468SOL    HW1 2303   4.061   6.243   5.508
  468SOL    HW2 2304   3.942   6.170   5.423
  469SOL     OW 2305   2.561   3.357   6.429
  469SOL    HW1 2306   2.554   3.407   6.343
  469SOL    HW2 2307   2.658   3.342   6.452
  470SOL     OW 2308   4.886   6.675   1.235
  470SOL    HW1 2309   4.881   6.758   1.179
  470SOL    HW2 2310   4.951   6.611   1.195
  471SOL     OW 2311   2.566   2.575   3.966
  471SOL    HW1 2312   2.588   2.545   3.874
  471SOL    HW2 2313   2.650   2.600   4.014
  472SOL     OW 2314   4.333   3.784   6.200
  472SOL    HW1 2315   4.341   3.768   6.298
  472SOL    HW2 2316   4.243   3.822   6.180
  473SOL     OW 2317   1.461   2.719   2.561
  473SOL    HW1 2318   1.530   2.680   2.622
  473SOL    HW2 2319   1.382   2.748   2.615
  474SOL     OW 2320   5.419   5.539   4.629
  474SOL    HW1 2321   5.463   5.557   4.717
  474SOL    HW2 2322   5.329   5.583   4.627
  475SOL     OW 2323   6.045   2.086   6.458
  475SOL    HW1 2324   6.133   2.109   6.499
  475SOL    HW2 2325   5.988   2.039   6.526
  476SOL     OW 2326   0.534   3.628   2.609
  476SOL    HW1 2327   0.567   3.570   2.684
  476SOL    HW2 2328   0.490   3.571   2.540
  477SOL     OW 2329   2.476   6.277   3.275
  477SOL    HW1 2330   2.492   6.187   3.236
  477SOL    HW2 2331   2.432   6.336   3.206
  478SOL     OW 2332   3.487   6.622   2.525
  478SOL    HW1 2333   3.411   6.675   2.487
  478SOL    HW2 2334   3.482   6.528   2.493
  479SOL     OW 2335   3.505   2.679   5.602
  479SOL    HW1 2336   3.492   2.606   5.669
  479SOL    HW2 2337   3.513   2.767   5.650
  480SOL     OW 2338   2.397   0.912   0.649
  480SOL    HW1 2339   2.342   0.864   0.717
  480SOL    HW2 2340   2.338   0.949   0.578
  481SOL     OW 2341   1.834   6.560   1.344
  481SOL    HW1 2342   1.817   6.467   1.377
  481SOL    HW2 2343   1.822   6.564   1.245
  482SOL     OW 2344   4.342   4.670   2.344
  482SOL    HW1 2345   4.305   4.611   2.415
  482SOL    HW2 2346   4.320   4.631   2.254
  483SOL     OW 2347   6.728   2.550   3.164
  483SOL    HW1 2348   6.666   2.626   3.145
  483SOL    HW2 2349   6.719   2.481   3.092
  484SOL     OW 2350   1.818   3.282   5.361
  484SOL    HW1 2351   1.889   3.214   5.379
  484SOL    HW2 2352   1.765   3.255   5.281
  485SOL     OW 2353   3.962   4.910   2.536
  485SOL    HW1 2354   3.867   4.890   2.560
  485SOL    HW2 2355   3.968   4.932   2.439
  486SOL     OW 2356   6.202   0.603   0.158
  486SOL    HW1 2357   6.202   0.670   0.233
  486SOL    HW2 2358   6.269   0.532   0.177
  487SOL     OW 2359   0.771   0.870   3.236
  487SOL    HW1 2360   0.816   0.785   3.208
  487SOL    HW2 2361   0.673   0.864   3.218
  488SOL     OW 2362   1.066   1.354   2.108
  488SOL    HW1 2363   1.026   1.288   2.172
  488SOL    HW2 2364   1.159   1.325   2.084
  489SOL     OW 2365   4.282   5.795   5.277
  489SOL    HW1 2366   4.249   5.878   5.321
  489SOL    HW2 2367   4.241   5.786   5.186
  490SOL     OW 2368   0.571   6.443   3.055
  490SOL    HW1 2369   0.519   6.408   2.977
  490SOL    HW2 2370   0.666   6.459   3.027
  491SOL     OW 2371   1.481   3.530   1.680
  491SOL    HW1 2372   1.430   3.600   1.730
  491SOL    HW2 2373   1.529   3.471   1.745
  492SOL     OW 2374   1.335   0.248   5.599
  492SOL    HW1 2375   1.312   0.338   5.560
  492SOL    HW2 2376   1.393   0.198   5.536
  493SOL     OW 2377   3.938   6.789   5.603
  493SOL    HW1 2378   3.967   6.734   5.682
  493SOL    HW2 2379   3.843   6.819   5.616
  494SOL     OW 2380   0.760   6.594   6.643
  494SOL    HW1 2381   0.782   6.558   6.734
  494SOL    HW2 2382   0.843   6.599   6.588
  495SOL     OW 2383   4.282   5.887   3.953
  495SOL    HW1 2384   4.221   5.966   3.954
  495SOL    HW2 2385   4.374   5.916   3.981
  496SOL     OW 2386   5.382   3.159   1.863
  496SOL    HW1 2387   5.476   3.193   1.874
  496SOL    HW2 2388   5.319   3.236   1.859
  497SOL     OW 2389   3.116   1.807   4.520
  497SOL    HW1 2390   3.058   1.849   4.450
  497SOL    HW2 2391   3.077   1.825   4.611
  498SOL     OW 2392   1.046   4.644   1.804
  498SOL    HW1 2393   0.993   4.603   1.878
  498SOL    HW2 2394   0.985   4.693   1.742
  499SOL     OW 2395   1.868   5.416   4.455
  499SOL    HW1 2396   1.951   5.469   4.473
  499SOL    HW2 2397   1.872   5.379   4.362
  500SOL     OW 2398   0.103   1.976   5.907
  500SOL    HW1 2399   0.139   2.041   5.841
  500SOL    HW2 2400   0.148   1.990   5.995
  501SOL     OW 2401   3.748   0.178   1.102
  501SOL    HW1 2402   3.655   0.213   1.090
  501SOL    HW2 2403   3.745   0.094   1.157
  502SOL     OW 2404   0.809   3.677   5.817
  502SOL    HW1 2405   0.807   3.578   5.800
  502SOL    HW2 2406   0.896   3.714   5.786
  503SOL     OW 2407   6.921   4.967   6.604
  503SOL    HW1 2408   6.957   5.027   6.675
  503SOL    HW2 2409   6.992   4.950   6.535
  504SOL     OW 2410   0.767   5.440   2.242
  504SOL    HW1 2411   0.843   5.411   2.185
  504SOL    HW2 2412   0.766   5.386   2.327
  505SOL     OW 2413   2.627   5.953   4.800
  505SOL    HW1 2414   2.692   6.022   4.768
  505SOL    HW2 2415   2.561   5.933   4.728
  506SOL     OW 2416   3.189   4.938   3.827
  506SOL    HW1 2417   3.129   4.926   3.906
  506SOL    HW2 2418   3.173   5.028   3.786
  507SOL     OW 2419   2.864   0.669   3.723
  507SOL    HW1 2420   2.955   0.693   3.757
  507SOL    HW2 2421   2.871   0.639   3.628
  508SOL     OW 2422   0.230   3.575   2.444
  508SOL    HW1 2423   0.294   3.522   2.389
  508SOL    HW2 2424   0.145   3.588   2.392
  509SOL     OW 2425   2.759   1.055   1.653
  509SOL    HW1 2426   2.748   1.152   1.674
  509SOL    HW2 2427   2.805   1.044   1.565
  510SOL     OW 2428   6.182   4.364   6.790
  510SOL    HW1 2429   6.206   4.270   6.811
  510SOL    HW2 2430   6.111   4.366   6.720
  511SOL     OW 2431   0.958   2.443   5.871
  511SOL    HW1 2432   1.040   2.388   5.887
  511SOL    HW2 2433   0.879   2.398   5.913
  512SOL     OW 2434   0.266   2.348   6.512
  512SOL    HW1 2435   0.186   2.309   6.558
  512SOL    HW2 2436   0.349   2.299   6.541
  513SOL     OW 2437   5.670   6.522   3.389
  513SOL    HW1 2438   5.735   6.537   3.463
  513SOL    HW2 2439   5.698   6.443   3.334
  514SOL     OW 2440   6.221   0.685   4.520
  514SOL    HW1 2441   6.212   0.756   4.590
  514SOL    HW2 2442   6.176   0.602   4.552
  515SOL     OW 2443   1.294   6.783   0.936
  515SOL    HW1 2444   1.312   6.770   0.839
  515SOL    HW2 2445   1.379   6.776   0.988
  516SOL     OW 2446   2.799   4.737   2.170
  516SOL    HW1 2447   2.799   4.665   2.100
  516SOL    HW2 2448   2.770   4.824   2.129
  517SOL     OW 2449   3.975   5.085   1.520
  517SOL    HW1 2450   3.919   5.153   1.473
  517SOL    HW2 2451   4.038   5.130   1.583
  518SOL     OW 2452   2.337   1.993   3.575
  518SOL    HW1 2453   2.354   1.918   3.639
  518SOL    HW2 2454   2.257   1.971   3.518
  519SOL     OW 2455   0.933   6.277   4.043
  519SOL    HW1 2456   0.875   6.221   3.985
  519SOL    HW2 2457   0.901   6.272   4.138
  520SOL     OW 2458   5.837   3.923   6.792
  520SOL    HW1 2459   5.922   3.872   6.802
  520SOL    HW2 2460   5.782   3.913   6.875
  521SOL     OW 2461   6.235   6.272   5.001
  521SOL    HW1 2462   6.243   6.226   4.913
  521SOL    HW2 2463   6.295   6.352   5.003
  522SOL     OW 2464   3.249   3.186   4.276
  522SOL    HW1 2465   3.291   3.182   4.186
  522SOL    HW2 2466   3.289   3.262   4.329
  523SOL     OW 2467   0.861   5.994   1.851
  523SOL    HW1 2468   0.913   5.983   1.766
  523SOL    HW2 2469   0.818   5.907   1.875
  524SOL     OW 2470   0.397   2.105   2.297
  524SOL    HW1 2471   0.443   2.105   2.209
  524SOL    HW2 2472   0.431   2.029   2.353
  525SOL     OW 2473   2.132   4.287   6.052
  525SOL    HW1 2474   2.142   4.282   5.952
  525SOL    HW2 2475   2.056   4.230   6.081
  526SOL     OW 2476   3.277   6.135   3.704
  526SOL    HW1 2477   3.346   6.099   3.641
  526SOL    HW2 2478   3.302   6.227   3.731
  527SOL     OW 2479   6.417   3.193   0.934
  527SOL    HW1 2480   6.393   3.152   0.845
  527SOL    HW2 2481   6.352   3.267   0.955
  528SOL     OW 2482   1.482   2.755   3.498
  528SOL    HW1 2483   1.444   2.847   3.510
  528SOL    HW2 2484   1.551   2.738   3.568
  529SOL     OW 2485   1.305   5.468   4.777
  529SOL    HW1 2486   1.355   5.551   4.756
  529SOL    HW2 2487   1.219   5.467   4.726
  530SOL     OW 2488   4.013   3.560   4.093
  530SOL    HW1 2489   4.017   3.460   4.093
  530SOL    HW2 2490   3.931   3.590   4.142
  531SOL     OW 2491   0.559   2.286   2.884
  531SOL    HW1 2492   0.622   2.358   2.858
  531SOL    HW2 2493   0.554   2.217   2.812
  532SOL     OW 2494   0.896   3.131   0.176
  532SOL    HW1 2495   0.939   3.217   0.205
  532SOL    HW2 2496   0.926   3.108   0.084
  533SOL     OW 2497   4.023   0.081   4.246
  533SOL    HW1 2498   3.982   0.029   4.322
  533SOL    HW2 2499   3.978   0.055   4.161
  534SOL     OW 2500   5.210   6.530   2.492
  534SOL    HW1 2501   5.145   6.482   2.551
  534SOL    HW2 2502   5.204   6.629   2.510
  535SOL     OW 2503   6.860   3.757   4.449
  535SOL    HW1 2504   6.797   3.696   4.402
  535SOL    HW2 2505   6.810   3.839   4.479
  536SOL     OW 2506   6.252   4.749   2.752
  536SOL    HW1 2507   6.263   4.688   2.831
  536SOL    HW2 2508   6.224   4.839   2.783
  537SOL     OW 2509   2.355   6.387   4.660
  537SOL    HW1 2510   2.283   6.372   4.592
  537SOL    HW2 2511   2.430   6.438   4.618
  538SOL     OW 2512   1.346   4.801   4.247
  538SOL    HW1 2513   1.376   4.758   4.332
  538SOL    HW2 2514   1.270   4.750   4.209
  539SOL     OW 2515   2.146   5.430   1.499
  539SOL    HW1 2516   2.204   5.351   1.478
  539SOL    HW2 2517   2.121   5.477   1.415
  540SOL     OW 2518   1.622   1.644   2.637
  540SOL    HW1 2519   1.633   1.682   2.545
  540SOL    HW2 2520   1.593   1.717   2.699
  541SOL     OW 2521   5.070   5.108   3.727
  541SOL    HW1 2522   5.064   5.034   3.795
  541SOL    HW2 2523   5.068   5.196   3.773
  542SOL     OW 2524   5.932   5.504   6.953
  542SOL    HW1 2525   5.863   5.432   6.958
  542SOL    HW2 2526   5.932   5.557   0.009
  543SOL     OW 2527   0.515   2.941   4.634
  543SOL    HW1 2528   0.569   2.986   4.705
  543SOL    HW2 2529   0.419   2.937   4.661
  544SOL     OW 2530   1.873   5.218   0.315
  544SOL    HW1 2531   1.931   5.242   0.237
  544SOL    HW2 2532   1.905   5.133   0.356
  545SOL     OW 2533   3.239   1.655   1.340
  545SOL    HW1 2534   3.250   1.743   1.294
  545SOL    HW2 2535   3.329   1.614   1.354
  546SOL     OW 2536   2.472   3.251   0.820
  546SOL    HW1 2537   2.384   3.276   0.780
  546SOL    HW2 2538   2.467   3.256   0.920
  547SOL     OW 2539   3.601   1.271   0.359
  547SOL    HW1 2540   3.690   1.288   0.401
  547SOL    HW2 2541   3.586   1.173   0.350
  548SOL     OW 2542   3.502   3.581   2.777
  548SOL    HW1 2543   3.565   3.632   2.718
  548SOL    HW2 2544   3.539   3.576   2.869
  549SOL     OW 2545   5.645   3.371   0.720
  549SOL    HW1 2546   5.594   3.287   0.703
  549SOL    HW2 2547   5.604   3.420   0.797
  550SOL     OW 2548   1.213   5.864   3.981
  550SOL    HW1 2549   1.122   5.824   3.970
  550SOL    HW2 2550   1.283   5.795   3.965
  551SOL     OW 2551   1.381   0.221   1.828
  551SOL    HW1 2552   1.314   0.235   1.755
  551SOL    HW2 2553   1.462   0.175   1.791
  552SOL     OW 2554   6.127   4.626   6.953
  552SOL    HW1 2555   6.134   4.544   6.896
  552SOL    HW2 2556   6.217   4.648   6.991
  553SOL     OW 2557   2.938   6.185   3.325
  553SOL    HW1 2558   2.875   6.178   3.403
  553SOL    HW2 2559   3.023   6.229   3.355
  554SOL     OW 2560   6.589   6.486   6.869
  554SOL    HW1 2561   6.666   6.431   6.901
  554SOL    HW2 2562   6.607   6.583   6.888
  555SOL     OW 2563   2.222   4.514   4.839
  555SOL    HW1 2564   2.252   4.474   4.752
  555SOL    HW2 2565   2.157   4.588   4.821
  556SOL     OW 2566   4.373   2.083   4.002
  556SOL    HW1 2567   4.293   2.089   4.060
  556SOL    HW2 2568   4.356   2.130   3.915
  557SOL     OW 2569   0.378   5.469   0.826
  557SOL    HW1 2570   0.420   5.529   0.894
  557SOL    HW2 2571   0.386   5.512   0.736
  558SOL     OW 2572   2.937   3.648   3.915
  558SOL    HW1 2573   2.963   3.654   3.818
  558SOL    HW2 2574   2.970   3.561   3.952
  559SOL     OW 2575   0.074   5.515   0.027
  559SOL    HW1 2576   0.124   5.601   0.014
  559SOL    HW2 2577   0.010   5.503   6.980
  560SOL     OW 2578   5.484   4.729   5.433
  560SOL    HW1 2579   5.562   4.668   5.448
  560SOL    HW2 2580   5.407   4.700   5.489
  561SOL     OW 2581   0.894   1.710   1.370
  561SOL    HW1 2582   0.921   1.642   1.302
  561SOL    HW2 2583   0.822   1.768   1.332
  562SOL     OW 2584   4.650   0.428   6.272
  562SOL    HW1 2585   4.672   0.428   6.370
  562SOL    HW2 2586   4.727   0.465   6.220
  563SOL     OW 2587   2.580   0.499   3.568
  563SOL    HW1 2588   2.643   0.505   3.491
  563SOL    HW2 2589   2.626   0.455   3.645
  564SOL     OW 2590   1.470   1.991   6.628
  564SOL    HW1 2591   1.402   2.035   6.686
  564SOL    HW2 2592   1.462   1.891   6.637
  565SOL     OW 2593   2.829   3.050   5.621
  565SOL    HW1 2594   2.856   2.988   5.548
  565SOL    HW2 2595   2.764   3.117   5.585
  566SOL     OW 2596   6.574   4.995   3.212
  566SOL    HW1 2597   6.647   5.039   3.265
  566SOL    HW2 2598   6.566   5.041   3.123
  567SOL     OW 2599   2.872   3.066   1.361
  567SOL    HW1 2600   2.891   3.119   1.444
  567SOL    HW2 2601   2.837   2.976   1.386
  568SOL     OW 2602   5.309   0.713   0.355
  568SOL    HW1 2603   5.258   0.627   0.356
  568SOL    HW2 2604   5.252   0.786   0.392
  569SOL     OW 2605   1.640   2.944   6.622
  569SOL    HW1 2606   1.617   2.848   6.607
  569SOL    HW2 2607   1.558   2.995   6.645
  570SOL     OW 2608   3.849   5.781   6.894
  570SOL    HW1 2609   3.762   5.809   6.935
  570SOL    HW2 2610   3.856   5.681   6.897
  571SOL     OW 2611   3.313   6.928   2.155
  571SOL    HW1 2612   3.387   6.976   2.108
  571SOL    HW2 2613   3.225   6.971   2.133
  572SOL     OW 2614   2.752   4.686   5.646
  572SOL    HW1 2615   2.775   4.777   5.682
  572SOL    HW2 2616   2.787   4.677   5.553
  573SOL     OW 2617   5.474   1.181   5.544
  573SOL    HW1 2618   5.535   1.106   5.518
  573SOL    HW2 2619   5.469   1.247   5.469
  574SOL     OW 2620   3.839   1.845   4.444
  574SOL    HW1 2621   3.801   1.767   4.395
  574SOL    HW2 2622   3.791   1.928   4.415
  575SOL     OW 2623   4.825   4.250   6.824
  575SOL    HW1 2624   4.889   4.188   6.778
  575SOL    HW2 2625   4.789   4.316   6.757
  576SOL     OW 2626   1.185   2.307   2.990
  576SOL    HW1 2627   1.127   2.388   2.982
  576SOL    HW2 2628   1.281   2.334   2.982
  577SOL     OW 2629   1.670   1.274   2.678
  577SOL    HW1 2630   1.641   1.179   2.683
  577SOL    HW2 2631   1.660   1.316   2.769
  578SOL     OW 2632   5.618   6.150   3.999
  578SOL    HW1 2633   5.579   6.212   3.930
  578SOL    HW2 2634   5.663   6.074   3.952
  579SOL     OW 2635   1.877   3.199   3.177
  579SOL    HW1 2636   1.838   3.114   3.142
  579SOL    HW2 2637   1.819   3.276   3.149
  580SOL     OW 2638   5.619   5.483   0.139
  580SOL    HW1 2639   5.623   5.577   0.107
  580SOL    HW2 2640   5.612   5.482   0.239
  581SOL     OW 2641   2.340   3.396   1.470
  581SOL    HW1 2642   2.363   3.449   1.388
  581SOL    HW2 2643   2.416   3.335   1.492
  582SOL     OW 2644   4.236   6.533   1.499
  582SOL    HW1 2645   4.193   6.561   1.585
  582SOL    HW2 2646   4.292   6.608   1.464
  583SOL     OW 2647   3.152   5.810   5.512
  583SOL    HW1 2648   3.074   5.809   5.575
  583SOL    HW2 2649   3.125   5.851   5.425
  584SOL     OW 2650   3.094   4.402   6.430
  584SOL    HW1 2651   3.180   4.453   6.429
  584SOL    HW2 2652   3.107   4.314   6.474
  585SOL     OW 2653   5.419   2.555   6.127
  585SOL    HW1 2654   5.393   2.573   6.222
  585SOL    HW2 2655   5.505   2.602   6.106
  586SOL     OW 2656   3.835   0.947   6.030
  586SOL    HW1 2657   3.897   1.014   5.989
  586SOL    HW2 2658   3.888   0.873   6.071
  587SOL     OW 2659   4.249   1.863   5.303
  587SOL    HW1 2660   4.276   1.933   5.237
  587SOL    HW2 2661   4.224   1.779   5.254
  588SOL     OW 2662   1.362   4.636   2.530
  588SOL    HW1 2663   1.391   4.719   2.579
  588SOL    HW2 2664   1.262   4.633   2.527
  589SOL     OW 2665   3.336   4.599   1.406
  589SOL    HW1 2666   3.352   4.680   1.462
  589SOL    HW2 2667   3.382   4.610   1.317
  590SOL     OW 2668   4.791   2.843   3.424
  590SOL    HW1 2669   4.802   2.924   3.366
  590SOL    HW2 2670   4.712   2.790   3.393
  591SOL     OW 2671   3.112   5.489   3.865
  591SOL    HW1 2672   3.161   5.467   3.950
  591SOL    HW2 2673   3.177   5.516   3.795
  592SOL     OW 2674   3.735   1.124   0.969
  592SOL    HW1 2675   3.794   1.050   0.938
  592SOL    HW2 2676   3.745   1.137   1.067
  593SOL     OW 2677   4.570   2.639   4.024
  593SOL    HW1 2678   4.526   2.671   4.108
  593SOL    HW2 2679   4.562   2.539   4.018
  594SOL     OW 2680   6.592   2.025   0.100
  594SOL    HW1 2681   6.690   2.043   0.111
  594SOL    HW2 2682   6.550   2.015   0.191
  595SOL     OW 2683   5.640   7.014   3.621
  595SOL    HW1 2684   5.671   6.923   3.651
  595SOL    HW2 2685   5.706   0.023   3.557
  596SOL     OW 2686   0.865   5.020   3.182
  596SOL    HW1 2687   0.844   5.015   3.280
  596SOL    HW2 2688   0.837   4.935   3.138
  597SOL     OW 2689   2.951   0.759   6.994
  597SOL    HW1 2690   2.864   0.712   7.001
  597SOL    HW2 2691   3.005   0.719   6.920
  598SOL     OW 2692   4.240   4.825   5.577
  598SOL    HW1 2693   4.339   4.832   5.581
  598SOL    HW2 2694   4.202   4.911   5.543
  599SOL     OW 2695   2.250   6.187   2.254
  599SOL    HW1 2696   2.288   6.117   2.194
  599SOL    HW2 2697   2.227   6.268   2.201
  600SOL     OW 2698   0.167   1.662   6.552
  600SOL    HW1 2699   0.115   1.579   6.530
  600SOL    HW2 2700   0.250   1.636   6.602
  601SOL     OW 2701   2.414   0.477   4.566
  601SOL    HW1 2702   2.367   0.560   4.536
  601SOL    HW2 2703   2.356   0.398   4.547
  602SOL     OW 2704   2.129   2.493   6.122
  602SOL    HW1 2705   2.187   2.492   6.204
  602SOL    HW2 2706   2.037   2.463   6.146
  603SOL     OW 2707   2.214   2.223   4.768
  603SOL    HW1 2708   2.161   2.307   4.751
  603SOL    HW2 2709   2.311   2.243   4.764
  604SOL     OW 2710   1.564   3.064   1.729
  604SOL    HW1 2711   1.601   3.153   1.705
  604SOL    HW2 2712   1.601   2.994   1.668
  605SOL     OW 2713   6.949   6.907   1.492
  605SOL    HW1 2714   6.961   6.823   1.438
  605SOL    HW2 2715   6.934   6.984   1.430
  606SOL     OW 2716   4.175   0.120   6.706
  606SOL    HW1 2717   4.184   0.132   6.607
  606SOL    HW2 2718   4.263   0.141   6.750
  607SOL     OW 2719   6.743   6.542   6.169
  607SOL    HW1 2720   6.839   6.571   6.170
  607SOL    HW2 2721   6.685   6.621   6.188
  608SOL     OW 2722   3.240   6.044   6.226
  608SOL    HW1 2723   3.279   5.958   6.194
  608SOL    HW2 2724   3.216   6.036   6.322
  609SOL     OW 2725   3.981   3.092   3.327
  609SOL    HW1 2726   3.939   3.029   3.393
  609SOL    HW2 2727   4.008   3.176   3.374
  610SOL     OW 2728   5.338   3.796   2.160
  610SOL    HW1 2729   5.422   3.787   2.107
  610SOL    HW2 2730   5.350   3.866   2.230
  611SOL     OW 2731   3.625   6.691   0.652
  611SOL    HW1 2732   3.548   6.744   0.616
  611SOL    HW2 2733   3.679   6.655   0.575
  612SOL     OW 2734   4.209   6.772   5.909
  612SOL    HW1 2735   4.201   6.866   5.877
  612SOL    HW2 2736   4.191   6.768   6.007
  613SOL     OW 2737   3.673   6.367   5.460
  613SOL    HW1 2738   3.704   6.369   5.555
  613SOL    HW2 2739   3.698   6.453   5.415
  614SOL     OW 2740   4.786   5.179   1.415
  614SOL    HW1 2741   4.829   5.269   1.419
  614SOL    HW2 2742   4.797   5.134   1.504
  615SOL     OW 2743   6.378   2.406   1.753
  615SOL    HW1 2744   6.309   2.337   1.772
  615SOL    HW2 2745   6.353   2.492   1.799
  616SOL     OW 2746   6.834   2.147   3.755
  616SOL    HW1 2747   6.876   2.103   3.676
  616SOL    HW2 2748   6.800   2.237   3.730
  617SOL     OW 2749   6.388   4.422   6.430
  617SOL    HW1 2750   6.449   4.434   6.509
  617SOL    HW2 2751   6.356   4.511   6.398
  618SOL     OW 2752   6.452   2.519   6.678
  618SOL    HW1 2753   6.485   2.553   6.766
  618SOL    HW2 2754   6.496   2.570   6.604
  619SOL     OW 2755   4.618   1.237   0.027
  619SOL    HW1 2756   4.634   1.284   0.114
  619SOL    HW2 2757   4.522   1.246   0.001
  620SOL     OW 2758   4.404   2.884   1.462
  620SOL    HW1 2759   4.332   2.857   1.525
  620SOL    HW2 2760   4.365   2.941   1.390
  621SOL     OW 2761   3.262   6.261   6.585
  621SOL    HW1 2762   3.255   6.319   6.666
  621SOL    HW2 2763   3.257   6.318   6.503
  622SOL     OW 2764   1.814   0.706   5.053
  622SOL    HW1 2765   1.743   0.774   5.071
  622SOL    HW2 2766   1.859   0.726   4.966
  623SOL     OW 2767   0.231   5.903   5.942
  623SOL    HW1 2768   0.221   5.982   5.881
  623SOL    HW2 2769   0.325   5.898   5.975
  624SOL     OW 2770   0.065   2.276   1.056
  624SOL    HW1 2771   7.020   2.337   1.030
  624SOL    HW2 2772   0.041   2.229   1.141
  625SOL     OW 2773   1.374   1.805   2.191
  625SOL    HW1 2774   1.352   1.717   2.149
  625SOL    HW2 2775   1.402   1.870   2.121
  626SOL     OW 2776   1.689   5.828   3.186
  626SOL    HW1 2777   1.784   5.809   3.162
  626SOL    HW2 2778   1.641   5.869   3.109
  627SOL     OW 2779   5.755   6.472   0.083
  627SOL    HW1 2780   5.741   6.421   0.168
  627SOL    HW2 2781   5.839   6.440   0.039
  628SOL     OW 2782   5.748   5.331   5.631
  628SOL    HW1 2783   5.832   5.349   5.682
  628SOL    HW2 2784   5.753   5.376   5.542
  629SOL     OW 2785   0.169   0.460   6.328
  629SOL    HW1 2786   0.177   0.453   6.428
  629SOL    HW2 2787   0.233   0.528   6.294
  630SOL     OW 2788   0.632   1.548   1.066
  630SOL    HW1 2789   0.569   1.615   1.106
  630SOL    HW2 2790   0.619   1.544   0.967
  631SOL     OW 2791   4.175   0.424   5.020
  631SOL    HW1 2792   4.133   0.484   4.952
  631SOL    HW2 2793   4.112   0.350   5.043
  632SOL     OW 2794   3.490   1.547   1.317
  632SOL    HW1 2795   3.430   1.503   1.250
  632SOL    HW2 2796   3.579   1.564   1.275
  633SOL     OW 2797   3.501   3.530   6.854
  633SOL    HW1 2798   3.423   3.487   6.809
  633SOL    HW2 2799   3.491   3.522   6.953
  634SOL     OW 2800   3.406   3.082   1.793
  634SOL    HW1 2801   3.436   2.992   1.823
  634SOL    HW2 2802   3.485   3.136   1.763
  635SOL     OW 2803   4.480   5.333   1.307
  635SOL    HW1 2804   4.566   5.328   1.357
  635SOL    HW2 2805   4.410   5.375   1.364
  636SOL     OW 2806   2.420   6.479   0.158
  636SOL    HW1 2807   2.512   6.516   0.170
  636SOL    HW2 2808   2.353   6.553   0.170
  637SOL     OW 2809   0.164   3.192   3.016
  637SOL    HW1 2810   0.208   3.280   3.002
  637SOL    HW2 2811   0.067   3.199   2.992
  638SOL     OW 2812   5.354   2.036   4.198
  638SOL    HW1 2813   5.451   2.018   4.178
  638SOL    HW2 2814   5.331   2.129   4.170
  639SOL     OW 2815   5.027   3.779   3.315
  639SOL    HW1 2816   5.085   3.795   3.235
  639SOL    HW2 2817   5.083   3.784   3.397
  640SOL     OW 2818   0.540   5.461   4.219
  640SOL    HW1 2819   0.625   5.433   4.176
  640SOL    HW2 2820   0.528   5.560   4.208
  641SOL     OW 2821   6.664   5.175   4.186
  641SOL    HW1 2822   6.644   5.188   4.283
  641SOL    HW2 2823   6.579   5.160   4.136
  642SOL     OW 2824   6.684   2.938   4.473
  642SOL    HW1 2825   6.654   3.028   4.505
  642SOL    HW2 2826   6.626   2.908   4.398
  643SOL     OW 2827   6.244   5.218   5.343
  643SOL    HW1 2828   6.169   5.228   5.408
  643SOL    HW2 2829   6.262   5.306   5.298
  644SOL     OW 2830   1.514   6.537   4.185
  644SOL    HW1 2831   1.612   6.515   4.186
  644SOL    HW2 2832   1.461   6.452   4.188
  645SOL     OW 2833   3.982   0.564   4.498
  645SOL    HW1 2834   4.046   0.633   4.531
  645SOL    HW2 2835   4.013   0.473   4.527
  646SOL     OW 2836   3.491   1.017   4.687
  646SOL    HW1 2837   3.535   0.939   4.733
  646SOL    HW2 2838   3.395   1.021   4.713
  647SOL     OW 2839   5.478   1.326   5.298
  647SOL    HW1 2840   5.556   1.321   5.235
  647SOL    HW2 2841   5.406   1.383   5.257
  648SOL     OW 2842   0.876   3.712   4.034
  648SOL    HW1 2843   0.821   3.795   4.024
  648SOL    HW2 2844   0.817   3.634   4.054
  649SOL     OW 2845   2.690   4.171   0.906
  649SOL    HW1 2846   2.683   4.085   0.855
  649SOL    HW2 2847   2.607   4.184   0.960
  650SOL     OW 2848   5.759   4.211   0.315
  650SOL    HW1 2849   5.846   4.170   0.343
  650SOL    HW2 2850   5.756   4.217   0.215
  651SOL     OW 2851   0.327   6.150   6.039
  651SOL    HW1 2852   0.281   6.127   5.953
  651SOL    HW2 2853   0.370   6.068   6.076
  652SOL     OW 2854   4.680   0.329   3.309
  652SOL    HW1 2855   4.620   0.399   3.271
  652SOL    HW2 2856   4.626   0.260   3.357
  653SOL     OW 2857   0.953   5.646   6.002
  653SOL    HW1 2858   0.980   5.653   6.098
  653SOL    HW2 2859   1.013   5.581   5.954
  654SOL     OW 2860   0.351   4.458   6.180
  654SOL    HW1 2861   0.329   4.538   6.124
  654SOL    HW2 2862   0.420   4.483   6.248
  655SOL     OW 2863   0.404   5.752   1.785
  655SOL    HW1 2864   0.323   5.697   1.803
  655SOL    HW2 2865   0.430   5.742   1.688
  656SOL     OW 2866   1.899   5.977   1.215
  656SOL    HW1 2867   1.883   5.910   1.288
  656SOL    HW2 2868   1.834   6.053   1.224
  657SOL     OW 2869   2.203   3.513   1.677
  657SOL    HW1 2870   2.268   3.492   1.604
  657SOL    HW2 2871   2.242   3.487   1.765
  658SOL     OW 2872   2.868   4.045   6.625
  658SOL    HW1 2873   2.781   4.078   6.661
  658SOL    HW2 2874   2.867   3.945   6.623
  659SOL     OW 2875   1.544   5.607   5.528
  659SOL    HW1 2876   1.568   5.519   5.487
  659SOL    HW2 2877   1.594   5.618   5.614
  660SOL     OW 2878   5.548   3.737   2.506
  660SOL    HW1 2879   5.587   3.829   2.495
  660SOL    HW2 2880   5.621   3.669   2.496
  661SOL     OW 2881   4.981   4.992   3.497
  661SOL    HW1 2882   4.953   5.035   3.411
  661SOL    HW2 2883   5.032   5.057   3.552
  662SOL     OW 2884   3.669   0.718   4.754
  662SOL    HW1 2885   3.714   0.629   4.755
  662SOL    HW2 2886   3.704   0.774   4.829
  663SOL     OW 2887   1.938   3.771   6.935
  663SOL    HW1 2888   1.988   3.731   6.858
  663SOL    HW2 2889   1.961   3.722   7.019
  664SOL     OW 2890   0.040   5.135   6.164
  664SOL    HW1 2891   6.982   5.106   6.123
  664SOL    HW2 2892   0.032   5.230   6.194
  665SOL     OW 2893   4.478   4.647   1.173
  665SOL    HW1 2894   4.532   4.714   1.224
  665SOL    HW2 2895   4.429   4.692   1.099
  666SOL     OW 2896   4.885   1.944   2.906
  666SOL    HW1 2897   4.816   1.891   2.857
  666SOL    HW2 2898   4.869   1.938   3.004
  667SOL     OW 2899   6.498   3.708   4.051
  667SOL    HW1 2900   6.450   3.766   3.986
  667SOL    HW2 2901   6.475   3.737   4.144
  668SOL     OW 2902   5.111   6.004   6.782
  668SOL    HW1 2903   5.101   6.080   6.717
  668SOL    HW2 2904   5.138   5.921   6.734
  669SOL     OW 2905   3.678   0.079   4.145
  669SOL    HW1 2906   3.616   0.009   4.109
  669SOL    HW2 2907   3.767   0.037   4.165
  670SOL     OW 2908   2.604   3.000   0.715
  670SOL    HW1 2909   2.565   2.971   0.802
  670SOL    HW2 2910   2.547   3.073   0.676
  671SOL     OW 2911   2.135   6.101   1.238
  671SOL    HW1 2912   2.173   6.130   1.150
  671SOL    HW2 2913   2.054   6.044   1.222
  672SOL     OW 2914   1.231   5.253   1.938
  672SOL    HW1 2915   1.195   5.189   2.005
  672SOL    HW2 2916   1.295   5.205   1.877
  673SOL     OW 2917   0.365   0.678   1.456
  673SOL    HW1 2918   0.412   0.667   1.369
  673SOL    HW2 2919   0.371   0.593   1.509
  674SOL     OW 2920   0.261   2.895   5.242
  674SOL    HW1 2921   0.270   2.955   5.163
  674SOL    HW2 2922   0.184   2.832   5.227
  675SOL     OW 2923   0.161   0.615   4.008
  675SOL    HW1 2924   0.153   0.705   4.052
  675SOL    HW2 2925   0.105   0.614   3.925
  676SOL     OW 2926   3.893   6.199   2.784
  676SOL    HW1 2927   3.844   6.181   2.699
  676SOL    HW2 2928   3.924   6.294   2.785
  677SOL     OW 2929   6.832   1.729   0.164
  677SOL    HW1 2930   6.735   1.740   0.142
  677SOL    HW2 2931   6.841   1.679   0.250
  678SOL     OW 2932   2.069   1.517   4.931
  678SOL    HW1 2933   1.998   1.530   4.861
  678SOL    HW2 2934   2.083   1.603   4.980
  679SOL     OW 2935   4.609   1.574   4.237
  679SOL    HW1 2936   4.522   1.619   4.220
  679SOL    HW2 2937   4.623   1.502   4.170
  680SOL     OW 2938   5.987   5.217   5.491
  680SOL    HW1 2939   5.962   5.152   5.563
  680SOL    HW2 2940   5.910   5.229   5.429
  681SOL     OW 2941   5.443   5.356   2.085
  681SOL    HW1 2942   5.520   5.405   2.044
  681SOL    HW2 2943   5.444   5.370   2.184
  682SOL     OW 2944   1.370   0.795   0.593
  682SOL    HW1 2945   1.416   0.798   0.682
  682SOL    HW2 2946   1.295   0.862   0.593
  683SOL     OW 2947   3.738   3.314   0.353
  683SOL    HW1 2948   3.760   3.390   0.291
  683SOL    HW2 2949   3.821   3.279   0.394
  684SOL     OW 2950   0.156   0.988   6.975
  684SOL    HW1 2951   0.104   0.951   0.023
  684SOL    HW2 2952   0.125   0.944   6.890
  685SOL     OW 2953   4.896   0.895   4.260
  685SOL    HW1 2954   4.919   0.875   4.165
  685SOL    HW2 2955   4.906   0.993   4.276
  686SOL     OW 2956   5.424   2.541   3.762
  686SOL    HW1 2957   5.352   2.471   3.765
  686SOL    HW2 2958   5.510   2.499   3.735
  687SOL     OW 2959   0.405   2.233   4.861
  687SOL    HW1 2960   0.472   2.181   4.809
  687SOL    HW2 2961   0.345   2.171   4.911
  688SOL     OW 2962   0.756   2.488   0.349
  688SOL    HW1 2963   0.699   2.448   0.277
  688SOL    HW2 2964   0.850   2.458   0.337
  689SOL     OW 2965   6.856   3.735   6.076
  689SOL    HW1 2966   6.955   3.744   6.088
  689SOL    HW2 2967   6.820   3.816   6.030
  690SOL     OW 2968   0.305   4.113   3.124
  690SOL    HW1 2969   0.394   4.072   3.101
  690SOL    HW2 2970   0.288   4.191   3.063
  691SOL     OW 2971   2.572   0.019   6.555
  691SOL    HW1 2972   2.498   0.016   6.489
  691SOL    HW2 2973   2.582   0.113   6.589
  692SOL     OW 2974   3.128   6.467   3.620
  692SOL    HW1 2975   3.123   6.563   3.595
  692SOL    HW2 2976   3.222   6.444   3.647
  693SOL     OW 2977   6.220   0.983   3.298
  693SOL    HW1 2978   6.126   0.995   3.330
  693SOL    HW2 2979   6.267   1.071   3.297
  694SOL     OW 2980   4.131   5.927   2.307
  694SOL    HW1 2981   4.095   5.922   2.214
  694SOL    HW2 2982   4.192   6.006   2.316
  695SOL     OW 2983   3.750   6.155   4.377
  695SOL    HW1 2984   3.829   6.121   4.326
  695SOL    HW2 2985   3.738   6.253   4.358
  696SOL     OW 2986   3.912   4.992   2.297
  696SOL    HW1 2987   3.821   4.959   2.271
  696SOL    HW2 2988   3.968   5.002   2.215
  697SOL     OW 2989   2.127   3.482   3.454
  697SOL    HW1 2990   2.038   3.512   3.489
  697SOL    HW2 2991   2.136   3.509   3.358
  698SOL     OW 2992   5.712   6.323   0.290
  698SOL    HW1 2993   5.737   6.240   0.340
  698SOL    HW2 2994   5.615   6.319   0.266
  699SOL     OW 2995   2.259   3.131   6.278
  699SOL    HW1 2996   2.265   3.195   6.202
  699SOL    HW2 2997   2.170   3.140   6.322
  700SOL     OW 2998   2.429   1.345   3.035
  700SOL    HW1 2999   2.373   1.410   3.087
  700SOL    HW2 3000   2.370   1.287   2.979
  701SOL     OW 3001   5.981   3.775   5.354
  701SOL    HW1 3002   6.077   3.763   5.332
  701SOL    HW2 3003   5.947   3.695   5.404
  702SOL     OW 3004   0.890   5.918   5.280
  702SOL    HW1 3005   0.882   6.014   5.252
  702SOL    HW2 3006   0.976   5.904   5.329
  703SOL     OW 3007   3.640   4.095   6.301
  703SOL    HW1 3008   3.612   4.062   6.211
  703SOL    HW2 3009   3.588   4.046   6.372
  704SOL     OW 3010   1.716   1.707   0.065
  704SOL    HW1 3011   1.658   1.661   7.027
  704SOL    HW2 3012   1.812   1.698   0.039
  705SOL     OW 3013   6.159   5.893   2.521
  705SOL    HW1 3014   6.201   5.889   2.430
  705SOL    HW2 3015   6.190   5.814   2.575
  706SOL     OW 3016   4.392   2.372   4.283
  706SOL    HW1 3017   4.457   2.305   4.246
  706SOL    HW2 3018   4.442   2.452   4.316
  707SOL     OW 3019   4.889   6.534   2.284
  707SOL    HW1 3020   4.891   6.462   2.215
  707SOL    HW2 3021   4.795   6.566   2.297
  708SOL     OW 3022   4.593   6.926   1.380
  708SOL    HW1 3023   4.646   7.000   1.339
  708SOL    HW2 3024   4.655   6.852   1.407
  709SOL     OW 3025   1.050   5.520   1.455
  709SOL    HW1 3026   1.145   5.521   1.424
  709SOL    HW2 3027   1.008   5.432   1.431
  710SOL     OW 3028   4.038   3.244   2.831
  710SOL    HW1 3029   4.061   3.213   2.922
  710SOL    HW2 3030   3.966   3.185   2.793
  711SOL     OW 3031   6.680   2.826   5.314
  711SOL    HW1 3032   6.720   2.822   5.405
  711SOL    HW2 3033   6.733   2.768   5.252
  712SOL     OW 3034   4.203   3.320   1.446
  712SOL    HW1 3035   4.116   3.271   1.452
  712SOL    HW2 3036   4.228   3.331   1.350
  713SOL     OW 3037   4.249   2.278   6.090
  713SOL    HW1 3038   4.258   2.376   6.072
  713SOL    HW2 3039   4.340   2.237   6.097
  714SOL     OW 3040   6.364   4.611   4.161
  714SOL    HW1 3041   6.362   4.526   4.109
  714SOL    HW2 3042   6.275   4.655   4.158
  715SOL     OW 3043   5.655   6.034   0.595
  715SOL    HW1 3044   5.628   6.058   0.688
  715SOL    HW2 3045   5.579   5.989   0.549
  716SOL     OW 3046   0.693   0.524   1.655
  716SOL    HW1 3047   0.674   0.540   1.752
  716SOL    HW2 3048   0.611   0.491   1.610
  717SOL     OW 3049   6.231   4.400   5.782
  717SOL    HW1 3050   6.137   4.364   5.776
  717SOL    HW2 3051   6.295   4.323   5.786
  718SOL     OW 3052   5.228   2.607   5.951
  718SOL    HW1 3053   5.273   2.606   5.862
  718SOL    HW2 3054   5.289   2.568   6.020
  719SOL     OW 3055   6.150   0.690   1.653
  719SOL    HW1 3056   6.141   0.789   1.650
  719SOL    HW2 3057   6.115   0.657   1.741
  720SOL     OW 3058   3.586   0.767   6.162
  720SOL    HW1 3059   3.611   0.687   6.109
  720SOL    HW2 3060   3.487   0.781   6.157
  721SOL     OW 3061   2.624   1.933   3.996
  721SOL    HW1 3062   2.569   1.999   4.048
  721SOL    HW2 3063   2.712   1.922   4.042
  722SOL     OW 3064   2.652   0.526   5.477
  722SOL    HW1 3065   2.657   0.599   5.410
  722SOL    HW2 3066   2.583   0.548   5.546
  723SOL     OW 3067   1.863   4.319   2.799
  723SOL    HW1 3068   1.800   4.333   2.875
  723SOL    HW2 3069   1.945   4.375   2.812
  724SOL     OW 3070   1.060   2.766   4.205
  724SOL    HW1 3071   1.004   2.738   4.127
  724SOL    HW2 3072   1.098   2.857   4.188
  725SOL     OW 3073   2.627   5.783   0.575
  725SOL    HW1 3074   2.662   5.690   0.568
  725SOL    HW2 3075   2.562   5.788   0.651
  726SOL     OW 3076   3.803   5.125   0.928
  726SOL    HW1 3077   3.778   5.199   0.990
  726SOL    HW2 3078   3.852   5.054   0.979
  727SOL     OW 3079   5.484   4.394   5.407
  727SOL    HW1 3080   5.507   4.325   5.475
  727SOL    HW2 3081   5.565   4.420   5.356
  728SOL     OW 3082   6.491   2.710   5.134
  728SOL    HW1 3083   6.554   2.744   5.204
  728SOL    HW2 3084   6.455   2.788   5.082
  729SOL     OW 3085   0.960   1.964   0.922
  729SOL    HW1 3086   0.891   1.977   0.993
  729SOL    HW2 3087   1.012   2.048   0.909
  730SOL     OW 3088   5.860   0.742   4.133
  730SOL    HW1 3089   5.855   0.655   4.083
  730SOL    HW2 3090   5.939   0.740   4.194
  731SOL     OW 3091   5.140   4.276   5.993
  731SOL    HW1 3092   5.199   4.296   5.914
  731SOL    HW2 3093   5.113   4.179   5.990
  732SOL     OW 3094   6.822   2.269   1.541
  732SOL    HW1 3095   6.882   2.226   1.608
  732SOL    HW2 3096   6.866   2.351   1.504
  733SOL     OW 3097   5.299   5.919   5.141
  733SOL    HW1 3098   5.323   6.013   5.118
  733SOL    HW2 3099   5.312   5.904   5.239
  734SOL     OW 3100   0.145   4.988   2.702
  734SOL    HW1 3101   0.128   4.892   2.726
  734SOL    HW2 3102   0.214   5.026   2.763
  735SOL     OW 3103   3.984   2.332   0.481
  735SOL    HW1 3104   3.941   2.402   0.538
  735SOL    HW2 3105   4.083   2.346   0.480
  736SOL     OW 3106   7.025   1.180   3.702
  736SOL    HW1 3107   7.018   1.097   3.757
  736SOL    HW2 3108   0.026   1.156   3.610
  737SOL     OW 3109   4.931   2.005   5.249
  737SOL    HW1 3110   4.911   2.087   5.195
  737SOL    HW2 3111   4.872   1.930   5.218
  738SOL     OW 3112   2.071   4.551   1.275
  738SOL    HW1 3113   2.156   4.514   1.237
  738SOL    HW2 3114   2.025   4.481   1.329
  739SOL     OW 3115   4.288   0.077   4.156
  739SOL    HW1 3116   4.265   0.173   4.143
  739SOL    HW2 3117   4.207   0.027   4.185
  740SOL     OW 3118   6.093   0.549   1.401
  740SOL    HW1 3119   6.088   0.607   1.320
  740SOL    HW2 3120   6.140   0.597   1.474
  741SOL     OW 3121   2.064   6.367   3.406
  741SOL    HW1 3122   2.115   6.440   3.451
  741SOL    HW2 3123   2.083   6.368   3.308
  742SOL     OW 3124   3.030   6.889   2.894
  742SOL    HW1 3125   2.992   6.918   2.806
  742SOL    HW2 3126   3.077   6.801   2.882
  743SOL     OW 3127   0.089   4.208   3.498
  743SOL    HW1 3128   0.069   4.288   3.554
  743SOL    HW2 3129   0.059   4.225   3.404
  744SOL     OW 3130   6.220   0.337   6.850
  744SOL    HW1 3131   6.209   0.285   6.934
  744SOL    HW2 3132   6.152   0.307   6.783
  745SOL     OW 3133   1.239   4.927   4.716
  745SOL    HW1 3134   1.242   5.021   4.682
  745SOL    HW2 3135   1.147   4.907   4.749
  746SOL     OW 3136   6.965   4.287   6.407
  746SOL    HW1 3137   7.024   4.207   6.419
  746SOL    HW2 3138   6.970   4.345   6.489
  747SOL     OW 3139   3.283   6.427   4.387
  747SOL    HW1 3140   3.304   6.344   4.335
  747SOL    HW2 3141   3.296   6.507   4.328
  748SOL     OW 3142   3.690   5.202   2.113
  748SOL    HW1 3143   3.690   5.214   2.013
  748SOL    HW2 3144   3.683   5.105   2.135
  749SOL     OW 3145   5.950   4.545   4.841
  749SOL    HW1 3146   6.047   4.548   4.866
  749SOL    HW2 3147   5.938   4.483   4.763
  750SOL     OW 3148   1.711   1.708   1.022
  750SOL    HW1 3149   1.684   1.805   1.014
  750SOL    HW2 3150   1.638   1.657   1.067
  751SOL     OW 3151   4.001   2.362   0.029
  751SOL    HW1 3152   4.068   2.292   0.055
  751SOL    HW2 3153   4.006   2.438   0.094
  752SOL     OW 3154   3.077   0.764   2.045
  752SOL    HW1 3155   3.113   0.778   2.137
  752SOL    HW2 3156   3.060   0.853   2.002
  753SOL     OW 3157   2.265   3.143   5.294
  753SOL    HW1 3158   2.303   3.231   5.319
  753SOL    HW2 3159   2.334   3.088   5.248
  754SOL     OW 3160   5.257   2.760   5.470
  754SOL    HW1 3161   5.234   2.718   5.382
  754SOL    HW2 3162   5.172   2.788   5.516
  755SOL     OW 3163   1.525   4.544   5.742
  755SOL    HW1 3164   1.616   4.565   5.707
  755SOL    HW2 3165   1.465   4.622   5.728
  756SOL     OW 3166   3.042   7.024   6.464
  756SOL    HW1 3167   3.052   0.092   6.440
  756SOL    HW2 3168   2.954   7.010   6.508
  757SOL     OW 3169   0.612   0.931   3.688
  757SOL    HW1 3170   0.549   0.970   3.620
  757SOL    HW2 3171   0.625   0.833   3.668
  758SOL     OW 3172   3.507   0.017   2.018
  758SOL    HW1 3173   3.529   0.114   2.010
  758SOL    HW2 3174   3.467   7.014   1.932
  759SOL     OW 3175   0.336   1.466   1.331
  759SOL    HW1 3176   0.245   1.426   1.327
  759SOL    HW2 3177   0.341   1.533   1.405
  760SOL     OW 3178   5.498   0.016   5.417
  760SOL    HW1 3179   5.547   6.961   5.395
  760SOL    HW2 3180   5.540   0.059   5.496
  761SOL     OW 3181   5.255   3.596   5.842
  761SOL    HW1 3182   5.289   3.666   5.904
  761SOL    HW2 3183   5.224   3.517   5.895
  762SOL     OW 3184   2.354   0.466   5.008
  762SOL    HW1 3185   2.419   0.520   4.955
  762SOL    HW2 3186   2.281   0.433   4.949
  763SOL     OW 3187   4.242   5.380   6.660
  763SOL    HW1 3188   4.182   5.415   6.588
  763SOL    HW2 3189   4.208   5.407   6.749
  764SOL     OW 3190   5.054   1.346   5.037
  764SOL    HW1 3191   5.060   1.284   5.114
  764SOL    HW2 3192   4.988   1.311   4.971
  765SOL     OW 3193   1.674   6.194   1.603
  765SOL    HW1 3194   1.764   6.182   1.646
  765SOL    HW2 3195   1.610   6.127   1.640
  766SOL     OW 3196   2.491   3.056   6.125
  766SOL    HW1 3197   2.586   3.082   6.143
  766SOL    HW2 3198   2.434   3.090   6.200
  767SOL     OW 3199   5.796   5.294   1.693
  767SOL    HW1 3200   5.724   5.362   1.706
  767SOL    HW2 3201   5.756   5.204   1.678
  768SOL     OW 3202   2.306   7.026   2.471
  768SOL    HW1 3203   2.240   6.968   2.519
  768SOL    HW2 3204   2.325   6.986   2.381
  769SOL     OW 3205   2.986   0.912   5.199
  769SOL    HW1 3206   2.950   1.000   5.167
  769SOL    HW2 3207   2.976   0.906   5.298
  770SOL     OW 3208   1.884   4.678   2.593
  770SOL    HW1 3209   1.908   4.754   2.532
  770SOL    HW2 3210   1.811   4.624   2.553
  771SOL     OW 3211   1.515   5.371   2.581
  771SOL    HW1 3212   1.502   5.417   2.493
  771SOL    HW2 3213   1.533   5.439   2.652
  772SOL     OW 3214   5.808   5.702   0.347
  772SOL    HW1 3215   5.844   5.685   0.438
  772SOL    HW2 3216   5.877   5.679   0.279
  773SOL     OW 3217   0.122   3.759   4.574
  773SOL    HW1 3218   0.065   3.693   4.526
  773SOL    HW2 3219   0.213   3.720   4.588
  774SOL     OW 3220   1.501   1.579   1.084
  774SOL    HW1 3221   1.418   1.619   1.121
  774SOL    HW2 3222   1.478   1.498   1.029
  775SOL     OW 3223   0.770   2.363   3.503
  775SOL    HW1 3224   0.742   2.403   3.590
  775SOL    HW2 3225   0.711   2.397   3.430
  776SOL     OW 3226   1.725   6.607   6.226
  776SOL    HW1 3227   1.645   6.651   6.269
  776SOL    HW2 3228   1.791   6.677   6.199
  777SOL     OW 3229   2.375   4.802   1.915
  777SOL    HW1 3230   2.464   4.770   1.948
  777SOL    HW2 3231   2.343   4.742   1.842
  778SOL     OW 3232   2.413   1.435   1.980
  778SOL    HW1 3233   2.414   1.486   1.894
  778SOL    HW2 3234   2.460   1.488   2.051
  779SOL     OW 3235   6.353   2.750   2.088
  779SOL    HW1 3236   6.343   2.740   1.989
  779SOL    HW2 3237   6.263   2.758   2.130
  780SOL     OW 3238   0.321   3.869   4.225
  780SOL    HW1 3239   0.384   3.921   4.283
  780SOL    HW2 3240   0.291   3.926   4.149
  781SOL     OW 3241   5.798   0.038   0.060
  781SOL    HW1 3242   5.888   0.078   0.047
  781SOL    HW2 3243   5.787   6.988   7.028
  782SOL     OW 3244   1.596   4.201   6.541
  782SOL    HW1 3245   1.669   4.243   6.595
  782SOL    HW2 3246   1.593   4.243   6.451
  783SOL     OW 3247   4.824   4.641   1.395
  783SOL    HW1 3248   4.893   4.660   1.465
  783SOL    HW2 3249   4.773   4.725   1.375
  784SOL     OW 3250   4.845   5.076   0.665
  784SOL    HW1 3251   4.896   5.055   0.582
  784SOL    HW2 3252   4.775   5.145   0.645
  785SOL     OW 3253   0.333   2.604   3.551
  785SOL    HW1 3254   0.409   2.576   3.610
  785SOL    HW2 3255   0.350   2.574   3.458
  786SOL     OW 3256   1.537   1.110   2.339
  786SOL    HW1 3257   1.532   1.208   2.356
  786SOL    HW2 3258   1.449   1.067   2.361
  787SOL     OW 3259   2.422   0.719   6.893
  787SOL    HW1 3260   2.347   0.700   6.829
  787SOL    HW2 3261   2.401   0.802   6.945
  788SOL     OW 3262   3.371   2.937   5.974
  788SOL    HW1 3263   3.327   3.025   5.956
  788SOL    HW2 3264   3.328   2.866   5.918
  789SOL     OW 3265   5.480   3.879   0.556
  789SOL    HW1 3266   5.533   3.963   0.564
  789SOL    HW2 3267   5.542   3.801   0.544
  790SOL     OW 3268   2.373   1.170   3.670
  790SOL    HW1 3269   2.327   1.158   3.758
  790SOL    HW2 3270   2.422   1.257   3.670
  791SOL     OW 3271   2.428   5.825   3.720
  791SOL    HW1 3272   2.406   5.814   3.623
  791SOL    HW2 3273   2.470   5.741   3.754
  792SOL     OW 3274   1.117   0.296   0.882
  792SOL    HW1 3275   1.058   0.352   0.941
  792SOL    HW2 3276   1.061   0.228   0.835
  793SOL     OW 3277   4.643   4.664   3.625
  793SOL    HW1 3278   4.724   4.615   3.593
  793SOL    HW2 3279   4.641   4.663   3.725
  794SOL     OW 3280   3.851   3.539   5.875
  794SOL    HW1 3281   3.819   3.469   5.939
  794SOL    HW2 3282   3.944   3.518   5.846
  795SOL     OW 3283   2.836   6.678   4.202
  795SOL    HW1 3284   2.857   6.664   4.105
  795SOL    HW2 3285   2.922   6.678   4.254
  796SOL     OW 3286   6.707   1.912   6.187
  796SOL    HW1 3287   6.716   1.933   6.090
  796SOL    HW2 3288   6.799   1.900   6.227
  797SOL     OW 3289   5.582   2.721   0.424
  797SOL    HW1 3290   5.552   2.709   0.518
  797SOL    HW2 3291   5.678   2.751   0.423
  798SOL     OW 3292   3.830   7.001   2.409
  798SOL    HW1 3293   3.906   6.971   2.350
  798SOL    HW2 3294   3.833   6.950   2.495
  799SOL     OW 3295   0.308   6.657   5.447
  799SOL    HW1 3296   0.213   6.667   5.474
  799SOL    HW2 3297   0.313   6.599   5.365
  800SOL     OW 3298   4.954   2.396   2.628
  800SOL    HW1 3299   4.998   2.364   2.712
  800SOL    HW2 3300   4.959   2.324   2.559
  801SOL     OW 3301   1.488   3.751   4.183
  801SOL    HW1 3302   1.402   3.800   4.197
  801SOL    HW2 3303   1.557   3.814   4.146
  802SOL     OW 3304   3.857   2.508   0.892
  802SOL    HW1 3305   3.868   2.455   0.808
  802SOL    HW2 3306   3.771   2.558   0.889
  803SOL     OW 3307   0.289   6.357   5.693
  803SOL    HW1 3308   0.346   6.404   5.625
  803SOL    HW2 3309   0.202   6.406   5.704
  804SOL     OW 3310   5.718   5.911   6.361
  804SOL    HW1 3311   5.650   5.841   6.340
  804SOL    HW2 3312   5.776   5.880   6.436
  805SOL     OW 3313   2.995   0.005   4.700
  805SOL    HW1 3314   3.046   7.004   4.781
  805SOL    HW2 3315   3.005   6.965   4.628
  806SOL     OW 3316   4.848   1.363   4.478
  806SOL    HW1 3317   4.909   1.325   4.548
  806SOL    HW2 3318   4.901   1.420   4.415
  807SOL     OW 3319   1.682   1.114   5.042
  807SOL    HW1 3320   1.644   1.185   5.101
  807SOL    HW2 3321   1.771   1.085   5.077
  808SOL     OW 3322   4.374   3.501   6.143
  808SOL    HW1 3323   4.403   3.584   6.189
  808SOL    HW2 3324   4.281   3.512   6.108
  809SOL     OW 3325   0.123   5.079   0.915
  809SOL    HW1 3326   0.110   5.172   0.951
  809SOL    HW2 3327   0.051   5.059   0.849
  810SOL     OW 3328   3.734   3.495   1.023
  810SOL    HW1 3329   3.640   3.525   1.041
  810SOL    HW2 3330   3.748   3.486   0.925
  811SOL     OW 3331   4.564   5.117   5.028
  811SOL    HW1 3332   4.484   5.072   5.068
  811SOL    HW2 3333   4.623   5.048   4.986
  812SOL     OW 3334   0.700   1.224   2.057
  812SOL    HW1 3335   0.638   1.162   2.008
  812SOL    HW2 3336   0.767   1.262   1.993
  813SOL     OW 3337   3.481   6.747   4.577
  813SOL    HW1 3338   3.491   6.651   4.551
  813SOL    HW2 3339   3.406   6.756   4.642
  814SOL     OW 3340   6.294   6.099   2.177
  814SOL    HW1 3341   6.384   6.098   2.219
  814SOL    HW2 3342   6.243   6.018   2.207
  815SOL     OW 3343   0.518   3.875   3.394
  815SOL    HW1 3344   0.484   3.787   3.430
  815SOL    HW2 3345   0.452   3.947   3.415
  816SOL     OW 3346   6.114   6.463   0.270
  816SOL    HW1 3347   6.083   6.465   0.175
  816SOL    HW2 3348   6.058   6.525   0.324
  817SOL     OW 3349   2.242   4.282   0.858
  817SOL    HW1 3350   2.165   4.267   0.795
  817SOL    HW2 3351   2.326   4.250   0.815
  818SOL     OW 3352   6.693   2.725   2.492
  818SOL    HW1 3353   6.668   2.804   2.548
  818SOL    HW2 3354   6.643   2.727   2.406
  819SOL     OW 3355   5.407   2.387   2.626
  819SOL    HW1 3356   5.451   2.477   2.629
  819SOL    HW2 3357   5.473   2.319   2.594
  820SOL     OW 3358   3.047   2.576   5.385
  820SOL    HW1 3359   3.124   2.593   5.324
  820SOL    HW2 3360   2.985   2.510   5.343
  821SOL     OW 3361   1.192   4.291   1.282
  821SOL    HW1 3362   1.284   4.291   1.242
  821SOL    HW2 3363   1.194   4.239   1.368
  822SOL     OW 3364   1.208   4.679   3.997
  822SOL    HW1 3365   1.157   4.622   3.934
  822SOL    HW2 3366   1.297   4.702   3.957
  823SOL     OW 3367   5.175   3.833   6.321
  823SOL    HW1 3368   5.215   3.918   6.288
  823SOL    HW2 3369   5.075   3.839   6.318
  824SOL     OW 3370   5.504   1.005   6.252
  824SOL    HW1 3371   5.454   1.083   6.214
  824SOL    HW2 3372   5.494   1.004   6.351
  825SOL     OW 3373   0.332   4.579   1.354
  825SOL    HW1 3374   0.379   4.492   1.339
  825SOL    HW2 3375   0.277   4.601   1.274
  826SOL     OW 3376   5.055   3.072   5.791
  826SOL    HW1 3377   5.125   3.114   5.733
  826SOL    HW2 3378   5.086   3.072   5.886
  827SOL     OW 3379   2.866   4.672   5.403
  827SOL    HW1 3380   2.898   4.760   5.367
  827SOL    HW2 3381   2.870   4.604   5.330
  828SOL     OW 3382   5.488   6.670   6.683
  828SOL    HW1 3383   5.579   6.644   6.716
  828SOL    HW2 3384   5.456   6.602   6.617
  829SOL     OW 3385   3.711   4.063   3.024
  829SOL    HW1 3386   3.692   4.093   3.118
  829SOL    HW2 3387   3.626   4.063   2.971
  830SOL     OW 3388   4.957   5.238   6.667
  830SOL    HW1 3389   4.916   5.185   6.741
  830SOL    HW2 3390   4.990   5.176   6.596
  831SOL     OW 3391   5.946   0.467   0.191
  831SOL    HW1 3392   5.861   0.518   0.207
  831SOL    HW2 3393   6.024   0.530   0.193
  832SOL     OW 3394   3.353   0.495   1.822
  832SOL    HW1 3395   3.378   0.518   1.728
  832SOL    HW2 3396   3.436   0.493   1.878
  833SOL     OW 3397   1.047   3.768   5.693
  833SOL    HW1 3398   1.140   3.731   5.700
  833SOL    HW2 3399   1.030   3.793   5.597
  834SOL     OW 3400   4.232   3.674   0.604
  834SOL    HW1 3401   4.297   3.610   0.565
  834SOL    HW2 3402   4.147   3.672   0.551
  835SOL     OW 3403   3.621   0.294   5.549
  835SOL    HW1 3404   3.700   0.318   5.606
  835SOL    HW2 3405   3.652   0.243   5.469
  836SOL     OW 3406   3.893   6.135   6.138
  836SOL    HW1 3407   3.988   6.110   6.121
  836SOL    HW2 3408   3.838   6.116   6.057
  837SOL     OW 3409   5.607   0.505   0.720
  837SOL    HW1 3410   5.586   0.481   0.815
  837SOL    HW2 3411   5.663   0.587   0.718
  838SOL     OW 3412   2.471   0.628   4.838
  838SOL    HW1 3413   2.513   0.575   4.764
  838SOL    HW2 3414   2.484   0.726   4.820
  839SOL     OW 3415   1.096   2.758   2.204
  839SOL    HW1 3416   1.193   2.732   2.203
  839SOL    HW2 3417   1.040   2.676   2.214
  840SOL     OW 3418   6.562   5.860   0.291
  840SOL    HW1 3419   6.535   5.910   0.208
  840SOL    HW2 3420   6.611   5.777   0.265
  841SOL     OW 3421   4.112   4.770   6.941
  841SOL    HW1 3422   4.086   4.680   6.906
  841SOL    HW2 3423   4.175   4.758   7.018
  842SOL     OW 3424   4.380   0.228   5.107
  842SOL    HW1 3425   4.369   0.179   5.193
  842SOL    HW2 3426   4.329   0.314   5.112
  843SOL     OW 3427   0.592   1.119   1.081
  843SOL    HW1 3428   0.599   1.068   1.167
  843SOL    HW2 3429   0.579   1.216   1.101
  844SOL     OW 3430   5.641   0.504   0.240
  844SOL    HW1 3431   5.552   0.465   0.263
  844SOL    HW2 3432   5.682   0.544   0.322
  845SOL     OW 3433   5.255   4.871   4.813
  845SOL    HW1 3434   5.311   4.852   4.894
  845SOL    HW2 3435   5.196   4.792   4.794
  846SOL     OW 3436   1.947   1.901   6.434
  846SOL    HW1 3437   1.966   1.913   6.337
  846SOL    HW2 3438   1.868   1.957   6.460
  847SOL     OW 3439   1.520   3.007   1.262
  847SOL    HW1 3440   1.443   3.063   1.295
  847SOL    HW2 3441   1.503   2.911   1.284
  848SOL     OW 3442   6.128   0.445   5.765
  848SOL    HW1 3443   6.186   0.526   5.766
  848SOL    HW2 3444   6.182   0.365   5.739
  849SOL     OW 3445   0.125   3.862   6.127
  849SOL    HW1 3446   0.089   3.955   6.139
  849SOL    HW2 3447   0.205   3.849   6.186
  850SOL     OW 3448   5.185   0.249   3.123
  850SOL    HW1 3449   5.233   0.212   3.044
  850SOL    HW2 3450   5.100   0.293   3.094
  851SOL     OW 3451   6.966   1.668   2.423
  851SOL    HW1 3452   0.037   1.680   2.426
  851SOL    HW2 3453   6.921   1.755   2.438
  852SOL     OW 3454   1.466   2.988   6.884
  852SOL    HW1 3455   1.450   2.923   6.959
  852SOL    HW2 3456   1.504   3.073   6.921
  853SOL     OW 3457   1.611   4.342   1.559
  853SOL    HW1 3458   1.668   4.270   1.597
  853SOL    HW2 3459   1.668   4.422   1.538
  854SOL     OW 3460   4.977   6.009   1.225
  854SOL    HW1 3461   5.058   6.040   1.274
  854SOL    HW2 3462   4.910   6.083   1.221
  855SOL     OW 3463   0.073   6.528   1.578
  855SOL    HW1 3464   0.009   6.544   1.654
  855SOL    HW2 3465   0.026   6.546   1.491
  856SOL     OW 3466   0.975   2.198   5.176
  856SOL    HW1 3467   0.939   2.260   5.107
  856SOL    HW2 3468   1.073   2.185   5.161
  857SOL     OW 3469   6.025   4.189   1.756
  857SOL    HW1 3470   6.063   4.250   1.687
  857SOL    HW2 3471   6.046   4.225   1.847
  858SOL     OW 3472   2.668   3.672   0.851
  858SOL    HW1 3473   2.676   3.749   0.788
  858SOL    HW2 3474   2.668   3.586   0.800
  859SOL     OW 3475   6.009   5.868   5.148
  859SOL    HW1 3476   5.976   5.781   5.111
  859SOL    HW2 3477   5.934   5.935   5.145
  860SOL     OW 3478   5.505   3.494   0.941
  860SOL    HW1 3479   5.548   3.572   0.987
  860SOL    HW2 3480   5.426   3.525   0.888
  861SOL     OW 3481   2.452   5.739   3.442
  861SOL    HW1 3482   2.543   5.760   3.404
  861SOL    HW2 3483   2.456   5.651   3.490
  862SOL     OW 3484   1.065   4.031   5.004
  862SOL    HW1 3485   0.971   4.005   5.026
  862SOL    HW2 3486   1.113   3.952   4.964
  863SOL     OW 3487   6.180   1.089   0.469
  863SOL    HW1 3488   6.103   1.137   0.511
  863SOL    HW2 3489   6.229   1.151   0.408
  864SOL     OW 3490   4.104   5.371   3.800
  864SOL    HW1 3491   4.073   5.436   3.869
  864SOL    HW2 3492   4.026   5.339   3.747
  865SOL     OW 3493   0.684   6.191   6.107
  865SOL    HW1 3494   0.636   6.256   6.049
  865SOL    HW2 3495   0.781   6.214   6.110
  866SOL     OW 3496   1.646   1.947   1.648
  866SOL    HW1 3497   1.721   2.013   1.641
  866SOL    HW2 3498   1.639   1.914   1.742
  867SOL     OW 3499   4.185   3.660   0.869
  867SOL    HW1 3500   4.268   3.626   0.912
  867SOL    HW2 3501   4.200   3.671   0.771
  868SOL     OW 3502   6.297   1.194   1.098
  868SOL    HW1 3503   6.237   1.179   1.020
  868SOL    HW2 3504   6.325   1.106   1.136
  869SOL     OW 3505   0.174   4.657   3.036
  869SOL    HW1 3506   0.272   4.673   3.024
  869SOL    HW2 3507   0.159   4.593   3.112
  870SOL     OW 3508   4.797   3.238   0.748
  870SOL    HW1 3509   4.805   3.336   0.762
  870SOL    HW2 3510   4.832   3.190   0.828
  871SOL     OW 3511   4.474   2.433   3.255
  871SOL    HW1 3512   4.520   2.521   3.265
  871SOL    HW2 3513   4.534   2.369   3.208
  872SOL     OW 3514   5.415   3.316   3.573
  872SOL    HW1 3515   5.330   3.366   3.558
  872SOL    HW2 3516   5.492   3.371   3.540
  873SOL     OW 3517   5.599   0.035   4.190
  873SOL    HW1 3518   5.561   0.085   4.268
  873SOL    HW2 3519   5.626   0.100   4.118
  874SOL     OW 3520   0.806   4.361   5.976
  874SOL    HW1 3521   0.846   4.307   6.050
  874SOL    HW2 3522   0.732   4.309   5.933
  875SOL     OW 3523   3.989   3.461   0.700
  875SOL    HW1 3524   3.894   3.443   0.727
  875SOL    HW2 3525   4.036   3.510   0.774
  876SOL     OW 3526   0.602   4.665   2.230
  876SOL    HW1 3527   0.614   4.589   2.166
  876SOL    HW2 3528   0.529   4.643   2.294
  877SOL     OW 3529   3.921   4.219   6.114
  877SOL    HW1 3530   3.909   4.179   6.023
  877SOL    HW2 3531   3.875   4.308   6.117
  878SOL     OW 3532   3.855   6.235   5.263
  878SOL    HW1 3533   3.888   6.295   5.190
  878SOL    HW2 3534   3.792   6.285   5.322
  879SOL     OW 3535   3.633   2.635   0.932
  879SOL    HW1 3536   3.647   2.728   0.965
  879SOL    HW2 3537   3.535   2.617   0.922
  880SOL     OW 3538   3.328   4.037   5.050
  880SOL    HW1 3539   3.371   4.099   5.115
  880SOL    HW2 3540   3.395   4.005   4.984
  881SOL     OW 3541   4.868   4.038   4.673
  881SOL    HW1 3542   4.869   3.967   4.744
  881SOL    HW2 3543   4.950   4.030   4.616
  882SOL     OW 3544   0.832   2.321   4.308
  882SOL    HW1 3545   0.874   2.388   4.370
  882SOL    HW2 3546   0.894   2.243   4.297
  883SOL     OW 3547   4.362   6.054   6.559
  883SOL    HW1 3548   4.402   5.970   6.522
  883SOL    HW2 3549   4.263   6.042   6.572
  884SOL     OW 3550   7.028   4.138   0.250
  884SOL    HW1 3551   7.023   4.108   0.345
  884SOL    HW2 3552   7.005   4.062   0.189
  885SOL     OW 3553   4.794   5.935   6.386
  885SOL    HW1 3554   4.821   5.927   6.290
  885SOL    HW2 3555   4.740   5.855   6.412
  886SOL     OW 3556   4.209   1.115   1.459
  886SOL    HW1 3557   4.197   1.036   1.398
  886SOL    HW2 3558   4.305   1.145   1.455
  887SOL     OW 3559   3.382   6.683   4.262
  887SOL    HW1 3560   3.444   6.618   4.306
  887SOL    HW2 3561   3.430   6.768   4.243
  888SOL     OW 3562   6.286   5.714   2.675
  888SOL    HW1 3563   6.247   5.750   2.760
  888SOL    HW2 3564   6.382   5.739   2.669
  889SOL     OW 3565   1.496   6.420   6.080
  889SOL    HW1 3566   1.461   6.416   6.174
  889SOL    HW2 3567   1.428   6.466   6.021
  890SOL     OW 3568   2.216   5.370   2.279
  890SOL    HW1 3569   2.130   5.389   2.231
  890SOL    HW2 3570   2.278   5.320   2.218
  891SOL     OW 3571   6.084   3.962   0.588
  891SOL    HW1 3572   6.182   3.970   0.605
  891SOL    HW2 3573   6.049   3.880   0.632
  892SOL     OW 3574   3.870   3.822   5.817
  892SOL    HW1 3575   3.847   3.725   5.828
  892SOL    HW2 3576   3.787   3.874   5.796
  893SOL     OW 3577   2.194   1.174   2.294
  893SOL    HW1 3578   2.158   1.103   2.354
  893SOL    HW2 3579   2.252   1.132   2.224
  894SOL     OW 3580   1.116   2.555   3.247
  894SOL    HW1 3581   1.077   2.526   3.159
  894SOL    HW2 3582   1.212   2.582   3.233
  895SOL     OW 3583   1.071   5.199   4.023
  895SOL    HW1 3584   1.067   5.100   4.012
  895SOL    HW2 3585   0.993   5.229   4.077
  896SOL     OW 3586   6.293   0.159   1.558
  896SOL    HW1 3587   6.233   0.097   1.608
  896SOL    HW2 3588   6.247   0.191   1.475
  897SOL     OW 3589   4.224   0.783   6.658
  897SOL    HW1 3590   4.270   0.852   6.602
  897SOL    HW2 3591   4.235   0.807   6.755
  898SOL     OW 3592   3.639   6.605   3.167
  898SOL    HW1 3593   3.632   6.505   3.168
  898SOL    HW2 3594   3.550   6.645   3.189
  899SOL     OW 3595   0.759   5.394   0.902
  899SOL    HW1 3596   0.740   5.301   0.871
  899SOL    HW2 3597   0.761   5.455   0.823
  900SOL     OW 3598   4.620   6.251   0.210
  900SOL    HW1 3599   4.560   6.301   0.273
  900SOL    HW2 3600   4.705   6.302   0.196
  901SOL     OW 3601   1.247   0.832   5.139
  901SOL    HW1 3602   1.153   0.805   5.117
  901SOL    HW2 3603   1.255   0.931   5.132
  902SOL     OW 3604   1.092   2.341   1.335
  902SOL    HW1 3605   1.103   2.274   1.262
  902SOL    HW2 3606   1.092   2.294   1.424
  903SOL     OW 3607   6.840   3.465   6.003
  903SOL    HW1 3608   6.838   3.564   6.012
  903SOL    HW2 3609   6.860   3.424   6.092
  904SOL     OW 3610   2.103   2.813   2.760
  904SOL    HW1 3611   2.156   2.813   2.676
  904SOL    HW2 3612   2.140   2.881   2.823
  905SOL     OW 3613   4.824   3.811   6.013
  905SOL    HW1 3614   4.789   3.853   6.097
  905SOL    HW2 3615   4.764   3.832   5.937
  906SOL     OW 3616   0.653   3.116   6.265
  906SOL    HW1 3617   0.707   3.034   6.251
  906SOL    HW2 3618   0.686   3.189   6.204
  907SOL     OW 3619   5.222   2.564   2.485
  907SOL    HW1 3620   5.238   2.583   2.388
  907SOL    HW2 3621   5.249   2.470   2.506
  908SOL     OW 3622   2.021   5.406   3.329
  908SOL    HW1 3623   1.984   5.465   3.258
  908SOL    HW2 3624   1.969   5.320   3.331
  909SOL     OW 3625   2.898   6.044   2.669
  909SOL    HW1 3626   2.849   5.958   2.651
  909SOL    HW2 3627   2.859   6.117   2.613
  910SOL     OW 3628   2.583   1.128   0.686
  910SOL    HW1 3629   2.672   1.084   0.696
  910SOL    HW2 3630   2.510   1.063   0.708
  911SOL     OW 3631   6.952   5.904   0.799
  911SOL    HW1 3632   6.905   5.846   0.732
  911SOL    HW2 3633   6.992   5.848   0.870
  912SOL     OW 3634   5.393   0.431   3.853
  912SOL    HW1 3635   5.357   0.406   3.763
  912SOL    HW2 3636   5.445   0.354   3.890
  913SOL     OW 3637   1.271   1.093   3.604
  913SOL    HW1 3638   1.179   1.060   3.621
  913SOL    HW2 3639   1.269   1.168   3.538
  914SOL     OW 3640   2.278   5.591   5.070
  914SOL    HW1 3641   2.256   5.571   4.975
  914SOL    HW2 3642   2.267   5.689   5.088
  915SOL     OW 3643   0.996   3.386   0.231
  915SOL    HW1 3644   1.012   3.412   0.327
  915SOL    HW2 3645   1.062   3.433   0.173
  916SOL     OW 3646   1.616   2.628   2.317
  916SOL    HW1 3647   1.566   2.649   2.401
  916SOL    HW2 3648   1.708   2.595   2.339
  917SOL     OW 3649   5.613   0.652   2.146
  917SOL    HW1 3650   5.671   0.734   2.147
  917SOL    HW2 3651   5.607   0.615   2.238
  918SOL     OW 3652   2.816   6.784   0.574
  918SOL    HW1 3653   2.851   6.794   0.667
  918SOL    HW2 3654   2.740   6.719   0.574
  919SOL     OW 3655   6.723   5.777   2.899
  919SOL    HW1 3656   6.687   5.790   2.991
  919SOL    HW2 3657   6.822   5.764   2.904
  920SOL     OW 3658   2.308   5.363   3.357
  920SOL    HW1 3659   2.213   5.385   3.380
  920SOL    HW2 3660   2.369   5.411   3.420
  921SOL     OW 3661   4.968   4.363   3.195
  921SOL    HW1 3662   5.042   4.352   3.128
  921SOL    HW2 3663   4.961   4.459   3.221
  922SOL     OW 3664   3.299   2.993   5.505
  922SOL    HW1 3665   3.359   2.983   5.584
  922SOL    HW2 3666   3.222   2.929   5.513
  923SOL     OW 3667   2.762   5.073   5.774
  923SOL    HW1 3668   2.771   5.146   5.707
  923SOL    HW2 3669   2.726   5.110   5.860
  924SOL     OW 3670   5.925   2.514   3.176
  924SOL    HW1 3671   5.863   2.485   3.249
  924SOL    HW2 3672   5.897   2.605   3.144
  925SOL     OW 3673   0.459   1.944   6.961
  925SOL    HW1 3674   0.438   2.036   6.927
  925SOL    HW2 3675   0.425   1.934   0.025
  926SOL     OW 3676   5.662   1.217   0.493
  926SOL    HW1 3677   5.584   1.168   0.457
  926SOL    HW2 3678   5.647   1.237   0.590
  927SOL     OW 3679   6.235   3.843   3.364
  927SOL    HW1 3680   6.236   3.943   3.357
  927SOL    HW2 3681   6.141   3.810   3.365
  928SOL     OW 3682   0.952   5.658   0.759
  928SOL    HW1 3683   0.852   5.656   0.766
  928SOL    HW2 3684   0.982   5.751   0.739
  929SOL     OW 3685   0.041   0.980   1.534
  929SOL    HW1 3686   0.077   0.900   1.581
  929SOL    HW2 3687   0.094   0.997   1.451
  930SOL     OW 3688   5.117   6.303   4.442
  930SOL    HW1 3689   5.191   6.253   4.485
  930SOL    HW2 3690   5.149   6.395   4.418
  931SOL     OW 3691   5.917   2.076   2.705
  931SOL    HW1 3692   5.901   2.170   2.735
  931SOL    HW2 3693   5.944   2.077   2.608
  932SOL     OW 3694   3.314   6.595   2.753
  932SOL    HW1 3695   3.351   6.513   2.798
  932SOL    HW2 3696   3.352   6.603   2.661
  933SOL     OW 3697   0.987   5.658   3.312
  933SOL    HW1 3698   1.062   5.596   3.335
  933SOL    HW2 3699   0.909   5.605   3.277
  934SOL     OW 3700   2.041   0.418   5.139
  934SOL    HW1 3701   2.085   0.439   5.052
  934SOL    HW2 3702   2.098   0.451   5.215
  935SOL     OW 3703   5.118   4.376   4.952
  935SOL    HW1 3704   5.057   4.402   4.877
  935SOL    HW2 3705   5.064   4.337   5.027
  936SOL     OW 3706   1.245   0.579   6.117
  936SOL    HW1 3707   1.304   0.634   6.059
  936SOL    HW2 3708   1.161   0.556   6.068
  937SOL     OW 3709   4.964   1.280   4.687
  937SOL    HW1 3710   5.056   1.254   4.718
  937SOL    HW2 3711   4.900   1.273   4.763
  938SOL     OW 3712   6.685   5.672   5.708
  938SOL    HW1 3713   6.727   5.585   5.736
  938SOL    HW2 3714   6.636   5.659   5.622
  939SOL     OW 3715   5.778   0.281   5.783
  939SOL    HW1 3716   5.808   0.365   5.829
  939SOL    HW2 3717   5.787   0.204   5.846
  940SOL     OW 3718   0.642   2.725   1.892
  940SOL    HW1 3719   0.724   2.689   1.936
  940SOL    HW2 3720   0.575   2.751   1.962
  941SOL     OW 3721   5.924   1.068   5.617
  941SOL    HW1 3722   5.963   1.106   5.533
  941SOL    HW2 3723   5.904   1.141   5.681
  942SOL     OW 3724   4.878   6.754   3.744
  942SOL    HW1 3725   4.867   6.703   3.658
  942SOL    HW2 3726   4.793   6.802   3.765
  943SOL     OW 3727   1.974   3.348   3.783
  943SOL    HW1 3728   2.028   3.269   3.754
  943SOL    HW2 3729   1.915   3.322   3.859
  944SOL     OW 3730   0.006   4.098   5.762
  944SOL    HW1 3731   6.949   4.046   5.759
  944SOL    HW2 3732   0.080   4.039   5.791
  945SOL     OW 3733   6.241   4.529   4.865
  945SOL    HW1 3734   6.324   4.553   4.915
  945SOL    HW2 3735   6.243   4.570   4.774
  946SOL     OW 3736   5.083   2.390   6.092
  946SOL    HW1 3737   5.016   2.346   6.033
  946SOL    HW2 3738   5.133   2.460   6.040
  947SOL     OW 3739   3.955   3.213   4.341
  947SOL    HW1 3740   3.892   3.240   4.414
  947SOL    HW2 3741   4.032   3.276   4.338
  948SOL     OW 3742   4.325   0.161   1.530
  948SOL    HW1 3743   4.270   0.086   1.493
  948SOL    HW2 3744   4.387   0.195   1.459
  949SOL     OW 3745   1.151   6.207   6.183
  949SOL    HW1 3746   1.053   6.188   6.181
  949SOL    HW2 3747   1.196   6.144   6.246
  950SOL     OW 3748   4.493   5.111   1.597
  950SOL    HW1 3749   4.408   5.058   1.603
  950SOL    HW2 3750   4.565   5.061   1.645
  951SOL     OW 3751   2.223   1.079   4.044
  951SOL    HW1 3752   2.204   1.091   4.142
  951SOL    HW2 3753   2.319   1.099   4.027
  952SOL     OW 3754   4.550   2.278   2.839
  952SOL    HW1 3755   4.627   2.294   2.778
  952SOL    HW2 3756   4.499   2.198   2.808
  953SOL     OW 3757   5.294   5.535   3.856
  953SOL    HW1 3758   5.213   5.494   3.897
  953SOL    HW2 3759   5.361   5.555   3.928
  954SOL     OW 3760   4.640   6.201   0.660
  954SOL    HW1 3761   4.611   6.235   0.749
  954SOL    HW2 3762   4.564   6.205   0.596
  955SOL     OW 3763   6.958   4.089   2.866
  955SOL    HW1 3764   6.893   4.018   2.841
  955SOL    HW2 3765   6.917   4.179   2.850
  956SOL     OW 3766   0.084   2.402   2.774
  956SOL    HW1 3767   0.038   2.468   2.716
  956SOL    HW2 3768   0.172   2.439   2.804
  957SOL     OW 3769   6.915   4.416   5.006
  957SOL    HW1 3770   6.928   4.494   4.946
  957SOL    HW2 3771   6.817   4.401   5.022
  958SOL     OW 3772   4.341   1.473   2.206
  958SOL    HW1 3773   4.389   1.552   2.245
  958SOL    HW2 3774   4.258   1.504   2.161
  959SOL     OW 3775   3.713   5.736   2.773
  959SOL    HW1 3776   3.773   5.729   2.694
  959SOL    HW2 3777   3.651   5.657   2.776
  960SOL     OW 3778   1.362   5.955   2.448
  960SOL    HW1 3779   1.302   5.980   2.373
  960SOL    HW2 3780   1.434   6.024   2.459
  961SOL     OW 3781   4.793   0.038   3.525
  961SOL    HW1 3782   4.699   0.063   3.505
  961SOL    HW2 3783   4.798   7.026   3.616
  962SOL     OW 3784   0.610   0.531   5.164
  962SOL    HW1 3785   0.519   0.570   5.167
  962SOL    HW2 3786   0.670   0.579   5.228
  963SOL     OW 3787   6.740   1.871   5.909
  963SOL    HW1 3788   6.832   1.835   5.892
  963SOL    HW2 3789   6.716   1.934   5.836
  964SOL     OW 3790   5.700   4.709   6.912
  964SOL    HW1 3791   5.765   4.734   6.984
  964SOL    HW2 3792   5.665   4.617   6.931
  965SOL     OW 3793   5.570   2.034   0.665
  965SOL    HW1 3794   5.654   1.980   0.666
  965SOL    HW2 3795   5.495   1.979   0.626
  966SOL     OW 3796   5.341   2.560   1.717
  966SOL    HW1 3797   5.285   2.550   1.799
  966SOL    HW2 3798   5.284   2.546   1.636
  967SOL     OW 3799   2.102   4.259   1.717
  967SOL    HW1 3800   2.135   4.350   1.739
  967SOL    HW2 3801   2.031   4.232   1.782
  968SOL     OW 3802   3.343   1.063   1.586
  968SOL    HW1 3803   3.324   1.082   1.683
  968SOL    HW2 3804   3.336   1.148   1.534
  969SOL     OW 3805   3.341   5.995   5.912
  969SOL    HW1 3806   3.358   5.937   5.992
  969SOL    HW2 3807   3.422   6.050   5.893
  970SOL     OW 3808   5.430   0.733   6.215
  970SOL    HW1 3809   5.331   0.729   6.201
  970SOL    HW2 3810   5.461   0.828   6.204
  971SOL     OW 3811   6.859   1.945   2.992
  971SOL    HW1 3812   6.819   2.024   3.039
  971SOL    HW2 3813   6.894   1.972   2.903
  972SOL     OW 3814   5.594   3.377   1.785
  972SOL    HW1 3815   5.529   3.390   1.711
  972SOL    HW2 3816   5.594   3.457   1.845
  973SOL     OW 3817   6.895   4.391   6.816
  973SOL    HW1 3818   6.955   4.402   6.736
  973SOL    HW2 3819   6.949   4.363   6.895
  974SOL     OW 3820   4.997   6.402   2.643
  974SOL    HW1 3821   4.978   6.320   2.588
  974SOL    HW2 3822   4.913   6.433   2.687
  975SOL     OW 3823   1.411   6.234   6.892
  975SOL    HW1 3824   1.500   6.246   6.935
  975SOL    HW2 3825   1.402   6.294   6.813
  976SOL     OW 3826   0.483   3.366   2.806
  976SOL    HW1 3827   0.391   3.402   2.793
  976SOL    HW2 3828   0.515   3.388   2.898
  977SOL     OW 3829   1.099   0.616   2.343
  977SOL    HW1 3830   1.190   0.653   2.365
  977SOL    HW2 3831   1.035   0.640   2.415
  978SOL     OW 3832   4.753   4.051   5.649
  978SOL    HW1 3833   4.792   3.959   5.641
  978SOL    HW2 3834   4.664   4.047   5.694
  979SOL     OW 3835   6.424   2.223   0.604
  979SOL    HW1 3836   6.429   2.295   0.535
  979SOL    HW2 3837   6.412   2.264   0.694
  980SOL     OW 3838   4.277   2.211   4.463
  980SOL    HW1 3839   4.313   2.277   4.397
  980SOL    HW2 3840   4.201   2.161   4.423
  981SOL     OW 3841   0.516   2.012   4.739
  981SOL    HW1 3842   0.447   2.008   4.666
  981SOL    HW2 3843   0.489   1.950   4.812
  982SOL     OW 3844   2.441   2.328   4.002
  982SOL    HW1 3845   2.502   2.407   3.990
  982SOL    HW2 3846   2.422   2.287   3.913
  983SOL     OW 3847   5.517   2.099   4.993
  983SOL    HW1 3848   5.462   2.058   4.920
  983SOL    HW2 3849   5.462   2.164   5.044
  984SOL     OW 3850   2.546   1.742   4.291
  984SOL    HW1 3851   2.453   1.767   4.265
  984SOL    HW2 3852   2.580   1.805   4.361
  985SOL     OW 3853   5.689   4.499   4.904
  985SOL    HW1 3854   5.786   4.508   4.879
  985SOL    HW2 3855   5.643   4.587   4.891
  986SOL     OW 3856   5.931   4.453   0.996
  986SOL    HW1 3857   6.012   4.482   1.047
  986SOL    HW2 3858   5.956   4.378   0.935
  987SOL     OW 3859   4.528   6.888   2.036
  987SOL    HW1 3860   4.614   6.855   1.998
  987SOL    HW2 3861   4.478   6.939   1.965
  988SOL     OW 3862   2.887   3.543   2.977
  988SOL    HW1 3863   2.914   3.447   2.985
  988SOL    HW2 3864   2.858   3.563   2.884
  989SOL     OW 3865   6.503   0.518   5.524
  989SOL    HW1 3866   6.557   0.447   5.568
  989SOL    HW2 3867   6.414   0.481   5.499
  990SOL     OW 3868   3.766   0.194   2.040
  990SOL    HW1 3869   3.679   0.230   2.005
  990SOL    HW2 3870   3.807   0.261   2.103
  991SOL     OW 3871   0.974   2.672   5.198
  991SOL    HW1 3872   0.908   2.604   5.230
  991SOL    HW2 3873   1.028   2.705   5.276
  992SOL     OW 3874   6.575   2.691   2.249
  992SOL    HW1 3875   6.502   2.709   2.184
  992SOL    HW2 3876   6.648   2.638   2.204
  993SOL     OW 3877   1.311   3.896   1.425
  993SOL    HW1 3878   1.358   3.906   1.337
  993SOL    HW2 3879   1.262   3.980   1.446
  994SOL     OW 3880   3.573   4.236   1.820
  994SOL    HW1 3881   3.615   4.287   1.895
  994SOL    HW2 3882   3.550   4.144   1.852
  995SOL     OW 3883   3.782   2.969   5.456
  995SOL    HW1 3884   3.846   3.045   5.464
  995SOL    HW2 3885   3.820   2.899   5.395
  996SOL     OW 3886   3.010   4.952   4.081
  996SOL    HW1 3887   3.014   4.968   4.180
  996SOL    HW2 3888   2.936   4.887   4.061
  997SOL     OW 3889   1.119   1.188   2.850
  997SOL    HW1 3890   1.068   1.102   2.862
  997SOL    HW2 3891   1.058   1.257   2.812
  998SOL     OW 3892   4.608   0.357   4.161
  998SOL    HW1 3893   4.634   0.261   4.148
  998SOL    HW2 3894   4.607   0.378   4.258
  999SOL     OW 3895   4.858   4.582   2.635
  999SOL    HW1 3896   4.835   4.667   2.587
  999SOL    HW2 3897   4.780   4.520   2.631
 1000SOL     OW 3898   2.511   1.166   1.985
 1000SOL    HW1 3899   2.463   1.252   2.005
 1000SOL    HW2 3900   2.492   1.139   1.891
 1001SOL     OW 3901   4.971   6.256   0.333
 1001SOL    HW1 3902   4.956   6.336   0.274
 1001SOL    HW2 3903   4.933   6.274   0.423
 1002SOL     OW 3904   6.089   1.817   0.675
 1002SOL    HW1 3905   6.047   1.761   0.747
 1002SOL    HW2 3906   6.030   1.819   0.595
 1003SOL     OW 3907   2.265   6.366   1.961
 1003SOL    HW1 3908   2.326   6.409   2.027
 1003SOL    HW2 3909   2.318   6.312   1.896
 1004SOL     OW 3910   0.333   6.762   2.286
 1004SOL    HW1 3911   0.240   6.742   2.257
 1004SOL    HW2 3912   0.368   6.841   2.237
 1005SOL     OW 3913   2.277   2.972   3.904
 1005SOL    HW1 3914   2.316   2.885   3.872
 1005SOL    HW2 3915   2.260   2.966   4.002
 1006SOL     OW 3916   1.187   4.574   0.858
 1006SOL    HW1 3917   1.181   4.638   0.782
 1006SOL    HW2 3918   1.283   4.556   0.879
 1007SOL     OW 3919   4.786   0.037   5.621
 1007SOL    HW1 3920   4.807   6.985   5.676
 1007SOL    HW2 3921   4.770   0.010   5.526
 1008SOL     OW 3922   1.765   2.870   4.972
 1008SOL    HW1 3923   1.774   2.834   4.879
 1008SOL    HW2 3924   1.766   2.970   4.969
 1009SOL     OW 3925   0.392   5.570   4.920
 1009SOL    HW1 3926   0.402   5.635   4.996
 1009SOL    HW2 3927   0.299   5.576   4.883
 1010SOL     OW 3928   3.271   2.708   5.834
 1010SOL    HW1 3929   3.340   2.644   5.867
 1010SOL    HW2 3930   3.239   2.679   5.744
 1011SOL     OW 3931   2.407   5.259   2.079
 1011SOL    HW1 3932   2.447   5.344   2.045
 1011SOL    HW2 3933   2.443   5.182   2.026
 1012SOL     OW 3934   6.944   0.580   1.708
 1012SOL    HW1 3935   6.874   0.590   1.637
 1012SOL    HW2 3936   0.002   0.618   1.674
 1013SOL     OW 3937   1.167   0.978   5.400
 1013SOL    HW1 3938   1.177   1.034   5.317
 1013SOL    HW2 3939   1.248   0.920   5.411
 1014SOL     OW 3940   5.851   6.052   6.165
 1014SOL    HW1 3941   5.929   6.102   6.203
 1014SOL    HW2 3942   5.813   5.991   6.234
 1015SOL     OW 3943   2.828   6.581   5.753
 1015SOL    HW1 3944   2.752   6.550   5.696
 1015SOL    HW2 3945   2.799   6.660   5.807
 1016SOL     OW 3946   4.035   3.638   6.545
 1016SOL    HW1 3947   4.130   3.606   6.544
 1016SOL    HW2 3948   4.033   3.738   6.550
 1017SOL     OW 3949   4.051   2.667   1.385
 1017SOL    HW1 3950   4.069   2.663   1.287
 1017SOL    HW2 3951   4.129   2.628   1.435
 1018SOL     OW 3952   0.381   4.004   3.975
 1018SOL    HW1 3953   0.470   3.977   3.938
 1018SOL    HW2 3954   0.365   4.101   3.955
 1019SOL     OW 3955   6.811   6.786   1.142
 1019SOL    HW1 3956   6.725   6.833   1.157
 1019SOL    HW2 3957   6.854   6.820   1.059
 1020SOL     OW 3958   0.537   0.811   1.662
 1020SOL    HW1 3959   0.494   0.792   1.574
 1020SOL    HW2 3960   0.615   0.872   1.649
 1021SOL     OW 3961   5.187   6.826   1.373
 1021SOL    HW1 3962   5.165   6.802   1.468
 1021SOL    HW2 3963   5.286   6.834   1.364
 1022SOL     OW 3964   3.961   4.965   5.955
 1022SOL    HW1 3965   4.027   4.924   5.892
 1022SOL    HW2 3966   3.879   4.993   5.905
 1023SOL     OW 3967   0.765   6.623   2.769
 1023SOL    HW1 3968   0.788   6.547   2.829
 1023SOL    HW2 3969   0.677   6.661   2.795
 1024SOL     OW 3970   0.571   2.294   3.998
 1024SOL    HW1 3971   0.560   2.261   4.092
 1024SOL    HW2 3972   0.486   2.337   3.967
 1025SOL     OW 3973   3.081   2.931   0.891
 1025SOL    HW1 3974   3.150   2.858   0.888
 1025SOL    HW2 3975   3.015   2.918   0.816
 1026SOL     OW 3976   1.995   2.540   0.714
 1026SOL    HW1 3977   2.030   2.468   0.654
 1026SOL    HW2 3978   2.048   2.541   0.799
 1027SOL     OW 3979   3.133   6.492   1.678
 1027SOL    HW1 3980   3.186   6.412   1.705
 1027SOL    HW2 3981   3.107   6.485   1.582
 1028SOL     OW 3982   3.069   6.324   0.333
 1028SOL    HW1 3983   3.067   6.422   0.355
 1028SOL    HW2 3984   2.979   6.296   0.299
 1029SOL     OW 3985   1.924   6.930   6.859
 1029SOL    HW1 3986   2.010   6.951   6.812
 1029SOL    HW2 3987   1.861   6.884   6.797
 1030SOL     OW 3988   2.977   2.807   1.770
 1030SOL    HW1 3989   2.933   2.824   1.858
 1030SOL    HW2 3990   2.962   2.711   1.743
 1031SOL     OW 3991   5.246   4.898   0.616
 1031SOL    HW1 3992   5.313   4.970   0.631
 1031SOL    HW2 3993   5.293   4.811   0.603
 1032SOL     OW 3994   2.368   1.946   4.708
 1032SOL    HW1 3995   2.441   2.006   4.742
 1032SOL    HW2 3996   2.279   1.986   4.728
 1033SOL     OW 3997   1.320   6.726   0.654
 1033SOL    HW1 3998   1.375   6.646   0.628
 1033SOL    HW2 3999   1.302   6.782   0.573
 1034SOL     OW 4000   0.751   5.005   4.864
 1034SOL    HW1 4001   0.665   5.031   4.908
 1034SOL    HW2 4002   0.752   4.906   4.850
 1035SOL     OW 4003   0.274   1.102   5.347
 1035SOL    HW1 4004   0.227   1.183   5.312
 1035SOL    HW2 4005   0.372   1.109   5.326
 1036SOL     OW 4006   3.520   1.222   1.818
 1036SOL    HW1 4007   3.558   1.277   1.893
 1036SOL    HW2 4008   3.433   1.183   1.846
 1037SOL     OW 4009   1.535   0.795   2.021
 1037SOL    HW1 4010   1.553   0.768   1.927
 1037SOL    HW2 4011   1.547   0.894   2.031
 1038SOL     OW 4012   1.195   0.351   4.754
 1038SOL    HW1 4013   1.114   0.390   4.711
 1038SOL    HW2 4014   1.265   0.334   4.684
 1039SOL     OW 4015   3.424   3.793   5.706
 1039SOL    HW1 4016   3.423   3.697   5.734
 1039SOL    HW2 4017   3.447   3.799   5.609
 1040SOL     OW 4018   4.649   2.670   2.742
 1040SOL    HW1 4019   4.595   2.588   2.727
 1040SOL    HW2 4020   4.679   2.707   2.654
 1041SOL     OW 4021   6.971   0.093   3.527
 1041SOL    HW1 4022   6.927   0.023   3.584
 1041SOL    HW2 4023   6.985   0.056   3.435
 1042SOL     OW 4024   4.633   5.451   2.385
 1042SOL    HW1 4025   4.692   5.389   2.436
 1042SOL    HW2 4026   4.597   5.521   2.447
 1043SOL     OW 4027   3.433   1.398   5.337
 1043SOL    HW1 4028   3.500   1.457   5.293
 1043SOL    HW2 4029   3.374   1.453   5.396
 1044SOL     OW 4030   5.083   4.800   2.753
 1044SOL    HW1 4031   5.075   4.798   2.653
 1044SOL    HW2 4032   5.030   4.725   2.792
 1045SOL     OW 4033   4.388   6.119   1.997
 1045SOL    HW1 4034   4.389   6.202   2.053
 1045SOL    HW2 4035   4.479   6.078   1.997
 1046SOL     OW 4036   1.433   0.864   0.277
 1046SOL    HW1 4037   1.389   0.947   0.243
 1046SOL    HW2 4038   1.391   0.784   0.234
 1047SOL     OW 4039   1.596   1.064   3.215
 1047SOL    HW1 4040   1.587   1.065   3.115
 1047SOL    HW2 4041   1.561   0.978   3.251
 1048SOL     OW 4042   4.582   6.454   4.343
 1048SOL    HW1 4043   4.549   6.360   4.337
 1048SOL    HW2 4044   4.666   6.464   4.289
 1049SOL     OW 4045   6.374   6.082   3.590
 1049SOL    HW1 4046   6.280   6.053   3.609
 1049SOL    HW2 4047   6.384   6.099   3.492
 1050SOL     OW 4048   4.379   4.938   1.117
 1050SOL    HW1 4049   4.321   4.868   1.075
 1050SOL    HW2 4050   4.352   5.028   1.083
 1051SOL     OW 4051   2.555   5.584   0.983
 1051SOL    HW1 4052   2.465   5.617   1.012
 1051SOL    HW2 4053   2.594   5.527   1.056
 1052SOL     OW 4054   3.776   0.439   4.708
 1052SOL    HW1 4055   3.721   0.363   4.742
 1052SOL    HW2 4056   3.837   0.406   4.635
 1053SOL     OW 4057   5.829   4.940   3.353
 1053SOL    HW1 4058   5.923   4.934   3.387
 1053SOL    HW2 4059   5.825   5.007   3.279
 1054SOL     OW 4060   3.141   4.115   5.928
 1054SOL    HW1 4061   3.130   4.020   5.955
 1054SOL    HW2 4062   3.120   4.175   6.006
 1055SOL     OW 4063   3.902   6.839   5.111
 1055SOL    HW1 4064   3.967   6.884   5.172
 1055SOL    HW2 4065   3.915   6.740   5.117
 1056SOL     OW 4066   1.909   5.317   6.284
 1056SOL    HW1 4067   1.816   5.294   6.315
 1056SOL    HW2 4068   1.964   5.343   6.363
 1057SOL     OW 4069   2.850   3.332   2.069
 1057SOL    HW1 4070   2.757   3.363   2.089
 1057SOL    HW2 4071   2.907   3.410   2.046
 1058SOL     OW 4072   4.705   1.536   3.585
 1058SOL    HW1 4073   4.779   1.571   3.642
 1058SOL    HW2 4074   4.618   1.545   3.634
 1059SOL     OW 4075   2.812   6.991   1.250
 1059SOL    HW1 4076   2.843   0.022   1.325
 1059SOL    HW2 4077   2.714   7.000   1.239
 1060SOL     OW 4078   0.035   4.495   4.676
 1060SOL    HW1 4079   0.099   4.544   4.736
 1060SOL    HW2 4080   6.988   4.555   4.652
 1061SOL     OW 4081   5.586   3.715   1.068
 1061SOL    HW1 4082   5.571   3.795   1.126
 1061SOL    HW2 4083   5.578   3.741   0.972
 1062SOL     OW 4084   5.939   4.063   6.500
 1062SOL    HW1 4085   5.921   4.055   6.402
 1062SOL    HW2 4086   5.886   3.993   6.549
 1063SOL     OW 4087   1.797   4.961   2.447
 1063SOL    HW1 4088   1.874   5.005   2.400
 1063SOL    HW2 4089   1.770   4.879   2.397
 1064SOL     OW 4090   1.565   4.104   1.806
 1064SOL    HW1 4091   1.609   4.194   1.809
 1064SOL    HW2 4092   1.614   4.041   1.865
 1065SOL     OW 4093   3.343   0.383   3.873
 1065SOL    HW1 4094   3.431   0.429   3.879
 1065SOL    HW2 4095   3.298   0.407   3.786
 1066SOL     OW 4096   4.527   0.526   3.555
 1066SOL    HW1 4097   4.558   0.620   3.574
 1066SOL    HW2 4098   4.546   0.503   3.460
 1067SOL     OW 4099   0.630   3.713   1.042
 1067SOL    HW1 4100   0.550   3.747   1.092
 1067SOL    HW2 4101   0.600   3.652   0.969
 1068SOL     OW 4102   5.444   5.410   2.926
 1068SOL    HW1 4103   5.361   5.458   2.897
 1068SOL    HW2 4104   5.523   5.449   2.878
 1069SOL     OW 4105   4.209   4.993   0.832
 1069SOL    HW1 4106   4.138   4.928   0.803
 1069SOL    HW2 4107   4.274   5.005   0.757
 1070SOL     OW 4108   0.225   0.270   2.360
 1070SOL    HW1 4109   0.177   0.320   2.288
 1070SOL    HW2 4110   0.258   0.334   2.429
 1071SOL     OW 4111   1.510   0.843   3.314
 1071SOL    HW1 4112   1.433   0.814   3.371
 1071SOL    HW2 4113   1.510   0.792   3.228
 1072SOL     OW 4114   2.174   0.855   0.858
 1072SOL    HW1 4115   2.095   0.917   0.849
 1072SOL    HW2 4116   2.183   0.826   0.954
 1073SOL     OW 4117   4.879   6.841   1.461
 1073SOL    HW1 4118   4.879   6.797   1.371
 1073SOL    HW2 4119   4.961   6.813   1.511
 1074SOL     OW 4120   2.320   5.666   1.095
 1074SOL    HW1 4121   2.347   5.751   1.141
 1074SOL    HW2 4122   2.228   5.676   1.058
 1075SOL     OW 4123   4.746   6.582   4.537
 1075SOL    HW1 4124   4.770   6.508   4.600
 1075SOL    HW2 4125   4.682   6.548   4.468
 1076SOL     OW 4126   6.886   2.857   5.541
 1076SOL    HW1 4127   6.945   2.823   5.467
 1076SOL    HW2 4128   6.942   2.899   5.612
 1077SOL     OW 4129   5.623   0.218   1.705
 1077SOL    HW1 4130   5.680   0.148   1.660
 1077SOL    HW2 4131   5.534   0.178   1.727
 1078SOL     OW 4132   1.271   1.553   2.636
 1078SOL    HW1 4133   1.318   1.615   2.574
 1078SOL    HW2 4134   1.218   1.487   2.583
 1079SOL     OW 4135   2.065   6.219   2.477
 1079SOL    HW1 4136   2.038   6.315   2.474
 1079SOL    HW2 4137   2.121   6.197   2.397
 1080SOL     OW 4138   1.041   4.151   3.873
 1080SOL    HW1 4139   0.960   4.145   3.815
 1080SOL    HW2 4140   1.105   4.079   3.846
 1081SOL     OW 4141   0.242   5.668   5.826
 1081SOL    HW1 4142   0.216   5.760   5.858
 1081SOL    HW2 4143   0.163   5.623   5.786
 1082SOL     OW 4144   3.939   1.997   5.645
 1082SOL    HW1 4145   4.027   2.043   5.635
 1082SOL    HW2 4146   3.912   1.997   5.742
 1083SOL     OW 4147   4.423   3.778   7.027
 1083SOL    HW1 4148   4.333   3.776   6.984
 1083SOL    HW2 4149   4.460   3.685   0.001
 1084SOL     OW 4150   5.737   6.020   0.068
 1084SOL    HW1 4151   5.743   6.002   6.999
 1084SOL    HW2 4152   5.824   6.056   0.101
 1085SOL     OW 4153   1.305   3.944   4.241
 1085SOL    HW1 4154   1.343   4.035   4.229
 1085SOL    HW2 4155   1.208   3.944   4.216
 1086SOL     OW 4156   6.780   6.316   0.908
 1086SOL    HW1 4157   6.768   6.384   0.980
 1086SOL    HW2 4158   6.850   6.348   0.844
 1087SOL     OW 4159   5.180   1.984   4.981
 1087SOL    HW1 4160   5.161   2.065   5.038
 1087SOL    HW2 4161   5.146   2.001   4.889
 1088SOL     OW 4162   6.470   4.357   3.237
 1088SOL    HW1 4163   6.509   4.440   3.276
 1088SOL    HW2 4164   6.374   4.373   3.215
 1089SOL     OW 4165   1.433   6.262   4.200
 1089SOL    HW1 4166   1.419   6.227   4.108
 1089SOL    HW2 4167   1.346   6.267   4.248
 1090SOL     OW 4168   2.051   2.177   3.475
 1090SOL    HW1 4169   2.013   2.210   3.389
 1090SOL    HW2 4170   2.007   2.091   3.500
 1091SOL     OW 4171   2.859   2.218   5.484
 1091SOL    HW1 4172   2.928   2.153   5.452
 1091SOL    HW2 4173   2.859   2.299   5.426
 1092SOL     OW 4174   1.980   4.154   1.272
 1092SOL    HW1 4175   1.888   4.139   1.237
 1092SOL    HW2 4176   2.047   4.127   1.203
 1093SOL     OW 4177   2.083   1.430   2.058
 1093SOL    HW1 4178   2.046   1.419   2.150
 1093SOL    HW2 4179   2.182   1.416   2.060
 1094SOL     OW 4180   0.604   6.658   3.428
 1094SOL    HW1 4181   0.663   6.581   3.402
 1094SOL    HW2 4182   0.579   6.710   3.346
 1095SOL     OW 4183   0.609   2.789   6.808
 1095SOL    HW1 4184   0.529   2.847   6.826
 1095SOL    HW2 4185   0.686   2.846   6.779
 1096SOL     OW 4186   3.503   4.435   1.655
 1096SOL    HW1 4187   3.527   4.352   1.706
 1096SOL    HW2 4188   3.526   4.515   1.711
 1097SOL     OW 4189   2.031   4.605   4.035
 1097SOL    HW1 4190   1.943   4.628   3.993
 1097SOL    HW2 4191   2.089   4.560   3.967
 1098SOL     OW 4192   4.560   3.608   0.397
 1098SOL    HW1 4193   4.528   3.521   0.359
 1098SOL    HW2 4194   4.559   3.678   0.325
 1099SOL     OW 4195   4.533   1.594   5.315
 1099SOL    HW1 4196   4.439   1.610   5.345
 1099SOL    HW2 4197   4.590   1.570   5.393
 1100SOL     OW 4198   3.463   1.983   5.858
 1100SOL    HW1 4199   3.386   1.991   5.921
 1100SOL    HW2 4200   3.447   1.906   5.796
 1101SOL     OW 4201   6.250   2.204   6.624
 1101SOL    HW1 4202   6.260   2.284   6.683
 1101SOL    HW2 4203   6.284   2.226   6.532
 1102SOL     OW 4204   0.542   6.118   5.031
 1102SOL    HW1 4205   0.546   6.045   4.963
 1102SOL    HW2 4206   0.466   6.102   5.094
 1103SOL     OW 4207   3.966   1.719   0.724
 1103SOL    HW1 4208   3.899   1.650   0.750
 1103SOL    HW2 4209   3.921   1.794   0.675
 1104SOL     OW 4210   2.176   2.824   5.227
 1104SOL    HW1 4211   2.236   2.850   5.151
 1104SOL    HW2 4212   2.232   2.793   5.304
 1105SOL     OW 4213   6.585   4.125   4.895
 1105SOL    HW1 4214   6.628   4.036   4.910
 1105SOL    HW2 4215   6.547   4.158   4.981
 1106SOL     OW 4216   0.286   1.915   1.792
 1106SOL    HW1 4217   0.193   1.906   1.827
 1106SOL    HW2 4218   0.291   1.995   1.731
 1107SOL     OW 4219   1.725   0.465   6.576
 1107SOL    HW1 4220   1.642   0.423   6.540
 1107SOL    HW2 4221   1.714   0.482   6.674
 1108SOL     OW 4222   3.847   0.351   5.705
 1108SOL    HW1 4223   3.910   0.274   5.719
 1108SOL    HW2 4224   3.855   0.416   5.781
 1109SOL     OW 4225   4.641   0.494   4.454
 1109SOL    HW1 4226   4.560   0.497   4.513
 1109SOL    HW2 4227   4.653   0.583   4.409
 1110SOL     OW 4228   2.467   1.858   3.255
 1110SOL    HW1 4229   2.377   1.887   3.288
 1110SOL    HW2 4230   2.467   1.854   3.156
 1111SOL     OW 4231   4.755   5.487   6.188
 1111SOL    HW1 4232   4.803   5.575   6.182
 1111SOL    HW2 4233   4.774   5.433   6.106
 1112SOL     OW 4234   4.924   1.476   2.450
 1112SOL    HW1 4235   4.976   1.427   2.379
 1112SOL    HW2 4236   4.987   1.506   2.522
 1113SOL     OW 4237   6.670   3.648   2.325
 1113SOL    HW1 4238   6.761   3.683   2.345
 1113SOL    HW2 4239   6.607   3.676   2.398
 1114SOL     OW 4240   3.780   2.070   6.620
 1114SOL    HW1 4241   3.726   2.142   6.663
 1114SOL    HW2 4242   3.842   2.109   6.553
 1115SOL     OW 4243   4.282   3.464   0.056
 1115SOL    HW1 4244   4.375   3.497   0.046
 1115SOL    HW2 4245   4.230   3.484   7.001
 1116SOL     OW 4246   5.151   6.510   5.355
 1116SOL    HW1 4247   5.185   6.466   5.273
 1116SOL    HW2 4248   5.117   6.602   5.332
 1117SOL     OW 4249   1.539   2.161   2.195
 1117SOL    HW1 4250   1.486   2.241   2.221
 1117SOL    HW2 4251   1.479   2.093   2.153
 1118SOL     OW 4252   2.679   4.823   1.264
 1118SOL    HW1 4253   2.720   4.732   1.274
 1118SOL    HW2 4254   2.602   4.832   1.328
 1119SOL     OW 4255   4.301   4.378   0.808
 1119SOL    HW1 4256   4.281   4.280   0.813
 1119SOL    HW2 4257   4.361   4.404   0.883
 1120SOL     OW 4258   6.291   6.774   5.432
 1120SOL    HW1 4259   6.246   6.864   5.424
 1120SOL    HW2 4260   6.390   6.787   5.438
 1121SOL     OW 4261   4.991   5.328   2.773
 1121SOL    HW1 4262   4.953   5.364   2.858
 1121SOL    HW2 4263   4.988   5.228   2.775
 1122SOL     OW 4264   5.538   3.585   6.719
 1122SOL    HW1 4265   5.508   3.641   6.797
 1122SOL    HW2 4266   5.543   3.489   6.747
 1123SOL     OW 4267   5.045   1.386   3.023
 1123SOL    HW1 4268   5.049   1.287   3.033
 1123SOL    HW2 4269   5.094   1.429   3.100
 1124SOL     OW 4270   6.880   3.543   5.285
 1124SOL    HW1 4271   6.785   3.576   5.282
 1124SOL    HW2 4272   6.892   3.485   5.365
 1125SOL     OW 4273   3.450   1.705   4.946
 1125SOL    HW1 4274   3.356   1.699   4.911
 1125SOL    HW2 4275   3.512   1.662   4.881
 1126SOL     OW 4276   6.230   5.016   6.577
 1126SOL    HW1 4277   6.287   4.959   6.518
 1126SOL    HW2 4278   6.155   4.961   6.615
 1127SOL     OW 4279   5.270   5.331   4.502
 1127SOL    HW1 4280   5.297   5.417   4.545
 1127SOL    HW2 4281   5.341   5.262   4.518
 1128SOL     OW 4282   5.538   1.764   5.596
 1128SOL    HW1 4283   5.608   1.836   5.594
 1128SOL    HW2 4284   5.510   1.748   5.690
 1129SOL     OW 4285   2.643   0.692   0.020
 1129SOL    HW1 4286   2.609   0.783   0.045
 1129SOL    HW2 4287   2.573   0.644   6.995
 1130SOL     OW 4288   2.795   4.760   0.238
 1130SOL    HW1 4289   2.863   4.755   0.165
 1130SOL    HW2 4290   2.724   4.692   0.222
 1131SOL     OW 4291   0.111   6.137   6.241
 1131SOL    HW1 4292   0.179   6.175   6.178
 1131SOL    HW2 4293   0.062   6.211   6.287
 1132SOL     OW 4294   5.538   0.472   1.548
 1132SOL    HW1 4295   5.583   0.396   1.595
 1132SOL    HW2 4296   5.459   0.501   1.601
 1133SOL     OW 4297   0.730   0.574   1.128
 1133SOL    HW1 4298   0.819   0.599   1.166
 1133SOL    HW2 4299   0.737   0.564   1.029
 1134SOL     OW 4300   5.522   0.845   1.842
 1134SOL    HW1 4301   5.459   0.769   1.861
 1134SOL    HW2 4302   5.576   0.864   1.924
 1135SOL     OW 4303   2.372   1.142   2.696
 1135SOL    HW1 4304   2.461   1.153   2.739
 1135SOL    HW2 4305   2.378   1.167   2.599
 1136SOL     OW 4306   3.355   5.262   4.250
 1136SOL    HW1 4307   3.436   5.287   4.197
 1136SOL    HW2 4308   3.313   5.180   4.210
 1137SOL     OW 4309   0.997   1.020   6.509
 1137SOL    HW1 4310   0.966   0.961   6.434
 1137SOL    HW2 4311   0.919   1.070   6.547
 1138SOL     OW 4312   0.151   1.015   6.505
 1138SOL    HW1 4313   0.216   0.940   6.519
 1138SOL    HW2 4314   0.200   1.094   6.468
 1139SOL     OW 4315   3.402   5.137   1.596
 1139SOL    HW1 4316   3.451   5.055   1.568
 1139SOL    HW2 4317   3.349   5.117   1.678
 1140SOL     OW 4318   4.067   1.024   2.163
 1140SOL    HW1 4319   4.103   1.103   2.211
 1140SOL    HW2 4320   4.137   0.986   2.103
 1141SOL     OW 4321   0.232   6.274   6.711
 1141SOL    HW1 4322   0.187   6.275   6.621
 1141SOL    HW2 4323   0.326   6.243   6.701
 1142SOL     OW 4324   2.852   0.206   4.893
 1142SOL    HW1 4325   2.874   0.191   4.990
 1142SOL    HW2 4326   2.917   0.156   4.836
 1143SOL     OW 4327   1.571   3.538   2.617
 1143SOL    HW1 4328   1.629   3.569   2.693
 1143SOL    HW2 4329   1.629   3.496   2.547
 1144SOL     OW 4330   6.800   5.192   5.212
 1144SOL    HW1 4331   6.701   5.180   5.217
 1144SOL    HW2 4332   6.833   5.227   5.299
 1145SOL     OW 4333   6.926   3.783   2.163
 1145SOL    HW1 4334   6.978   3.814   2.083
 1145SOL    HW2 4335   6.903   3.862   2.220
 1146SOL     OW 4336   6.340   0.896   2.419
 1146SOL    HW1 4337   6.265   0.914   2.354
 1146SOL    HW2 4338   6.386   0.811   2.394
 1147SOL     OW 4339   2.395   5.190   1.505
 1147SOL    HW1 4340   2.440   5.228   1.424
 1147SOL    HW2 4341   2.446   5.216   1.587
 1148SOL     OW 4342   5.138   6.315   0.695
 1148SOL    HW1 4343   5.075   6.316   0.618
 1148SOL    HW2 4344   5.205   6.242   0.683
 1149SOL     OW 4345   6.905   4.396   2.821
 1149SOL    HW1 4346   6.851   4.385   2.738
 1149SOL    HW2 4347   6.848   4.433   2.894
 1150SOL     OW 4348   2.242   3.823   0.152
 1150SOL    HW1 4349   2.174   3.757   0.183
 1150SOL    HW2 4350   2.196   3.900   0.107
 1151SOL     OW 4351   4.859   5.330   7.000
 1151SOL    HW1 4352   4.941   5.321   6.944
 1151SOL    HW2 4353   4.781   5.351   6.941
 1152SOL     OW 4354   5.896   4.678   6.153
 1152SOL    HW1 4355   5.923   4.587   6.185
 1152SOL    HW2 4356   5.884   4.739   6.232
 1153SOL     OW 4357   2.317   0.279   1.144
 1153SOL    HW1 4358   2.241   0.234   1.191
 1153SOL    HW2 4359   2.292   0.373   1.121
 1154SOL     OW 4360   0.562   4.456   1.616
 1154SOL    HW1 4361   0.628   4.395   1.660
 1154SOL    HW2 4362   0.602   4.547   1.604
 1155SOL     OW 4363   2.264   5.823   6.712
 1155SOL    HW1 4364   2.300   5.839   6.620
 1155SOL    HW2 4365   2.310   5.885   6.776
 1156SOL     OW 4366   3.474   1.612   4.151
 1156SOL    HW1 4367   3.451   1.527   4.198
 1156SOL    HW2 4368   3.498   1.593   4.056
 1157SOL     OW 4369   5.792   0.561   5.610
 1157SOL    HW1 4370   5.823   0.550   5.705
 1157SOL    HW2 4371   5.832   0.644   5.571
 1158SOL     OW 4372   6.893   5.586   5.482
 1158SOL    HW1 4373   6.798   5.617   5.480
 1158SOL    HW2 4374   6.945   5.633   5.411
 1159SOL     OW 4375   6.332   0.046   3.868
 1159SOL    HW1 4376   6.304   0.035   3.963
 1159SOL    HW2 4377   6.267   0.107   3.821
 1160SOL     OW 4378   4.240   3.684   1.219
 1160SOL    HW1 4379   4.215   3.780   1.233
 1160SOL    HW2 4380   4.157   3.632   1.196
 1161SOL     OW 4381   6.604   0.236   6.574
 1161SOL    HW1 4382   6.581   0.150   6.528
 1161SOL    HW2 4383   6.685   0.275   6.531
 1162SOL     OW 4384   2.891   2.440   6.641
 1162SOL    HW1 4385   2.975   2.430   6.694
 1162SOL    HW2 4386   2.826   2.368   6.669
 1163SOL     OW 4387   6.779   3.133   1.754
 1163SOL    HW1 4388   6.849   3.182   1.807
 1163SOL    HW2 4389   6.804   3.036   1.749
 1164SOL     OW 4390   5.949   3.105   5.402
 1164SOL    HW1 4391   5.987   3.188   5.362
 1164SOL    HW2 4392   5.850   3.101   5.385
 1165SOL     OW 4393   2.834   4.755   3.675
 1165SOL    HW1 4394   2.773   4.832   3.697
 1165SOL    HW2 4395   2.790   4.696   3.608
 1166SOL     OW 4396   3.628   6.976   0.321
 1166SOL    HW1 4397   3.684   0.018   0.363
 1166SOL    HW2 4398   3.660   6.886   0.349
 1167SOL     OW 4399   4.291   6.382   6.424
 1167SOL    HW1 4400   4.218   6.358   6.488
 1167SOL    HW2 4401   4.378   6.392   6.474
 1168SOL     OW 4402   5.044   2.131   3.513
 1168SOL    HW1 4403   5.125   2.161   3.464
 1168SOL    HW2 4404   5.067   2.055   3.573
 1169SOL     OW 4405   5.130   2.236   5.787
 1169SOL    HW1 4406   5.221   2.273   5.806
 1169SOL    HW2 4407   5.062   2.307   5.801
 1170SOL     OW 4408   5.352   0.814   2.974
 1170SOL    HW1 4409   5.314   0.882   3.037
 1170SOL    HW2 4410   5.351   0.724   3.018
 1171SOL     OW 4411   3.212   6.498   6.797
 1171SOL    HW1 4412   3.140   6.542   6.743
 1171SOL    HW2 4413   3.180   6.485   6.891
 1172SOL     OW 4414   3.102   4.065   1.885
 1172SOL    HW1 4415   3.005   4.069   1.909
 1172SOL    HW2 4416   3.153   4.024   1.961
 1173SOL     OW 4417   3.338   0.880   6.499
 1173SOL    HW1 4418   3.389   0.889   6.584
 1173SOL    HW2 4419   3.241   0.865   6.519
 1174SOL     OW 4420   3.464   4.886   0.804
 1174SOL    HW1 4421   3.473   4.985   0.795
 1174SOL    HW2 4422   3.533   4.841   0.746
 1175SOL     OW 4423   3.645   3.353   6.572
 1175SOL    HW1 4424   3.676   3.319   6.661
 1175SOL    HW2 4425   3.697   3.435   6.548
 1176SOL     OW 4426   5.761   4.979   6.324
 1176SOL    HW1 4427   5.681   5.026   6.287
 1176SOL    HW2 4428   5.840   5.041   6.320
 1177SOL     OW 4429   6.720   1.835   5.330
 1177SOL    HW1 4430   6.621   1.838   5.345
 1177SOL    HW2 4431   6.746   1.743   5.299
 1178SOL     OW 4432   3.146   3.660   0.657
 1178SOL    HW1 4433   3.061   3.628   0.616
 1178SOL    HW2 4434   3.180   3.591   0.721
 1179SOL     OW 4435   3.518   6.674   0.932
 1179SOL    HW1 4436   3.508   6.739   0.856
 1179SOL    HW2 4437   3.430   6.631   0.950
 1180SOL     OW 4438   2.201   5.853   3.862
 1180SOL    HW1 4439   2.171   5.761   3.884
 1180SOL    HW2 4440   2.274   5.849   3.794
 1181SOL     OW 4441   0.491   3.455   5.665
 1181SOL    HW1 4442   0.460   3.487   5.755
 1181SOL    HW2 4443   0.591   3.455   5.663
 1182SOL     OW 4444   3.101   5.083   3.163
 1182SOL    HW1 4445   3.047   5.088   3.079
 1182SOL    HW2 4446   3.138   5.174   3.184
 1183SOL     OW 4447   3.492   5.408   1.927
 1183SOL    HW1 4448   3.392   5.411   1.936
 1183SOL    HW2 4449   3.521   5.475   1.858
 1184SOL     OW 4450   5.607   0.059   6.415
 1184SOL    HW1 4451   5.590   0.020   6.506
 1184SOL    HW2 4452   5.572   7.026   6.345
 1185SOL     OW 4453   0.753   1.268   1.423
 1185SOL    HW1 4454   0.795   1.245   1.336
 1185SOL    HW2 4455   0.763   1.366   1.440
 1186SOL     OW 4456   5.761   5.452   5.377
 1186SOL    HW1 4457   5.815   5.446   5.293
 1186SOL    HW2 4458   5.756   5.547   5.408
 1187SOL     OW 4459   5.557   6.593   5.662
 1187SOL    HW1 4460   5.463   6.622   5.682
 1187SOL    HW2 4461   5.556   6.498   5.631
 1188SOL     OW 4462   3.768   5.450   6.331
 1188SOL    HW1 4463   3.801   5.358   6.309
 1188SOL    HW2 4464   3.668   5.451   6.330
 1189SOL     OW 4465   5.978   0.396   1.659
 1189SOL    HW1 4466   6.009   0.393   1.564
 1189SOL    HW2 4467   5.938   0.486   1.678
 1190SOL     OW 4468   3.281   6.135   3.031
 1190SOL    HW1 4469   3.240   6.089   2.953
 1190SOL    HW2 4470   3.350   6.075   3.072
 1191SOL     OW 4471   2.493   6.468   4.275
 1191SOL    HW1 4472   2.450   6.379   4.289
 1191SOL    HW2 4473   2.482   6.496   4.180
 1192SOL     OW 4474   5.790   6.096   3.550
 1192SOL    HW1 4475   5.734   6.014   3.537
 1192SOL    HW2 4476   5.734   6.177   3.532
 1193SOL     OW 4477   0.310   0.091   5.040
 1193SOL    HW1 4478   0.351   0.181   5.053
 1193SOL    HW2 4479   0.295   0.048   5.129
 1194SOL     OW 4480   6.551   1.720   0.680
 1194SOL    HW1 4481   6.605   1.657   0.737
 1194SOL    HW2 4482   6.609   1.755   0.606
 1195SOL     OW 4483   6.567   3.693   0.557
 1195SOL    HW1 4484   6.589   3.789   0.539
 1195SOL    HW2 4485   6.585   3.638   0.476
 1196SOL     OW 4486   5.998   4.682   3.360
 1196SOL    HW1 4487   5.907   4.717   3.338
 1196SOL    HW2 4488   5.991   4.587   3.391
 1197SOL     OW 4489   4.209   6.830   4.286
 1197SOL    HW1 4490   4.150   6.791   4.214
 1197SOL    HW2 4491   4.244   6.755   4.343
 1198SOL     OW 4492   1.220   3.782   2.074
 1198SOL    HW1 4493   1.140   3.739   2.114
 1198SOL    HW2 4494   1.295   3.782   2.140
 1199SOL     OW 4495   3.302   3.519   3.086
 1199SOL    HW1 4496   3.309   3.611   3.123
 1199SOL    HW2 4497   3.242   3.464   3.144
 1200SOL     OW 4498   3.680   4.117   4.679
 1200SOL    HW1 4499   3.587   4.146   4.656
 1200SOL    HW2 4500   3.735   4.111   4.595
 1201SOL     OW 4501   0.002   0.932   4.843
 1201SOL    HW1 4502   0.071   0.860   4.849
 1201SOL    HW2 4503   7.020   0.960   4.747
 1202SOL     OW 4504   6.717   6.241   5.269
 1202SOL    HW1 4505   6.624   6.223   5.237
 1202SOL    HW2 4506   6.747   6.166   5.327
 1203SOL     OW 4507   0.405   6.342   0.308
 1203SOL    HW1 4508   0.396   6.252   0.266
 1203SOL    HW2 4509   0.487   6.345   0.365
 1204SOL     OW 4510   5.115   1.424   1.830
 1204SOL    HW1 4511   5.070   1.494   1.884
 1204SOL    HW2 4512   5.191   1.385   1.883
 1205SOL     OW 4513   3.718   3.664   0.170
 1205SOL    HW1 4514   3.805   3.712   0.159
 1205SOL    HW2 4515   3.693   3.620   0.084
 1206SOL     OW 4516   1.147   3.250   4.654
 1206SOL    HW1 4517   1.113   3.175   4.598
 1206SOL    HW2 4518   1.246   3.258   4.644
 1207SOL     OW 4519   0.365   0.417   1.146
 1207SOL    HW1 4520   0.325   0.378   1.229
 1207SOL    HW2 4521   0.408   0.504   1.168
 1208SOL     OW 4522   3.138   3.501   1.827
 1208SOL    HW1 4523   3.040   3.507   1.808
 1208SOL    HW2 4524   3.183   3.447   1.756
 1209SOL     OW 4525   5.231   0.206   4.441
 1209SOL    HW1 4526   5.203   0.124   4.392
 1209SOL    HW2 4527   5.197   0.287   4.392
 1210SOL     OW 4528   4.629   6.490   3.914
 1210SOL    HW1 4529   4.560   6.529   3.975
 1210SOL    HW2 4530   4.719   6.498   3.956
 1211SOL     OW 4531   0.864   3.307   2.924
 1211SOL    HW1 4532   0.810   3.385   2.892
 1211SOL    HW2 4533   0.846   3.291   3.021
 1212SOL     OW 4534   6.347   0.543   6.039
 1212SOL    HW1 4535   6.432   0.497   6.014
 1212SOL    HW2 4536   6.277   0.474   6.060
 1213SOL     OW 4537   5.649   1.973   2.298
 1213SOL    HW1 4538   5.671   1.988   2.202
 1213SOL    HW2 4539   5.734   1.969   2.351
 1214SOL     OW 4540   0.607   2.463   6.631
 1214SOL    HW1 4541   0.515   2.496   6.614
 1214SOL    HW2 4542   0.635   2.488   6.724
 1215SOL     OW 4543   1.431   4.883   2.653
 1215SOL    HW1 4544   1.334   4.910   2.648
 1215SOL    HW2 4545   1.481   4.926   2.579
 1216SOL     OW 4546   5.866   1.312   0.852
 1216SOL    HW1 4547   5.819   1.399   0.836
 1216SOL    HW2 4548   5.801   1.246   0.889
 1217SOL     OW 4549   2.997   4.989   0.724
 1217SOL    HW1 4550   3.044   5.077   0.736
 1217SOL    HW2 4551   3.065   4.916   0.716
 1218SOL     OW 4552   1.705   2.586   5.221
 1218SOL    HW1 4553   1.633   2.582   5.291
 1218SOL    HW2 4554   1.762   2.666   5.237
 1219SOL     OW 4555   5.149   5.368   1.972
 1219SOL    HW1 4556   5.141   5.419   1.886
 1219SOL    HW2 4557   5.245   5.369   2.002
 1220SOL     OW 4558   6.635   4.208   2.123
 1220SOL    HW1 4559   6.625   4.139   2.051
 1220SOL    HW2 4560   6.723   4.255   2.111
 1221SOL     OW 4561   5.203   3.726   6.572
 1221SOL    HW1 4562   5.282   3.665   6.571
 1221SOL    HW2 4563   5.196   3.773   6.484
 1222SOL     OW 4564   0.061   0.901   6.728
 1222SOL    HW1 4565   0.074   0.959   6.648
 1222SOL    HW2 4566   0.049   0.806   6.699
 1223SOL     OW 4567   3.665   0.678   0.277
 1223SOL    HW1 4568   3.732   0.720   0.338
 1223SOL    HW2 4569   3.573   0.711   0.301
 1224SOL     OW 4570   3.108   6.053   6.504
 1224SOL    HW1 4571   3.166   6.126   6.541
 1224SOL    HW2 4572   3.024   6.047   6.557
 1225SOL     OW 4573   3.737   2.791   6.583
 1225SOL    HW1 4574   3.788   2.853   6.524
 1225SOL    HW2 4575   3.639   2.801   6.566
 1226SOL     OW 4576   3.613   6.270   0.616
 1226SOL    HW1 4577   3.533   6.224   0.654
 1226SOL    HW2 4578   3.598   6.290   0.519
 1227SOL     OW 4579   5.291   5.221   5.462
 1227SOL    HW1 4580   5.247   5.164   5.531
 1227SOL    HW2 4581   5.254   5.198   5.372
 1228SOL     OW 4582   3.459   2.489   6.605
 1228SOL    HW1 4583   3.380   2.461   6.550
 1228SOL    HW2 4584   3.529   2.416   6.602
 1229SOL     OW 4585   2.077   5.770   0.254
 1229SOL    HW1 4586   2.118   5.685   0.287
 1229SOL    HW2 4587   2.097   5.844   0.318
 1230SOL     OW 4588   5.535   6.114   2.144
 1230SOL    HW1 4589   5.622   6.118   2.193
 1230SOL    HW2 4590   5.462   6.085   2.206
 1231SOL     OW 4591   1.740   1.961   4.706
 1231SOL    HW1 4592   1.814   1.935   4.643
 1231SOL    HW2 4593   1.779   1.979   4.796
 1232SOL     OW 4594   6.488   0.884   4.927
 1232SOL    HW1 4595   6.412   0.856   4.869
 1232SOL    HW2 4596   6.520   0.975   4.899
 1233SOL     OW 4597   0.864   5.695   4.753
 1233SOL    HW1 4598   0.797   5.700   4.827
 1233SOL    HW2 4599   0.902   5.602   4.748
 1234SOL     OW 4600   5.873   2.531   5.280
 1234SOL    HW1 4601   5.792   2.590   5.272
 1234SOL    HW2 4602   5.886   2.482   5.194
 1235SOL     OW 4603   5.919   4.792   1.622
 1235SOL    HW1 4604   5.960   4.807   1.712
 1235SOL    HW2 4605   5.872   4.704   1.621
 1236SOL     OW 4606   4.535   1.753   1.453
 1236SOL    HW1 4607   4.626   1.793   1.446
 1236SOL    HW2 4608   4.541   1.662   1.493
 1237SOL     OW 4609   1.073   4.628   5.413
 1237SOL    HW1 4610   1.026   4.698   5.360
 1237SOL    HW2 4611   1.169   4.652   5.423
 1238SOL     OW 4612   1.456   0.335   6.186
 1238SOL    HW1 4613   1.516   0.388   6.125
 1238SOL    HW2 4614   1.363   0.333   6.148
 1239SOL     OW 4615   0.475   6.742   6.747
 1239SOL    HW1 4616   0.481   6.655   6.699
 1239SOL    HW2 4617   0.379   6.771   6.752
 1240SOL     OW 4618   5.973   6.216   1.133
 1240SOL    HW1 4619   6.005   6.121   1.131
 1240SOL    HW2 4620   5.892   6.225   1.075
 1241SOL     OW 4621   5.958   4.382   5.443
 1241SOL    HW1 4622   5.892   4.325   5.393
 1241SOL    HW2 4623   5.923   4.402   5.534
 1242SOL     OW 4624   1.947   3.854   1.090
 1242SOL    HW1 4625   1.920   3.950   1.094
 1242SOL    HW2 4626   1.897   3.803   1.160
 1243SOL     OW 4627   1.330   0.568   5.211
 1243SOL    HW1 4628   1.298   0.660   5.192
 1243SOL    HW2 4629   1.430   0.564   5.199
 1244SOL     OW 4630   5.290   6.520   4.463
 1244SOL    HW1 4631   5.308   6.618   4.452
 1244SOL    HW2 4632   5.328   6.489   4.551
 1245SOL     OW 4633   5.333   4.295   0.207
 1245SOL    HW1 4634   5.291   4.385   0.200
 1245SOL    HW2 4635   5.266   4.224   0.185
 1246SOL     OW 4636   3.466   1.191   1.246
 1246SOL    HW1 4637   3.565   1.186   1.263
 1246SOL    HW2 4638   3.442   1.128   1.173
 1247SOL     OW 4639   0.048   6.497   5.637
 1247SOL    HW1 4640   0.025   6.587   5.599
 1247SOL    HW2 4641   0.021   6.425   5.573
 1248SOL     OW 4642   1.948   0.033   4.050
 1248SOL    HW1 4643   2.013   6.985   4.046
 1248SOL    HW2 4644   1.933   0.068   3.958
 1249SOL     OW 4645   6.618   2.189   2.015
 1249SOL    HW1 4646   6.665   2.266   1.972
 1249SOL    HW2 4647   6.605   2.208   2.113
 1250SOL     OW 4648   5.933   5.339   3.300
 1250SOL    HW1 4649   5.860   5.277   3.270
 1250SOL    HW2 4650   6.000   5.351   3.227
 1251SOL     OW 4651   2.039   1.311   3.125
 1251SOL    HW1 4652   1.978   1.279   3.198
 1251SOL    HW2 4653   2.128   1.265   3.135
 1252SOL     OW 4654   4.061   4.424   6.756
 1252SOL    HW1 4655   4.047   4.506   6.701
 1252SOL    HW2 4656   3.973   4.380   6.774
 1253SOL     OW 4657   3.211   6.492   2.389
 1253SOL    HW1 4658   3.112   6.499   2.381
 1253SOL    HW2 4659   3.252   6.583   2.383
 1254SOL     OW 4660   0.539   2.610   3.725
 1254SOL    HW1 4661   0.578   2.531   3.773
 1254SOL    HW2 4662   0.612   2.677   3.708
 1255SOL     OW 4663   5.751   1.193   5.867
 1255SOL    HW1 4664   5.726   1.098   5.852
 1255SOL    HW2 4665   5.766   1.209   5.964
 1256SOL     OW 4666   6.949   0.423   3.298
 1256SOL    HW1 4667   7.025   0.358   3.305
 1256SOL    HW2 4668   6.873   0.380   3.249
 1257SOL     OW 4669   6.890   5.190   4.931
 1257SOL    HW1 4670   6.837   5.186   5.016
 1257SOL    HW2 4671   6.977   5.235   4.948
 1258SOL     OW 4672   1.346   5.270   3.183
 1258SOL    HW1 4673   1.294   5.208   3.124
 1258SOL    HW2 4674   1.421   5.311   3.132
 1259SOL     OW 4675   3.488   0.454   4.371
 1259SOL    HW1 4676   3.453   0.504   4.450
 1259SOL    HW2 4677   3.586   0.469   4.362
 1260SOL     OW 4678   3.355   2.219   0.084
 1260SOL    HW1 4679   3.362   2.191   0.180
 1260SOL    HW2 4680   3.442   2.257   0.053
 1261SOL     OW 4681   6.507   5.194   6.740
 1261SOL    HW1 4682   6.523   5.181   6.642
 1261SOL    HW2 4683   6.410   5.207   6.757
 1262SOL     OW 4684   5.772   4.577   1.218
 1262SOL    HW1 4685   5.852   4.534   1.176
 1262SOL    HW2 4686   5.694   4.570   1.155
 1263SOL     OW 4687   6.763   2.085   1.315
 1263SOL    HW1 4688   6.733   2.178   1.293
 1263SOL    HW2 4689   6.863   2.082   1.317
 1264SOL     OW 4690   6.644   3.603   1.384
 1264SOL    HW1 4691   6.671   3.581   1.478
 1264SOL    HW2 4692   6.725   3.605   1.326
 1265SOL     OW 4693   4.871   5.479   3.765
 1265SOL    HW1 4694   4.923   5.396   3.784
 1265SOL    HW2 4695   4.892   5.511   3.672
 1266SOL     OW 4696   0.609   1.336   4.340
 1266SOL    HW1 4697   0.609   1.266   4.268
 1266SOL    HW2 4698   0.541   1.312   4.410
 1267SOL     OW 4699   5.362   6.411   1.070
 1267SOL    HW1 4700   5.329   6.467   1.145
 1267SOL    HW2 4701   5.306   6.328   1.062
 1268SOL     OW 4702   3.934   3.214   0.579
 1268SOL    HW1 4703   3.918   3.142   0.647
 1268SOL    HW2 4704   3.953   3.301   0.626
 1269SOL     OW 4705   5.688   5.257   4.713
 1269SOL    HW1 4706   5.736   5.345   4.712
 1269SOL    HW2 4707   5.753   5.183   4.732
 1270SOL     OW 4708   1.901   4.155   3.423
 1270SOL    HW1 4709   1.961   4.103   3.362
 1270SOL    HW2 4710   1.858   4.229   3.372
 1271SOL     OW 4711   2.838   2.237   3.329
 1271SOL    HW1 4712   2.894   2.190   3.397
 1271SOL    HW2 4713   2.756   2.183   3.311
 1272SOL     OW 4714   5.162   5.534   0.038
 1272SOL    HW1 4715   5.195   5.441   0.050
 1272SOL    HW2 4716   5.236   5.598   0.056
 1273SOL     OW 4717   0.306   4.200   0.100
 1273SOL    HW1 4718   0.258   4.171   0.182
 1273SOL    HW2 4719   0.273   4.147   0.021
 1274SOL     OW 4720   6.648   4.473   1.436
 1274SOL    HW1 4721   6.580   4.426   1.493
 1274SOL    HW2 4722   6.669   4.562   1.476
 1275SOL     OW 4723   3.482   1.806   4.503
 1275SOL    HW1 4724   3.446   1.851   4.422
 1275SOL    HW2 4725   3.543   1.869   4.552
 1276SOL     OW 4726   0.042   6.065   5.141
 1276SOL    HW1 4727   0.086   6.018   5.064
 1276SOL    HW2 4728   6.973   6.076   5.122
 1277SOL     OW 4729   1.509   5.498   6.458
 1277SOL    HW1 4730   1.539   5.517   6.552
 1277SOL    HW2 4731   1.551   5.564   6.396
 1278SOL     OW 4732   0.895   6.876   4.554
 1278SOL    HW1 4733   0.866   6.847   4.645
 1278SOL    HW2 4734   0.993   6.859   4.544
 1279SOL     OW 4735   3.017   6.598   0.432
 1279SOL    HW1 4736   2.927   6.631   0.461
 1279SOL    HW2 4737   3.073   6.676   0.403
 1280SOL     OW 4738   3.264   6.462   4.946
 1280SOL    HW1 4739   3.188   6.397   4.954
 1280SOL    HW2 4740   3.322   6.435   4.869
 1281SOL     OW 4741   1.596   6.451   3.347
 1281SOL    HW1 4742   1.544   6.523   3.392
 1281SOL    HW2 4743   1.671   6.492   3.294
 1282SOL     OW 4744   0.728   2.201   0.075
 1282SOL    HW1 4745   0.698   2.181   7.011
 1282SOL    HW2 4746   0.721   2.119   0.131
 1283SOL     OW 4747   0.333   2.827   5.520
 1283SOL    HW1 4748   0.255   2.802   5.463
 1283SOL    HW2 4749   0.362   2.920   5.499
 1284SOL     OW 4750   5.085   2.231   1.528
 1284SOL    HW1 4751   5.172   2.184   1.517
 1284SOL    HW2 4752   5.010   2.165   1.521
 1285SOL     OW 4753   4.772   1.868   6.502
 1285SOL    HW1 4754   4.717   1.809   6.442
 1285SOL    HW2 4755   4.718   1.950   6.525
 1286SOL     OW 4756   4.873   3.978   2.095
 1286SOL    HW1 4757   4.969   3.987   2.068
 1286SOL    HW2 4758   4.815   4.003   2.018
 1287SOL     OW 4759   5.639   5.761   5.241
 1287SOL    HW1 4760   5.679   5.747   5.331
 1287SOL    HW2 4761   5.614   5.673   5.201
 1288SOL     OW 4762   4.489   3.426   6.836
 1288SOL    HW1 4763   4.560   3.441   6.767
 1288SOL    HW2 4764   4.434   3.346   6.810
 1289SOL     OW 4765   1.128   5.821   2.059
 1289SOL    HW1 4766   1.175   5.842   1.973
 1289SOL    HW2 4767   1.067   5.743   2.046
 1290SOL     OW 4768   0.562   6.174   6.751
 1290SOL    HW1 4769   0.626   6.167   6.828
 1290SOL    HW2 4770   0.609   6.152   6.666
 1291SOL     OW 4771   0.191   3.413   5.342
 1291SOL    HW1 4772   0.094   3.393   5.332
 1291SOL    HW2 4773   0.245   3.335   5.312
 1292SOL     OW 4774   0.210   5.813   2.074
 1292SOL    HW1 4775   0.291   5.829   2.130
 1292SOL    HW2 4776   0.193   5.715   2.068
 1293SOL     OW 4777   1.168   2.154   0.444
 1293SOL    HW1 4778   1.176   2.176   0.346
 1293SOL    HW2 4779   1.121   2.066   0.454
 1294SOL     OW 4780   1.037   3.138   6.492
 1294SOL    HW1 4781   1.054   3.149   6.394
 1294SOL    HW2 4782   1.122   3.109   6.537
 1295SOL     OW 4783   0.314   3.323   2.017
 1295SOL    HW1 4784   0.310   3.244   1.956
 1295SOL    HW2 4785   0.384   3.309   2.087
 1296SOL     OW 4786   3.558   0.106   5.905
 1296SOL    HW1 4787   3.544   0.203   5.927
 1296SOL    HW2 4788   3.655   0.091   5.886
 1297SOL     OW 4789   6.747   0.656   1.535
 1297SOL    HW1 4790   6.736   0.730   1.468
 1297SOL    HW2 4791   6.697   0.678   1.618
 1298SOL     OW 4792   5.374   4.861   2.482
 1298SOL    HW1 4793   5.450   4.854   2.417
 1298SOL    HW2 4794   5.381   4.788   2.549
 1299SOL     OW 4795   1.296   3.945   3.026
 1299SOL    HW1 4796   1.310   4.017   3.094
 1299SOL    HW2 4797   1.199   3.925   3.019
 1300SOL     OW 4798   2.898   2.976   1.082
 1300SOL    HW1 4799   2.988   2.973   1.038
 1300SOL    HW2 4800   2.906   3.022   1.171
 1301SOL     OW 4801   0.760   6.287   1.353
 1301SOL    HW1 4802   0.701   6.365   1.374
 1301SOL    HW2 4803   0.758   6.222   1.429
 1302SOL     OW 4804   4.888   0.685   5.479
 1302SOL    HW1 4805   4.962   0.620   5.460
 1302SOL    HW2 4806   4.801   0.636   5.486
 1303SOL     OW 4807   4.554   2.002   1.718
 1303SOL    HW1 4808   4.538   1.989   1.620
 1303SOL    HW2 4809   4.601   1.921   1.755
 1304SOL     OW 4810   2.262   1.067   6.189
 1304SOL    HW1 4811   2.261   1.166   6.202
 1304SOL    HW2 4812   2.333   1.026   6.246
 1305SOL     OW 4813   5.097   3.570   0.129
 1305SOL    HW1 4814   5.101   3.534   0.222
 1305SOL    HW2 4815   5.033   3.646   0.126
 1306SOL     OW 4816   0.655   4.854   3.961
 1306SOL    HW1 4817   0.653   4.853   4.061
 1306SOL    HW2 4818   0.748   4.872   3.929
 1307SOL     OW 4819   0.819   4.308   4.209
 1307SOL    HW1 4820   0.780   4.232   4.157
 1307SOL    HW2 4821   0.755   4.337   4.280
 1308SOL     OW 4822   5.782   6.588   5.110
 1308SOL    HW1 4823   5.755   6.562   5.203
 1308SOL    HW2 4824   5.843   6.668   5.114
 1309SOL     OW 4825   5.457   3.496   5.453
 1309SOL    HW1 4826   5.411   3.408   5.465
 1309SOL    HW2 4827   5.519   3.512   5.530
 1310SOL     OW 4828   6.993   3.932   3.993
 1310SOL    HW1 4829   7.024   4.024   4.019
 1310SOL    HW2 4830   7.012   3.868   4.067
 1311SOL     OW 4831   0.424   6.459   4.935
 1311SOL    HW1 4832   0.371   6.515   4.872
 1311SOL    HW2 4833   0.370   6.378   4.961
 1312SOL     OW 4834   1.486   6.909   7.001
 1312SOL    HW1 4835   1.429   6.956   6.934
 1312SOL    HW2 4836   1.537   6.836   6.957
 1313SOL     OW 4837   0.645   4.054   3.825
 1313SOL    HW1 4838   0.586   4.051   3.744
 1313SOL    HW2 4839   0.728   4.107   3.803
 1314SOL     OW 4840   4.258   1.457   5.887
 1314SOL    HW1 4841   4.282   1.364   5.914
 1314SOL    HW2 4842   4.285   1.472   5.792
 1315SOL     OW 4843   0.422   1.105   1.408
 1315SOL    HW1 4844   0.504   1.154   1.377
 1315SOL    HW2 4845   0.388   1.147   1.492
 1316SOL     OW 4846   1.795   5.806   4.652
 1316SOL    HW1 4847   1.745   5.878   4.604
 1316SOL    HW2 4848   1.765   5.802   4.748
 1317SOL     OW 4849   2.412   4.630   6.378
 1317SOL    HW1 4850   2.402   4.653   6.475
 1317SOL    HW2 4851   2.509   4.624   6.356
 1318SOL     OW 4852   0.678   1.865   1.291
 1318SOL    HW1 4853   0.621   1.795   1.248
 1318SOL    HW2 4854   0.637   1.955   1.275
 1319SOL     OW 4855   6.743   0.380   0.510
 1319SOL    HW1 4856   6.688   0.341   0.584
 1319SOL    HW2 4857   6.837   0.348   0.517
 1320SOL     OW 4858   4.598   4.250   0.837
 1320SOL    HW1 4859   4.547   4.198   0.905
 1320SOL    HW2 4860   4.693   4.261   0.869
 1321SOL     OW 4861   5.869   1.504   6.647
 1321SOL    HW1 4862   5.875   1.409   6.680
 1321SOL    HW2 4863   5.854   1.503   6.548
 1322SOL     OW 4864   3.847   0.719   3.747
 1322SOL    HW1 4865   3.927   0.776   3.728
 1322SOL    HW2 4866   3.853   0.683   3.840
 1323SOL     OW 4867   5.038   0.907   5.575
 1323SOL    HW1 4868   4.994   0.824   5.539
 1323SOL    HW2 4869   5.135   0.907   5.550
 1324SOL     OW 4870   1.474   3.422   0.608
 1324SOL    HW1 4871   1.409   3.417   0.533
 1324SOL    HW2 4872   1.441   3.366   0.685
 1325SOL     OW 4873   1.948   0.419   2.784
 1325SOL    HW1 4874   2.020   0.482   2.754
 1325SOL    HW2 4875   1.911   0.451   2.871
 1326SOL     OW 4876   4.971   3.507   4.903
 1326SOL    HW1 4877   5.059   3.548   4.925
 1326SOL    HW2 4878   4.898   3.559   4.947
 1327SOL     OW 4879   1.107   5.386   2.439
 1327SOL    HW1 4880   1.081   5.434   2.523
 1327SOL    HW2 4881   1.114   5.452   2.364
 1328SOL     OW 4882   1.401   2.655   0.656
 1328SOL    HW1 4883   1.371   2.699   0.571
 1328SOL    HW2 4884   1.484   2.700   0.690
 1329SOL     OW 4885   7.015   2.458   1.474
 1329SOL    HW1 4886   0.078   2.437   1.507
 1329SOL    HW2 4887   7.021   2.528   1.402
 1330SOL     OW 4888   0.412   1.770   2.009
 1330SOL    HW1 4889   0.395   1.823   1.925
 1330SOL    HW2 4890   0.334   1.779   2.070
 1331SOL     OW 4891   5.123   2.516   3.175
 1331SOL    HW1 4892   5.169   2.541   3.260
 1331SOL    HW2 4893   5.041   2.464   3.195
 1332SOL     OW 4894   2.733   0.182   6.311
 1332SOL    HW1 4895   2.710   0.208   6.405
 1332SOL    HW2 4896   2.762   0.263   6.261
 1333SOL     OW 4897   3.509   4.243   5.167
 1333SOL    HW1 4898   3.583   4.219   5.104
 1333SOL    HW2 4899   3.539   4.318   5.226
 1334SOL     OW 4900   6.344   1.670   4.597
 1334SOL    HW1 4901   6.363   1.733   4.521
 1334SOL    HW2 4902   6.348   1.720   4.683
 1335SOL     OW 4903   2.343   2.312   3.526
 1335SOL    HW1 4904   2.309   2.394   3.481
 1335SOL    HW2 4905   2.273   2.241   3.524
 1336SOL     OW 4906   1.906   1.886   5.266
 1336SOL    HW1 4907   1.919   1.937   5.351
 1336SOL    HW2 4908   1.817   1.841   5.266
 1337SOL     OW 4909   1.961   2.492   4.533
 1337SOL    HW1 4910   1.955   2.393   4.550
 1337SOL    HW2 4911   1.871   2.533   4.546
 1338SOL     OW 4912   5.544   2.039   5.290
 1338SOL    HW1 4913   5.546   1.940   5.302
 1338SOL    HW2 4914   5.544   2.061   5.192
 1339SOL     OW 4915   0.036   1.668   6.188
 1339SOL    HW1 4916   6.992   1.734   6.167
 1339SOL    HW2 4917   0.089   1.701   6.266
 1340SOL     OW 4918   6.892   2.212   2.744
 1340SOL    HW1 4919   6.963   2.277   2.773
 1340SOL    HW2 4920   6.927   2.119   2.754
 1341SOL     OW 4921   5.318   0.060   6.268
 1341SOL    HW1 4922   5.354   0.092   6.356
 1341SOL    HW2 4923   5.360   7.001   6.245
 1342SOL     OW 4924   1.663   5.489   5.998
 1342SOL    HW1 4925   1.758   5.458   5.996
 1342SOL    HW2 4926   1.658   5.580   6.039
 1343SOL     OW 4927   4.683   5.651   3.419
 1343SOL    HW1 4928   4.621   5.582   3.457
 1343SOL    HW2 4929   4.645   5.742   3.435
 1344SOL     OW 4930   6.814   5.488   4.459
 1344SOL    HW1 4931   6.831   5.570   4.405
 1344SOL    HW2 4932   6.780   5.515   4.550
 1345SOL     OW 4933   1.613   0.608   2.875
 1345SOL    HW1 4934   1.646   0.642   2.787
 1345SOL    HW2 4935   1.555   0.528   2.861
 1346SOL     OW 4936   0.983   6.055   4.539
 1346SOL    HW1 4937   1.011   6.021   4.450
 1346SOL    HW2 4938   1.063   6.091   4.588
 1347SOL     OW 4939   6.271   6.619   4.579
 1347SOL    HW1 4940   6.314   6.605   4.668
 1347SOL    HW2 4941   6.195   6.556   4.567
 1348SOL     OW 4942   5.508   5.388   2.570
 1348SOL    HW1 4943   5.482   5.482   2.593
 1348SOL    HW2 4944   5.451   5.324   2.621
 1349SOL     OW 4945   4.574   2.325   5.768
 1349SOL    HW1 4946   4.478   2.304   5.789
 1349SOL    HW2 4947   4.578   2.383   5.686
 1350SOL     OW 4948   5.187   5.131   5.223
 1350SOL    HW1 4949   5.208   5.036   5.245
 1350SOL    HW2 4950   5.236   5.158   5.141
 1351SOL     OW 4951   6.212   1.592   3.550
 1351SOL    HW1 4952   6.114   1.588   3.571
 1351SOL    HW2 4953   6.260   1.518   3.597
 1352SOL     OW 4954   6.508   6.783   2.714
 1352SOL    HW1 4955   6.600   6.760   2.682
 1352SOL    HW2 4956   6.509   6.873   2.757
 1353SOL     OW 4957   0.347   3.409   0.352
 1353SOL    HW1 4958   0.376   3.393   0.258
 1353SOL    HW2 4959   0.321   3.322   0.394
 1354SOL     OW 4960   0.995   3.405   0.496
 1354SOL    HW1 4961   0.903   3.368   0.510
 1354SOL    HW2 4962   1.049   3.390   0.579
 1355SOL     OW 4963   6.701   2.196   5.191
 1355SOL    HW1 4964   6.667   2.139   5.116
 1355SOL    HW2 4965   6.626   2.249   5.229
 1356SOL     OW 4966   3.007   3.276   2.931
 1356SOL    HW1 4967   3.010   3.303   2.835
 1356SOL    HW2 4968   3.005   3.176   2.938
 1357SOL     OW 4969   1.259   3.114   5.378
 1357SOL    HW1 4970   1.357   3.103   5.364
 1357SOL    HW2 4971   1.241   3.133   5.474
 1358SOL     OW 4972   4.358   0.825   5.877
 1358SOL    HW1 4973   4.445   0.865   5.847
 1358SOL    HW2 4974   4.368   0.792   5.971
 1359SOL     OW 4975   5.754   4.202   1.914
 1359SOL    HW1 4976   5.841   4.158   1.894
 1359SOL    HW2 4977   5.681   4.134   1.914
 1360SOL     OW 4978   4.123   2.647   0.383
 1360SOL    HW1 4979   4.077   2.730   0.417
 1360SOL    HW2 4980   4.221   2.663   0.380
 1361SOL     OW 4981   6.692   5.676   5.180
 1361SOL    HW1 4982   6.687   5.750   5.114
 1361SOL    HW2 4983   6.768   5.615   5.158
 1362SOL     OW 4984   2.962   3.872   4.298
 1362SOL    HW1 4985   2.869   3.864   4.332
 1362SOL    HW2 4986   3.014   3.935   4.356
 1363SOL     OW 4987   6.806   5.635   3.321
 1363SOL    HW1 4988   6.786   5.693   3.399
 1363SOL    HW2 4989   6.722   5.617   3.270
 1364SOL     OW 4990   6.566   2.361   1.203
 1364SOL    HW1 4991   6.565   2.410   1.290
 1364SOL    HW2 4992   6.527   2.270   1.215
 1365SOL     OW 4993   0.945   2.656   6.060
 1365SOL    HW1 4994   0.974   2.734   6.004
 1365SOL    HW2 4995   0.942   2.573   6.004
 1366SOL     OW 4996   1.120   4.519   0.042
 1366SOL    HW1 4997   1.029   4.481   0.063
 1366SOL    HW2 4998   1.147   4.492   6.979
 1367SOL     OW 4999   2.099   6.933   2.634
 1367SOL    HW1 5000   2.016   6.878   2.646
 1367SOL    HW2 5001   2.074   0.001   2.630
 1368SOL     OW 5002   6.561   0.664   3.784
 1368SOL    HW1 5003   6.491   0.666   3.713
 1368SOL    HW2 5004   6.604   0.754   3.791
 1369SOL     OW 5005   2.509   0.158   1.756
 1369SOL    HW1 5006   2.458   0.132   1.838
 1369SOL    HW2 5007   2.560   0.079   1.721
 1370SOL     OW 5008   3.888   1.442   1.932
 1370SOL    HW1 5009   3.814   1.492   1.887
 1370SOL    HW2 5010   3.953   1.409   1.863
 1371SOL     OW 5011   6.497   1.262   4.318
 1371SOL    HW1 5012   6.581   1.315   4.327
 1371SOL    HW2 5013   6.422   1.310   4.366
 1372SOL     OW 5014   1.358   2.903   0.806
 1372SOL    HW1 5015   1.379   2.810   0.777
 1372SOL    HW2 5016   1.374   2.966   0.729
 1373SOL     OW 5017   4.637   2.453   6.694
 1373SOL    HW1 5018   4.688   2.394   6.756
 1373SOL    HW2 5019   4.683   2.458   6.606
 1374SOL     OW 5020   4.919   1.580   0.133
 1374SOL    HW1 5021   5.008   1.621   0.114
 1374SOL    HW2 5022   4.916   1.550   0.228
 1375SOL     OW 5023   0.658   4.237   6.559
 1375SOL    HW1 5024   0.711   4.265   6.479
 1375SOL    HW2 5025   0.570   4.200   6.530
 1376SOL     OW 5026   4.572   4.817   5.178
 1376SOL    HW1 5027   4.503   4.890   5.173
 1376SOL    HW2 5028   4.592   4.783   5.086
 1377SOL     OW 5029   0.797   3.417   5.749
 1377SOL    HW1 5030   0.831   3.358   5.823
 1377SOL    HW2 5031   0.859   3.410   5.670
 1378SOL     OW 5032   5.878   1.021   4.994
 1378SOL    HW1 5033   5.948   1.079   4.952
 1378SOL    HW2 5034   5.881   0.930   4.953
 1379SOL     OW 5035   3.561   7.008   3.252
 1379SOL    HW1 5036   3.581   6.914   3.222
 1379SOL    HW2 5037   3.482   0.014   3.203
 1380SOL     OW 5038   0.005   6.882   2.440
 1380SOL    HW1 5039   6.944   6.915   2.470
 1380SOL    HW2 5040   7.026   6.841   2.349
 1381SOL     OW 5041   5.699   2.409   6.577
 1381SOL    HW1 5042   5.676   2.331   6.519
 1381SOL    HW2 5043   5.781   2.389   6.630
 1382SOL     OW 5044   4.599   3.834   0.225
 1382SOL    HW1 5045   4.687   3.880   0.239
 1382SOL    HW2 5046   4.588   3.812   0.128
 1383SOL     OW 5047   0.844   0.339   2.235
 1383SOL    HW1 5048   0.779   0.264   2.250
 1383SOL    HW2 5049   0.808   0.423   2.276
 1384SOL     OW 5050   4.939   0.143   1.869
 1384SOL    HW1 5051   4.885   0.103   1.795
 1384SOL    HW2 5052   4.969   0.071   1.932
 1385SOL     OW 5053   1.904   4.444   3.545
 1385SOL    HW1 5054   1.901   4.449   3.445
 1385SOL    HW2 5055   1.883   4.534   3.584
 1386SOL     OW 5056   3.262   0.193   4.731
 1386SOL    HW1 5057   3.305   0.197   4.640
 1386SOL    HW2 5058   3.204   0.112   4.738
 1387SOL     OW 5059   3.351   5.998   2.336
 1387SOL    HW1 5060   3.365   6.097   2.335
 1387SOL    HW2 5061   3.306   5.970   2.251
 1388SOL     OW 5062   0.623   0.347   3.108
 1388SOL    HW1 5063   0.698   0.342   3.042
 1388SOL    HW2 5064   0.637   0.278   3.179
 1389SOL     OW 5065   6.541   1.100   4.065
 1389SOL    HW1 5066   6.520   1.136   4.155
 1389SOL    HW2 5067   6.606   1.023   4.074
 1390SOL     OW 5068   6.409   2.825   6.052
 1390SOL    HW1 5069   6.363   2.827   5.964
 1390SOL    HW2 5070   6.341   2.823   6.125
 1391SOL     OW 5071   6.070   6.678   5.584
 1391SOL    HW1 5072   6.154   6.686   5.531
 1391SOL    HW2 5073   6.069   6.590   5.631
 1392SOL     OW 5074   5.421   6.620   6.301
 1392SOL    HW1 5075   5.425   6.558   6.223
 1392SOL    HW2 5076   5.352   6.587   6.366
 1393SOL     OW 5077   6.480   3.523   5.791
 1393SOL    HW1 5078   6.542   3.447   5.810
 1393SOL    HW2 5079   6.452   3.566   5.876
 1394SOL     OW 5080   3.857   6.033   4.815
 1394SOL    HW1 5081   3.803   6.007   4.895
 1394SOL    HW2 5082   3.803   6.093   4.756
 1395SOL     OW 5083   1.888   4.352   3.906
 1395SOL    HW1 5084   1.944   4.354   3.823
 1395SOL    HW2 5085   1.948   4.347   3.986
 1396SOL     OW 5086   0.711   0.314   4.656
 1396SOL    HW1 5087   0.715   0.272   4.566
 1396SOL    HW2 5088   0.629   0.283   4.704
 1397SOL     OW 5089   0.187   5.701   4.366
 1397SOL    HW1 5090   0.130   5.679   4.287
 1397SOL    HW2 5091   0.279   5.724   4.335
 1398SOL     OW 5092   2.429   1.551   6.988
 1398SOL    HW1 5093   2.483   1.567   6.905
 1398SOL    HW2 5094   2.422   1.452   7.004
 1399SOL     OW 5095   3.784   6.593   0.135
 1399SOL    HW1 5096   3.818   6.516   0.081
 1399SOL    HW2 5097   3.727   6.651   0.077
 1400SOL     OW 5098   0.539   1.695   4.547
 1400SOL    HW1 5099   0.522   1.788   4.515
 1400SOL    HW2 5100   0.463   1.636   4.519
 1401SOL     OW 5101   5.472   0.261   4.799
 1401SOL    HW1 5102   5.539   0.255   4.874
 1401SOL    HW2 5103   5.509   0.318   4.726
 1402SOL     OW 5104   5.725   4.448   6.639
 1402SOL    HW1 5105   5.731   4.524   6.574
 1402SOL    HW2 5106   5.814   4.404   6.647
 1403SOL     OW 5107   1.888   2.075   1.382
 1403SOL    HW1 5108   1.940   1.992   1.359
 1403SOL    HW2 5109   1.914   2.105   1.474
 1404SOL     OW 5110   6.747   0.481   0.071
 1404SOL    HW1 5111   6.795   0.522   0.148
 1404SOL    HW2 5112   6.672   0.541   0.043
 1405SOL     OW 5113   2.859   4.231   1.113
 1405SOL    HW1 5114   2.824   4.325   1.114
 1405SOL    HW2 5115   2.826   4.185   1.031
 1406SOL     OW 5116   1.717   5.432   1.341
 1406SOL    HW1 5117   1.765   5.519   1.345
 1406SOL    HW2 5118   1.757   5.368   1.407
 1407SOL     OW 5119   1.336   4.148   3.190
 1407SOL    HW1 5120   1.394   4.222   3.224
 1407SOL    HW2 5121   1.241   4.164   3.219
 1408SOL     OW 5122   5.645   6.650   6.431
 1408SOL    HW1 5123   5.556   6.677   6.395
 1408SOL    HW2 5124   5.638   6.560   6.474
 1409SOL     OW 5125   1.063   0.026   5.183
 1409SOL    HW1 5126   0.996   0.095   5.210
 1409SOL    HW2 5127   1.049   6.972   5.237
 1410SOL     OW 5128   2.286   4.079   6.386
 1410SOL    HW1 5129   2.299   4.178   6.389
 1410SOL    HW2 5130   2.273   4.051   6.291
 1411SOL     OW 5131   3.517   6.337   0.325
 1411SOL    HW1 5132   3.430   6.288   0.316
 1411SOL    HW2 5133   3.500   6.436   0.319
 1412SOL     OW 5134   0.703   4.025   1.307
 1412SOL    HW1 5135   0.640   4.093   1.346
 1412SOL    HW2 5136   0.745   4.063   1.224
 1413SOL     OW 5137   2.305   1.377   4.648
 1413SOL    HW1 5138   2.318   1.476   4.661
 1413SOL    HW2 5139   2.227   1.361   4.588
 1414SOL     OW 5140   2.732   1.704   1.635
 1414SOL    HW1 5141   2.729   1.781   1.698
 1414SOL    HW2 5142   2.640   1.663   1.627
 1415SOL     OW 5143   2.880   1.609   4.020
 1415SOL    HW1 5144   2.885   1.513   3.993
 1415SOL    HW2 5145   2.960   1.658   3.987
 1416SOL     OW 5146   3.791   6.738   4.757
 1416SOL    HW1 5147   3.845   6.790   4.823
 1416SOL    HW2 5148   3.741   6.801   4.698
 1417SOL     OW 5149   3.213   2.675   6.542
 1417SOL    HW1 5150   3.244   2.660   6.636
 1417SOL    HW2 5151   3.116   2.655   6.535
 1418SOL     OW 5152   2.886   3.707   1.105
 1418SOL    HW1 5153   2.849   3.646   1.175
 1418SOL    HW2 5154   2.838   3.691   1.019
 1419SOL     OW 5155   3.386   6.095   4.278
 1419SOL    HW1 5156   3.391   6.150   4.195
 1419SOL    HW2 5157   3.325   6.017   4.263
 1420SOL     OW 5158   3.686   6.432   3.433
 1420SOL    HW1 5159   3.595   6.472   3.423
 1420SOL    HW2 5160   3.754   6.497   3.401
 1421SOL     OW 5161   1.026   3.967   4.203
 1421SOL    HW1 5162   1.048   4.050   4.152
 1421SOL    HW2 5163   0.929   3.966   4.225
 1422SOL     OW 5164   2.917   4.344   6.787
 1422SOL    HW1 5165   2.930   4.252   6.822
 1422SOL    HW2 5166   2.903   4.341   6.688
 1423SOL     OW 5167   4.113   0.828   4.528
 1423SOL    HW1 5168   4.190   0.888   4.506
 1423SOL    HW2 5169   4.040   0.882   4.570
 1424SOL     OW 5170   6.851   4.113   6.582
 1424SOL    HW1 5171   6.769   4.165   6.605
 1424SOL    HW2 5172   6.895   4.153   6.502
 1425SOL     OW 5173   2.267   5.289   5.111
 1425SOL    HW1 5174   2.280   5.387   5.129
 1425SOL    HW2 5175   2.240   5.244   5.196
 1426SOL     OW 5176   2.426   2.121   5.921
 1426SOL    HW1 5177   2.506   2.086   5.873
 1426SOL    HW2 5178   2.352   2.137   5.856
 1427SOL     OW 5179   6.636   6.636   3.721
 1427SOL    HW1 5180   6.562   6.697   3.694
 1427SOL    HW2 5181   6.618   6.544   3.685
 1428SOL     OW 5182   0.874   2.161   1.708
 1428SOL    HW1 5183   0.869   2.061   1.704
 1428SOL    HW2 5184   0.796   2.197   1.759
 1429SOL     OW 5185   5.954   1.807   0.272
 1429SOL    HW1 5186   5.978   1.892   0.319
 1429SOL    HW2 5187   6.018   1.792   0.195
 1430SOL     OW 5188   1.862   5.105   3.646
 1430SOL    HW1 5189   1.908   5.023   3.680
 1430SOL    HW2 5190   1.868   5.107   3.546
 1431SOL     OW 5191   2.786   2.956   6.745
 1431SOL    HW1 5192   2.832   2.910   6.669
 1431SOL    HW2 5193   2.732   2.889   6.797
 1432SOL     OW 5194   3.342   0.849   0.763
 1432SOL    HW1 5195   3.313   0.936   0.802
 1432SOL    HW2 5196   3.376   0.789   0.836
 1433SOL     OW 5197   4.700   0.635   4.798
 1433SOL    HW1 5198   4.627   0.603   4.859
 1433SOL    HW2 5199   4.774   0.568   4.797
 1434SOL     OW 5200   0.465   1.000   6.270
 1434SOL    HW1 5201   0.399   1.071   6.296
 1434SOL    HW2 5202   0.508   1.024   6.183
 1435SOL     OW 5203   6.299   0.065   3.216
 1435SOL    HW1 5204   6.335   7.008   3.179
 1435SOL    HW2 5205   6.301   0.136   3.145
 1436SOL     OW 5206   5.458   4.130   6.783
 1436SOL    HW1 5207   5.470   4.170   6.693
 1436SOL    HW2 5208   5.465   4.030   6.777
 1437SOL     OW 5209   3.763   1.759   6.302
 1437SOL    HW1 5210   3.762   1.750   6.401
 1437SOL    HW2 5211   3.798   1.675   6.261
 1438SOL     OW 5212   2.500   6.995   1.029
 1438SOL    HW1 5213   2.532   0.011   1.113
 1438SOL    HW2 5214   2.482   0.035   0.959
 1439SOL     OW 5215   0.162   4.768   0.566
 1439SOL    HW1 5216   0.128   4.740   0.656
 1439SOL    HW2 5217   0.094   4.824   0.520
 1440SOL     OW 5218   3.047   2.681   6.031
 1440SOL    HW1 5219   3.119   2.683   5.962
 1440SOL    HW2 5220   3.088   2.677   6.122
 1441SOL     OW 5221   6.189   3.279   4.008
 1441SOL    HW1 5222   6.199   3.376   4.027
 1441SOL    HW2 5223   6.166   3.230   4.093
 1442SOL     OW 5224   6.249   5.019   7.028
 1442SOL    HW1 5225   6.273   4.923   7.016
 1442SOL    HW2 5226   6.333   5.074   7.028
 1443SOL     OW 5227   0.909   3.046   4.923
 1443SOL    HW1 5228   0.880   2.951   4.933
 1443SOL    HW2 5229   0.836   3.100   4.882
 1444SOL     OW 5230   4.464   5.481   1.064
 1444SOL    HW1 5231   4.481   5.418   1.140
 1444SOL    HW2 5232   4.539   5.548   1.060
 1445SOL     OW 5233   6.987   2.524   1.881
 1445SOL    HW1 5234   6.946   2.472   1.956
 1445SOL    HW2 5235   6.928   2.518   1.800
 1446SOL     OW 5236   4.794   2.261   6.844
 1446SOL    HW1 5237   4.793   2.264   6.944
 1446SOL    HW2 5238   4.743   2.180   6.813
 1447SOL     OW 5239   6.101   6.455   5.769
 1447SOL    HW1 5240   6.059   6.365   5.780
 1447SOL    HW2 5241   6.196   6.445   5.741
 1448SOL     OW 5242   6.756   2.700   0.055
 1448SOL    HW1 5243   6.694   2.778   0.063
 1448SOL    HW2 5244   6.747   2.642   0.136
 1449SOL     OW 5245   6.813   0.904   6.940
 1449SOL    HW1 5246   6.846   0.922   0.004
 1449SOL    HW2 5247   6.888   0.870   6.883
 1450SOL     OW 5248   0.860   2.655   2.028
 1450SOL    HW1 5249   0.920   2.734   2.044
 1450SOL    HW2 5250   0.913   2.580   1.988
 1451SOL     OW 5251   2.726   1.336   2.665
 1451SOL    HW1 5252   2.816   1.295   2.656
 1451SOL    HW2 5253   2.685   1.347   2.574
 1452SOL     OW 5254   4.352   0.899   4.379
 1452SOL    HW1 5255   4.424   0.901   4.449
 1452SOL    HW2 5256   4.387   0.940   4.294
 1453SOL     OW 5257   6.880   3.082   5.064
 1453SOL    HW1 5258   6.929   3.156   5.111
 1453SOL    HW2 5259   6.792   3.067   5.107
 1454SOL     OW 5260   6.432   2.413   3.016
 1454SOL    HW1 5261   6.514   2.399   2.960
 1454SOL    HW2 5262   6.434   2.505   3.055
 1455SOL     OW 5263   1.172   0.421   1.430
 1455SOL    HW1 5264   1.115   0.488   1.478
 1455SOL    HW2 5265   1.242   0.387   1.493
 1456SOL     OW 5266   6.558   6.773   5.422
 1456SOL    HW1 5267   6.646   6.812   5.448
 1456SOL    HW2 5268   6.568   6.721   5.338
 1457SOL     OW 5269   1.398   0.065   1.328
 1457SOL    HW1 5270   1.315   0.039   1.378
 1457SOL    HW2 5271   1.374   0.133   1.259
 1458SOL     OW 5272   6.060   6.116   3.509
 1458SOL    HW1 5273   6.077   6.214   3.525
 1458SOL    HW2 5274   5.962   6.099   3.511
 1459SOL     OW 5275   2.575   5.348   5.381
 1459SOL    HW1 5276   2.479   5.343   5.408
 1459SOL    HW2 5277   2.593   5.439   5.342
 1460SOL     OW 5278   0.440   5.304   6.141
 1460SOL    HW1 5279   0.434   5.287   6.042
 1460SOL    HW2 5280   0.534   5.327   6.165
 1461SOL     OW 5281   0.708   5.244   3.861
 1461SOL    HW1 5282   0.781   5.185   3.829
 1461SOL    HW2 5283   0.622   5.220   3.815
 1462SOL     OW 5284   1.241   0.943   6.076
 1462SOL    HW1 5285   1.206   1.036   6.077
 1462SOL    HW2 5286   1.331   0.940   6.120
 1463SOL     OW 5287   0.423   5.171   7.002
 1463SOL    HW1 5288   0.500   5.113   6.974
 1463SOL    HW2 5289   0.459   5.258   0.008
 1464SOL     OW 5290   6.101   6.666   1.002
 1464SOL    HW1 5291   6.056   6.756   0.995
 1464SOL    HW2 5292   6.125   6.634   0.910
 1465SOL     OW 5293   1.694   1.578   3.852
 1465SOL    HW1 5294   1.684   1.547   3.758
 1465SOL    HW2 5295   1.675   1.502   3.915
 1466SOL     OW 5296   1.175   1.358   2.471
 1466SOL    HW1 5297   1.208   1.384   2.380
 1466SOL    HW2 5298   1.192   1.261   2.486
 1467SOL     OW 5299   1.883   2.026   2.000
 1467SOL    HW1 5300   1.953   2.082   1.956
 1467SOL    HW2 5301   1.873   2.053   2.096
 1468SOL     OW 5302   5.636   5.542   2.799
 1468SOL    HW1 5303   5.728   5.554   2.836
 1468SOL    HW2 5304   5.622   5.605   2.723
 1469SOL     OW 5305   0.883   1.331   1.905
 1469SOL    HW1 5306   0.927   1.282   1.830
 1469SOL    HW2 5307   0.950   1.348   1.978
 1470SOL     OW 5308   1.592   1.366   2.417
 1470SOL    HW1 5309   1.607   1.327   2.508
 1470SOL    HW2 5310   1.560   1.461   2.427
 1471SOL     OW 5311   1.164   0.277   0.507
 1471SOL    HW1 5312   1.154   0.349   0.575
 1471SOL    HW2 5313   1.099   0.291   0.433
 1472SOL     OW 5314   3.787   5.492   5.090
 1472SOL    HW1 5315   3.870   5.491   5.035
 1472SOL    HW2 5316   3.805   5.539   5.177
 1473SOL     OW 5317   5.286   6.348   3.900
 1473SOL    HW1 5318   5.292   6.251   3.880
 1473SOL    HW2 5319   5.235   6.362   3.985
 1474SOL     OW 5320   6.176   5.735   2.919
 1474SOL    HW1 5321   6.086   5.693   2.929
 1474SOL    HW2 5322   6.180   5.819   2.973
 1475SOL     OW 5323   6.504   0.434   1.909
 1475SOL    HW1 5324   6.459   0.496   1.973
 1475SOL    HW2 5325   6.554   0.364   1.960
 1476SOL     OW 5326   2.636   1.414   1.462
 1476SOL    HW1 5327   2.601   1.487   1.522
 1476SOL    HW2 5328   2.571   1.338   1.461
 1477SOL     OW 5329   3.418   1.164   6.681
 1477SOL    HW1 5330   3.446   1.080   6.727
 1477SOL    HW2 5331   3.322   1.184   6.702
 1478SOL     OW 5332   5.720   5.095   0.102
 1478SOL    HW1 5333   5.818   5.114   0.113
 1478SOL    HW2 5334   5.687   5.141   0.019
 1479SOL     OW 5335   1.573   3.227   6.975
 1479SOL    HW1 5336   1.516   3.294   7.023
 1479SOL    HW2 5337   1.638   3.275   6.916
 1480SOL     OW 5338   3.306   6.974   6.136
 1480SOL    HW1 5339   3.379   6.943   6.075
 1480SOL    HW2 5340   3.342   6.988   6.228
 1481SOL     OW 5341   0.142   2.554   5.539
 1481SOL    HW1 5342   0.056   2.504   5.551
 1481SOL    HW2 5343   0.174   2.586   5.628
 1482SOL     OW 5344   5.061   2.501   0.957
 1482SOL    HW1 5345   4.978   2.447   0.940
 1482SOL    HW2 5346   5.050   2.556   1.039
 1483SOL     OW 5347   5.679   2.130   6.004
 1483SOL    HW1 5348   5.700   2.113   5.908
 1483SOL    HW2 5349   5.650   2.045   6.048
 1484SOL     OW 5350   5.893   5.198   3.733
 1484SOL    HW1 5351   5.961   5.127   3.714
 1484SOL    HW2 5352   5.872   5.198   3.831
 1485SOL     OW 5353   3.309   1.692   3.175
 1485SOL    HW1 5354   3.252   1.614   3.203
 1485SOL    HW2 5355   3.262   1.777   3.195
 1486SOL     OW 5356   4.859   2.132   3.163
 1486SOL    HW1 5357   4.923   2.159   3.091
 1486SOL    HW2 5358   4.882   2.180   3.247
 1487SOL     OW 5359   6.747   3.104   6.531
 1487SOL    HW1 5360   6.829   3.054   6.559
 1487SOL    HW2 5361   6.673   3.087   6.595
 1488SOL     OW 5362   5.618   1.991   3.364
 1488SOL    HW1 5363   5.637   1.983   3.462
 1488SOL    HW2 5364   5.523   1.966   3.346
 1489SOL     OW 5365   3.835   5.326   3.684
 1489SOL    HW1 5366   3.785   5.329   3.771
 1489SOL    HW2 5367   3.781   5.279   3.615
 1490SOL     OW 5368   1.183   2.942   1.020
 1490SOL    HW1 5369   1.203   2.869   1.086
 1490SOL    HW2 5370   1.252   2.940   0.947
 1491SOL     OW 5371   6.534   3.769   3.503
 1491SOL    HW1 5372   6.601   3.728   3.442
 1491SOL    HW2 5373   6.468   3.822   3.450
 1492SOL     OW 5374   5.529   1.481   2.645
 1492SOL    HW1 5375   5.467   1.520   2.577
 1492SOL    HW2 5376   5.481   1.471   2.733
 1493SOL     OW 5377   4.382   0.433   4.042
 1493SOL    HW1 5378   4.477   0.417   4.072
 1493SOL    HW2 5379   4.325   0.450   4.122
 1494SOL     OW 5380   5.854   1.678   5.588
 1494SOL    HW1 5381   5.798   1.761   5.598
 1494SOL    HW2 5382   5.836   1.617   5.665
 1495SOL     OW 5383   6.553   2.553   4.933
 1495SOL    HW1 5384   6.648   2.546   4.900
 1495SOL    HW2 5385   6.552   2.600   5.021
 1496SOL     OW 5386   0.535   1.654   2.239
 1496SOL    HW1 5387   0.634   1.664   2.247
 1496SOL    HW2 5388   0.505   1.690   2.151
 1497SOL     OW 5389   6.969   3.118   3.594
 1497SOL    HW1 5390   0.028   3.125   3.641
 1497SOL    HW2 5391   6.896   3.149   3.654
 1498SOL     OW 5392   1.991   4.574   6.079
 1498SOL    HW1 5393   1.993   4.605   5.984
 1498SOL    HW2 5394   2.082   4.543   6.106
 1499SOL     OW 5395   1.194   3.480   6.366
 1499SOL    HW1 5396   1.209   3.562   6.421
 1499SOL    HW2 5397   1.282   3.445   6.334
 1500SOL     OW 5398   6.607   6.283   0.100
 1500SOL    HW1 5399   6.634   6.302   0.195
 1500SOL    HW2 5400   6.683   6.306   0.039
 1501SOL     OW 5401   5.570   1.877   6.049
 1501SOL    HW1 5402   5.592   1.851   6.143
 1501SOL    HW2 5403   5.522   1.803   6.003
 1502SOL     OW 5404   5.790   0.365   1.344
 1502SOL    HW1 5405   5.758   0.284   1.394
 1502SOL    HW2 5406   5.747   0.447   1.382
 1503SOL     OW 5407   2.059   1.811   2.162
 1503SOL    HW1 5408   2.011   1.888   2.119
 1503SOL    HW2 5409   2.094   1.751   2.090
 1504SOL     OW 5410   0.930   0.484   5.132
 1504SOL    HW1 5411   0.901   0.450   5.222
 1504SOL    HW2 5412   0.857   0.470   5.066
 1505SOL     OW 5413   5.898   0.532   5.875
 1505SOL    HW1 5414   5.986   0.495   5.847
 1505SOL    HW2 5415   5.902   0.559   5.971
 1506SOL     OW 5416   1.692   5.097   1.080
 1506SOL    HW1 5417   1.764   5.096   1.149
 1506SOL    HW2 5418   1.729   5.127   0.993
 1507SOL     OW 5419   1.007   1.689   5.688
 1507SOL    HW1 5420   0.959   1.734   5.613
 1507SOL    HW2 5421   1.040   1.600   5.659
 1508SOL     OW 5422   6.670   0.188   1.910
 1508SOL    HW1 5423   6.609   0.110   1.925
 1508SOL    HW2 5424   6.733   0.197   1.987
 1509SOL     OW 5425   4.786   2.645   5.861
 1509SOL    HW1 5426   4.708   2.697   5.897
 1509SOL    HW2 5427   4.871   2.694   5.880
 1510SOL     OW 5428   5.443   2.536   4.995
 1510SOL    HW1 5429   5.524   2.567   4.945
 1510SOL    HW2 5430   5.462   2.537   5.093
 1511SOL     OW 5431   3.194   3.068   1.402
 1511SOL    HW1 5432   3.171   3.060   1.499
 1511SOL    HW2 5433   3.150   2.994   1.351
 1512SOL     OW 5434   0.657   5.119   1.369
 1512SOL    HW1 5435   0.605   5.061   1.307
 1512SOL    HW2 5436   0.597   5.153   1.441
 1513SOL     OW 5437   3.281   0.928   3.632
 1513SOL    HW1 5438   3.364   0.893   3.589
 1513SOL    HW2 5439   3.203   0.910   3.573
 1514SOL     OW 5440   4.922   2.394   5.851
 1514SOL    HW1 5441   4.844   2.336   5.874
 1514SOL    HW2 5442   4.894   2.490   5.855
 1515SOL     OW 5443   5.860   2.441   5.023
 1515SOL    HW1 5444   5.825   2.362   4.973
 1515SOL    HW2 5445   5.842   2.524   4.971
 1516SOL     OW 5446   0.145   0.069   0.502
 1516SOL    HW1 5447   0.082   0.146   0.500
 1516SOL    HW2 5448   0.095   7.013   0.486
 1517SOL     OW 5449   4.186   6.264   3.642
 1517SOL    HW1 5450   4.091   6.241   3.662
 1517SOL    HW2 5451   4.192   6.304   3.550
 1518SOL     OW 5452   1.034   3.067   6.988
 1518SOL    HW1 5453   1.009   2.992   6.927
 1518SOL    HW2 5454   1.121   3.047   0.004
 1519SOL     OW 5455   6.177   4.915   2.083
 1519SOL    HW1 5456   6.214   5.006   2.063
 1519SOL    HW2 5457   6.125   4.919   2.169
 1520SOL     OW 5458   0.358   3.850   2.416
 1520SOL    HW1 5459   0.322   3.757   2.428
 1520SOL    HW2 5460   0.329   3.907   2.493
 1521SOL     OW 5461   2.139   3.986   0.419
 1521SOL    HW1 5462   2.063   3.984   0.353
 1521SOL    HW2 5463   2.226   3.985   0.369
 1522SOL     OW 5464   6.334   6.939   4.789
 1522SOL    HW1 5465   6.378   6.896   4.710
 1522SOL    HW2 5466   6.380   6.910   4.872
 1523SOL     OW 5467   4.942   4.609   0.128
 1523SOL    HW1 5468   4.997   4.571   0.054
 1523SOL    HW2 5469   4.897   4.535   0.178
 1524SOL     OW 5470   1.598   2.268   1.938
 1524SOL    HW1 5471   1.630   2.235   2.026
 1524SOL    HW2 5472   1.507   2.230   1.919
 1525SOL     OW 5473   6.724   2.563   0.293
 1525SOL    HW1 5474   6.706   2.628   0.366
 1525SOL    HW2 5475   6.797   2.500   0.322
 1526SOL     OW 5476   0.778   6.838   6.756
 1526SOL    HW1 5477   0.775   6.743   6.725
 1526SOL    HW2 5478   0.685   6.873   6.767
 1527SOL     OW 5479   3.728   0.774   5.822
 1527SOL    HW1 5480   3.779   0.823   5.892
 1527SOL    HW2 5481   3.701   0.837   5.749
 1528SOL     OW 5482   4.848   5.838   2.474
 1528SOL    HW1 5483   4.864   5.758   2.532
 1528SOL    HW2 5484   4.906   5.833   2.393
 1529SOL     OW 5485   4.193   0.120   0.577
 1529SOL    HW1 5486   4.111   0.134   0.633
 1529SOL    HW2 5487   4.274   0.136   0.632
 1530SOL     OW 5488   3.319   1.456   2.968
 1530SOL    HW1 5489   3.224   1.459   2.936
 1530SOL    HW2 5490   3.329   1.517   3.046
 1531SOL     OW 5491   5.302   0.980   4.963
 1531SOL    HW1 5492   5.274   0.917   4.891
 1531SOL    HW2 5493   5.270   1.072   4.941
 1532SOL     OW 5494   2.641   3.784   5.869
 1532SOL    HW1 5495   2.694   3.765   5.952
 1532SOL    HW2 5496   2.551   3.819   5.895
 1533SOL     OW 5497   6.722   3.202   0.047
 1533SOL    HW1 5498   6.784   3.230   7.002
 1533SOL    HW2 5499   6.773   3.197   0.133
 1534SOL     OW 5500   1.696   5.122   6.480
 1534SOL    HW1 5501   1.714   5.035   6.526
 1534SOL    HW2 5502   1.666   5.105   6.387
 1535SOL     OW 5503   4.810   6.337   4.658
 1535SOL    HW1 5504   4.892   6.343   4.716
 1535SOL    HW2 5505   4.824   6.267   4.588
 1536SOL     OW 5506   4.117   4.241   5.251
 1536SOL    HW1 5507   4.142   4.144   5.252
 1536SOL    HW2 5508   4.184   4.292   5.198
 1537SOL     OW 5509   3.944   6.175   3.691
 1537SOL    HW1 5510   3.880   6.100   3.674
 1537SOL    HW2 5511   3.895   6.262   3.688
 1538SOL     OW 5512   3.693   5.967   5.122
 1538SOL    HW1 5513   3.733   5.938   5.209
 1538SOL    HW2 5514   3.635   5.895   5.086
 1539SOL     OW 5515   4.286   3.573   1.767
 1539SOL    HW1 5516   4.373   3.621   1.778
 1539SOL    HW2 5517   4.249   3.591   1.676
 1540SOL     OW 5518   1.868   6.369   5.994
 1540SOL    HW1 5519   1.775   6.376   5.960
 1540SOL    HW2 5520   1.889   6.273   6.016
 1541SOL     OW 5521   3.362   2.969   2.582
 1541SOL    HW1 5522   3.263   2.976   2.569
 1541SOL    HW2 5523   3.397   3.056   2.615
 1542SOL     OW 5524   6.533   5.928   1.451
 1542SOL    HW1 5525   6.605   5.990   1.482
 1542SOL    HW2 5526   6.446   5.977   1.449
 1543SOL     OW 5527   3.250   3.845   4.638
 1543SOL    HW1 5528   3.223   3.801   4.723
 1543SOL    HW2 5529   3.171   3.891   4.597
 1544SOL     OW 5530   3.548   3.875   2.383
 1544SOL    HW1 5531   3.448   3.874   2.389
 1544SOL    HW2 5532   3.578   3.808   2.316
 1545SOL     OW 5533   5.380   1.035   4.241
 1545SOL    HW1 5534   5.447   0.966   4.268
 1545SOL    HW2 5535   5.345   1.012   4.150
 1546SOL     OW 5536   4.730   6.665   6.200
 1546SOL    HW1 5537   4.723   6.721   6.283
 1546SOL    HW2 5538   4.775   6.579   6.221
 1547SOL     OW 5539   1.769   4.138   3.040
 1547SOL    HW1 5540   1.744   4.224   3.085
 1547SOL    HW2 5541   1.687   4.093   3.007
 1548SOL     OW 5542   4.554   4.350   5.763
 1548SOL    HW1 5543   4.577   4.254   5.781
 1548SOL    HW2 5544   4.477   4.355   5.700
 1549SOL     OW 5545   3.984   1.165   2.790
 1549SOL    HW1 5546   4.050   1.089   2.795
 1549SOL    HW2 5547   3.943   1.179   2.880
 1550SOL     OW 5548   2.667   4.855   5.964
 1550SOL    HW1 5549   2.703   4.911   5.889
 1550SOL    HW2 5550   2.568   4.847   5.954
 1551SOL     OW 5551   2.375   4.099   6.886
 1551SOL    HW1 5552   2.349   4.194   6.869
 1551SOL    HW2 5553   2.379   4.049   6.799
 1552SOL     OW 5554   0.452   0.145   1.117
 1552SOL    HW1 5555   0.404   0.181   1.038
 1552SOL    HW2 5556   0.486   0.221   1.173
 1553SOL     OW 5557   0.188   0.555   5.578
 1553SOL    HW1 5558   0.128   0.475   5.567
 1553SOL    HW2 5559   0.218   0.562   5.673
 1554SOL     OW 5560   3.893   1.562   3.638
 1554SOL    HW1 5561   3.820   1.558   3.706
 1554SOL    HW2 5562   3.868   1.508   3.558
 1555SOL     OW 5563   4.912   2.100   0.015
 1555SOL    HW1 5564   4.978   2.035   7.008
 1555SOL    HW2 5565   4.953   2.151   0.091
 1556SOL     OW 5566   3.796   0.820   0.498
 1556SOL    HW1 5567   3.708   0.777   0.518
 1556SOL    HW2 5568   3.835   0.856   0.583
 1557SOL     OW 5569   2.376   1.211   6.636
 1557SOL    HW1 5570   2.446   1.243   6.699
 1557SOL    HW2 5571   2.417   1.190   6.547
 1558SOL     OW 5572   5.163   1.203   3.951
 1558SOL    HW1 5573   5.084   1.143   3.938
 1558SOL    HW2 5574   5.244   1.147   3.971
 1559SOL     OW 5575   0.280   2.655   0.228
 1559SOL    HW1 5576   0.211   2.719   0.195
 1559SOL    HW2 5577   0.371   2.697   0.223
 1560SOL     OW 5578   3.420   1.268   6.003
 1560SOL    HW1 5579   3.444   1.173   5.985
 1560SOL    HW2 5580   3.400   1.315   5.917
 1561SOL     OW 5581   6.337   6.600   2.369
 1561SOL    HW1 5582   6.418   6.559   2.412
 1561SOL    HW2 5583   6.257   6.544   2.389
 1562SOL     OW 5584   4.283   6.237   1.274
 1562SOL    HW1 5585   4.339   6.318   1.254
 1562SOL    HW2 5586   4.290   6.172   1.199
 1563SOL     OW 5587   2.476   0.840   5.961
 1563SOL    HW1 5588   2.379   0.856   5.939
 1563SOL    HW2 5589   2.533   0.879   5.888
 1564SOL     OW 5590   1.266   2.542   2.475
 1564SOL    HW1 5591   1.216   2.518   2.558
 1564SOL    HW2 5592   1.327   2.618   2.494
 1565SOL     OW 5593   4.406   5.403   3.878
 1565SOL    HW1 5594   4.374   5.369   3.966
 1565SOL    HW2 5595   4.339   5.379   3.807
 1566SOL     OW 5596   5.597   4.970   4.309
 1566SOL    HW1 5597   5.648   4.909   4.369
 1566SOL    HW2 5598   5.564   4.920   4.229
 1567SOL     OW 5599   6.523   6.008   0.025
 1567SOL    HW1 5600   6.549   6.091   0.074
 1567SOL    HW2 5601   6.531   6.025   6.955
 1568SOL     OW 5602   2.190   6.605   1.713
 1568SOL    HW1 5603   2.135   6.557   1.781
 1568SOL    HW2 5604   2.216   6.541   1.640
 1569SOL     OW 5605   2.860   0.122   3.543
 1569SOL    HW1 5606   2.928   0.183   3.501
 1569SOL    HW2 5607   2.770   0.142   3.505
 1570SOL     OW 5608   2.405   6.821   0.385
 1570SOL    HW1 5609   2.467   6.883   0.337
 1570SOL    HW2 5610   2.401   6.846   0.482
 1571SOL     OW 5611   6.290   1.809   2.575
 1571SOL    HW1 5612   6.307   1.824   2.672
 1571SOL    HW2 5613   6.357   1.861   2.521
 1572SOL     OW 5614   1.453   5.924   0.782
 1572SOL    HW1 5615   1.515   5.982   0.835
 1572SOL    HW2 5616   1.432   5.842   0.834
 1573SOL     OW 5617   6.266   3.953   1.935
 1573SOL    HW1 5618   6.250   3.865   1.892
 1573SOL    HW2 5619   6.262   4.026   1.866
 1574SOL     OW 5620   6.416   1.722   3.831
 1574SOL    HW1 5621   6.369   1.765   3.754
 1574SOL    HW2 5622   6.449   1.631   3.803
 1575SOL     OW 5623   2.259   2.061   1.521
 1575SOL    HW1 5624   2.329   2.059   1.451
 1575SOL    HW2 5625   2.231   2.156   1.538
 1576SOL     OW 5626   1.314   0.515   3.120
 1576SOL    HW1 5627   1.314   0.415   3.123
 1576SOL    HW2 5628   1.232   0.546   3.071
 1577SOL     OW 5629   2.682   0.444   6.062
 1577SOL    HW1 5630   2.621   0.509   6.107
 1577SOL    HW2 5631   2.629   0.365   6.031
 1578SOL     OW 5632   5.926   2.415   5.656
 1578SOL    HW1 5633   5.961   2.507   5.672
 1578SOL    HW2 5634   5.831   2.421   5.625
 1579SOL     OW 5635   0.171   1.723   2.217
 1579SOL    HW1 5636   0.192   1.719   2.315
 1579SOL    HW2 5637   0.137   1.634   2.187
 1580SOL     OW 5638   3.577   3.769   4.206
 1580SOL    HW1 5639   3.535   3.755   4.116
 1580SOL    HW2 5640   3.507   3.759   4.276
 1581SOL     OW 5641   6.070   4.508   4.444
 1581SOL    HW1 5642   6.142   4.577   4.442
 1581SOL    HW2 5643   6.112   4.417   4.450
 1582SOL     OW 5644   1.802   6.522   4.425
 1582SOL    HW1 5645   1.879   6.576   4.392
 1582SOL    HW2 5646   1.824   6.425   4.420
 1583SOL     OW 5647   0.697   5.895   2.760
 1583SOL    HW1 5648   0.776   5.867   2.706
 1583SOL    HW2 5649   0.631   5.821   2.762
 1584SOL     OW 5650   0.743   5.810   6.606
 1584SOL    HW1 5651   0.701   5.752   6.536
 1584SOL    HW2 5652   0.774   5.752   6.682
 1585SOL     OW 5653   4.225   1.922   2.917
 1585SOL    HW1 5654   4.174   1.983   2.978
 1585SOL    HW2 5655   4.168   1.897   2.839
 1586SOL     OW 5656   3.195   4.832   1.951
 1586SOL    HW1 5657   3.237   4.829   2.041
 1586SOL    HW2 5658   3.249   4.775   1.888
 1587SOL     OW 5659   2.625   5.865   5.873
 1587SOL    HW1 5660   2.701   5.889   5.933
 1587SOL    HW2 5661   2.657   5.862   5.778
 1588SOL     OW 5662   3.949   0.864   2.469
 1588SOL    HW1 5663   3.882   0.802   2.511
 1588SOL    HW2 5664   3.912   0.899   2.382
 1589SOL     OW 5665   0.292   3.049   1.838
 1589SOL    HW1 5666   0.277   3.056   1.739
 1589SOL    HW2 5667   0.389   3.063   1.857
 1590SOL     OW 5668   4.126   0.314   4.585
 1590SOL    HW1 5669   4.055   0.246   4.571
 1590SOL    HW2 5670   4.188   0.283   4.657
 1591SOL     OW 5671   0.018   5.213   1.390
 1591SOL    HW1 5672   0.026   5.114   1.393
 1591SOL    HW2 5673   0.049   5.251   1.477
 1592SOL     OW 5674   2.366   3.970   6.650
 1592SOL    HW1 5675   2.396   3.953   6.556
 1592SOL    HW2 5676   2.295   3.905   6.674
 1593SOL     OW 5677   0.977   6.268   5.798
 1593SOL    HW1 5678   0.948   6.345   5.742
 1593SOL    HW2 5679   0.990   6.187   5.741
 1594SOL     OW 5680   1.232   6.543   1.650
 1594SOL    HW1 5681   1.221   6.638   1.680
 1594SOL    HW2 5682   1.323   6.532   1.609
 1595SOL     OW 5683   1.530   5.312   0.697
 1595SOL    HW1 5684   1.504   5.253   0.620
 1595SOL    HW2 5685   1.537   5.407   0.666
 1596SOL     OW 5686   0.309   2.737   3.899
 1596SOL    HW1 5687   0.350   2.688   3.976
 1596SOL    HW2 5688   0.355   2.709   3.815
 1597SOL     OW 5689   1.644   6.397   0.273
 1597SOL    HW1 5690   1.561   6.447   0.298
 1597SOL    HW2 5691   1.724   6.449   0.302
 1598SOL     OW 5692   6.966   4.639   5.383
 1598SOL    HW1 5693   6.995   4.587   5.463
 1598SOL    HW2 5694   6.884   4.692   5.405
 1599SOL     OW 5695   4.731   5.517   4.754
 1599SOL    HW1 5696   4.782   5.472   4.828
 1599SOL    HW2 5697   4.795   5.557   4.689
 1600SOL     OW 5698   4.085   1.441   3.824
 1600SOL    HW1 5699   4.019   1.481   3.761
 1600SOL    HW2 5700   4.045   1.434   3.915
 1601SOL     OW 5701   6.770   6.089   4.366
 1601SOL    HW1 5702   6.723   6.176   4.378
 1601SOL    HW2 5703   6.728   6.039   4.290
 1602SOL     OW 5704   3.639   5.305   4.230
 1602SOL    HW1 5705   3.707   5.292   4.302
 1602SOL    HW2 5706   3.684   5.308   4.141
 1603SOL     OW 5707   1.825   6.533   3.202
 1603SOL    HW1 5708   1.859   6.476   3.127
 1603SOL    HW2 5709   1.897   6.548   3.269
 1604SOL     OW 5710   5.233   4.138   0.840
 1604SOL    HW1 5711   5.178   4.156   0.759
 1604SOL    HW2 5712   5.302   4.210   0.851
 1605SOL     OW 5713   6.523   5.322   1.250
 1605SOL    HW1 5714   6.582   5.292   1.325
 1605SOL    HW2 5715   6.476   5.406   1.276
 1606SOL     OW 5716   3.669   6.799   5.617
 1606SOL    HW1 5717   3.671   6.811   5.518
 1606SOL    HW2 5718   3.574   6.805   5.649
 1607SOL     OW 5719   4.529   1.322   0.688
 1607SOL    HW1 5720   4.575   1.273   0.614
 1607SOL    HW2 5721   4.596   1.347   0.758
 1608SOL     OW 5722   0.452   1.056   3.482
 1608SOL    HW1 5723   0.382   1.000   3.436
 1608SOL    HW2 5724   0.504   1.107   3.413
 1609SOL     OW 5725   4.849   0.084   6.963
 1609SOL    HW1 5726   4.797   0.166   6.944
 1609SOL    HW2 5727   4.810   0.007   6.913
 1610SOL     OW 5728   6.397   4.503   6.712
 1610SOL    HW1 5729   6.476   4.512   6.773
 1610SOL    HW2 5730   6.331   4.439   6.752
 1611SOL     OW 5731   2.409   3.985   0.381
 1611SOL    HW1 5732   2.432   3.889   0.397
 1611SOL    HW2 5733   2.442   4.012   0.291
 1612SOL     OW 5734   2.936   0.218   0.331
 1612SOL    HW1 5735   2.943   0.187   0.235
 1612SOL    HW2 5736   2.925   0.138   0.390
 1613SOL     OW 5737   1.509   5.734   2.344
 1613SOL    HW1 5738   1.558   5.797   2.283
 1613SOL    HW2 5739   1.419   5.772   2.365
 1614SOL     OW 5740   4.941   2.943   6.649
 1614SOL    HW1 5741   5.023   2.998   6.660
 1614SOL    HW2 5742   4.860   2.998   6.670
 1615SOL     OW 5743   5.967   5.593   0.558
 1615SOL    HW1 5744   5.969   5.530   0.481
 1615SOL    HW2 5745   5.951   5.542   0.643
 1616SOL     OW 5746   3.347   1.104   5.101
 1616SOL    HW1 5747   3.362   1.022   5.156
 1616SOL    HW2 5748   3.296   1.171   5.155
 1617SOL     OW 5749   5.541   6.721   2.718
 1617SOL    HW1 5750   5.633   6.710   2.681
 1617SOL    HW2 5751   5.542   6.793   2.787
 1618SOL     OW 5752   1.270   5.817   2.665
 1618SOL    HW1 5753   1.270   5.721   2.637
 1618SOL    HW2 5754   1.330   5.869   2.604
 1619SOL     OW 5755   0.904   3.953   1.489
 1619SOL    HW1 5756   0.871   3.864   1.521
 1619SOL    HW2 5757   0.851   3.982   1.409
 1620SOL     OW 5758   2.662   4.557   1.719
 1620SOL    HW1 5759   2.728   4.535   1.648
 1620SOL    HW2 5760   2.709   4.567   1.807
 1621SOL     OW 5761   6.518   1.235   0.601
 1621SOL    HW1 5762   6.567   1.156   0.564
 1621SOL    HW2 5763   6.522   1.232   0.701
 1622SOL     OW 5764   0.533   2.862   5.251
 1622SOL    HW1 5765   0.567   2.789   5.309
 1622SOL    HW2 5766   0.433   2.862   5.253
 1623SOL     OW 5767   2.010   2.991   4.668
 1623SOL    HW1 5768   1.945   3.044   4.722
 1623SOL    HW2 5769   2.044   2.914   4.722
 1624SOL     OW 5770   3.297   1.526   5.534
 1624SOL    HW1 5771   3.253   1.614   5.513
 1624SOL    HW2 5772   3.340   1.531   5.624
 1625SOL     OW 5773   1.590   5.066   0.358
 1625SOL    HW1 5774   1.672   5.123   0.367
 1625SOL    HW2 5775   1.524   5.090   0.429
 1626SOL     OW 5776   4.368   1.385   0.100
 1626SOL    HW1 5777   4.300   1.410   0.169
 1626SOL    HW2 5778   4.450   1.349   0.146
 1627SOL     OW 5779   6.411   2.924   3.609
 1627SOL    HW1 5780   6.362   3.007   3.634
 1627SOL    HW2 5781   6.353   2.845   3.625
 1628SOL     OW 5782   4.730   4.683   0.518
 1628SOL    HW1 5783   4.699   4.707   0.426
 1628SOL    HW2 5784   4.676   4.733   0.585
 1629SOL     OW 5785   2.972   1.098   3.955
 1629SOL    HW1 5786   2.873   1.096   3.963
 1629SOL    HW2 5787   3.012   1.029   4.015
 1630SOL     OW 5788   1.188   4.638   6.033
 1630SOL    HW1 5789   1.247   4.717   6.017
 1630SOL    HW2 5790   1.167   4.594   5.946
 1631SOL     OW 5791   1.093   3.036   0.398
 1631SOL    HW1 5792   1.158   3.010   0.326
 1631SOL    HW2 5793   1.003   3.053   0.357
 1632SOL     OW 5794   5.784   2.337   0.937
 1632SOL    HW1 5795   5.779   2.437   0.939
 1632SOL    HW2 5796   5.693   2.298   0.949
 1633SOL     OW 5797   5.366   4.235   4.611
 1633SOL    HW1 5798   5.346   4.232   4.709
 1633SOL    HW2 5799   5.350   4.144   4.572
 1634SOL     OW 5800   4.131   5.758   4.282
 1634SOL    HW1 5801   4.206   5.692   4.277
 1634SOL    HW2 5802   4.083   5.760   4.194
 1635SOL     OW 5803   0.055   4.732   6.835
 1635SOL    HW1 5804   6.984   4.725   6.830
 1635SOL    HW2 5805   0.081   4.816   6.881
 1636SOL     OW 5806   2.792   4.521   1.473
 1636SOL    HW1 5807   2.699   4.529   1.436
 1636SOL    HW2 5808   2.819   4.425   1.472
 1637SOL     OW 5809   0.591   0.780   2.989
 1637SOL    HW1 5810   0.602   0.837   2.907
 1637SOL    HW2 5811   0.558   0.836   3.064
 1638SOL     OW 5812   6.877   4.504   3.718
 1638SOL    HW1 5813   6.859   4.546   3.806
 1638SOL    HW2 5814   6.801   4.522   3.656
 1639SOL     OW 5815   5.286   6.530   2.102
 1639SOL    HW1 5816   5.312   6.484   2.186
 1639SOL    HW2 5817   5.236   6.614   2.124
 1640SOL     OW 5818   6.031   0.191   0.071
 1640SOL    HW1 5819   6.130   0.190   0.085
 1640SOL    HW2 5820   5.992   0.271   0.116
 1641SOL     OW 5821   4.655   1.565   2.954
 1641SOL    HW1 5822   4.622   1.501   3.024
 1641SOL    HW2 5823   4.577   1.611   2.911
 1642SOL     OW 5824   6.752   3.901   6.422
 1642SOL    HW1 5825   6.811   3.972   6.462
 1642SOL    HW2 5826   6.710   3.935   6.339
 1643SOL     OW 5827   3.032   4.986   4.784
 1643SOL    HW1 5828   3.013   4.892   4.815
 1643SOL    HW2 5829   2.949   5.025   4.744
 1644SOL     OW 5830   5.941   3.609   0.008
 1644SOL    HW1 5831   5.954   3.708   0.007
 1644SOL    HW2 5832   5.845   3.587   7.021
 1645SOL     OW 5833   3.102   5.298   6.739
 1645SOL    HW1 5834   3.151   5.251   6.666
 1645SOL    HW2 5835   3.163   5.363   6.783
 1646SOL     OW 5836   2.971   6.621   6.795
 1646SOL    HW1 5837   3.016   6.705   6.765
 1646SOL    HW2 5838   2.877   6.619   6.759
 1647SOL     OW 5839   5.855   3.306   4.172
 1647SOL    HW1 5840   5.795   3.242   4.221
 1647SOL    HW2 5841   5.803   3.348   4.098
 1648SOL     OW 5842   5.482   5.563   0.515
 1648SOL    HW1 5843   5.391   5.524   0.499
 1648SOL    HW2 5844   5.549   5.489   0.522
 1649SOL     OW 5845   3.484   1.377   3.976
 1649SOL    HW1 5846   3.394   1.347   3.943
 1649SOL    HW2 5847   3.485   1.375   4.076
 1650SOL     OW 5848   1.508   6.257   5.742
 1650SOL    HW1 5849   1.544   6.225   5.829
 1650SOL    HW2 5850   1.423   6.208   5.721
 1651SOL     OW 5851   0.362   1.737   1.548
 1651SOL    HW1 5852   0.293   1.780   1.491
 1651SOL    HW2 5853   0.383   1.797   1.625
 1652SOL     OW 5854   1.158   3.311   2.378
 1652SOL    HW1 5855   1.158   3.336   2.281
 1652SOL    HW2 5856   1.246   3.270   2.401
 1653SOL     OW 5857   0.576   6.828   0.405
 1653SOL    HW1 5858   0.639   6.886   0.457
 1653SOL    HW2 5859   0.493   6.812   0.458
 1654SOL     OW 5860   0.247   3.439   1.601
 1654SOL    HW1 5861   0.269   3.464   1.507
 1654SOL    HW2 5862   0.248   3.522   1.658
 1655SOL     OW 5863   0.829   2.411   4.970
 1655SOL    HW1 5864   0.756   2.373   5.026
 1655SOL    HW2 5865   0.804   2.406   4.873
 1656SOL     OW 5866   2.155   4.356   2.579
 1656SOL    HW1 5867   2.108   4.378   2.493
 1656SOL    HW2 5868   2.174   4.257   2.582
 1657SOL     OW 5869   6.886   1.026   4.211
 1657SOL    HW1 5870   6.820   0.953   4.196
 1657SOL    HW2 5871   6.838   1.114   4.216
 1658SOL     OW 5872   0.152   6.548   1.216
 1658SOL    HW1 5873   0.178   6.456   1.188
 1658SOL    HW2 5874   0.217   6.583   1.283
 1659SOL     OW 5875   3.860   6.780   6.926
 1659SOL    HW1 5876   3.938   6.718   6.931
 1659SOL    HW2 5877   3.823   6.778   6.833
 1660SOL     OW 5878   1.316   5.839   3.558
 1660SOL    HW1 5879   1.312   5.853   3.459
 1660SOL    HW2 5880   1.403   5.796   3.581
 1661SOL     OW 5881   3.511   6.969   0.999
 1661SOL    HW1 5882   3.577   0.011   1.025
 1661SOL    HW2 5883   3.542   6.880   1.032
 1662SOL     OW 5884   6.701   0.139   4.151
 1662SOL    HW1 5885   6.622   0.163   4.096
 1662SOL    HW2 5886   6.677   0.142   4.248
 1663SOL     OW 5887   4.165   6.369   3.403
 1663SOL    HW1 5888   4.120   6.392   3.317
 1663SOL    HW2 5889   4.212   6.450   3.439
 1664SOL     OW 5890   1.954   6.371   4.920
 1664SOL    HW1 5891   2.025   6.424   4.873
 1664SOL    HW2 5892   1.981   6.356   5.015
 1665SOL     OW 5893   0.353   2.576   2.645
 1665SOL    HW1 5894   0.330   2.512   2.572
 1665SOL    HW2 5895   0.365   2.668   2.606
 1666SOL     OW 5896   5.727   1.923   6.459
 1666SOL    HW1 5897   5.779   1.977   6.525
 1666SOL    HW2 5898   5.640   1.896   6.500
 1667SOL     OW 5899   0.011   6.396   0.839
 1667SOL    HW1 5900   0.078   6.370   0.908
 1667SOL    HW2 5901   0.036   6.355   0.751
 1668SOL     OW 5902   5.238   6.665   4.120
 1668SOL    HW1 5903   5.171   6.645   4.049
 1668SOL    HW2 5904   5.192   6.681   4.207
 1669SOL     OW 5905   6.739   5.356   6.473
 1669SOL    HW1 5906   6.756   5.344   6.570
 1669SOL    HW2 5907   6.678   5.284   6.440
 1670SOL     OW 5908   0.184   3.903   5.821
 1670SOL    HW1 5909   0.202   3.857   5.734
 1670SOL    HW2 5910   0.174   3.835   5.894
 1671SOL     OW 5911   5.793   1.260   2.870
 1671SOL    HW1 5912   5.726   1.228   2.803
 1671SOL    HW2 5913   5.885   1.232   2.842
 1672SOL     OW 5914   1.299   2.458   0.839
 1672SOL    HW1 5915   1.380   2.434   0.891
 1672SOL    HW2 5916   1.315   2.543   0.789
 1673SOL     OW 5917   1.277   1.204   4.841
 1673SOL    HW1 5918   1.358   1.213   4.782
 1673SOL    HW2 5919   1.223   1.125   4.811
 1674SOL     OW 5920   0.826   3.125   2.434
 1674SOL    HW1 5921   0.836   3.027   2.420
 1674SOL    HW2 5922   0.784   3.142   2.523
 1675SOL     OW 5923   5.735   6.790   0.589
 1675SOL    HW1 5924   5.800   6.833   0.527
 1675SOL    HW2 5925   5.768   6.798   0.683
 1676SOL     OW 5926   2.053   2.647   2.168
 1676SOL    HW1 5927   2.110   2.680   2.093
 1676SOL    HW2 5928   2.027   2.723   2.226
 1677SOL     OW 5929   3.311   3.402   4.432
 1677SOL    HW1 5930   3.277   3.491   4.463
 1677SOL    HW2 5931   3.404   3.388   4.466
 1678SOL     OW 5932   5.746   4.099   3.599
 1678SOL    HW1 5933   5.654   4.060   3.594
 1678SOL    HW2 5934   5.744   4.180   3.658
 1679SOL     OW 5935   2.531   2.536   4.332
 1679SOL    HW1 5936   2.470   2.609   4.301
 1679SOL    HW2 5937   2.550   2.548   4.430
 1680SOL     OW 5938   6.856   2.660   5.170
 1680SOL    HW1 5939   6.871   2.561   5.166
 1680SOL    HW2 5940   6.871   2.699   5.079
 1681SOL     OW 5941   6.907   5.594   6.831
 1681SOL    HW1 5942   6.817   5.576   6.870
 1681SOL    HW2 5943   6.904   5.585   6.732
 1682SOL     OW 5944   1.591   0.867   5.058
 1682SOL    HW1 5945   1.557   0.875   5.152
 1682SOL    HW2 5946   1.600   0.958   5.018
 1683SOL     OW 5947   4.789   4.631   1.698
 1683SOL    HW1 5948   4.886   4.653   1.700
 1683SOL    HW2 5949   4.738   4.711   1.664
 1684SOL     OW 5950   1.334   6.223   2.243
 1684SOL    HW1 5951   1.289   6.141   2.208
 1684SOL    HW2 5952   1.321   6.228   2.342
 1685SOL     OW 5953   2.460   1.110   5.040
 1685SOL    HW1 5954   2.496   1.203   5.033
 1685SOL    HW2 5955   2.535   1.045   5.031
 1686SOL     OW 5956   2.582   6.106   4.463
 1686SOL    HW1 5957   2.536   6.029   4.508
 1686SOL    HW2 5958   2.532   6.130   4.380
 1687SOL     OW 5959   2.132   3.209   1.821
 1687SOL    HW1 5960   2.199   3.229   1.750
 1687SOL    HW2 5961   2.083   3.293   1.845
 1688SOL     OW 5962   2.321   2.673   4.256
 1688SOL    HW1 5963   2.245   2.677   4.321
 1688SOL    HW2 5964   2.290   2.629   4.172
 1689SOL     OW 5965   6.006   1.557   2.705
 1689SOL    HW1 5966   6.049   1.486   2.650
 1689SOL    HW2 5967   5.917   1.524   2.736
 1690SOL     OW 5968   1.849   2.630   4.136
 1690SOL    HW1 5969   1.903   2.615   4.053
 1690SOL    HW2 5970   1.795   2.549   4.156
 1691SOL     OW 5971   6.018   3.702   3.315
 1691SOL    HW1 5972   5.944   3.718   3.249
 1691SOL    HW2 5973   5.986   3.639   3.386
 1692SOL     OW 5974   5.300   6.514   1.674
 1692SOL    HW1 5975   5.256   6.518   1.584
 1692SOL    HW2 5976   5.325   6.607   1.702
 1693SOL     OW 5977   6.733   1.924   2.285
 1693SOL    HW1 5978   6.769   2.016   2.298
 1693SOL    HW2 5979   6.802   1.867   2.241
 1694SOL     OW 5980   5.594   1.224   2.639
 1694SOL    HW1 5981   5.557   1.315   2.654
 1694SOL    HW2 5982   5.678   1.231   2.586
 1695SOL     OW 5983   4.049   0.688   6.045
 1695SOL    HW1 5984   4.144   0.718   6.039
 1695SOL    HW2 5985   4.026   0.669   6.140
 1696SOL     OW 5986   4.224   5.180   1.042
 1696SOL    HW1 5987   4.232   5.122   0.961
 1696SOL    HW2 5988   4.166   5.259   1.021
 1697SOL     OW 5989   6.001   0.829   0.632
 1697SOL    HW1 5990   5.954   0.756   0.682
 1697SOL    HW2 5991   6.071   0.870   0.691
 1698SOL     OW 5992   3.479   7.014   0.091
 1698SOL    HW1 5993   3.523   7.010   0.180
 1698SOL    HW2 5994   3.511   0.066   0.042
 1699SOL     OW 5995   2.146   1.338   6.771
 1699SOL    HW1 5996   2.133   1.337   6.870
 1699SOL    HW2 5997   2.229   1.287   6.748
 1700SOL     OW 5998   6.348   3.549   3.809
 1700SOL    HW1 5999   6.263   3.551   3.756
 1700SOL    HW2 6000   6.405   3.474   3.777
 1701SOL     OW 6001   4.884   4.373   6.005
 1701SOL    HW1 6002   4.981   4.395   6.015
 1701SOL    HW2 6003   4.870   4.321   5.921
 1702SOL     OW 6004   6.235   1.531   0.408
 1702SOL    HW1 6005   6.267   1.554   0.499
 1702SOL    HW2 6006   6.249   1.434   0.390
 1703SOL     OW 6007   3.424   2.800   1.287
 1703SOL    HW1 6008   3.324   2.793   1.296
 1703SOL    HW2 6009   3.468   2.743   1.356
 1704SOL     OW 6010   0.862   2.095   1.166
 1704SOL    HW1 6011   0.959   2.115   1.174
 1704SOL    HW2 6012   0.821   2.089   1.257
 1705SOL     OW 6013   2.787   2.000   2.379
 1705SOL    HW1 6014   2.715   2.060   2.344
 1705SOL    HW2 6015   2.870   2.053   2.393
 1706SOL     OW 6016   5.069   1.277   2.141
 1706SOL    HW1 6017   5.093   1.306   2.048
 1706SOL    HW2 6018   5.113   1.189   2.161
 1707SOL     OW 6019   4.814   1.672   1.987
 1707SOL    HW1 6020   4.799   1.579   2.019
 1707SOL    HW2 6021   4.912   1.691   1.982
 1708SOL     OW 6022   4.743   5.515   2.145
 1708SOL    HW1 6023   4.689   5.454   2.087
 1708SOL    HW2 6024   4.726   5.493   2.241
 1709SOL     OW 6025   3.193   6.277   2.569
 1709SOL    HW1 6026   3.192   6.354   2.505
 1709SOL    HW2 6027   3.284   6.269   2.611
 1710SOL     OW 6028   5.091   4.699   3.826
 1710SOL    HW1 6029   5.056   4.606   3.813
 1710SOL    HW2 6030   5.188   4.696   3.850
 1711SOL     OW 6031   1.617   4.192   4.362
 1711SOL    HW1 6032   1.626   4.130   4.440
 1711SOL    HW2 6033   1.659   4.150   4.281
 1712SOL     OW 6034   6.535   2.033   5.004
 1712SOL    HW1 6035   6.544   2.058   4.907
 1712SOL    HW2 6036   6.451   2.073   5.041
 1713SOL     OW 6037   4.411   2.527   1.254
 1713SOL    HW1 6038   4.331   2.479   1.218
 1713SOL    HW2 6039   4.477   2.543   1.180
 1714SOL     OW 6040   3.534   1.029   5.713
 1714SOL    HW1 6041   3.482   0.995   5.792
 1714SOL    HW2 6042   3.608   1.087   5.745
 1715SOL     OW 6043   0.725   5.348   3.124
 1715SOL    HW1 6044   0.737   5.270   3.185
 1715SOL    HW2 6045   0.701   5.429   3.178
 1716SOL     OW 6046   5.130   6.838   3.222
 1716SOL    HW1 6047   5.189   6.917   3.236
 1716SOL    HW2 6048   5.048   6.847   3.278
 1717SOL     OW 6049   2.521   6.265   6.557
 1717SOL    HW1 6050   2.467   6.190   6.595
 1717SOL    HW2 6051   2.585   6.229   6.489
 1718SOL     OW 6052   2.235   1.426   1.577
 1718SOL    HW1 6053   2.138   1.447   1.571
 1718SOL    HW2 6054   2.247   1.332   1.609
 1719SOL     OW 6055   2.124   2.885   1.202
 1719SOL    HW1 6056   2.150   2.821   1.274
 1719SOL    HW2 6057   2.044   2.938   1.231
 1720SOL     OW 6058   6.870   3.153   0.276
 1720SOL    HW1 6059   6.859   3.056   0.300
 1720SOL    HW2 6060   6.967   3.175   0.267
 1721SOL     OW 6061   1.715   7.000   1.548
 1721SOL    HW1 6062   1.625   6.961   1.528
 1721SOL    HW2 6063   1.785   6.932   1.526
 1722SOL     OW 6064   3.410   1.301   3.439
 1722SOL    HW1 6065   3.322   1.333   3.406
 1722SOL    HW2 6066   3.421   1.326   3.535
 1723SOL     OW 6067   5.755   2.381   2.221
 1723SOL    HW1 6068   5.696   2.436   2.280
 1723SOL    HW2 6069   5.726   2.389   2.126
 1724SOL     OW 6070   6.707   2.605   1.674
 1724SOL    HW1 6071   6.687   2.518   1.720
 1724SOL    HW2 6072   6.647   2.615   1.595
 1725SOL     OW 6073   2.215   5.130   6.484
 1725SOL    HW1 6074   2.137   5.068   6.471
 1725SOL    HW2 6075   2.290   5.101   6.425
 1726SOL     OW 6076   6.697   4.646   4.852
 1726SOL    HW1 6077   6.712   4.550   4.827
 1726SOL    HW2 6078   6.730   4.705   4.778
 1727SOL     OW 6079   3.407   2.855   4.152
 1727SOL    HW1 6080   3.324   2.887   4.105
 1727SOL    HW2 6081   3.398   2.872   4.250
 1728SOL     OW 6082   4.959   5.074   4.574
 1728SOL    HW1 6083   4.888   5.143   4.587
 1728SOL    HW2 6084   4.962   5.046   4.478
 1729SOL     OW 6085   2.045   4.562   3.066
 1729SOL    HW1 6086   2.069   4.596   2.975
 1729SOL    HW2 6087   1.949   4.585   3.085
 1730SOL     OW 6088   1.199   6.470   5.958
 1730SOL    HW1 6089   1.184   6.462   5.859
 1730SOL    HW2 6090   1.148   6.397   6.005
 1731SOL     OW 6091   6.966   3.839   3.267
 1731SOL    HW1 6092   7.027   3.871   3.195
 1731SOL    HW2 6093   6.954   3.912   3.335
 1732SOL     OW 6094   2.619   5.084   5.241
 1732SOL    HW1 6095   2.587   5.177   5.258
 1732SOL    HW2 6096   2.549   5.032   5.192
 1733SOL     OW 6097   1.684   4.853   1.969
 1733SOL    HW1 6098   1.735   4.854   1.883
 1733SOL    HW2 6099   1.591   4.819   1.953
 1734SOL     OW 6100   4.848   3.455   1.425
 1734SOL    HW1 6101   4.897   3.401   1.493
 1734SOL    HW2 6102   4.750   3.438   1.433
 1735SOL     OW 6103   4.880   5.509   0.351
 1735SOL    HW1 6104   4.938   5.583   0.317
 1735SOL    HW2 6105   4.808   5.489   0.285
 1736SOL     OW 6106   3.527   3.731   0.408
 1736SOL    HW1 6107   3.584   3.712   0.328
 1736SOL    HW2 6108   3.436   3.761   0.377
 1737SOL     OW 6109   3.493   1.360   4.238
 1737SOL    HW1 6110   3.474   1.265   4.213
 1737SOL    HW2 6111   3.526   1.364   4.332
 1738SOL     OW 6112   1.586   2.967   4.209
 1738SOL    HW1 6113   1.598   3.066   4.222
 1738SOL    HW2 6114   1.492   2.948   4.183
 1739SOL     OW 6115   0.070   1.675   5.206
 1739SOL    HW1 6116   0.012   1.751   5.176
 1739SOL    HW2 6117   0.064   1.667   5.306
 1740SOL     OW 6118   0.180   2.184   5.750
 1740SOL    HW1 6119   0.114   2.258   5.744
 1740SOL    HW2 6120   0.224   2.170   5.661
 1741SOL     OW 6121   2.129   0.519   3.876
 1741SOL    HW1 6122   2.068   0.479   3.808
 1741SOL    HW2 6123   2.223   0.491   3.858
 1742SOL     OW 6124   5.663   0.847   6.559
 1742SOL    HW1 6125   5.740   0.910   6.567
 1742SOL    HW2 6126   5.687   0.773   6.496
 1743SOL     OW 6127   0.603   2.142   2.110
 1743SOL    HW1 6128   0.687   2.097   2.142
 1743SOL    HW2 6129   0.612   2.163   2.012
 1744SOL     OW 6130   6.420   2.645   3.426
 1744SOL    HW1 6131   6.325   2.636   3.396
 1744SOL    HW2 6132   6.458   2.730   3.389
 1745SOL     OW 6133   5.698   5.489   2.292
 1745SOL    HW1 6134   5.634   5.413   2.305
 1745SOL    HW2 6135   5.647   5.573   2.276
 1746SOL     OW 6136   1.536   3.988   4.521
 1746SOL    HW1 6137   1.552   3.901   4.476
 1746SOL    HW2 6138   1.496   3.972   4.611
 1747SOL     OW 6139   4.949   1.150   3.297
 1747SOL    HW1 6140   4.932   1.101   3.382
 1747SOL    HW2 6141   4.899   1.106   3.222
 1748SOL     OW 6142   0.776   0.909   5.107
 1748SOL    HW1 6143   0.739   0.903   5.199
 1748SOL    HW2 6144   0.796   1.005   5.084
 1749SOL     OW 6145   2.077   6.989   5.063
 1749SOL    HW1 6146   2.010   0.029   5.093
 1749SOL    HW2 6147   2.041   6.939   4.984
 1750SOL     OW 6148   4.873   6.163   4.432
 1750SOL    HW1 6149   4.823   6.218   4.366
 1750SOL    HW2 6150   4.963   6.204   4.449
 1751SOL     OW 6151   3.846   6.958   4.450
 1751SOL    HW1 6152   3.764   6.976   4.503
 1751SOL    HW2 6153   3.823   6.906   4.368
 1752SOL     OW 6154   6.500   1.885   2.177
 1752SOL    HW1 6155   6.521   1.862   2.082
 1752SOL    HW2 6156   6.584   1.906   2.227
 1753SOL     OW 6157   6.621   1.440   1.450
 1753SOL    HW1 6158   6.599   1.421   1.546
 1753SOL    HW2 6159   6.616   1.538   1.433
 1754SOL     OW 6160   1.612   4.542   6.987
 1754SOL    HW1 6161   1.597   4.640   6.979
 1754SOL    HW2 6162   1.599   4.513   0.053
 1755SOL     OW 6163   6.900   6.228   1.597
 1755SOL    HW1 6164   6.954   6.184   1.526
 1755SOL    HW2 6165   6.814   6.261   1.558
 1756SOL     OW 6166   4.549   5.453   5.651
 1756SOL    HW1 6167   4.599   5.537   5.628
 1756SOL    HW2 6168   4.507   5.464   5.741
 1757SOL     OW 6169   2.479   5.073   4.517
 1757SOL    HW1 6170   2.512   5.000   4.576
 1757SOL    HW2 6171   2.446   5.149   4.573
 1758SOL     OW 6172   2.202   0.302   4.467
 1758SOL    HW1 6173   2.114   0.294   4.513
 1758SOL    HW2 6174   2.217   0.222   4.409
 1759SOL     OW 6175   1.403   6.263   5.279
 1759SOL    HW1 6176   1.456   6.274   5.363
 1759SOL    HW2 6177   1.462   6.282   5.200
 1760SOL     OW 6178   5.354   1.350   2.870
 1760SOL    HW1 6179   5.316   1.439   2.895
 1760SOL    HW2 6180   5.369   1.296   2.953
 1761SOL     OW 6181   0.113   0.731   1.269
 1761SOL    HW1 6182   0.081   0.639   1.289
 1761SOL    HW2 6183   0.185   0.757   1.334
 1762SOL     OW 6184   0.429   1.211   4.490
 1762SOL    HW1 6185   0.367   1.190   4.566
 1762SOL    HW2 6186   0.392   1.174   4.405
 1763SOL     OW 6187   1.120   4.353   4.020
 1763SOL    HW1 6188   1.068   4.284   3.970
 1763SOL    HW2 6189   1.212   4.360   3.982
 1764SOL     OW 6190   2.038   3.294   2.332
 1764SOL    HW1 6191   2.027   3.378   2.278
 1764SOL    HW2 6192   2.032   3.215   2.272
 1765SOL     OW 6193   3.800   0.793   1.253
 1765SOL    HW1 6194   3.820   0.841   1.339
 1765SOL    HW2 6195   3.842   0.702   1.255
 1766SOL     OW 6196   5.040   4.525   2.822
 1766SOL    HW1 6197   4.966   4.544   2.758
 1766SOL    HW2 6198   5.108   4.466   2.778
 1767SOL     OW 6199   0.666   3.719   2.341
 1767SOL    HW1 6200   0.731   3.657   2.386
 1767SOL    HW2 6201   0.592   3.741   2.405
 1768SOL     OW 6202   4.290   1.608   6.521
 1768SOL    HW1 6203   4.214   1.574   6.577
 1768SOL    HW2 6204   4.254   1.649   6.437
 1769SOL     OW 6205   5.061   1.235   6.537
 1769SOL    HW1 6206   5.051   1.329   6.568
 1769SOL    HW2 6207   5.074   1.234   6.438
 1770SOL     OW 6208   6.858   4.616   4.507
 1770SOL    HW1 6209   6.814   4.528   4.528
 1770SOL    HW2 6210   6.794   4.691   4.527
 1771SOL     OW 6211   2.207   5.716   0.697
 1771SOL    HW1 6212   2.298   5.746   0.726
 1771SOL    HW2 6213   2.178   5.639   0.753
 1772SOL     OW 6214   3.302   0.122   3.528
 1772SOL    HW1 6215   3.393   0.159   3.547
 1772SOL    HW2 6216   3.285   0.043   3.586
 1773SOL     OW 6217   2.528   3.509   6.032
 1773SOL    HW1 6218   2.567   3.432   5.981
 1773SOL    HW2 6219   2.599   3.552   6.088
 1774SOL     OW 6220   4.613   7.018   1.753
 1774SOL    HW1 6221   4.706   0.008   1.719
 1774SOL    HW2 6222   4.554   0.066   1.732
 1775SOL     OW 6223   1.888   4.857   5.529
 1775SOL    HW1 6224   1.952   4.913   5.477
 1775SOL    HW2 6225   1.937   4.780   5.570
 1776SOL     OW 6226   5.204   1.158   6.281
 1776SOL    HW1 6227   5.211   1.058   6.287
 1776SOL    HW2 6228   5.268   1.192   6.212
 1777SOL     OW 6229   3.366   5.827   5.694
 1777SOL    HW1 6230   3.342   5.897   5.762
 1777SOL    HW2 6231   3.299   5.827   5.620
 1778SOL     OW 6232   4.444   1.682   4.604
 1778SOL    HW1 6233   4.495   1.603   4.568
 1778SOL    HW2 6234   4.505   1.737   4.661
 1779SOL     OW 6235   3.897   1.491   5.002
 1779SOL    HW1 6236   3.903   1.449   4.912
 1779SOL    HW2 6237   3.899   1.421   5.073
 1780SOL     OW 6238   2.223   3.991   6.142
 1780SOL    HW1 6239   2.170   3.933   6.081
 1780SOL    HW2 6240   2.289   4.044   6.088
 1781SOL     OW 6241   4.786   5.146   3.710
 1781SOL    HW1 6242   4.864   5.085   3.699
 1781SOL    HW2 6243   4.755   5.145   3.805
 1782SOL     OW 6244   2.931   1.720   3.391
 1782SOL    HW1 6245   2.983   1.761   3.316
 1782SOL    HW2 6246   2.990   1.708   3.471
 1783SOL     OW 6247   2.286   3.340   6.114
 1783SOL    HW1 6248   2.372   3.375   6.077
 1783SOL    HW2 6249   2.220   3.414   6.121
 1784SOL     OW 6250   2.586   1.442   2.381
 1784SOL    HW1 6251   2.630   1.508   2.442
 1784SOL    HW2 6252   2.635   1.439   2.294
 1785SOL     OW 6253   5.838   5.789   3.435
 1785SOL    HW1 6254   5.742   5.815   3.449
 1785SOL    HW2 6255   5.842   5.704   3.383
 1786SOL     OW 6256   1.307   3.469   0.404
 1786SOL    HW1 6257   1.222   3.421   0.384
 1786SOL    HW2 6258   1.305   3.560   0.363
 1787SOL     OW 6259   2.297   1.126   5.540
 1787SOL    HW1 6260   2.319   1.151   5.446
 1787SOL    HW2 6261   2.199   1.137   5.556
 1788SOL     OW 6262   3.608   4.019   0.075
 1788SOL    HW1 6263   3.691   4.044   0.024
 1788SOL    HW2 6264   3.563   3.943   0.029
 1789SOL     OW 6265   5.535   2.736   2.203
 1789SOL    HW1 6266   5.505   2.753   2.109
 1789SOL    HW2 6267   5.633   2.759   2.211
 1790SOL     OW 6268   3.809   0.121   4.851
 1790SOL    HW1 6269   3.750   0.192   4.890
 1790SOL    HW2 6270   3.792   0.034   4.897
 1791SOL     OW 6271   6.806   1.096   4.526
 1791SOL    HW1 6272   6.871   1.035   4.571
 1791SOL    HW2 6273   6.723   1.045   4.503
 1792SOL     OW 6274   0.757   0.915   4.685
 1792SOL    HW1 6275   0.744   1.014   4.697
 1792SOL    HW2 6276   0.706   0.867   4.756
 1793SOL     OW 6277   6.309   0.655   3.935
 1793SOL    HW1 6278   6.233   0.658   3.871
 1793SOL    HW2 6279   6.394   0.635   3.885
 1794SOL     OW 6280   5.083   6.308   5.975
 1794SOL    HW1 6281   5.025   6.237   6.015
 1794SOL    HW2 6282   5.123   6.273   5.890
 1795SOL     OW 6283   6.288   4.864   2.416
 1795SOL    HW1 6284   6.382   4.861   2.448
 1795SOL    HW2 6285   6.228   4.897   2.489
 1796SOL     OW 6286   2.086   0.657   4.544
 1796SOL    HW1 6287   2.054   0.677   4.451
 1796SOL    HW2 6288   2.177   0.695   4.557
 1797SOL     OW 6289   1.257   6.555   5.587
 1797SOL    HW1 6290   1.343   6.547   5.637
 1797SOL    HW2 6291   1.242   6.472   5.533
 1798SOL     OW 6292   4.258   3.061   5.440
 1798SOL    HW1 6293   4.287   3.001   5.514
 1798SOL    HW2 6294   4.330   3.129   5.423
 1799SOL     OW 6295   5.781   2.832   6.412
 1799SOL    HW1 6296   5.812   2.915   6.458
 1799SOL    HW2 6297   5.840   2.812   6.334
 1800SOL     OW 6298   4.846   4.495   3.527
 1800SOL    HW1 6299   4.931   4.470   3.574
 1800SOL    HW2 6300   4.834   4.437   3.446
 1801SOL     OW 6301   1.203   1.663   2.880
 1801SOL    HW1 6302   1.230   1.606   2.959
 1801SOL    HW2 6303   1.221   1.612   2.796
 1802SOL     OW 6304   6.115   6.360   2.919
 1802SOL    HW1 6305   6.205   6.318   2.932
 1802SOL    HW2 6306   6.119   6.423   2.841
 1803SOL     OW 6307   6.941   6.399   2.027
 1803SOL    HW1 6308   6.977   6.493   2.020
 1803SOL    HW2 6309   6.993   6.349   2.096
 1804SOL     OW 6310   3.521   3.388   5.404
 1804SOL    HW1 6311   3.569   3.473   5.427
 1804SOL    HW2 6312   3.564   3.346   5.324
 1805SOL     OW 6313   1.334   4.506   6.285
 1805SOL    HW1 6314   1.280   4.546   6.211
 1805SOL    HW2 6315   1.320   4.407   6.287
 1806SOL     OW 6316   1.030   2.551   1.799
 1806SOL    HW1 6317   0.961   2.514   1.736
 1806SOL    HW2 6318   1.086   2.476   1.834
 1807SOL     OW 6319   6.191   2.062   6.182
 1807SOL    HW1 6320   6.099   2.056   6.144
 1807SOL    HW2 6321   6.201   2.149   6.230
 1808SOL     OW 6322   5.645   4.426   4.226
 1808SOL    HW1 6323   5.572   4.484   4.263
 1808SOL    HW2 6324   5.684   4.371   4.299
 1809SOL     OW 6325   2.478   2.472   4.866
 1809SOL    HW1 6326   2.522   2.408   4.930
 1809SOL    HW2 6327   2.521   2.562   4.874
 1810SOL     OW 6328   1.277   0.013   4.650
 1810SOL    HW1 6329   1.355   6.981   4.637
 1810SOL    HW2 6330   1.262   0.028   4.747
 1811SOL     OW 6331   4.788   4.604   2.985
 1811SOL    HW1 6332   4.875   4.572   2.948
 1811SOL    HW2 6333   4.720   4.606   2.912
 1812SOL     OW 6334   5.033   6.806   6.034
 1812SOL    HW1 6335   4.967   6.763   6.094
 1812SOL    HW2 6336   5.051   6.747   5.955
 1813SOL     OW 6337   5.103   5.112   1.534
 1813SOL    HW1 6338   5.073   5.176   1.464
 1813SOL    HW2 6339   5.023   5.075   1.582
 1814SOL     OW 6340   5.977   0.525   0.896
 1814SOL    HW1 6341   5.954   0.505   0.991
 1814SOL    HW2 6342   6.077   0.523   0.885
 1815SOL     OW 6343   5.925   0.699   3.253
 1815SOL    HW1 6344   6.006   0.674   3.201
 1815SOL    HW2 6345   5.876   0.772   3.205
 1816SOL     OW 6346   3.071   4.811   0.391
 1816SOL    HW1 6347   2.990   4.755   0.370
 1816SOL    HW2 6348   3.118   4.772   0.470
 1817SOL     OW 6349   3.898   0.540   3.234
 1817SOL    HW1 6350   3.892   0.599   3.315
 1817SOL    HW2 6351   3.827   0.470   3.239
 1818SOL     OW 6352   2.081   6.417   1.206
 1818SOL    HW1 6353   2.174   6.397   1.237
 1818SOL    HW2 6354   2.069   6.516   1.199
 1819SOL     OW 6355   1.249   6.626   1.939
 1819SOL    HW1 6356   1.336   6.586   1.912
 1819SOL    HW2 6357   1.200   6.657   1.858
 1820SOL     OW 6358   3.481   0.269   2.701
 1820SOL    HW1 6359   3.519   0.360   2.717
 1820SOL    HW2 6360   3.554   0.201   2.706
 1821SOL     OW 6361   2.749   0.666   1.450
 1821SOL    HW1 6362   2.846   0.678   1.427
 1821SOL    HW2 6363   2.705   0.756   1.455
 1822SOL     OW 6364   0.833   2.448   1.591
 1822SOL    HW1 6365   0.822   2.461   1.492
 1822SOL    HW2 6366   0.751   2.479   1.638
 1823SOL     OW 6367   3.441   6.406   2.881
 1823SOL    HW1 6368   3.428   6.327   2.822
 1823SOL    HW2 6369   3.458   6.375   2.975
 1824SOL     OW 6370   3.975   3.734   0.458
 1824SOL    HW1 6371   3.900   3.755   0.521
 1824SOL    HW2 6372   3.967   3.792   0.377
 1825SOL     OW 6373   0.967   2.474   4.493
 1825SOL    HW1 6374   1.061   2.464   4.461
 1825SOL    HW2 6375   0.966   2.533   4.574
 1826SOL     OW 6376   2.975   1.636   1.812
 1826SOL    HW1 6377   3.041   1.665   1.743
 1826SOL    HW2 6378   2.883   1.634   1.772
 1827SOL     OW 6379   6.651   5.458   1.039
 1827SOL    HW1 6380   6.634   5.386   1.106
 1827SOL    HW2 6381   6.709   5.528   1.081
 1828SOL     OW 6382   1.414   2.636   6.890
 1828SOL    HW1 6383   1.430   2.549   6.842
 1828SOL    HW2 6384   1.469   2.708   6.847
 1829SOL     OW 6385   4.151   1.018   3.102
 1829SOL    HW1 6386   4.220   1.026   3.029
 1829SOL    HW2 6387   4.106   0.929   3.095
 1830SOL     OW 6388   5.682   5.915   4.588
 1830SOL    HW1 6389   5.672   5.897   4.490
 1830SOL    HW2 6390   5.776   5.943   4.606
 1831SOL     OW 6391   5.738   6.230   1.743
 1831SOL    HW1 6392   5.821   6.176   1.735
 1831SOL    HW2 6393   5.746   6.313   1.687
 1832SOL     OW 6394   4.350   1.710   0.599
 1832SOL    HW1 6395   4.325   1.629   0.652
 1832SOL    HW2 6396   4.371   1.786   0.660
 1833SOL     OW 6397   5.369   0.565   2.054
 1833SOL    HW1 6398   5.302   0.595   2.122
 1833SOL    HW2 6399   5.461   0.585   2.086
 1834SOL     OW 6400   2.049   3.911   0.661
 1834SOL    HW1 6401   1.974   3.845   0.654
 1834SOL    HW2 6402   2.083   3.933   0.570
 1835SOL     OW 6403   0.313   4.565   1.982
 1835SOL    HW1 6404   0.325   4.525   1.892
 1835SOL    HW2 6405   0.345   4.501   2.052
 1836SOL     OW 6406   5.523   2.503   1.355
 1836SOL    HW1 6407   5.517   2.484   1.453
 1836SOL    HW2 6408   5.614   2.479   1.323
 1837SOL     OW 6409   0.940   6.488   5.643
 1837SOL    HW1 6410   0.968   6.464   5.550
 1837SOL    HW2 6411   0.869   6.559   5.639
 1838SOL     OW 6412   6.670   0.877   5.153
 1838SOL    HW1 6413   6.721   0.802   5.196
 1838SOL    HW2 6414   6.619   0.841   5.074
 1839SOL     OW 6415   0.513   1.238   5.351
 1839SOL    HW1 6416   0.529   1.286   5.265
 1839SOL    HW2 6417   0.525   1.301   5.427
 1840SOL     OW 6418   3.957   7.013   2.096
 1840SOL    HW1 6419   3.975   6.945   2.025
 1840SOL    HW2 6420   3.892   0.051   2.062
 1841SOL     OW 6421   2.450   0.934   3.270
 1841SOL    HW1 6422   2.415   0.969   3.183
 1841SOL    HW2 6423   2.375   0.898   3.324
 1842SOL     OW 6424   1.717   5.772   1.051
 1842SOL    HW1 6425   1.775   5.832   0.995
 1842SOL    HW2 6426   1.678   5.825   1.126
 1843SOL     OW 6427   6.042   0.546   4.701
 1843SOL    HW1 6428   5.953   0.500   4.703
 1843SOL    HW2 6429   6.071   0.566   4.794
 1844SOL     OW 6430   3.430   6.925   5.071
 1844SOL    HW1 6431   3.530   6.929   5.071
 1844SOL    HW2 6432   3.400   6.832   5.053
 1845SOL     OW 6433   2.504   6.811   4.602
 1845SOL    HW1 6434   2.527   6.829   4.698
 1845SOL    HW2 6435   2.501   6.712   4.587
 1846SOL     OW 6436   3.638   1.137   2.367
 1846SOL    HW1 6437   3.690   1.093   2.440
 1846SOL    HW2 6438   3.619   1.232   2.392
 1847SOL     OW 6439   1.497   6.835   5.702
 1847SOL    HW1 6440   1.556   6.854   5.780
 1847SOL    HW2 6441   1.481   6.736   5.695
 1848SOL     OW 6442   1.937   6.370   3.014
 1848SOL    HW1 6443   2.016   6.312   3.036
 1848SOL    HW2 6444   1.875   6.319   2.954
 1849SOL     OW 6445   4.238   2.571   1.547
 1849SOL    HW1 6446   4.263   2.648   1.606
 1849SOL    HW2 6447   4.321   2.522   1.520
 1850SOL     OW 6448   0.108   2.477   2.397
 1850SOL    HW1 6449   0.022   2.522   2.421
 1850SOL    HW2 6450   0.163   2.538   2.340
 1851SOL     OW 6451   0.642   3.386   6.386
 1851SOL    HW1 6452   0.623   3.295   6.349
 1851SOL    HW2 6453   0.706   3.380   6.461
 1852SOL     OW 6454   0.044   4.524   2.621
 1852SOL    HW1 6455   7.011   4.491   2.692
 1852SOL    HW2 6456   0.077   4.447   2.567
 1853SOL     OW 6457   7.002   2.923   3.189
 1853SOL    HW1 6458   0.063   2.897   3.225
 1853SOL    HW2 6459   7.012   3.001   3.128
 1854SOL     OW 6460   2.010   5.588   3.068
 1854SOL    HW1 6461   2.110   5.583   3.065
 1854SOL    HW2 6462   1.983   5.670   3.118
 1855SOL     OW 6463   5.577   3.769   5.305
 1855SOL    HW1 6464   5.542   3.858   5.275
 1855SOL    HW2 6465   5.552   3.755   5.401
 1856SOL     OW 6466   4.925   3.563   6.000
 1856SOL    HW1 6467   4.875   3.645   6.027
 1856SOL    HW2 6468   5.022   3.575   6.020
 1857SOL     OW 6469   4.045   2.087   6.864
 1857SOL    HW1 6470   4.000   2.069   6.951
 1857SOL    HW2 6471   3.978   2.124   6.800
 1858SOL     OW 6472   5.465   3.271   3.100
 1858SOL    HW1 6473   5.439   3.210   3.175
 1858SOL    HW2 6474   5.511   3.352   3.137
 1859SOL     OW 6475   5.350   1.948   3.370
 1859SOL    HW1 6476   5.320   2.035   3.331
 1859SOL    HW2 6477   5.278   1.879   3.357
 1860SOL     OW 6478   0.598   1.205   5.054
 1860SOL    HW1 6479   0.547   1.123   5.080
 1860SOL    HW2 6480   0.566   1.238   4.965
 1861SOL     OW 6481   6.137   0.484   2.493
 1861SOL    HW1 6482   6.174   0.478   2.400
 1861SOL    HW2 6483   6.117   0.392   2.527
 1862SOL     OW 6484   2.489   0.517   6.453
 1862SOL    HW1 6485   2.474   0.564   6.366
 1862SOL    HW2 6486   2.545   0.574   6.513
 1863SOL     OW 6487   0.118   2.483   3.843
 1863SOL    HW1 6488   0.041   2.479   3.779
 1863SOL    HW2 6489   0.159   2.574   3.840
 1864SOL     OW 6490   2.589   5.764   4.991
 1864SOL    HW1 6491   2.567   5.802   5.081
 1864SOL    HW2 6492   2.595   5.837   4.923
 1865SOL     OW 6493   3.781   0.241   0.209
 1865SOL    HW1 6494   3.878   0.220   0.213
 1865SOL    HW2 6495   3.736   0.209   0.293
 1866SOL     OW 6496   6.364   4.798   3.845
 1866SOL    HW1 6497   6.377   4.876   3.784
 1866SOL    HW2 6498   6.266   4.787   3.864
 1867SOL     OW 6499   1.751   4.038   1.138
 1867SOL    HW1 6500   1.687   4.070   1.068
 1867SOL    HW2 6501   1.741   3.939   1.150
 1868SOL     OW 6502   4.740   3.482   6.726
 1868SOL    HW1 6503   4.818   3.530   6.685
 1868SOL    HW2 6504   4.744   3.385   6.702
 1869SOL     OW 6505   6.668   3.453   4.752
 1869SOL    HW1 6506   6.745   3.516   4.754
 1869SOL    HW2 6507   6.699   3.365   4.715
 1870SOL     OW 6508   1.015   3.220   5.181
 1870SOL    HW1 6509   1.057   3.241   5.269
 1870SOL    HW2 6510   1.039   3.127   5.153
 1871SOL     OW 6511   0.334   0.696   0.275
 1871SOL    HW1 6512   0.247   0.679   0.230
 1871SOL    HW2 6513   0.349   0.629   0.348
 1872SOL     OW 6514   4.761   2.017   0.210
 1872SOL    HW1 6515   4.739   1.923   0.187
 1872SOL    HW2 6516   4.796   2.064   0.129
 1873SOL     OW 6517   5.970   0.860   6.103
 1873SOL    HW1 6518   5.953   0.762   6.095
 1873SOL    HW2 6519   6.003   0.881   6.196
 1874SOL     OW 6520   1.619   1.197   6.845
 1874SOL    HW1 6521   1.645   1.282   6.891
 1874SOL    HW2 6522   1.648   1.201   6.749
 1875SOL     OW 6523   6.299   0.543   0.821
 1875SOL    HW1 6524   6.353   0.604   0.763
 1875SOL    HW2 6525   6.337   0.543   0.914
 1876SOL     OW 6526   3.574   5.743   5.954
 1876SOL    HW1 6527   3.641   5.761   6.026
 1876SOL    HW2 6528   3.623   5.717   5.870
 1877SOL     OW 6529   1.082   1.491   3.207
 1877SOL    HW1 6530   1.082   1.583   3.246
 1877SOL    HW2 6531   1.031   1.429   3.267
 1878SOL     OW 6532   0.121   2.762   4.229
 1878SOL    HW1 6533   0.046   2.828   4.232
 1878SOL    HW2 6534   0.090   2.676   4.270
 1879SOL     OW 6535   2.406   6.146   3.750
 1879SOL    HW1 6536   2.387   6.182   3.658
 1879SOL    HW2 6537   2.414   6.046   3.745
 1880SOL     OW 6538   0.365   1.696   3.122
 1880SOL    HW1 6539   0.361   1.687   3.222
 1880SOL    HW2 6540   0.326   1.784   3.096
 1881SOL     OW 6541   1.413   1.614   3.856
 1881SOL    HW1 6542   1.504   1.575   3.863
 1881SOL    HW2 6543   1.370   1.618   3.946
 1882SOL     OW 6544   1.118   4.759   6.621
 1882SOL    HW1 6545   1.194   4.812   6.659
 1882SOL    HW2 6546   1.147   4.664   6.609
 1883SOL     OW 6547   1.253   3.430   3.260
 1883SOL    HW1 6548   1.348   3.406   3.241
 1883SOL    HW2 6549   1.239   3.435   3.359
 1884SOL     OW 6550   6.055   2.323   0.787
 1884SOL    HW1 6551   6.035   2.362   0.697
 1884SOL    HW2 6552   5.969   2.308   0.836
 1885SOL     OW 6553   0.140   2.110   0.031
 1885SOL    HW1 6554   0.223   2.101   0.086
 1885SOL    HW2 6555   0.106   2.019   0.006
 1886SOL     OW 6556   2.790   1.372   0.976
 1886SOL    HW1 6557   2.697   1.348   0.947
 1886SOL    HW2 6558   2.818   1.458   0.932
 1887SOL     OW 6559   0.680   4.838   6.012
 1887SOL    HW1 6560   0.680   4.740   5.994
 1887SOL    HW2 6561   0.763   4.863   6.063
 1888SOL     OW 6562   3.203   2.055   6.289
 1888SOL    HW1 6563   3.243   2.004   6.365
 1888SOL    HW2 6564   3.182   2.149   6.319
 1889SOL     OW 6565   5.690   2.450   5.848
 1889SOL    HW1 6566   5.761   2.438   5.917
 1889SOL    HW2 6567   5.604   2.413   5.882
 1890SOL     OW 6568   1.602   5.466   5.168
 1890SOL    HW1 6569   1.625   5.426   5.256
 1890SOL    HW2 6570   1.555   5.398   5.111
 1891SOL     OW 6571   5.410   3.092   4.080
 1891SOL    HW1 6572   5.409   3.140   3.993
 1891SOL    HW2 6573   5.330   3.032   4.087
 1892SOL     OW 6574   4.127   0.511   1.085
 1892SOL    HW1 6575   4.090   0.602   1.072
 1892SOL    HW2 6576   4.206   0.498   1.025
 1893SOL     OW 6577   3.446   1.632   5.975
 1893SOL    HW1 6578   3.436   1.701   5.902
 1893SOL    HW2 6579   3.469   1.678   6.061
 1894SOL     OW 6580   3.954   3.987   2.447
 1894SOL    HW1 6581   3.941   3.936   2.362
 1894SOL    HW2 6582   3.993   4.077   2.426
 1895SOL     OW 6583   5.454   0.983   2.588
 1895SOL    HW1 6584   5.366   1.023   2.614
 1895SOL    HW2 6585   5.522   1.056   2.575
 1896SOL     OW 6586   1.023   0.269   3.240
 1896SOL    HW1 6587   0.955   0.248   3.170
 1896SOL    HW2 6588   0.980   0.320   3.315
 1897SOL     OW 6589   0.769   4.979   2.318
 1897SOL    HW1 6590   0.837   4.980   2.244
 1897SOL    HW2 6591   0.680   5.007   2.282
 1898SOL     OW 6592   3.262   4.876   2.252
 1898SOL    HW1 6593   3.164   4.872   2.275
 1898SOL    HW2 6594   3.306   4.790   2.277
 1899SOL     OW 6595   0.873   2.131   2.570
 1899SOL    HW1 6596   0.947   2.158   2.632
 1899SOL    HW2 6597   0.907   2.132   2.476
 1900SOL     OW 6598   1.271   0.273   5.243
 1900SOL    HW1 6599   1.309   0.365   5.240
 1900SOL    HW2 6600   1.176   0.275   5.212
 1901SOL     OW 6601   2.180   1.084   1.387
 1901SOL    HW1 6602   2.261   1.128   1.348
 1901SOL    HW2 6603   2.137   1.146   1.453
 1902SOL     OW 6604   2.279   2.158   4.464
 1902SOL    HW1 6605   2.334   2.215   4.525
 1902SOL    HW2 6606   2.256   2.209   4.382
 1903SOL     OW 6607   6.275   3.638   3.553
 1903SOL    HW1 6608   6.367   3.663   3.582
 1903SOL    HW2 6609   6.243   3.704   3.485
 1904SOL     OW 6610   5.963   6.712   4.355
 1904SOL    HW1 6611   5.970   6.811   4.367
 1904SOL    HW2 6612   5.910   6.673   4.430
 1905SOL     OW 6613   1.893   0.891   4.228
 1905SOL    HW1 6614   1.922   0.913   4.135
 1905SOL    HW2 6615   1.936   0.806   4.258
 1906SOL     OW 6616   2.508   0.318   5.166
 1906SOL    HW1 6617   2.449   0.383   5.119
 1906SOL    HW2 6618   2.602   0.331   5.137
 1907SOL     OW 6619   3.724   0.154   3.391
 1907SOL    HW1 6620   3.671   0.183   3.471
 1907SOL    HW2 6621   3.672   0.086   3.340
 1908SOL     OW 6622   4.096   0.832   4.915
 1908SOL    HW1 6623   4.190   0.803   4.898
 1908SOL    HW2 6624   4.069   0.901   4.847
 1909SOL     OW 6625   0.907   4.203   2.541
 1909SOL    HW1 6626   0.979   4.142   2.509
 1909SOL    HW2 6627   0.831   4.203   2.476
 1910SOL     OW 6628   0.472   2.525   6.881
 1910SOL    HW1 6629   0.504   2.619   6.893
 1910SOL    HW2 6630   0.373   2.522   6.890
 1911SOL     OW 6631   6.028   2.998   5.654
 1911SOL    HW1 6632   5.995   3.030   5.565
 1911SOL    HW2 6633   6.094   2.925   5.641
 1912SOL     OW 6634   3.700   6.974   1.255
 1912SOL    HW1 6635   3.636   6.971   1.332
 1912SOL    HW2 6636   3.752   6.888   1.252
 1913SOL     OW 6637   1.159   5.828   5.386
 1913SOL    HW1 6638   1.221   5.902   5.359
 1913SOL    HW2 6639   1.205   5.770   5.454
 1914SOL     OW 6640   3.464   2.804   6.492
 1914SOL    HW1 6641   3.405   2.727   6.514
 1914SOL    HW2 6642   3.426   2.854   6.414
 1915SOL     OW 6643   3.500   1.763   5.696
 1915SOL    HW1 6644   3.594   1.765   5.730
 1915SOL    HW2 6645   3.500   1.739   5.599
 1916SOL     OW 6646   3.188   6.248   1.426
 1916SOL    HW1 6647   3.123   6.316   1.390
 1916SOL    HW2 6648   3.228   6.197   1.350
 1917SOL     OW 6649   3.352   2.968   4.601
 1917SOL    HW1 6650   3.446   2.962   4.567
 1917SOL    HW2 6651   3.348   2.932   4.694
 1918SOL     OW 6652   0.675   1.092   6.914
 1918SOL    HW1 6653   0.623   1.124   6.835
 1918SOL    HW2 6654   0.615   1.091   6.994
 1919SOL     OW 6655   2.171   0.296   1.624
 1919SOL    HW1 6656   2.258   0.252   1.647
 1919SOL    HW2 6657   2.097   0.256   1.679
 1920SOL     OW 6658   1.092   5.198   3.056
 1920SOL    HW1 6659   1.015   5.188   3.119
 1920SOL    HW2 6660   1.061   5.240   2.971
 1921SOL     OW 6661   1.556   4.525   0.215
 1921SOL    HW1 6662   1.503   4.453   0.260
 1921SOL    HW2 6663   1.554   4.608   0.271
 1922SOL     OW 6664   3.027   4.119   0.669
 1922SOL    HW1 6665   2.931   4.108   0.695
 1922SOL    HW2 6666   3.081   4.044   0.707
 1923SOL     OW 6667   3.323   0.851   6.122
 1923SOL    HW1 6668   3.244   0.850   6.183
 1923SOL    HW2 6669   3.311   0.782   6.050
 1924SOL     OW 6670   5.071   5.100   1.847
 1924SOL    HW1 6671   5.149   5.114   1.908
 1924SOL    HW2 6672   5.034   5.008   1.862
 1925SOL     OW 6673   2.226   3.592   0.668
 1925SOL    HW1 6674   2.168   3.658   0.620
 1925SOL    HW2 6675   2.318   3.593   0.629
 1926SOL     OW 6676   1.462   6.718   2.829
 1926SOL    HW1 6677   1.542   6.661   2.847
 1926SOL    HW2 6678   1.442   6.773   2.910
 1927SOL     OW 6679   3.257   4.576   6.178
 1927SOL    HW1 6680   3.266   4.479   6.200
 1927SOL    HW2 6681   3.328   4.628   6.224
 1928SOL     OW 6682   6.702   3.628   5.651
 1928SOL    HW1 6683   6.765   3.553   5.631
 1928SOL    HW2 6684   6.611   3.591   5.670
 1929SOL     OW 6685   0.945   5.639   1.998
 1929SOL    HW1 6686   0.926   5.542   2.010
 1929SOL    HW2 6687   0.869   5.682   1.949
 1930SOL     OW 6688   3.450   3.942   6.494
 1930SOL    HW1 6689   3.371   3.882   6.496
 1930SOL    HW2 6690   3.509   3.922   6.573
 1931SOL     OW 6691   0.192   2.783   2.254
 1931SOL    HW1 6692   0.205   2.862   2.193
 1931SOL    HW2 6693   0.216   2.808   2.347
 1932SOL     OW 6694   5.070   3.097   3.416
 1932SOL    HW1 6695   4.984   3.097   3.468
 1932SOL    HW2 6696   5.060   3.153   3.334
 1933SOL     OW 6697   2.813   4.550   0.451
 1933SOL    HW1 6698   2.764   4.572   0.366
 1933SOL    HW2 6699   2.783   4.460   0.484
 1934SOL     OW 6700   1.001   0.266   4.960
 1934SOL    HW1 6701   0.998   0.344   5.022
 1934SOL    HW2 6702   1.062   0.287   4.884
 1935SOL     OW 6703   3.175   6.313   4.642
 1935SOL    HW1 6704   3.096   6.361   4.681
 1935SOL    HW2 6705   3.214   6.368   4.568
 1936SOL     OW 6706   6.738   3.866   3.897
 1936SOL    HW1 6707   6.815   3.875   3.960
 1936SOL    HW2 6708   6.656   3.903   3.940
 1937SOL     OW 6709   4.901   0.250   0.982
 1937SOL    HW1 6710   4.806   0.220   0.990
 1937SOL    HW2 6711   4.926   0.306   1.061
 1938SOL     OW 6712   2.499   1.049   1.719
 1938SOL    HW1 6713   2.452   0.961   1.713
 1938SOL    HW2 6714   2.598   1.035   1.710
 1939SOL     OW 6715   6.878   0.460   5.027
 1939SOL    HW1 6716   6.819   0.450   4.947
 1939SOL    HW2 6717   6.962   0.408   5.014
 1940SOL     OW 6718   4.774   4.970   0.214
 1940SOL    HW1 6719   4.826   4.939   0.134
 1940SOL    HW2 6720   4.832   5.025   0.273
 1941SOL     OW 6721   0.090   4.402   3.681
 1941SOL    HW1 6722   0.168   4.462   3.663
 1941SOL    HW2 6723   0.009   4.456   3.700
 1942SOL     OW 6724   5.299   0.502   1.685
 1942SOL    HW1 6725   5.225   0.441   1.714
 1942SOL    HW2 6726   5.279   0.595   1.715
 1943SOL     OW 6727   2.700   6.358   2.320
 1943SOL    HW1 6728   2.684   6.456   2.306
 1943SOL    HW2 6729   2.686   6.309   2.233
 1944SOL     OW 6730   6.025   2.628   0.261
 1944SOL    HW1 6731   6.112   2.678   0.254
 1944SOL    HW2 6732   6.036   2.538   0.219
 1945SOL     OW 6733   3.342   5.545   1.697
 1945SOL    HW1 6734   3.417   5.507   1.644
 1945SOL    HW2 6735   3.295   5.472   1.746
 1946SOL     OW 6736   6.147   0.282   1.361
 1946SOL    HW1 6737   6.120   0.376   1.383
 1946SOL    HW2 6738   6.173   0.277   1.264
 1947SOL     OW 6739   4.687   6.975   5.359
 1947SOL    HW1 6740   4.642   0.023   5.313
 1947SOL    HW2 6741   4.723   6.911   5.291
 1948SOL     OW 6742   5.714   5.143   3.550
 1948SOL    HW1 6743   5.766   5.083   3.490
 1948SOL    HW2 6744   5.774   5.177   3.623
 1949SOL     OW 6745   3.389   4.468   6.594
 1949SOL    HW1 6746   3.320   4.483   6.665
 1949SOL    HW2 6747   3.409   4.371   6.587
 1950SOL     OW 6748   4.066   4.533   0.400
 1950SOL    HW1 6749   4.081   4.549   0.498
 1950SOL    HW2 6750   3.995   4.595   0.366
 1951SOL     OW 6751   5.845   4.209   6.894
 1951SOL    HW1 6752   5.882   4.117   6.886
 1951SOL    HW2 6753   5.835   4.249   6.802
 1952SOL     OW 6754   4.493   2.536   0.293
 1952SOL    HW1 6755   4.485   2.554   0.391
 1952SOL    HW2 6756   4.587   2.552   0.263
 1953SOL     OW 6757   5.955   1.990   6.694
 1953SOL    HW1 6758   5.866   1.968   6.734
 1953SOL    HW2 6759   6.023   1.927   6.730
 1954SOL     OW 6760   5.459   1.490   3.255
 1954SOL    HW1 6761   5.533   1.493   3.187
 1954SOL    HW2 6762   5.413   1.578   3.259
 1955SOL     OW 6763   0.975   1.653   2.199
 1955SOL    HW1 6764   0.958   1.602   2.283
 1955SOL    HW2 6765   1.046   1.607   2.145
 1956SOL     OW 6766   4.833   6.591   2.777
 1956SOL    HW1 6767   4.744   6.625   2.806
 1956SOL    HW2 6768   4.878   6.660   2.721
 1957SOL     OW 6769   6.153   5.012   4.451
 1957SOL    HW1 6770   6.113   4.986   4.362
 1957SOL    HW2 6771   6.248   5.038   4.438
 1958SOL     OW 6772   4.674   2.398   2.590
 1958SOL    HW1 6773   4.643   2.439   2.504
 1958SOL    HW2 6774   4.774   2.401   2.595
 1959SOL     OW 6775   0.422   0.998   5.101
 1959SOL    HW1 6776   0.413   0.909   5.146
 1959SOL    HW2 6777   0.338   1.018   5.050
 1960SOL     OW 6778   6.871   4.298   2.042
 1960SOL    HW1 6779   6.949   4.345   2.083
 1960SOL    HW2 6780   6.841   4.349   1.961
 1961SOL     OW 6781   5.707   4.172   4.317
 1961SOL    HW1 6782   5.791   4.166   4.262
 1961SOL    HW2 6783   5.636   4.115   4.276
 1962SOL     OW 6784   2.044   6.763   3.772
 1962SOL    HW1 6785   1.962   6.746   3.717
 1962SOL    HW2 6786   2.087   6.676   3.796
 1963SOL     OW 6787   0.886   1.888   1.567
 1963SOL    HW1 6788   0.935   1.864   1.650
 1963SOL    HW2 6789   0.904   1.820   1.496
 1964SOL     OW 6790   4.714   4.319   0.510
 1964SOL    HW1 6791   4.746   4.234   0.551
 1964SOL    HW2 6792   4.640   4.358   0.565
 1965SOL     OW 6793   1.399   3.286   4.547
 1965SOL    HW1 6794   1.354   3.373   4.531
 1965SOL    HW2 6795   1.473   3.273   4.482
 1966SOL     OW 6796   6.575   6.602   0.316
 1966SOL    HW1 6797   6.644   6.614   0.245
 1966SOL    HW2 6798   6.592   6.517   0.365
 1967SOL     OW 6799   5.788   2.844   5.474
 1967SOL    HW1 6800   5.759   2.939   5.471
 1967SOL    HW2 6801   5.795   2.813   5.569
 1968SOL     OW 6802   2.402   0.281   6.795
 1968SOL    HW1 6803   2.392   0.183   6.776
 1968SOL    HW2 6804   2.450   0.325   6.719
 1969SOL     OW 6805   1.014   1.800   1.805
 1969SOL    HW1 6806   0.925   1.789   1.851
 1969SOL    HW2 6807   1.072   1.721   1.826
 1970SOL     OW 6808   2.346   6.649   6.015
 1970SOL    HW1 6809   2.443   6.636   6.034
 1970SOL    HW2 6810   2.292   6.603   6.084
 1971SOL     OW 6811   0.034   0.260   5.893
 1971SOL    HW1 6812   0.121   0.303   5.867
 1971SOL    HW2 6813   0.048   0.203   5.974
 1972SOL     OW 6814   5.220   2.466   2.002
 1972SOL    HW1 6815   5.257   2.515   2.081
 1972SOL    HW2 6816   5.141   2.516   1.966
 1973SOL     OW 6817   3.069   2.253   0.459
 1973SOL    HW1 6818   3.029   2.297   0.378
 1973SOL    HW2 6819   2.996   2.218   0.517
 1974SOL     OW 6820   5.877   0.237   4.744
 1974SOL    HW1 6821   5.974   0.225   4.766
 1974SOL    HW2 6822   5.824   0.242   4.829
 1975SOL     OW 6823   2.053   1.777   3.712
 1975SOL    HW1 6824   2.034   1.706   3.644
 1975SOL    HW2 6825   2.151   1.794   3.716
 1976SOL     OW 6826   0.258   6.482   6.878
 1976SOL    HW1 6827   0.248   6.405   6.815
 1976SOL    HW2 6828   0.170   6.527   6.890
 1977SOL     OW 6829   0.742   3.373   4.586
 1977SOL    HW1 6830   0.743   3.293   4.525
 1977SOL    HW2 6831   0.785   3.450   4.539
 1978SOL     OW 6832   1.780   0.221   3.074
 1978SOL    HW1 6833   1.803   0.317   3.088
 1978SOL    HW2 6834   1.730   0.211   2.988
 1979SOL     OW 6835   6.219   4.245   6.296
 1979SOL    HW1 6836   6.267   4.310   6.356
 1979SOL    HW2 6837   6.267   4.238   6.209
 1980SOL     OW 6838   3.095   0.631   4.623
 1980SOL    HW1 6839   3.082   0.550   4.565
 1980SOL    HW2 6840   3.040   0.706   4.588
 1981SOL     OW 6841   6.571   1.894   2.521
 1981SOL    HW1 6842   6.624   1.915   2.439
 1981SOL    HW2 6843   6.618   1.823   2.574
 1982SOL     OW 6844   0.030   4.206   4.693
 1982SOL    HW1 6845   0.022   4.167   4.784
 1982SOL    HW2 6846   0.019   4.305   4.698
 1983SOL     OW 6847   0.461   1.445   2.870
 1983SOL    HW1 6848   0.509   1.480   2.950
 1983SOL    HW2 6849   0.404   1.367   2.897
 1984SOL     OW 6850   5.858   1.484   5.116
 1984SOL    HW1 6851   5.805   1.531   5.187
 1984SOL    HW2 6852   5.944   1.452   5.156
 1985SOL     OW 6853   1.248   6.268   2.524
 1985SOL    HW1 6854   1.229   6.366   2.512
 1985SOL    HW2 6855   1.347   6.254   2.526
 1986SOL     OW 6856   1.621   1.049   0.063
 1986SOL    HW1 6857   1.645   1.056   6.995
 1986SOL    HW2 6858   1.605   0.953   0.085
 1987SOL     OW 6859   2.004   2.380   2.583
 1987SOL    HW1 6860   2.078   2.396   2.649
 1987SOL    HW2 6861   2.036   2.404   2.491
 1988SOL     OW 6862   6.152   4.422   0.771
 1988SOL    HW1 6863   6.070   4.474   0.748
 1988SOL    HW2 6864   6.128   4.346   0.831
 1989SOL     OW 6865   2.695   5.548   4.604
 1989SOL    HW1 6866   2.664   5.593   4.688
 1989SOL    HW2 6867   2.644   5.462   4.592
 1990SOL     OW 6868   3.742   6.491   0.786
 1990SOL    HW1 6869   3.673   6.562   0.771
 1990SOL    HW2 6870   3.720   6.412   0.729
 1991SOL     OW 6871   3.818   4.620   6.832
 1991SOL    HW1 6872   3.775   4.709   6.848
 1991SOL    HW2 6873   3.862   4.621   6.742
 1992SOL     OW 6874   1.150   0.778   0.836
 1992SOL    HW1 6875   1.152   0.787   0.737
 1992SOL    HW2 6876   1.142   0.868   0.879
 1993SOL     OW 6877   3.696   2.836   5.024
 1993SOL    HW1 6878   3.613   2.792   5.058
 1993SOL    HW2 6879   3.706   2.816   4.926
 1994SOL     OW 6880   0.550   1.091   0.796
 1994SOL    HW1 6881   0.581   1.102   0.890
 1994SOL    HW2 6882   0.627   1.064   0.738
 1995SOL     OW 6883   4.883   2.294   3.377
 1995SOL    HW1 6884   4.824   2.370   3.406
 1995SOL    HW2 6885   4.933   2.259   3.456
 1996SOL     OW 6886   2.258   3.327   0.692
 1996SOL    HW1 6887   2.261   3.425   0.676
 1996SOL    HW2 6888   2.167   3.300   0.722
 1997SOL     OW 6889   3.833   1.238   4.368
 1997SOL    HW1 6890   3.787   1.154   4.397
 1997SOL    HW2 6891   3.910   1.257   4.430
 1998SOL     OW 6892   2.088   4.560   6.405
 1998SOL    HW1 6893   2.077   4.473   6.356
 1998SOL    HW2 6894   2.103   4.633   6.338
 1999SOL     OW 6895   2.592   0.199   0.423
 1999SOL    HW1 6896   2.587   0.223   0.520
 1999SOL    HW2 6897   2.644   0.269   0.374
 2000SOL     OW 6898   4.381   2.279   5.305
 2000SOL    HW1 6899   4.438   2.334   5.245
 2000SOL    HW2 6900   4.339   2.205   5.252
 2001SOL     OW 6901   3.010   0.973   1.881
 2001SOL    HW1 6902   2.927   1.023   1.906
 2001SOL    HW2 6903   2.993   0.920   1.798
 2002SOL     OW 6904   0.943   4.577   6.804
 2002SOL    HW1 6905   0.947   4.670   6.767
 2002SOL    HW2 6906   1.030   4.556   6.849
 2003SOL     OW 6907   6.250   5.833   2.235
 2003SOL    HW1 6908   6.331   5.789   2.272
 2003SOL    HW2 6909   6.176   5.766   2.226
 2004SOL     OW 6910   5.372   0.415   5.899
 2004SOL    HW1 6911   5.315   0.494   5.877
 2004SOL    HW2 6912   5.440   0.441   5.968
 2005SOL     OW 6913   1.108   4.838   0.676
 2005SOL    HW1 6914   1.020   4.814   0.716
 2005SOL    HW2 6915   1.100   4.923   0.624
 2006SOL     OW 6916   4.859   6.521   4.049
 2006SOL    HW1 6917   4.939   6.532   3.990
 2006SOL    HW2 6918   4.823   6.611   4.073
 2007SOL     OW 6919   4.278   4.716   0.994
 2007SOL    HW1 6920   4.328   4.681   0.915
 2007SOL    HW2 6921   4.191   4.667   1.003
 2008SOL     OW 6922   2.880   5.203   3.958
 2008SOL    HW1 6923   2.801   5.239   4.009
 2008SOL    HW2 6924   2.931   5.141   4.017
 2009SOL     OW 6925   5.814   1.345   2.389
 2009SOL    HW1 6926   5.860   1.416   2.442
 2009SOL    HW2 6927   5.881   1.277   2.359
 2010SOL     OW 6928   2.052   1.859   0.723
 2010SOL    HW1 6929   2.127   1.922   0.745
 2010SOL    HW2 6930   1.966   1.896   0.758
 2011SOL     OW 6931   6.769   6.791   4.935
 2011SOL    HW1 6932   6.749   6.885   4.965
 2011SOL    HW2 6933   6.868   6.780   4.927
 2012SOL     OW 6934   1.571   3.840   1.900
 2012SOL    HW1 6935   1.654   3.820   1.847
 2012SOL    HW2 6936   1.495   3.786   1.864
 2013SOL     OW 6937   6.446   2.180   3.575
 2013SOL    HW1 6938   6.414   2.161   3.668
 2013SOL    HW2 6939   6.520   2.247   3.577
 2014SOL     OW 6940   2.639   5.189   3.580
 2014SOL    HW1 6941   2.543   5.172   3.561
 2014SOL    HW2 6942   2.653   5.286   3.600
 2015SOL     OW 6943   1.966   0.620   6.692
 2015SOL    HW1 6944   1.893   0.683   6.716
 2015SOL    HW2 6945   1.946   0.578   6.603
 2016SOL     OW 6946   1.212   6.090   5.081
 2016SOL    HW1 6947   1.257   6.085   5.170
 2016SOL    HW2 6948   1.211   6.185   5.049
 2017SOL     OW 6949   2.990   6.798   4.517
 2017SOL    HW1 6950   3.047   6.782   4.436
 2017SOL    HW2 6951   2.902   6.835   4.488
 2018SOL     OW 6952   5.683   6.829   5.711
 2018SOL    HW1 6953   5.764   6.843   5.655
 2018SOL    HW2 6954   5.639   6.743   5.687
 2019SOL     OW 6955   5.502   2.675   6.926
 2019SOL    HW1 6956   5.433   2.619   6.881
 2019SOL    HW2 6957   5.476   2.691   7.021
 2020SOL     OW 6958   1.100   6.273   4.763
 2020SOL    HW1 6959   1.025   6.332   4.733
 2020SOL    HW2 6960   1.064   6.199   4.819
 2021SOL     OW 6961   1.209   6.135   4.057
 2021SOL    HW1 6962   1.114   6.154   4.029
 2021SOL    HW2 6963   1.230   6.039   4.041
 2022SOL     OW 6964   1.737   3.871   3.181
 2022SOL    HW1 6965   1.769   3.964   3.162
 2022SOL    HW2 6966   1.815   3.814   3.208
 2023SOL     OW 6967   6.497   0.716   6.232
 2023SOL    HW1 6968   6.468   0.662   6.153
 2023SOL    HW2 6969   6.424   0.779   6.258
 2024SOL     OW 6970   0.366   0.054   3.990
 2024SOL    HW1 6971   0.443   0.033   3.930
 2024SOL    HW2 6972   0.305   0.119   3.945
 2025SOL     OW 6973   2.779   1.896   3.127
 2025SOL    HW1 6974   2.700   1.913   3.186
 2025SOL    HW2 6975   2.754   1.914   3.032
 2026SOL     OW 6976   0.025   2.626   5.927
 2026SOL    HW1 6977   0.010   2.695   5.998
 2026SOL    HW2 6978   0.111   2.644   5.880
 2027SOL     OW 6979   0.813   0.608   0.217
 2027SOL    HW1 6980   0.865   0.661   0.150
 2027SOL    HW2 6981   0.860   0.609   0.305
 2028SOL     OW 6982   3.091   6.644   5.268
 2028SOL    HW1 6983   3.089   6.607   5.362
 2028SOL    HW2 6984   3.016   6.604   5.216
 2029SOL     OW 6985   6.739   0.620   0.598
 2029SOL    HW1 6986   6.826   0.667   0.614
 2029SOL    HW2 6987   6.756   0.534   0.550
 2030SOL     OW 6988   2.217   1.237   2.884
 2030SOL    HW1 6989   2.265   1.227   2.797
 2030SOL    HW2 6990   2.152   1.312   2.878
 2031SOL     OW 6991   6.377   5.571   0.933
 2031SOL    HW1 6992   6.462   5.532   0.969
 2031SOL    HW2 6993   6.382   5.576   0.833
 2032SOL     OW 6994   4.665   0.103   2.130
 2032SOL    HW1 6995   4.759   0.072   2.122
 2032SOL    HW2 6996   4.609   0.031   2.171
 2033SOL     OW 6997   3.237   4.079   6.341
 2033SOL    HW1 6998   3.297   4.000   6.356
 2033SOL    HW2 6999   3.221   4.126   6.428
 2034SOL     OW 7000   3.007   5.893   5.294
 2034SOL    HW1 7001   2.970   5.803   5.268
 2034SOL    HW2 7002   3.002   5.955   5.216
 2035SOL     OW 7003   0.042   0.517   3.055
 2035SOL    HW1 7004   7.018   0.503   3.138
 2035SOL    HW2 7005   7.013   0.498   2.975
 2036SOL     OW 7006   1.403   4.335   2.841
 2036SOL    HW1 7007   1.432   4.243   2.815
 2036SOL    HW2 7008   1.311   4.331   2.880
 2037SOL     OW 7009   6.451   2.788   5.640
 2037SOL    HW1 7010   6.360   2.808   5.602
 2037SOL    HW2 7011   6.481   2.698   5.608
 2038SOL     OW 7012   1.736   2.462   0.051
 2038SOL    HW1 7013   1.686   2.375   0.054
 2038SOL    HW2 7014   1.832   2.444   0.028
 2039SOL     OW 7015   0.393   5.345   3.580
 2039SOL    HW1 7016   0.436   5.263   3.616
 2039SOL    HW2 7017   0.352   5.397   3.654
 2040SOL     OW 7018   3.191   3.503   5.281
 2040SOL    HW1 7019   3.210   3.438   5.355
 2040SOL    HW2 7020   3.227   3.467   5.195
 2041SOL     OW 7021   0.778   5.946   6.202
 2041SOL    HW1 7022   0.744   6.017   6.140
 2041SOL    HW2 7023   0.704   5.918   6.264
 2042SOL     OW 7024   4.902   6.169   0.063
 2042SOL    HW1 7025   4.852   6.239   0.012
 2042SOL    HW2 7026   4.938   6.209   0.148
 2043SOL     OW 7027   7.026   3.598   3.817
 2043SOL    HW1 7028   6.926   3.604   3.818
 2043SOL    HW2 7029   0.035   3.676   3.767
 2044SOL     OW 7030   6.439   6.951   1.699
 2044SOL    HW1 7031   6.453   6.855   1.724
 2044SOL    HW2 7032   6.346   6.963   1.665
 2045SOL     OW 7033   2.545   5.078   3.938
 2045SOL    HW1 7034   2.611   5.003   3.925
 2045SOL    HW2 7035   2.521   5.085   4.034
 2046SOL     OW 7036   6.544   2.288   4.162
 2046SOL    HW1 7037   6.515   2.366   4.217
 2046SOL    HW2 7038   6.511   2.299   4.068
 2047SOL     OW 7039   6.954   2.525   6.714
 2047SOL    HW1 7040   7.011   2.512   6.632
 2047SOL    HW2 7041   6.947   2.438   6.763
 2048SOL     OW 7042   2.094   6.555   6.152
 2048SOL    HW1 7043   2.052   6.476   6.107
 2048SOL    HW2 7044   2.053   6.567   6.243
 2049SOL     OW 7045   6.082   1.415   5.247
 2049SOL    HW1 7046   6.077   1.487   5.317
 2049SOL    HW2 7047   6.178   1.391   5.232
 2050SOL     OW 7048   6.545   2.777   4.273
 2050SOL    HW1 7049   6.455   2.797   4.313
 2050SOL    HW2 7050   6.549   2.814   4.181
 2051SOL     OW 7051   0.767   5.147   0.765
 2051SOL    HW1 7052   0.682   5.098   0.782
 2051SOL    HW2 7053   0.779   5.161   0.667
 2052SOL     OW 7054   1.533   3.565   1.204
 2052SOL    HW1 7055   1.523   3.587   1.301
 2052SOL    HW2 7056   1.443   3.544   1.166
 2053SOL     OW 7057   5.406   7.021   4.741
 2053SOL    HW1 7058   5.470   6.975   4.679
 2053SOL    HW2 7059   5.435   0.087   4.755
 2054SOL     OW 7060   3.608   4.131   3.269
 2054SOL    HW1 7061   3.645   4.158   3.358
 2054SOL    HW2 7062   3.513   4.104   3.279
 2055SOL     OW 7063   6.114   3.351   3.201
 2055SOL    HW1 7064   6.066   3.346   3.289
 2055SOL    HW2 7065   6.079   3.279   3.141
 2056SOL     OW 7066   4.082   5.702   2.444
 2056SOL    HW1 7067   4.111   5.780   2.388
 2056SOL    HW2 7068   4.012   5.650   2.396
 2057SOL     OW 7069   5.487   4.029   5.259
 2057SOL    HW1 7070   5.565   4.034   5.197
 2057SOL    HW2 7071   5.506   4.082   5.342
 2058SOL     OW 7072   0.679   1.917   3.184
 2058SOL    HW1 7073   0.651   1.851   3.254
 2058SOL    HW2 7074   0.653   1.882   3.094
 2059SOL     OW 7075   1.907   5.921   6.662
 2059SOL    HW1 7076   1.913   6.014   6.698
 2059SOL    HW2 7077   1.951   5.857   6.726
 2060SOL     OW 7078   0.283   4.238   1.913
 2060SOL    HW1 7079   0.184   4.235   1.897
 2060SOL    HW2 7080   0.326   4.292   1.841
 2061SOL     OW 7081   0.896   2.053   3.249
 2061SOL    HW1 7082   0.888   2.088   3.343
 2061SOL    HW2 7083   0.818   1.993   3.230
 2062SOL     OW 7084   6.290   6.452   3.795
 2062SOL    HW1 7085   6.379   6.407   3.802
 2062SOL    HW2 7086   6.294   6.542   3.839
 2063SOL     OW 7087   1.946   6.793   6.420
 2063SOL    HW1 7088   1.903   6.812   6.509
 2063SOL    HW2 7089   1.966   6.695   6.413
 2064SOL     OW 7090   1.370   2.500   5.426
 2064SOL    HW1 7091   1.422   2.577   5.389
 2064SOL    HW2 7092   1.284   2.533   5.465
 2065SOL     OW 7093   6.494   2.387   5.255
 2065SOL    HW1 7094   6.395   2.373   5.254
 2065SOL    HW2 7095   6.530   2.383   5.161
 2066SOL     OW 7096   0.321   4.695   4.217
 2066SOL    HW1 7097   0.321   4.636   4.298
 2066SOL    HW2 7098   0.256   4.770   4.230
 2067SOL     OW 7099   6.348   5.015   0.873
 2067SOL    HW1 7100   6.253   5.023   0.904
 2067SOL    HW2 7101   6.409   5.047   0.945
 2068SOL     OW 7102   2.411   6.922   4.348
 2068SOL    HW1 7103   2.457   6.898   4.433
 2068SOL    HW2 7104   2.471   6.900   4.271
 2069SOL     OW 7105   0.289   2.304   3.936
 2069SOL    HW1 7106   0.223   2.367   3.895
 2069SOL    HW2 7107   0.294   2.220   3.882
 2070SOL     OW 7108   0.732   0.992   1.570
 2070SOL    HW1 7109   0.754   0.946   1.484
 2070SOL    HW2 7110   0.727   1.091   1.555
 2071SOL     OW 7111   6.412   6.948   5.935
 2071SOL    HW1 7112   6.340   6.911   5.876
 2071SOL    HW2 7113   6.466   7.014   5.883
 2072SOL     OW 7114   4.135   6.525   4.219
 2072SOL    HW1 7115   4.088   6.455   4.166
 2072SOL    HW2 7116   4.164   6.487   4.307
 2073SOL     OW 7117   4.020   0.180   5.252
 2073SOL    HW1 7118   4.008   0.182   5.153
 2073SOL    HW2 7119   4.023   0.274   5.286
 2074SOL     OW 7120   2.134   2.548   6.664
 2074SOL    HW1 7121   2.209   2.609   6.689
 2074SOL    HW2 7122   2.050   2.601   6.654
 2075SOL     OW 7123   0.014   2.960   2.619
 2075SOL    HW1 7124   6.970   2.999   2.676
 2075SOL    HW2 7125   0.027   3.018   2.538
 2076SOL     OW 7126   6.256   0.082   6.611
 2076SOL    HW1 7127   6.220   0.163   6.659
 2076SOL    HW2 7128   6.182   0.034   6.566
 2077SOL     OW 7129   6.069   2.660   3.488
 2077SOL    HW1 7130   6.037   2.745   3.445
 2077SOL    HW2 7131   6.117   2.605   3.420
 2078SOL     OW 7132   1.652   5.793   6.072
 2078SOL    HW1 7133   1.724   5.851   6.032
 2078SOL    HW2 7134   1.563   5.825   6.041
 2079SOL     OW 7135   5.378   2.366   3.543
 2079SOL    HW1 7136   5.478   2.367   3.542
 2079SOL    HW2 7137   5.346   2.324   3.628
 2080SOL     OW 7138   1.748   6.861   4.601
 2080SOL    HW1 7139   1.756   6.861   4.701
 2080SOL    HW2 7140   1.782   6.775   4.565
 2081SOL     OW 7141   1.246   5.346   4.500
 2081SOL    HW1 7142   1.323   5.287   4.523
 2081SOL    HW2 7143   1.280   5.427   4.452
 2082SOL     OW 7144   0.478   0.107   3.087
 2082SOL    HW1 7145   0.494   0.205   3.091
 2082SOL    HW2 7146   0.506   0.065   3.174
 2083SOL     OW 7147   6.802   4.873   5.524
 2083SOL    HW1 7148   6.783   4.830   5.612
 2083SOL    HW2 7149   6.718   4.912   5.487
 2084SOL     OW 7150   0.487   4.487   3.262
 2084SOL    HW1 7151   0.508   4.418   3.332
 2084SOL    HW2 7152   0.388   4.497   3.256
 2085SOL     OW 7153   4.730   0.350   0.279
 2085SOL    HW1 7154   4.644   0.310   0.246
 2085SOL    HW2 7155   4.763   0.417   0.212
 2086SOL     OW 7156   4.103   6.490   6.244
 2086SOL    HW1 7157   4.037   6.498   6.319
 2086SOL    HW2 7158   4.192   6.461   6.280
 2087SOL     OW 7159   4.948   0.785   1.721
 2087SOL    HW1 7160   4.884   0.858   1.697
 2087SOL    HW2 7161   4.919   0.742   1.807
 2088SOL     OW 7162   1.843   6.057   0.544
 2088SOL    HW1 7163   1.812   5.963   0.533
 2088SOL    HW2 7164   1.764   6.118   0.548
 2089SOL     OW 7165   5.003   2.673   6.491
 2089SOL    HW1 7166   4.951   2.756   6.511
 2089SOL    HW2 7167   4.969   2.632   6.406
 2090SOL     OW 7168   4.506   3.599   5.608
 2090SOL    HW1 7169   4.463   3.676   5.561
 2090SOL    HW2 7170   4.548   3.538   5.541
 2091SOL     OW 7171   0.512   5.691   0.995
 2091SOL    HW1 7172   0.421   5.725   1.019
 2091SOL    HW2 7173   0.573   5.700   1.073
 2092SOL     OW 7174   4.611   3.942   6.897
 2092SOL    HW1 7175   4.601   4.040   6.911
 2092SOL    HW2 7176   4.528   3.895   6.927
 2093SOL     OW 7177   2.681   2.209   1.242
 2093SOL    HW1 7178   2.739   2.130   1.265
 2093SOL    HW2 7179   2.728   2.293   1.269
 2094SOL     OW 7180   5.849   1.779   3.146
 2094SOL    HW1 7181   5.861   1.854   3.081
 2094SOL    HW2 7182   5.895   1.802   3.232
 2095SOL     OW 7183   5.865   6.857   5.522
 2095SOL    HW1 7184   5.949   6.804   5.534
 2095SOL    HW2 7185   5.888   6.955   5.520
 2096SOL     OW 7186   4.824   4.118   3.175
 2096SOL    HW1 7187   4.777   4.132   3.087
 2096SOL    HW2 7188   4.876   4.200   3.198
 2097SOL     OW 7189   2.510   3.506   6.685
 2097SOL    HW1 7190   2.541   3.453   6.606
 2097SOL    HW2 7191   2.494   3.444   6.762
 2098SOL     OW 7192   3.611   6.048   1.807
 2098SOL    HW1 7193   3.683   6.068   1.740
 2098SOL    HW2 7194   3.545   5.985   1.768
 2099SOL     OW 7195   3.421   2.830   6.215
 2099SOL    HW1 7196   3.398   2.879   6.131
 2099SOL    HW2 7197   3.508   2.782   6.203
 2100SOL     OW 7198   5.335   2.447   6.789
 2100SOL    HW1 7199   5.257   2.466   6.848
 2100SOL    HW2 7200   5.305   2.447   6.693
 2101SOL     OW 7201   1.160   0.030   1.456
 2101SOL    HW1 7202   1.098   0.054   1.530
 2101SOL    HW2 7203   1.108   7.023   1.379
 2102SOL     OW 7204   5.365   5.164   2.649
 2102SOL    HW1 7205   5.386   5.109   2.568
 2102SOL    HW2 7206   5.361   5.105   2.729
 2103SOL     OW 7207   3.057   3.442   6.559
 2103SOL    HW1 7208   3.138   3.425   6.615
 2103SOL    HW2 7209   3.002   3.359   6.555
 2104SOL     OW 7210   1.631   4.361   1.871
 2104SOL    HW1 7211   1.703   4.399   1.929
 2104SOL    HW2 7212   1.613   4.422   1.794
 2105SOL     OW 7213   5.313   4.898   5.291
 2105SOL    HW1 7214   5.371   4.835   5.343
 2105SOL    HW2 7215   5.359   4.923   5.206
 2106SOL     OW 7216   5.292   3.614   0.811
 2106SOL    HW1 7217   5.280   3.679   0.886
 2106SOL    HW2 7218   5.277   3.661   0.724
 2107SOL     OW 7219   6.142   2.288   5.096
 2107SOL    HW1 7220   6.080   2.354   5.054
 2107SOL    HW2 7221   6.115   2.274   5.191
 2108SOL     OW 7222   6.131   5.925   4.452
 2108SOL    HW1 7223   6.225   5.906   4.478
 2108SOL    HW2 7224   6.072   5.850   4.481
 2109SOL     OW 7225   4.559   5.737   2.166
 2109SOL    HW1 7226   4.589   5.827   2.197
 2109SOL    HW2 7227   4.638   5.686   2.132
 2110SOL     OW 7228   2.539   1.461   0.270
 2110SOL    HW1 7229   2.636   1.440   0.278
 2110SOL    HW2 7230   2.526   1.533   0.201
 2111SOL     OW 7231   2.016   2.900   6.574
 2111SOL    HW1 7232   2.116   2.899   6.573
 2111SOL    HW2 7233   1.983   2.906   6.668
 2112SOL     OW 7234   5.214   2.792   0.664
 2112SOL    HW1 7235   5.299   2.757   0.702
 2112SOL    HW2 7236   5.174   2.859   0.727
 2113SOL     OW 7237   2.577   1.883   4.512
 2113SOL    HW1 7238   2.596   1.956   4.578
 2113SOL    HW2 7239   2.501   1.827   4.545
 2114SOL     OW 7240   2.247   1.835   6.374
 2114SOL    HW1 7241   2.216   1.923   6.337
 2114SOL    HW2 7242   2.232   1.835   6.473
 2115SOL     OW 7243   0.990   4.463   3.198
 2115SOL    HW1 7244   1.050   4.505   3.130
 2115SOL    HW2 7245   0.967   4.530   3.269
 2116SOL     OW 7246   0.441   4.699   3.021
 2116SOL    HW1 7247   0.530   4.664   3.049
 2116SOL    HW2 7248   0.446   4.735   2.928
 2117SOL     OW 7249   6.883   4.739   1.807
 2117SOL    HW1 7250   6.826   4.778   1.879
 2117SOL    HW2 7251   6.927   4.813   1.755
 2118SOL     OW 7252   6.359   2.709   2.891
 2118SOL    HW1 7253   6.296   2.641   2.853
 2118SOL    HW2 7254   6.370   2.785   2.827
 2119SOL     OW 7255   1.364   0.388   0.860
 2119SOL    HW1 7256   1.394   0.442   0.938
 2119SOL    HW2 7257   1.276   0.344   0.881
 2120SOL     OW 7258   0.346   4.609   3.964
 2120SOL    HW1 7259   0.440   4.577   3.955
 2120SOL    HW2 7260   0.329   4.638   4.058
 2121SOL     OW 7261   1.485   3.538   6.030
 2121SOL    HW1 7262   1.563   3.475   6.024
 2121SOL    HW2 7263   1.518   3.631   6.044
 2122SOL     OW 7264   5.460   4.784   5.928
 2122SOL    HW1 7265   5.440   4.850   5.856
 2122SOL    HW2 7266   5.386   4.785   5.996
 2123SOL     OW 7267   6.673   5.164   2.159
 2123SOL    HW1 7268   6.586   5.154   2.206
 2123SOL    HW2 7269   6.740   5.102   2.199
 2124SOL     OW 7270   2.968   2.414   1.036
 2124SOL    HW1 7271   2.905   2.386   1.109
 2124SOL    HW2 7272   2.936   2.499   0.995
 2125SOL     OW 7273   1.950   0.720   2.432
 2125SOL    HW1 7274   1.863   0.686   2.467
 2125SOL    HW2 7275   1.955   0.704   2.333
 2126SOL     OW 7276   4.116   2.516   6.638
 2126SOL    HW1 7277   4.171   2.490   6.718
 2126SOL    HW2 7278   4.170   2.501   6.555
 2127SOL     OW 7279   1.245   2.104   5.179
 2127SOL    HW1 7280   1.302   2.180   5.211
 2127SOL    HW2 7281   1.281   2.070   5.092
 2128SOL     OW 7282   6.689   3.488   3.983
 2128SOL    HW1 7283   6.651   3.433   4.057
 2128SOL    HW2 7284   6.639   3.574   3.975
 2129SOL     OW 7285   4.789   3.228   5.316
 2129SOL    HW1 7286   4.817   3.323   5.304
 2129SOL    HW2 7287   4.698   3.224   5.357
 2130SOL     OW 7288   3.643   0.640   2.919
 2130SOL    HW1 7289   3.615   0.615   3.012
 2130SOL    HW2 7290   3.562   0.659   2.864
 2131SOL     OW 7291   4.818   1.424   6.943
 2131SOL    HW1 7292   4.859   1.490   7.006
 2131SOL    HW2 7293   4.726   1.455   6.918
 2132SOL     OW 7294   4.046   0.763   1.004
 2132SOL    HW1 7295   4.072   0.741   0.909
 2132SOL    HW2 7296   3.964   0.820   1.003
 2133SOL     OW 7297   3.215   3.336   1.089
 2133SOL    HW1 7298   3.219   3.253   1.033
 2133SOL    HW2 7299   3.120   3.367   1.094
 2134SOL     OW 7300   0.975   0.531   5.561
 2134SOL    HW1 7301   0.970   0.615   5.615
 2134SOL    HW2 7302   1.070   0.515   5.533
 2135SOL     OW 7303   1.686   3.184   5.143
 2135SOL    HW1 7304   1.769   3.198   5.089
 2135SOL    HW2 7305   1.606   3.209   5.088
 2136SOL     OW 7306   0.359   4.286   4.624
 2136SOL    HW1 7307   0.344   4.192   4.653
 2136SOL    HW2 7308   0.370   4.345   4.705
 2137SOL     OW 7309   0.568   5.827   4.286
 2137SOL    HW1 7310   0.613   5.793   4.368
 2137SOL    HW2 7311   0.500   5.896   4.310
 2138SOL     OW 7312   6.885   0.690   2.368
 2138SOL    HW1 7313   6.899   0.782   2.405
 2138SOL    HW2 7314   6.928   0.623   2.428
 2139SOL     OW 7315   3.083   1.061   2.476
 2139SOL    HW1 7316   3.145   1.074   2.399
 2139SOL    HW2 7317   2.996   1.107   2.458
 2140SOL     OW 7318   3.674   6.582   4.182
 2140SOL    HW1 7319   3.733   6.544   4.253
 2140SOL    HW2 7320   3.729   6.603   4.101
 2141SOL     OW 7321   6.055   4.512   1.883
 2141SOL    HW1 7322   6.126   4.531   1.951
 2141SOL    HW2 7323   6.097   4.479   1.799
 2142SOL     OW 7324   1.449   2.062   3.009
 2142SOL    HW1 7325   1.448   2.154   3.050
 2142SOL    HW2 7326   1.466   1.994   3.081
 2143SOL     OW 7327   3.054   4.341   1.405
 2143SOL    HW1 7328   3.065   4.412   1.334
 2143SOL    HW2 7329   3.034   4.254   1.361
 2144SOL     OW 7330   1.359   5.605   3.937
 2144SOL    HW1 7331   1.319   5.523   3.978
 2144SOL    HW2 7332   1.458   5.603   3.951
 2145SOL     OW 7333   4.499   6.023   4.116
 2145SOL    HW1 7334   4.424   6.084   4.143
 2145SOL    HW2 7335   4.546   6.062   4.036
 2146SOL     OW 7336   2.506   3.887   1.174
 2146SOL    HW1 7337   2.425   3.935   1.142
 2146SOL    HW2 7338   2.480   3.820   1.243
 2147SOL     OW 7339   6.893   1.435   6.133
 2147SOL    HW1 7340   6.924   1.523   6.170
 2147SOL    HW2 7341   6.796   1.441   6.112
 2148SOL     OW 7342   5.064   2.411   4.750
 2148SOL    HW1 7343   5.055   2.312   4.740
 2148SOL    HW2 7344   5.157   2.438   4.726
 2149SOL     OW 7345   3.333   2.390   1.328
 2149SOL    HW1 7346   3.432   2.401   1.316
 2149SOL    HW2 7347   3.305   2.428   1.416
 2150SOL     OW 7348   2.931   1.845   2.544
 2150SOL    HW1 7349   2.885   1.914   2.487
 2150SOL    HW2 7350   2.952   1.885   2.633
 2151SOL     OW 7351   1.841   0.951   4.816
 2151SOL    HW1 7352   1.882   0.989   4.899
 2151SOL    HW2 7353   1.906   0.888   4.772
 2152SOL     OW 7354   4.089   6.207   1.709
 2152SOL    HW1 7355   4.095   6.271   1.786
 2152SOL    HW2 7356   4.176   6.204   1.662
 2153SOL     OW 7357   3.411   0.861   3.106
 2153SOL    HW1 7358   3.487   0.920   3.135
 2153SOL    HW2 7359   3.371   0.898   3.022
 2154SOL     OW 7360   4.771   0.248   5.137
 2154SOL    HW1 7361   4.785   0.343   5.165
 2154SOL    HW2 7362   4.848   0.192   5.170
 2155SOL     OW 7363   1.887   6.093   0.260
 2155SOL    HW1 7364   1.885   6.082   0.360
 2155SOL    HW2 7365   1.798   6.124   0.228
 2156SOL     OW 7366   2.721   0.839   4.391
 2156SOL    HW1 7367   2.681   0.751   4.367
 2156SOL    HW2 7368   2.763   0.880   4.310
 2157SOL     OW 7369   6.058   1.307   3.409
 2157SOL    HW1 7370   6.018   1.289   3.319
 2157SOL    HW2 7371   6.046   1.403   3.432
 2158SOL     OW 7372   3.971   6.489   0.626
 2158SOL    HW1 7373   3.884   6.505   0.674
 2158SOL    HW2 7374   4.006   6.399   0.651
 2159SOL     OW 7375   1.958   6.082   5.532
 2159SOL    HW1 7376   1.870   6.126   5.512
 2159SOL    HW2 7377   1.952   5.985   5.511
 2160SOL     OW 7378   4.648   4.032   0.683
 2160SOL    HW1 7379   4.633   4.128   0.707
 2160SOL    HW2 7380   4.561   3.984   0.683
 2161SOL     OW 7381   5.066   4.108   3.344
 2161SOL    HW1 7382   4.996   4.179   3.339
 2161SOL    HW2 7383   5.050   4.040   3.272
 2162SOL     OW 7384   2.843   0.678   0.919
 2162SOL    HW1 7385   2.767   0.712   0.863
 2162SOL    HW2 7386   2.807   0.621   0.992
 2163SOL     OW 7387   0.231   4.294   6.628
 2163SOL    HW1 7388   0.226   4.228   6.703
 2163SOL    HW2 7389   0.244   4.244   6.542
 2164SOL     OW 7390   1.733   2.929   0.105
 2164SOL    HW1 7391   1.733   2.870   0.025
 2164SOL    HW2 7392   1.728   2.874   0.188
 2165SOL     OW 7393   0.382   1.986   2.932
 2165SOL    HW1 7394   0.333   2.047   2.870
 2165SOL    HW2 7395   0.387   2.027   3.023
 2166SOL     OW 7396   1.454   2.311   5.242
 2166SOL    HW1 7397   1.483   2.373   5.169
 2166SOL    HW2 7398   1.431   2.365   5.323
 2167SOL     OW 7399   1.501   1.231   3.877
 2167SOL    HW1 7400   1.583   1.212   3.822
 2167SOL    HW2 7401   1.521   1.303   3.943
 2168SOL     OW 7402   0.964   1.809   3.585
 2168SOL    HW1 7403   0.906   1.889   3.569
 2168SOL    HW2 7404   0.942   1.769   3.674
 2169SOL     OW 7405   5.721   1.976   5.600
 2169SOL    HW1 7406   5.763   1.941   5.685
 2169SOL    HW2 7407   5.715   2.075   5.605
 2170SOL     OW 7408   6.340   5.612   5.327
 2170SOL    HW1 7409   6.361   5.546   5.255
 2170SOL    HW2 7410   6.244   5.604   5.353
 2171SOL     OW 7411   0.028   3.674   1.571
 2171SOL    HW1 7412   0.087   3.703   1.646
 2171SOL    HW2 7413   6.973   3.729   1.570
 2172SOL     OW 7414   2.535   2.449   0.549
 2172SOL    HW1 7415   2.602   2.463   0.476
 2172SOL    HW2 7416   2.539   2.354   0.581
 2173SOL     OW 7417   4.033   0.198   4.962
 2173SOL    HW1 7418   3.959   0.202   4.895
 2173SOL    HW2 7419   4.084   0.112   4.950
 2174SOL     OW 7420   5.544   5.316   5.235
 2174SOL    HW1 7421   5.576   5.222   5.228
 2174SOL    HW2 7422   5.616   5.374   5.273
 2175SOL     OW 7423   2.616   2.227   4.371
 2175SOL    HW1 7424   2.580   2.306   4.422
 2175SOL    HW2 7425   2.703   2.199   4.411
 2176SOL     OW 7426   0.892   2.869   6.802
 2176SOL    HW1 7427   0.907   2.844   6.706
 2176SOL    HW2 7428   0.914   2.791   6.860
 2177SOL     OW 7429   6.413   1.450   3.668
 2177SOL    HW1 7430   6.502   1.456   3.623
 2177SOL    HW2 7431   6.417   1.382   3.742
 2178SOL     OW 7432   1.174   3.550   0.090
 2178SOL    HW1 7433   1.236   3.601   0.150
 2178SOL    HW2 7434   1.133   3.613   0.024
 2179SOL     OW 7435   1.774   5.235   4.624
 2179SOL    HW1 7436   1.808   5.304   4.560
 2179SOL    HW2 7437   1.676   5.220   4.609
 2180SOL     OW 7438   2.188   2.770   1.961
 2180SOL    HW1 7439   2.265   2.743   1.903
 2180SOL    HW2 7440   2.134   2.840   1.914
 2181SOL     OW 7441   4.653   4.764   5.433
 2181SOL    HW1 7442   4.636   4.793   5.339
 2181SOL    HW2 7443   4.685   4.670   5.433
 2182SOL     OW 7444   0.477   3.380   4.705
 2182SOL    HW1 7445   0.526   3.387   4.792
 2182SOL    HW2 7446   0.543   3.365   4.631
 2183SOL     OW 7447   2.856   4.230   5.526
 2183SOL    HW1 7448   2.898   4.140   5.535
 2183SOL    HW2 7449   2.902   4.294   5.588
 2184SOL     OW 7450   4.937   1.735   6.705
 2184SOL    HW1 7451   4.903   1.783   6.623
 2184SOL    HW2 7452   4.874   1.751   6.781
 2185SOL     OW 7453   1.470   2.052   0.812
 2185SOL    HW1 7454   1.480   1.965   0.765
 2185SOL    HW2 7455   1.434   2.121   0.748
 2186SOL     OW 7456   0.130   5.310   2.408
 2186SOL    HW1 7457   0.112   5.387   2.347
 2186SOL    HW2 7458   0.217   5.326   2.455
 2187SOL     OW 7459   6.696   1.515   1.879
 2187SOL    HW1 7460   6.624   1.467   1.828
 2187SOL    HW2 7461   6.697   1.481   1.974
 2188SOL     OW 7462   5.761   6.346   4.145
 2188SOL    HW1 7463   5.711   6.370   4.228
 2188SOL    HW2 7464   5.707   6.282   4.091
 2189SOL     OW 7465   1.753   6.962   0.293
 2189SOL    HW1 7466   1.732   6.943   0.389
 2189SOL    HW2 7467   1.835   7.019   0.288
 2190SOL     OW 7468   0.619   2.523   1.716
 2190SOL    HW1 7469   0.615   2.596   1.785
 2190SOL    HW2 7470   0.533   2.521   1.665
 2191SOL     OW 7471   3.418   2.064   6.500
 2191SOL    HW1 7472   3.397   1.977   6.544
 2191SOL    HW2 7473   3.414   2.137   6.569
 2192SOL     OW 7474   4.005   0.778   3.097
 2192SOL    HW1 7475   3.980   0.773   3.001
 2192SOL    HW2 7476   3.967   0.699   3.146
 2193SOL     OW 7477   6.584   5.739   5.954
 2193SOL    HW1 7478   6.592   5.769   5.859
 2193SOL    HW2 7479   6.579   5.639   5.957
 2194SOL     OW 7480   1.975   4.975   6.453
 2194SOL    HW1 7481   1.920   4.972   6.537
 2194SOL    HW2 7482   1.954   4.894   6.397
 2195SOL     OW 7483   7.021   0.587   3.541
 2195SOL    HW1 7484   6.962   0.585   3.461
 2195SOL    HW2 7485   0.039   0.499   3.551
 2196SOL     OW 7486   3.139   0.205   5.043
 2196SOL    HW1 7487   3.052   0.169   5.076
 2196SOL    HW2 7488   3.157   0.293   5.086
 2197SOL     OW 7489   3.171   3.424   0.814
 2197SOL    HW1 7490   3.143   3.331   0.788
 2197SOL    HW2 7491   3.220   3.421   0.901
 2198SOL     OW 7492   6.628   1.046   0.290
 2198SOL    HW1 7493   6.560   1.038   0.217
 2198SOL    HW2 7494   6.655   1.142   0.301
 2199SOL     OW 7495   5.054   1.092   3.026
 2199SOL    HW1 7496   4.959   1.065   3.039
 2199SOL    HW2 7497   5.108   1.059   3.104
 2200SOL     OW 7498   3.155   0.266   4.349
 2200SOL    HW1 7499   3.220   0.221   4.409
 2200SOL    HW2 7500   3.108   0.198   4.293
 2201SOL     OW 7501   6.306   2.213   3.146
 2201SOL    HW1 7502   6.337   2.293   3.096
 2201SOL    HW2 7503   6.245   2.159   3.087
 2202SOL     OW 7504   2.803   4.865   2.592
 2202SOL    HW1 7505   2.743   4.939   2.618
 2202SOL    HW2 7506   2.860   4.838   2.670
 2203SOL     OW 7507   2.013   2.791   1.458
 2203SOL    HW1 7508   2.089   2.742   1.502
 2203SOL    HW2 7509   1.968   2.731   1.392
 2204SOL     OW 7510   4.211   1.341   6.888
 2204SOL    HW1 7511   4.244   1.386   6.971
 2204SOL    HW2 7512   4.254   1.251   6.880
 2205SOL     OW 7513   1.674   6.631   5.941
 2205SOL    HW1 7514   1.684   6.612   6.039
 2205SOL    HW2 7515   1.674   6.730   5.926
 2206SOL     OW 7516   2.399   4.309   6.090
 2206SOL    HW1 7517   2.302   4.284   6.093
 2206SOL    HW2 7518   2.412   4.387   6.029
 2207SOL     OW 7519   2.953   3.853   6.901
 2207SOL    HW1 7520   2.910   3.823   6.815
 2207SOL    HW2 7521   2.919   3.797   6.976
 2208SOL     OW 7522   1.507   6.185   2.539
 2208SOL    HW1 7523   1.589   6.209   2.488
 2208SOL    HW2 7524   1.529   6.178   2.636
 2209SOL     OW 7525   1.428   5.905   5.959
 2209SOL    HW1 7526   1.358   5.977   5.953
 2209SOL    HW2 7527   1.387   5.821   5.993
 2210SOL     OW 7528   6.937   5.072   4.157
 2210SOL    HW1 7529   7.007   5.119   4.211
 2210SOL    HW2 7530   6.848   5.115   4.173
 2211SOL     OW 7531   5.622   0.253   0.039
 2211SOL    HW1 7532   5.702   0.193   0.043
 2211SOL    HW2 7533   5.653   0.348   0.034
 2212SOL     OW 7534   2.165   6.347   7.024
 2212SOL    HW1 7535   2.089   6.385   6.972
 2212SOL    HW2 7536   2.241   6.412   7.026
 2213SOL     OW 7537   3.876   2.815   5.245
 2213SOL    HW1 7538   3.928   2.730   5.245
 2213SOL    HW2 7539   3.829   2.826   5.157
 2214SOL     OW 7540   4.066   2.646   5.793
 2214SOL    HW1 7541   4.025   2.733   5.765
 2214SOL    HW2 7542   4.148   2.664   5.847
 2215SOL     OW 7543   6.483   1.744   6.815
 2215SOL    HW1 7544   6.546   1.815   6.783
 2215SOL    HW2 7545   6.501   1.725   6.912
 2216SOL     OW 7546   1.596   0.133   6.046
 2216SOL    HW1 7547   1.567   0.178   6.131
 2216SOL    HW2 7548   1.539   0.165   5.970
 2217SOL     OW 7549   4.131   6.846   1.560
 2217SOL    HW1 7550   4.097   6.761   1.602
 2217SOL    HW2 7551   4.213   6.825   1.507
 2218SOL     OW 7552   0.234   6.646   0.979
 2218SOL    HW1 7553   0.233   6.568   0.916
 2218SOL    HW2 7554   0.207   6.616   1.070
 2219SOL     OW 7555   6.805   2.563   2.136
 2219SOL    HW1 7556   6.885   2.622   2.139
 2219SOL    HW2 7557   6.828   2.473   2.173
 2220SOL     OW 7558   0.802   0.581   3.815
 2220SOL    HW1 7559   0.726   0.530   3.856
 2220SOL    HW2 7560   0.825   0.659   3.874
 2221SOL     OW 7561   6.236   0.997   5.459
 2221SOL    HW1 7562   6.334   1.007   5.441
 2221SOL    HW2 7563   6.195   1.087   5.472
 2222SOL     OW 7564   4.439   0.239   0.668
 2222SOL    HW1 7565   4.502   0.181   0.615
 2222SOL    HW2 7566   4.492   0.305   0.722
 2223SOL     OW 7567   6.093   0.486   3.988
 2223SOL    HW1 7568   6.155   0.559   4.017
 2223SOL    HW2 7569   5.999   0.516   4.002
 2224SOL     OW 7570   1.756   4.441   1.293
 2224SOL    HW1 7571   1.824   4.403   1.356
 2224SOL    HW2 7572   1.705   4.514   1.339
 2225SOL     OW 7573   6.258   6.134   2.564
 2225SOL    HW1 7574   6.310   6.143   2.649
 2225SOL    HW2 7575   6.217   6.043   2.559
 2226SOL     OW 7576   3.960   5.476   0.765
 2226SOL    HW1 7577   3.871   5.488   0.809
 2226SOL    HW2 7578   3.961   5.523   0.677
 2227SOL     OW 7579   5.303   3.862   0.125
 2227SOL    HW1 7580   5.296   3.786   0.188
 2227SOL    HW2 7581   5.378   3.922   0.152
 2228SOL     OW 7582   2.814   5.219   1.386
 2228SOL    HW1 7583   2.758   5.168   1.321
 2228SOL    HW2 7584   2.816   5.172   1.474
 2229SOL     OW 7585   3.998   1.781   4.644
 2229SOL    HW1 7586   3.959   1.814   4.559
 2229SOL    HW2 7587   3.926   1.769   4.712
 2230SOL     OW 7588   6.065   5.609   5.383
 2230SOL    HW1 7589   5.982   5.644   5.427
 2230SOL    HW2 7590   6.041   5.532   5.325
 2231SOL     OW 7591   0.335   0.676   1.831
 2231SOL    HW1 7592   0.404   0.713   1.769
 2231SOL    HW2 7593   0.328   0.735   1.912
 2232SOL     OW 7594   0.773   3.157   4.418
 2232SOL    HW1 7595   0.723   3.163   4.331
 2232SOL    HW2 7596   0.819   3.068   4.424
 2233SOL     OW 7597   2.309   4.414   1.284
 2233SOL    HW1 7598   2.304   4.325   1.328
 2233SOL    HW2 7599   2.270   4.409   1.192
 2234SOL     OW 7600   4.138   1.973   2.024
 2234SOL    HW1 7601   4.080   2.044   2.063
 2234SOL    HW2 7602   4.081   1.899   1.987
 2235SOL     OW 7603   1.951   0.750   1.246
 2235SOL    HW1 7604   1.920   0.779   1.156
 2235SOL    HW2 7605   1.904   0.666   1.272
 2236SOL     OW 7606   0.749   4.068   6.772
 2236SOL    HW1 7607   0.706   4.119   6.697
 2236SOL    HW2 7608   0.767   3.974   6.742
 2237SOL     OW 7609   5.842   4.695   3.648
 2237SOL    HW1 7610   5.778   4.697   3.572
 2237SOL    HW2 7611   5.867   4.789   3.672
 2238SOL     OW 7612   5.386   4.855   1.892
 2238SOL    HW1 7613   5.342   4.937   1.927
 2238SOL    HW2 7614   5.429   4.875   1.804
 2239SOL     OW 7615   3.409   5.303   3.275
 2239SOL    HW1 7616   3.331   5.325   3.216
 2239SOL    HW2 7617   3.415   5.204   3.287
 2240SOL     OW 7618   5.189   5.869   4.146
 2240SOL    HW1 7619   5.098   5.828   4.147
 2240SOL    HW2 7620   5.218   5.883   4.051
 2241SOL     OW 7621   0.496   0.035   2.459
 2241SOL    HW1 7622   0.397   0.023   2.468
 2241SOL    HW2 7623   0.518   0.132   2.466
 2242SOL     OW 7624   4.980   2.220   2.911
 2242SOL    HW1 7625   5.077   2.214   2.891
 2242SOL    HW2 7626   4.937   2.131   2.892
 2243SOL     OW 7627   2.578   6.547   5.335
 2243SOL    HW1 7628   2.557   6.641   5.363
 2243SOL    HW2 7629   2.569   6.486   5.414
 2244SOL     OW 7630   2.327   0.092   1.962
 2244SOL    HW1 7631   2.327   0.069   2.059
 2244SOL    HW2 7632   2.261   0.165   1.944
 2245SOL     OW 7633   0.195   1.780   2.479
 2245SOL    HW1 7634   0.168   1.809   2.571
 2245SOL    HW2 7635   0.291   1.805   2.463
 2246SOL     OW 7636   1.136   1.188   6.114
 2246SOL    HW1 7637   1.142   1.276   6.066
 2246SOL    HW2 7638   1.042   1.154   6.109
 2247SOL     OW 7639   2.737   3.097   5.881
 2247SOL    HW1 7640   2.759   3.120   5.786
 2247SOL    HW2 7641   2.762   3.002   5.899
 2248SOL     OW 7642   3.592   3.674   6.382
 2248SOL    HW1 7643   3.530   3.599   6.404
 2248SOL    HW2 7644   3.545   3.761   6.395
 2249SOL     OW 7645   5.921   6.460   2.548
 2249SOL    HW1 7646   5.899   6.486   2.454
 2249SOL    HW2 7647   5.894   6.365   2.563
 2250SOL     OW 7648   4.312   3.806   0.257
 2250SOL    HW1 7649   4.379   3.810   0.184
 2250SOL    HW2 7650   4.305   3.712   0.291
 2251SOL     OW 7651   5.033   0.747   0.417
 2251SOL    HW1 7652   5.026   0.842   0.445
 2251SOL    HW2 7653   4.997   0.688   0.490
 2252SOL     OW 7654   5.225   2.266   2.769
 2252SOL    HW1 7655   5.300   2.325   2.739
 2252SOL    HW2 7656   5.200   2.203   2.695
 2253SOL     OW 7657   1.120   3.918   6.294
 2253SOL    HW1 7658   1.216   3.937   6.275
 2253SOL    HW2 7659   1.072   3.900   6.209
 2254SOL     OW 7660   2.718   3.312   5.644
 2254SOL    HW1 7661   2.729   3.410   5.628
 2254SOL    HW2 7662   2.632   3.281   5.603
 2255SOL     OW 7663   4.634   2.997   6.784
 2255SOL    HW1 7664   4.620   2.898   6.781
 2255SOL    HW2 7665   4.599   3.033   6.870
 2256SOL     OW 7666   4.817   6.182   1.620
 2256SOL    HW1 7667   4.789   6.264   1.669
 2256SOL    HW2 7668   4.761   6.105   1.649
 2257SOL     OW 7669   0.339   2.116   4.249
 2257SOL    HW1 7670   0.280   2.197   4.249
 2257SOL    HW2 7671   0.434   2.144   4.259
 2258SOL     OW 7672   1.335   5.648   6.043
 2258SOL    HW1 7673   1.294   5.613   6.127
 2258SOL    HW2 7674   1.383   5.573   5.995
 2259SOL     OW 7675   4.581   4.028   6.595
 2259SOL    HW1 7676   4.526   4.043   6.513
 2259SOL    HW2 7677   4.543   4.083   6.670
 2260SOL     OW 7678   5.639   4.464   3.281
 2260SOL    HW1 7679   5.687   4.378   3.299
 2260SOL    HW2 7680   5.677   4.537   3.339
 2261SOL     OW 7681   6.727   6.505   0.631
 2261SOL    HW1 7682   6.647   6.449   0.656
 2261SOL    HW2 7683   6.774   6.462   0.554
 2262SOL     OW 7684   5.208   2.034   1.713
 2262SOL    HW1 7685   5.270   2.099   1.756
 2262SOL    HW2 7686   5.115   2.048   1.748
 2263SOL     OW 7687   2.854   6.065   6.616
 2263SOL    HW1 7688   2.789   6.082   6.541
 2263SOL    HW2 7689   2.804   6.027   6.694
 2264SOL     OW 7690   3.514   3.011   0.850
 2264SOL    HW1 7691   3.544   2.955   0.928
 2264SOL    HW2 7692   3.576   2.998   0.774
 2265SOL     OW 7693   0.359   0.634   3.549
 2265SOL    HW1 7694   0.338   0.697   3.474
 2265SOL    HW2 7695   0.287   0.564   3.555
 2266SOL     OW 7696   6.283   2.104   1.363
 2266SOL    HW1 7697   6.213   2.132   1.298
 2266SOL    HW2 7698   6.372   2.101   1.317
 2267SOL     OW 7699   5.038   2.616   4.950
 2267SOL    HW1 7700   4.942   2.619   4.978
 2267SOL    HW2 7701   5.048   2.554   4.872
 2268SOL     OW 7702   6.538   3.970   5.927
 2268SOL    HW1 7703   6.481   4.014   5.857
 2268SOL    HW2 7704   6.615   3.923   5.883
 2269SOL     OW 7705   5.764   5.984   5.132
 2269SOL    HW1 7706   5.700   5.923   5.178
 2269SOL    HW2 7707   5.761   6.074   5.175
 2270SOL     OW 7708   3.616   2.648   6.215
 2270SOL    HW1 7709   3.657   2.557   6.207
 2270SOL    HW2 7710   3.584   2.661   6.309
 2271SOL     OW 7711   6.152   4.244   0.515
 2271SOL    HW1 7712   6.146   4.289   0.603
 2271SOL    HW2 7713   6.084   4.171   0.509
 2272SOL     OW 7714   5.955   1.596   4.895
 2272SOL    HW1 7715   5.987   1.506   4.865
 2272SOL    HW2 7716   5.915   1.588   4.986
 2273SOL     OW 7717   1.615   0.721   2.257
 2273SOL    HW1 7718   1.651   0.791   2.320
 2273SOL    HW2 7719   1.587   0.765   2.172
 2274SOL     OW 7720   1.830   2.175   5.733
 2274SOL    HW1 7721   1.748   2.152   5.680
 2274SOL    HW2 7722   1.823   2.269   5.765
 2275SOL     OW 7723   5.918   0.862   4.652
 2275SOL    HW1 7724   5.845   0.928   4.671
 2275SOL    HW2 7725   5.882   0.769   4.657
 2276SOL     OW 7726   3.095   4.675   1.196
 2276SOL    HW1 7727   3.018   4.657   1.134
 2276SOL    HW2 7728   3.172   4.713   1.144
 2277SOL     OW 7729   3.640   3.591   5.687
 2277SOL    HW1 7730   3.712   3.548   5.741
 2277SOL    HW2 7731   3.551   3.567   5.725
 2278SOL     OW 7732   6.584   5.358   3.800
 2278SOL    HW1 7733   6.656   5.365   3.869
 2278SOL    HW2 7734   6.625   5.361   3.709
 2279SOL     OW 7735   4.536   6.222   4.666
 2279SOL    HW1 7736   4.501   6.202   4.758
 2279SOL    HW2 7737   4.623   6.270   4.673
 2280SOL     OW 7738   0.145   5.939   4.878
 2280SOL    HW1 7739   0.177   5.901   4.791
 2280SOL    HW2 7740   0.053   5.977   4.865
 2281SOL     OW 7741   3.845   1.520   1.378
 2281SOL    HW1 7742   3.791   1.505   1.461
 2281SOL    HW2 7743   3.930   1.467   1.383
 2282SOL     OW 7744   4.804   6.802   5.163
 2282SOL    HW1 7745   4.854   6.879   5.122
 2282SOL    HW2 7746   4.723   6.783   5.108
 2283SOL     OW 7747   6.482   4.816   1.799
 2283SOL    HW1 7748   6.429   4.900   1.789
 2283SOL    HW2 7749   6.508   4.804   1.895
 2284SOL     OW 7750   2.472   1.948   0.430
 2284SOL    HW1 7751   2.421   1.922   0.348
 2284SOL    HW2 7752   2.441   1.893   0.508
 2285SOL     OW 7753   1.824   1.982   0.825
 2285SOL    HW1 7754   1.748   1.966   0.888
 2285SOL    HW2 7755   1.825   2.078   0.799
 2286SOL     OW 7756   0.373   0.010   4.796
 2286SOL    HW1 7757   0.350   0.052   4.884
 2286SOL    HW2 7758   0.460   6.989   4.806
 2287SOL     OW 7759   1.877   1.727   2.369
 2287SOL    HW1 7760   1.950   1.741   2.301
 2287SOL    HW2 7761   1.917   1.693   2.454
 2288SOL     OW 7762   6.317   5.267   4.338
 2288SOL    HW1 7763   6.255   5.343   4.359
 2288SOL    HW2 7764   6.376   5.250   4.417
 2289SOL     OW 7765   6.699   4.484   2.977
 2289SOL    HW1 7766   6.674   4.574   3.013
 2289SOL    HW2 7767   6.679   4.481   2.879
 2290SOL     OW 7768   1.427   3.419   2.117
 2290SOL    HW1 7769   1.390   3.504   2.157
 2290SOL    HW2 7770   1.508   3.440   2.063
 2291SOL     OW 7771   2.255   2.332   6.775
 2291SOL    HW1 7772   2.212   2.415   6.739
 2291SOL    HW2 7773   2.211   2.252   6.734
 2292SOL     OW 7774   5.914   2.559   3.701
 2292SOL    HW1 7775   5.916   2.640   3.760
 2292SOL    HW2 7776   5.973   2.575   3.622
 2293SOL     OW 7777   6.279   6.697   1.222
 2293SOL    HW1 7778   6.242   6.674   1.131
 2293SOL    HW2 7779   6.213   6.755   1.270
 2294SOL     OW 7780   3.653   0.917   6.415
 2294SOL    HW1 7781   3.604   0.866   6.345
 2294SOL    HW2 7782   3.595   0.992   6.447
 2295SOL     OW 7783   0.629   1.716   2.652
 2295SOL    HW1 7784   0.612   1.731   2.750
 2295SOL    HW2 7785   0.726   1.701   2.637
 2296SOL     OW 7786   3.401   5.873   2.653
 2296SOL    HW1 7787   3.312   5.876   2.608
 2296SOL    HW2 7788   3.463   5.937   2.609
 2297SOL     OW 7789   5.009   4.434   5.523
 2297SOL    HW1 7790   5.094   4.467   5.480
 2297SOL    HW2 7791   5.000   4.336   5.509
 2298SOL     OW 7792   4.145   3.734   2.208
 2298SOL    HW1 7793   4.235   3.764   2.177
 2298SOL    HW2 7794   4.155   3.650   2.261
 2299SOL     OW 7795   4.640   4.506   5.306
 2299SOL    HW1 7796   4.723   4.527   5.255
 2299SOL    HW2 7797   4.624   4.408   5.306
 2300SOL     OW 7798   2.013   6.001   3.024
 2300SOL    HW1 7799   2.058   6.088   3.044
 2300SOL    HW2 7800   2.055   5.958   2.945
 2301SOL     OW 7801   3.323   2.928   3.443
 2301SOL    HW1 7802   3.271   2.920   3.528
 2301SOL    HW2 7803   3.318   3.022   3.410
 2302SOL     OW 7804   3.946   0.558   1.275
 2302SOL    HW1 7805   3.960   0.510   1.361
 2302SOL    HW2 7806   4.018   0.533   1.210
 2303SOL     OW 7807   2.520   3.773   0.089
 2303SOL    HW1 7808   2.424   3.787   0.115
 2303SOL    HW2 7809   2.535   3.809   7.026
 2304SOL     OW 7810   5.360   6.927   4.157
 2304SOL    HW1 7811   5.361   6.829   4.135
 2304SOL    HW2 7812   5.454   6.962   4.155
 2305SOL     OW 7813   1.828   0.508   3.017
 2305SOL    HW1 7814   1.745   0.554   2.986
 2305SOL    HW2 7815   1.876   0.565   3.083
 2306SOL     OW 7816   2.695   5.599   2.129
 2306SOL    HW1 7817   2.781   5.642   2.156
 2306SOL    HW2 7818   2.682   5.515   2.182
 2307SOL     OW 7819   6.939   2.836   4.566
 2307SOL    HW1 7820   6.988   2.920   4.541
 2307SOL    HW2 7821   6.842   2.858   4.578
 2308SOL     OW 7822   2.103   4.875   1.981
 2308SOL    HW1 7823   2.102   4.969   2.013
 2308SOL    HW2 7824   2.198   4.846   1.964
 2309SOL     OW 7825   1.634   0.389   5.447
 2309SOL    HW1 7826   1.637   0.445   5.364
 2309SOL    HW2 7827   1.564   0.319   5.436
 2310SOL     OW 7828   5.531   5.460   0.901
 2310SOL    HW1 7829   5.617   5.481   0.946
 2310SOL    HW2 7830   5.478   5.545   0.889
 2311SOL     OW 7831   2.242   6.932   1.038
 2311SOL    HW1 7832   2.241   6.833   1.031
 2311SOL    HW2 7833   2.337   6.964   1.044
 2312SOL     OW 7834   4.827   6.019   3.356
 2312SOL    HW1 7835   4.826   5.967   3.441
 2312SOL    HW2 7836   4.790   6.111   3.372
 2313SOL     OW 7837   5.336   5.790   1.957
 2313SOL    HW1 7838   5.405   5.831   1.898
 2313SOL    HW2 7839   5.259   5.759   1.902
 2314SOL     OW 7840   5.291   5.915   3.902
 2314SOL    HW1 7841   5.390   5.898   3.902
 2314SOL    HW2 7842   5.247   5.858   3.833
 2315SOL     OW 7843   5.388   2.874   6.537
 2315SOL    HW1 7844   5.380   2.805   6.465
 2315SOL    HW2 7845   5.354   2.836   6.623
 2316SOL     OW 7846   4.216   1.696   3.957
 2316SOL    HW1 7847   4.181   1.669   3.867
 2316SOL    HW2 7848   4.143   1.739   4.009
 2317SOL     OW 7849   0.429   6.146   3.392
 2317SOL    HW1 7850   0.460   6.224   3.338
 2317SOL    HW2 7851   0.387   6.078   3.332
 2318SOL     OW 7852   0.653   2.850   3.695
 2318SOL    HW1 7853   0.662   2.867   3.597
 2318SOL    HW2 7854   0.659   2.936   3.745
 2319SOL     OW 7855   1.902   4.904   3.096
 2319SOL    HW1 7856   1.823   4.962   3.076
 2319SOL    HW2 7857   1.921   4.906   3.194
 2320SOL     OW 7858   0.948   2.571   3.881
 2320SOL    HW1 7859   0.901   2.647   3.926
 2320SOL    HW2 7860   1.045   2.594   3.871
 2321SOL     OW 7861   3.009   0.166   6.159
 2321SOL    HW1 7862   3.053   0.077   6.143
 2321SOL    HW2 7863   2.927   0.173   6.103
 2322SOL     OW 7864   2.604   1.893   5.041
 2322SOL    HW1 7865   2.658   1.934   4.968
 2322SOL    HW2 7866   2.611   1.793   5.036
 2323SOL     OW 7867   2.769   4.998   2.125
 2323SOL    HW1 7868   2.850   5.056   2.135
 2323SOL    HW2 7869   2.711   5.007   2.206
 2324SOL     OW 7870   6.577   6.697   2.019
 2324SOL    HW1 7871   6.605   6.761   2.091
 2324SOL    HW2 7872   6.488   6.723   1.984
 2325SOL     OW 7873   1.077   4.981   1.912
 2325SOL    HW1 7874   1.156   5.020   1.865
 2325SOL    HW2 7875   1.082   4.881   1.909
 2326SOL     OW 7876   3.339   4.721   5.329
 2326SOL    HW1 7877   3.287   4.640   5.355
 2326SOL    HW2 7878   3.277   4.800   5.328
 2327SOL     OW 7879   6.164   3.704   5.010
 2327SOL    HW1 7880   6.174   3.792   4.965
 2327SOL    HW2 7881   6.067   3.685   5.025
 2328SOL     OW 7882   3.262   2.117   3.119
 2328SOL    HW1 7883   3.210   2.169   3.051
 2328SOL    HW2 7884   3.214   2.031   3.138
 2329SOL     OW 7885   1.527   4.234   5.007
 2329SOL    HW1 7886   1.434   4.233   5.045
 2329SOL    HW2 7887   1.539   4.316   4.951
 2330SOL     OW 7888   0.997   3.692   2.212
 2330SOL    HW1 7889   0.938   3.771   2.226
 2330SOL    HW2 7890   0.958   3.633   2.142
 2331SOL     OW 7891   6.237   3.850   0.327
 2331SOL    HW1 7892   6.278   3.766   0.290
 2331SOL    HW2 7893   6.279   3.870   0.416
 2332SOL     OW 7894   4.694   1.979   5.980
 2332SOL    HW1 7895   4.682   1.980   5.881
 2332SOL    HW2 7896   4.783   1.940   6.002
 2333SOL     OW 7897   7.018   5.814   3.221
 2333SOL    HW1 7898   6.969   5.777   3.300
 2333SOL    HW2 7899   6.972   5.898   3.190
 2334SOL     OW 7900   2.560   0.228   7.026
 2334SOL    HW1 7901   2.610   0.311   0.025
 2334SOL    HW2 7902   2.503   0.249   6.947
 2335SOL     OW 7903   5.704   1.010   3.404
 2335SOL    HW1 7904   5.635   1.063   3.355
 2335SOL    HW2 7905   5.684   0.913   3.396
 2336SOL     OW 7906   4.026   2.012   5.364
 2336SOL    HW1 7907   4.117   1.970   5.363
 2336SOL    HW2 7908   3.957   1.943   5.385
 2337SOL     OW 7909   4.674   1.052   3.651
 2337SOL    HW1 7910   4.576   1.065   3.667
 2337SOL    HW2 7911   4.712   1.133   3.607
 2338SOL     OW 7912   0.932   1.093   7.019
 2338SOL    HW1 7913   0.836   1.102   6.993
 2338SOL    HW2 7914   0.989   1.145   6.955
 2339SOL     OW 7915   3.885   3.723   5.322
 2339SOL    HW1 7916   3.965   3.736   5.381
 2339SOL    HW2 7917   3.878   3.799   5.257
 2340SOL     OW 7918   5.341   5.392   6.011
 2340SOL    HW1 7919   5.385   5.316   5.963
 2340SOL    HW2 7920   5.336   5.371   6.108
 2341SOL     OW 7921   5.220   4.317   1.428
 2341SOL    HW1 7922   5.120   4.326   1.424
 2341SOL    HW2 7923   5.252   4.272   1.345
 2342SOL     OW 7924   0.807   5.635   5.241
 2342SOL    HW1 7925   0.841   5.726   5.217
 2342SOL    HW2 7926   0.725   5.645   5.298
 2343SOL     OW 7927   2.017   6.526   2.170
 2343SOL    HW1 7928   2.095   6.551   2.228
 2343SOL    HW2 7929   1.932   6.551   2.216
 2344SOL     OW 7930   1.618   1.257   1.119
 2344SOL    HW1 7931   1.689   1.297   1.176
 2344SOL    HW2 7932   1.654   1.176   1.072
 2345SOL     OW 7933   2.109   5.435   5.533
 2345SOL    HW1 7934   2.066   5.378   5.603
 2345SOL    HW2 7935   2.169   5.502   5.577
 2346SOL     OW 7936   5.151   3.275   5.072
 2346SOL    HW1 7937   5.152   3.374   5.064
 2346SOL    HW2 7938   5.061   3.240   5.047
 2347SOL     OW 7939   2.189   4.027   1.602
 2347SOL    HW1 7940   2.160   4.109   1.652
 2347SOL    HW2 7941   2.250   3.973   1.660
 2348SOL     OW 7942   3.598   6.155   3.723
 2348SOL    HW1 7943   3.625   6.135   3.817
 2348SOL    HW2 7944   3.555   6.075   3.682
 2349SOL     OW 7945   0.860   5.218   6.270
 2349SOL    HW1 7946   0.870   5.212   6.369
 2349SOL    HW2 7947   0.949   5.239   6.229
 2350SOL     OW 7948   5.177   6.572   6.466
 2350SOL    HW1 7949   5.172   6.641   6.393
 2350SOL    HW2 7950   5.160   6.617   6.555
 2351SOL     OW 7951   3.712   4.909   2.674
 2351SOL    HW1 7952   3.715   5.008   2.658
 2351SOL    HW2 7953   3.628   4.886   2.724
 2352SOL     OW 7954   1.123   3.624   2.459
 2352SOL    HW1 7955   1.067   3.566   2.518
 2352SOL    HW2 7956   1.086   3.621   2.366
 2353SOL     OW 7957   2.944   4.811   4.500
 2353SOL    HW1 7958   3.036   4.846   4.517
 2353SOL    HW2 7959   2.903   4.781   4.586
 2354SOL     OW 7960   3.335   2.586   6.834
 2354SOL    HW1 7961   3.408   2.563   6.770
 2354SOL    HW2 7962   3.375   2.604   6.924
 2355SOL     OW 7963   1.259   4.938   6.793
 2355SOL    HW1 7964   1.337   4.916   6.735
 2355SOL    HW2 7965   1.220   5.025   6.764
 2356SOL     OW 7966   2.656   4.196   0.406
 2356SOL    HW1 7967   2.597   4.127   0.363
 2356SOL    HW2 7968   2.683   4.264   0.338
 2357SOL     OW 7969   3.731   5.263   3.994
 2357SOL    HW1 7970   3.723   5.166   3.970
 2357SOL    HW2 7971   3.816   5.277   4.045
 2358SOL     OW 7972   2.674   5.283   4.590
 2358SOL    HW1 7973   2.706   5.219   4.521
 2358SOL    HW2 7974   2.688   5.245   4.681
 2359SOL     OW 7975   0.722   1.673   5.971
 2359SOL    HW1 7976   0.770   1.706   6.052
 2359SOL    HW2 7977   0.775   1.601   5.928
 2360SOL     OW 7978   4.976   5.998   5.459
 2360SOL    HW1 7979   4.877   5.998   5.455
 2360SOL    HW2 7980   5.007   5.959   5.546
 2361SOL     OW 7981   2.523   0.200   4.592
 2361SOL    HW1 7982   2.523   0.299   4.608
 2361SOL    HW2 7983   2.440   0.160   4.631
 2362SOL     OW 7984   3.684   6.879   5.350
 2362SOL    HW1 7985   3.758   6.920   5.295
 2362SOL    HW2 7986   3.605   6.940   5.350
 2363SOL     OW 7987   4.780   2.617   5.004
 2363SOL    HW1 7988   4.737   2.530   4.979
 2363SOL    HW2 7989   4.758   2.639   5.099
 2364SOL     OW 7990   0.249   2.291   3.117
 2364SOL    HW1 7991   0.154   2.263   3.102
 2364SOL    HW2 7992   0.289   2.322   3.031
 2365SOL     OW 7993   5.918   2.842   6.175
 2365SOL    HW1 7994   6.017   2.860   6.178
 2365SOL    HW2 7995   5.901   2.761   6.121
 2366SOL     OW 7996   1.406   3.889   5.581
 2366SOL    HW1 7997   1.338   3.865   5.511
 2366SOL    HW2 7998   1.443   3.806   5.622
 2367SOL     OW 7999   2.091   3.733   6.372
 2367SOL    HW1 8000   2.176   3.740   6.424
 2367SOL    HW2 8001   2.032   3.810   6.395
 2368SOL     OW 8002   5.334   1.319   4.212
 2368SOL    HW1 8003   5.259   1.312   4.146
 2368SOL    HW2 8004   5.372   1.228   4.229
 2369SOL     OW 8005   2.174   3.240   4.496
 2369SOL    HW1 8006   2.133   3.159   4.455
 2369SOL    HW2 8007   2.229   3.213   4.575
 2370SOL     OW 8008   4.363   4.352   6.746
 2370SOL    HW1 8009   4.286   4.413   6.726
 2370SOL    HW2 8010   4.448   4.397   6.722
 2371SOL     OW 8011   1.370   6.211   1.961
 2371SOL    HW1 8012   1.274   6.228   1.944
 2371SOL    HW2 8013   1.390   6.226   2.058
 2372SOL     OW 8014   1.046   1.915   0.525
 2372SOL    HW1 8015   0.952   1.950   0.528
 2372SOL    HW2 8016   1.063   1.861   0.607
 2373SOL     OW 8017   5.729   0.530   6.703
 2373SOL    HW1 8018   5.822   0.542   6.737
 2373SOL    HW2 8019   5.730   0.470   6.623
 2374SOL     OW 8020   6.094   6.377   3.600
 2374SOL    HW1 8021   6.112   6.457   3.544
 2374SOL    HW2 8022   6.145   6.383   3.686
 2375SOL     OW 8023   1.421   6.771   3.676
 2375SOL    HW1 8024   1.484   6.848   3.684
 2375SOL    HW2 8025   1.330   6.804   3.654
 2376SOL     OW 8026   6.523   2.913   4.022
 2376SOL    HW1 8027   6.434   2.946   3.990
 2376SOL    HW2 8028   6.577   2.990   4.056
 2377SOL     OW 8029   3.292   3.802   3.788
 2377SOL    HW1 8030   3.218   3.854   3.832
 2377SOL    HW2 8031   3.336   3.743   3.856
 2378SOL     OW 8032   5.026   2.288   6.671
 2378SOL    HW1 8033   4.943   2.265   6.723
 2378SOL    HW2 8034   5.012   2.266   6.575
 2379SOL     OW 8035   6.982   2.725   6.915
 2379SOL    HW1 8036   6.986   2.644   6.857
 2379SOL    HW2 8037   6.908   2.716   6.981
 2380SOL     OW 8038   6.543   0.373   6.023
 2380SOL    HW1 8039   6.633   0.361   5.981
 2380SOL    HW2 8040   6.503   0.283   6.041
 2381SOL     OW 8041   2.043   4.260   4.106
 2381SOL    HW1 8042   2.088   4.263   4.195
 2381SOL    HW2 8043   2.101   4.211   4.041
 2382SOL     OW 8044   2.656   5.352   2.559
 2382SOL    HW1 8045   2.559   5.358   2.536
 2382SOL    HW2 8046   2.668   5.292   2.638
 2383SOL     OW 8047   5.682   6.355   6.864
 2383SOL    HW1 8048   5.637   6.358   6.953
 2383SOL    HW2 8049   5.634   6.291   6.804
 2384SOL     OW 8050   1.314   1.233   2.057
 2384SOL    HW1 8051   1.397   1.184   2.084
 2384SOL    HW2 8052   1.299   1.219   1.959
 2385SOL     OW 8053   6.288   0.256   1.128
 2385SOL    HW1 8054   6.294   0.352   1.101
 2385SOL    HW2 8055   6.219   0.210   1.072
 2386SOL     OW 8056   3.986   4.860   3.975
 2386SOL    HW1 8057   4.019   4.822   4.061
 2386SOL    HW2 8058   3.889   4.884   3.984
 2387SOL     OW 8059   6.976   2.469   4.217
 2387SOL    HW1 8060   6.924   2.425   4.144
 2387SOL    HW2 8061   6.913   2.509   4.284
 2388SOL     OW 8062   1.089   1.963   4.824
 2388SOL    HW1 8063   1.131   2.042   4.869
 2388SOL    HW2 8064   1.160   1.901   4.792
 2389SOL     OW 8065   4.773   4.055   3.919
 2389SOL    HW1 8066   4.797   3.987   3.989
 2389SOL    HW2 8067   4.720   4.129   3.961
 2390SOL     OW 8068   3.448   3.945   4.823
 2390SOL    HW1 8069   3.399   3.867   4.785
 2390SOL    HW2 8070   3.531   3.913   4.870
 2391SOL     OW 8071   3.470   4.358   5.535
 2391SOL    HW1 8072   3.532   4.391   5.464
 2391SOL    HW2 8073   3.376   4.357   5.499
 2392SOL     OW 8074   3.324   5.592   5.536
 2392SOL    HW1 8075   3.273   5.536   5.602
 2392SOL    HW2 8076   3.292   5.687   5.542
 2393SOL     OW 8077   3.557   5.294   1.447
 2393SOL    HW1 8078   3.525   5.388   1.448
 2393SOL    HW2 8079   3.487   5.234   1.487
 2394SOL     OW 8080   1.365   3.815   4.690
 2394SOL    HW1 8081   1.299   3.845   4.621
 2394SOL    HW2 8082   1.436   3.759   4.648
 2395SOL     OW 8083   0.040   2.281   6.628
 2395SOL    HW1 8084   0.056   2.311   6.722
 2395SOL    HW2 8085   6.986   2.226   6.624
 2396SOL     OW 8086   5.498   5.957   1.097
 2396SOL    HW1 8087   5.433   5.993   1.164
 2396SOL    HW2 8088   5.590   5.959   1.136
 2397SOL     OW 8089   6.781   4.765   0.626
 2397SOL    HW1 8090   6.816   4.722   0.543
 2397SOL    HW2 8091   6.705   4.712   0.662
 2398SOL     OW 8092   2.395   4.824   5.855
 2398SOL    HW1 8093   2.356   4.906   5.812
 2398SOL    HW2 8094   2.358   4.742   5.810
 2399SOL     OW 8095   4.243   1.912   2.284
 2399SOL    HW1 8096   4.216   1.925   2.189
 2399SOL    HW2 8097   4.247   2.001   2.331
 2400SOL     OW 8098   3.721   4.374   0.362
 2400SOL    HW1 8099   3.648   4.435   0.333
 2400SOL    HW2 8100   3.751   4.400   0.454
 2401SOL     OW 8101   3.515   0.536   5.591
 2401SOL    HW1 8102   3.554   0.445   5.601
 2401SOL    HW2 8103   3.583   0.597   5.551
 2402SOL     OW 8104   6.938   2.072   4.441
 2402SOL    HW1 8105   6.896   2.084   4.351
 2402SOL    HW2 8106   7.024   2.122   4.444
 2403SOL     OW 8107   2.811   2.737   6.969
 2403SOL    HW1 8108   2.773   2.766   0.028
 2403SOL    HW2 8109   2.799   2.638   6.959
 2404SOL     OW 8110   5.446   1.663   2.140
 2404SOL    HW1 8111   5.384   1.588   2.163
 2404SOL    HW2 8112   5.514   1.674   2.212
 2405SOL     OW 8113   4.160   3.401   5.544
 2405SOL    HW1 8114   4.201   3.465   5.479
 2405SOL    HW2 8115   4.145   3.446   5.631
 2406SOL     OW 8116   2.053   0.540   3.425
 2406SOL    HW1 8117   1.979   0.543   3.357
 2406SOL    HW2 8118   2.015   0.521   3.515
 2407SOL     OW 8119   4.437   2.057   2.767
 2407SOL    HW1 8120   4.368   2.033   2.835
 2407SOL    HW2 8121   4.421   2.006   2.683
 2408SOL     OW 8122   3.528   5.404   2.573
 2408SOL    HW1 8123   3.611   5.402   2.629
 2408SOL    HW2 8124   3.551   5.379   2.479
 2409SOL     OW 8125   2.384   2.707   2.220
 2409SOL    HW1 8126   2.383   2.749   2.311
 2409SOL    HW2 8127   2.334   2.765   2.156
 2410SOL     OW 8128   6.479   2.471   5.922
 2410SOL    HW1 8129   6.395   2.503   5.879
 2410SOL    HW2 8130   6.526   2.408   5.861
 2411SOL     OW 8131   3.620   4.442   5.304
 2411SOL    HW1 8132   3.614   4.540   5.321
 2411SOL    HW2 8133   3.716   4.414   5.303
 2412SOL     OW 8134   2.736   3.903   0.183
 2412SOL    HW1 8135   2.755   3.877   0.277
 2412SOL    HW2 8136   2.660   3.848   0.148
 2413SOL     OW 8137   6.186   3.111   6.698
 2413SOL    HW1 8138   6.134   3.029   6.723
 2413SOL    HW2 8139   6.175   3.128   6.600
 2414SOL     OW 8140   6.100   3.872   2.776
 2414SOL    HW1 8141   6.163   3.810   2.730
 2414SOL    HW2 8142   6.013   3.874   2.726
 2415SOL     OW 8143   1.685   0.361   1.074
 2415SOL    HW1 8144   1.649   0.345   0.982
 2415SOL    HW2 8145   1.647   0.293   1.137
 2416SOL     OW 8146   2.983   1.369   4.859
 2416SOL    HW1 8147   2.898   1.317   4.869
 2416SOL    HW2 8148   3.060   1.312   4.886
 2417SOL     OW 8149   4.287   2.541   0.071
 2417SOL    HW1 8150   4.347   2.507   0.144
 2417SOL    HW2 8151   4.291   2.479   7.021
 2418SOL     OW 8152   3.346   3.682   4.910
 2418SOL    HW1 8153   3.325   3.604   4.851
 2418SOL    HW2 8154   3.377   3.648   4.999
 2419SOL     OW 8155   0.511   6.863   4.566
 2419SOL    HW1 8156   0.570   6.936   4.601
 2419SOL    HW2 8157   0.476   6.809   4.642
 2420SOL     OW 8158   4.070   0.098   2.583
 2420SOL    HW1 8159   4.156   0.058   2.553
 2420SOL    HW2 8160   3.996   0.033   2.569
 2421SOL     OW 8161   2.584   1.005   4.574
 2421SOL    HW1 8162   2.537   1.075   4.521
 2421SOL    HW2 8163   2.624   0.938   4.512
 2422SOL     OW 8164   5.504   0.355   1.223
 2422SOL    HW1 8165   5.596   0.316   1.230
 2422SOL    HW2 8166   5.452   0.333   1.306
 2423SOL     OW 8167   0.661   6.102   2.915
 2423SOL    HW1 8168   0.680   6.029   2.849
 2423SOL    HW2 8169   0.590   6.162   2.878
 2424SOL     OW 8170   5.561   5.774   5.894
 2424SOL    HW1 8171   5.498   5.736   5.962
 2424SOL    HW2 8172   5.539   5.870   5.877
 2425SOL     OW 8173   6.135   0.072   4.455
 2425SOL    HW1 8174   6.178   7.012   4.441
 2425SOL    HW2 8175   6.087   0.099   4.371
 2426SOL     OW 8176   1.138   4.292   4.281
 2426SOL    HW1 8177   1.043   4.295   4.312
 2426SOL    HW2 8178   1.144   4.319   4.185
 2427SOL     OW 8179   6.259   5.494   6.674
 2427SOL    HW1 8180   6.347   5.525   6.637
 2427SOL    HW2 8181   6.260   5.394   6.681
 2428SOL     OW 8182   1.263   0.344   3.502
 2428SOL    HW1 8183   1.251   0.262   3.447
 2428SOL    HW2 8184   1.189   0.351   3.569
 2429SOL     OW 8185   6.816   5.397   2.855
 2429SOL    HW1 8186   6.813   5.453   2.772
 2429SOL    HW2 8187   6.900   5.417   2.905
 2430SOL     OW 8188   5.657   2.574   0.907
 2430SOL    HW1 8189   5.667   2.536   0.815
 2430SOL    HW2 8190   5.566   2.553   0.943
 2431SOL     OW 8191   4.301   0.615   1.896
 2431SOL    HW1 8192   4.226   0.603   1.962
 2431SOL    HW2 8193   4.291   0.549   1.822
 2432SOL     OW 8194   4.262   6.258   2.890
 2432SOL    HW1 8195   4.179   6.201   2.887
 2432SOL    HW2 8196   4.256   6.327   2.818
 2433SOL     OW 8197   2.876   6.772   0.175
 2433SOL    HW1 8198   2.940   6.819   0.235
 2433SOL    HW2 8199   2.927   6.714   0.111
 2434SOL     OW 8200   4.864   1.786   3.590
 2434SOL    HW1 8201   4.859   1.763   3.493
 2434SOL    HW2 8202   4.948   1.837   3.608
 2435SOL     OW 8203   4.222   5.989   7.025
 2435SOL    HW1 8204   4.176   6.006   0.083
 2435SOL    HW2 8205   4.310   6.037   7.024
 2436SOL     OW 8206   2.125   6.895   0.775
 2436SOL    HW1 8207   2.099   6.964   0.707
 2436SOL    HW2 8208   2.153   6.941   0.860
 2437SOL     OW 8209   5.326   5.699   1.298
 2437SOL    HW1 8210   5.422   5.682   1.278
 2437SOL    HW2 8211   5.269   5.645   1.237
 2438SOL     OW 8212   4.202   0.713   5.373
 2438SOL    HW1 8213   4.293   0.714   5.414
 2438SOL    HW2 8214   4.137   0.670   5.435
 2439SOL     OW 8215   1.148   3.791   6.933
 2439SOL    HW1 8216   1.126   3.837   7.019
 2439SOL    HW2 8217   1.241   3.814   6.906
 2440SOL     OW 8218   3.491   6.494   5.102
 2440SOL    HW1 8219   3.538   6.413   5.069
 2440SOL    HW2 8220   3.398   6.497   5.065
 2441SOL     OW 8221   6.674   1.291   7.009
 2441SOL    HW1 8222   6.716   1.320   6.923
 2441SOL    HW2 8223   6.629   1.203   6.996
 2442SOL     OW 8224   5.818   5.749   3.739
 2442SOL    HW1 8225   5.851   5.770   3.647
 2442SOL    HW2 8226   5.816   5.650   3.752
 2443SOL     OW 8227   3.061   0.305   6.404
 2443SOL    HW1 8228   3.090   0.400   6.394
 2443SOL    HW2 8229   3.019   0.273   6.319
 2444SOL     OW 8230   4.017   4.514   6.311
 2444SOL    HW1 8231   4.110   4.547   6.295
 2444SOL    HW2 8232   4.014   4.415   6.297
 2445SOL     OW 8233   6.748   0.817   1.977
 2445SOL    HW1 8234   6.750   0.886   2.050
 2445SOL    HW2 8235   6.833   0.823   1.925
 2446SOL     OW 8236   0.352   3.216   4.222
 2446SOL    HW1 8237   0.318   3.308   4.203
 2446SOL    HW2 8238   0.289   3.149   4.182
 2447SOL     OW 8239   3.188   0.866   1.245
 2447SOL    HW1 8240   3.172   0.964   1.238
 2447SOL    HW2 8241   3.174   0.823   1.156
 2448SOL     OW 8242   6.378   0.836   4.356
 2448SOL    HW1 8243   6.343   0.769   4.421
 2448SOL    HW2 8244   6.336   0.820   4.266
 2449SOL     OW 8245   6.803   4.248   3.155
 2449SOL    HW1 8246   6.759   4.231   3.244
 2449SOL    HW2 8247   6.760   4.328   3.113
 2450SOL     OW 8248   3.592   5.564   5.448
 2450SOL    HW1 8249   3.492   5.565   5.446
 2450SOL    HW2 8250   3.623   5.475   5.481
 2451SOL     OW 8251   0.634   0.691   3.560
 2451SOL    HW1 8252   0.538   0.667   3.550
 2451SOL    HW2 8253   0.682   0.617   3.608
 2452SOL     OW 8254   2.663   1.880   3.429
 2452SOL    HW1 8255   2.595   1.835   3.371
 2452SOL    HW2 8256   2.747   1.825   3.430
 2453SOL     OW 8257   6.338   3.847   0.906
 2453SOL    HW1 8258   6.407   3.844   0.979
 2453SOL    HW2 8259   6.306   3.754   0.888
 2454SOL     OW 8260   3.520   1.023   0.289
 2454SOL    HW1 8261   3.589   1.006   0.219
 2454SOL    HW2 8262   3.494   0.937   0.332
 2455SOL     OW 8263   4.628   0.417   0.846
 2455SOL    HW1 8264   4.626   0.498   0.904
 2455SOL    HW2 8265   4.686   0.435   0.766
 2456SOL     OW 8266   6.073   2.035   0.373
 2456SOL    HW1 8267   6.106   2.055   0.465
 2456SOL    HW2 8268   6.150   2.032   0.310
 2457SOL     OW 8269   0.108   6.881   6.118
 2457SOL    HW1 8270   0.019   6.866   6.073
 2457SOL    HW2 8271   0.179   6.886   6.048
 2458SOL     OW 8272   2.221   6.063   4.492
 2458SOL    HW1 8273   2.303   6.014   4.519
 2458SOL    HW2 8274   2.140   6.011   4.520
 2459SOL     OW 8275   2.681   6.091   6.414
 2459SOL    HW1 8276   2.757   6.113   6.352
 2459SOL    HW2 8277   2.649   5.998   6.396
 2460SOL     OW 8278   2.004   1.669   1.534
 2460SOL    HW1 8279   1.965   1.608   1.603
 2460SOL    HW2 8280   2.021   1.759   1.574
 2461SOL     OW 8281   4.808   0.986   3.128
 2461SOL    HW1 8282   4.788   0.905   3.182
 2461SOL    HW2 8283   4.728   1.009   3.073
 2462SOL     OW 8284   2.154   5.898   0.500
 2462SOL    HW1 8285   2.191   5.828   0.561
 2462SOL    HW2 8286   2.076   5.943   0.544
 2463SOL     OW 8287   6.549   1.916   5.685
 2463SOL    HW1 8288   6.554   1.825   5.643
 2463SOL    HW2 8289   6.468   1.922   5.743
 2464SOL     OW 8290   1.942   4.205   1.924
 2464SOL    HW1 8291   1.894   4.122   1.954
 2464SOL    HW2 8292   1.930   4.276   1.993
 2465SOL     OW 8293   0.422   0.429   1.840
 2465SOL    HW1 8294   0.358   0.505   1.832
 2465SOL    HW2 8295   0.499   0.456   1.899
 2466SOL     OW 8296   2.514   2.028   2.512
 2466SOL    HW1 8297   2.423   2.021   2.554
 2466SOL    HW2 8298   2.582   2.046   2.583
 2467SOL     OW 8299   5.049   1.148   5.270
 2467SOL    HW1 8300   5.130   1.111   5.316
 2467SOL    HW2 8301   5.013   1.080   5.206
 2468SOL     OW 8302   4.843   6.305   2.073
 2468SOL    HW1 8303   4.942   6.298   2.087
 2468SOL    HW2 8304   4.795   6.268   2.153
 2469SOL     OW 8305   4.007   4.069   5.542
 2469SOL    HW1 8306   3.909   4.072   5.562
 2469SOL    HW2 8307   4.050   3.998   5.598
 2470SOL     OW 8308   3.687   4.854   6.513
 2470SOL    HW1 8309   3.680   4.757   6.537
 2470SOL    HW2 8310   3.770   4.892   6.551
 2471SOL     OW 8311   2.784   6.152   0.869
 2471SOL    HW1 8312   2.855   6.217   0.843
 2471SOL    HW2 8313   2.796   6.067   0.818
 2472SOL     OW 8314   4.920   2.602   4.574
 2472SOL    HW1 8315   4.968   2.589   4.487
 2472SOL    HW2 8316   4.950   2.533   4.640
 2473SOL     OW 8317   2.231   4.181   4.779
 2473SOL    HW1 8318   2.168   4.255   4.801
 2473SOL    HW2 8319   2.261   4.136   4.863
 2474SOL     OW 8320   0.778   6.057   1.103
 2474SOL    HW1 8321   0.737   6.073   1.013
 2474SOL    HW2 8322   0.828   5.970   1.102
 2475SOL     OW 8323   4.653   1.404   1.839
 2475SOL    HW1 8324   4.714   1.374   1.913
 2475SOL    HW2 8325   4.558   1.397   1.870
 2476SOL     OW 8326   0.151   1.850   3.279
 2476SOL    HW1 8327   0.153   1.789   3.358
 2476SOL    HW2 8328   0.223   1.920   3.289
 2477SOL     OW 8329   4.818   1.325   2.068
 2477SOL    HW1 8330   4.914   1.329   2.094
 2477SOL    HW2 8331   4.769   1.261   2.126
 2478SOL     OW 8332   6.120   1.376   2.527
 2478SOL    HW1 8333   6.207   1.424   2.514
 2478SOL    HW2 8334   6.135   1.278   2.526
 2479SOL     OW 8335   1.578   3.672   1.479
 2479SOL    HW1 8336   1.547   3.765   1.498
 2479SOL    HW2 8337   1.557   3.613   1.557
 2480SOL     OW 8338   5.780   4.350   0.576
 2480SOL    HW1 8339   5.777   4.354   0.476
 2480SOL    HW2 8340   5.706   4.292   0.610
 2481SOL     OW 8341   2.169   0.733   0.074
 2481SOL    HW1 8342   2.178   0.648   0.022
 2481SOL    HW2 8343   2.080   0.734   0.120
 2482SOL     OW 8344   4.887   3.356   5.823
 2482SOL    HW1 8345   4.964   3.300   5.792
 2482SOL    HW2 8346   4.921   3.428   5.884
 2483SOL     OW 8347   1.986   2.062   6.669
 2483SOL    HW1 8348   1.911   2.122   6.642
 2483SOL    HW2 8349   2.039   2.037   6.588
 2484SOL     OW 8350   3.114   0.609   0.529
 2484SOL    HW1 8351   3.124   0.539   0.458
 2484SOL    HW2 8352   3.117   0.567   0.619
 2485SOL     OW 8353   5.787   3.495   1.592
 2485SOL    HW1 8354   5.864   3.482   1.654
 2485SOL    HW2 8355   5.821   3.503   1.498
 2486SOL     OW 8356   1.892   4.565   4.934
 2486SOL    HW1 8357   1.940   4.595   5.017
 2486SOL    HW2 8358   1.878   4.644   4.874
 2487SOL     OW 8359   3.530   5.789   0.183
 2487SOL    HW1 8360   3.447   5.739   0.158
 2487SOL    HW2 8361   3.600   5.725   0.213
 2488SOL     OW 8362   2.063   4.331   2.168
 2488SOL    HW1 8363   2.019   4.247   2.199
 2488SOL    HW2 8364   2.043   4.405   2.234
 2489SOL     OW 8365   1.189   5.520   3.021
 2489SOL    HW1 8366   1.142   5.598   2.980
 2489SOL    HW2 8367   1.157   5.507   3.115
 2490SOL     OW 8368   6.222   5.018   1.494
 2490SOL    HW1 8369   6.297   5.013   1.561
 2490SOL    HW2 8370   6.161   5.094   1.518
 2491SOL     OW 8371   2.922   5.386   0.967
 2491SOL    HW1 8372   2.950   5.414   0.875
 2491SOL    HW2 8373   2.848   5.319   0.961
 2492SOL     OW 8374   4.308   2.823   0.112
 2492SOL    HW1 8375   4.280   2.727   0.100
 2492SOL    HW2 8376   4.300   2.871   0.025
 2493SOL     OW 8377   6.172   0.767   2.637
 2493SOL    HW1 8378   6.114   0.696   2.677
 2493SOL    HW2 8379   6.169   0.761   2.538
 2494SOL     OW 8380   6.090   4.263   2.013
 2494SOL    HW1 8381   6.044   4.351   2.023
 2494SOL    HW2 8382   6.167   4.259   2.077
 2495SOL     OW 8383   5.036   0.582   4.523
 2495SOL    HW1 8384   5.097   0.545   4.594
 2495SOL    HW2 8385   4.999   0.670   4.554
 2496SOL     OW 8386   0.594   4.216   5.856
 2496SOL    HW1 8387   0.504   4.190   5.889
 2496SOL    HW2 8388   0.637   4.138   5.810
 2497SOL     OW 8389   0.106   0.753   0.966
 2497SOL    HW1 8390   0.082   0.751   1.063
 2497SOL    HW2 8391   0.157   0.670   0.943
 2498SOL     OW 8392   3.448   1.868   4.230
 2498SOL    HW1 8393   3.355   1.902   4.211
 2498SOL    HW2 8394   3.459   1.778   4.188
 2499SOL     OW 8395   5.351   2.300   4.173
 2499SOL    HW1 8396   5.256   2.323   4.152
 2499SOL    HW2 8397   5.410   2.332   4.099
 2500SOL     OW 8398   4.214   3.185   0.017
 2500SOL    HW1 8399   4.259   3.260   0.065
 2500SOL    HW2 8400   4.120   3.176   0.050
 2501SOL     OW 8401   6.423   5.762   6.956
 2501SOL    HW1 8402   6.469   5.845   6.987
 2501SOL    HW2 8403   6.352   5.786   6.890
 2502SOL     OW 8404   1.962   5.831   3.213
 2502SOL    HW1 8405   2.024   5.841   3.291
 2502SOL    HW2 8406   1.983   5.902   3.145
 2503SOL     OW 8407   3.240   5.622   4.683
 2503SOL    HW1 8408   3.238   5.711   4.638
 2503SOL    HW2 8409   3.193   5.555   4.625
 2504SOL     OW 8410   2.747   5.223   4.855
 2504SOL    HW1 8411   2.661   5.249   4.898
 2504SOL    HW2 8412   2.821   5.278   4.893
 2505SOL     OW 8413   2.012   5.767   4.312
 2505SOL    HW1 8414   2.032   5.710   4.392
 2505SOL    HW2 8415   2.067   5.736   4.235
 2506SOL     OW 8416   5.966   2.983   6.548
 2506SOL    HW1 8417   5.960   3.075   6.509
 2506SOL    HW2 8418   5.906   2.977   6.628
 2507SOL     OW 8419   0.990   4.454   0.680
 2507SOL    HW1 8420   1.049   4.497   0.748
 2507SOL    HW2 8421   1.016   4.358   0.669
 2508SOL     OW 8422   2.685   1.402   1.891
 2508SOL    HW1 8423   2.724   1.375   1.803
 2508SOL    HW2 8424   2.606   1.345   1.911
 2509SOL     OW 8425   6.150   2.555   2.819
 2509SOL    HW1 8426   6.089   2.632   2.799
 2509SOL    HW2 8427   6.104   2.490   2.879
 2510SOL     OW 8428   3.398   4.218   1.428
 2510SOL    HW1 8429   3.358   4.173   1.348
 2510SOL    HW2 8430   3.496   4.194   1.434
 2511SOL     OW 8431   2.821   1.318   3.643
 2511SOL    HW1 8432   2.797   1.352   3.552
 2511SOL    HW2 8433   2.846   1.221   3.637
 2512SOL     OW 8434   5.031   5.027   4.821
 2512SOL    HW1 8435   5.012   5.069   4.732
 2512SOL    HW2 8436   5.118   4.978   4.817
 2513SOL     OW 8437   1.456   3.263   4.979
 2513SOL    HW1 8438   1.358   3.253   4.997
 2513SOL    HW2 8439   1.471   3.338   4.914
 2514SOL     OW 8440   6.673   3.549   4.349
 2514SOL    HW1 8441   6.575   3.548   4.327
 2514SOL    HW2 8442   6.703   3.455   4.370
 2515SOL     OW 8443   1.128   6.681   0.364
 2515SOL    HW1 8444   1.180   6.599   0.389
 2515SOL    HW2 8445   1.182   6.762   0.386
 2516SOL     OW 8446   5.832   0.549   3.929
 2516SOL    HW1 8447   5.821   0.466   3.874
 2516SOL    HW2 8448   5.761   0.615   3.903
 2517SOL     OW 8449   1.137   5.442   5.819
 2517SOL    HW1 8450   1.229   5.482   5.820
 2517SOL    HW2 8451   1.104   5.436   5.725
 2518SOL     OW 8452   2.042   3.494   6.839
 2518SOL    HW1 8453   2.049   3.455   6.747
 2518SOL    HW2 8454   2.113   3.455   6.897
 2519SOL     OW 8455   5.046   6.340   3.777
 2519SOL    HW1 8456   5.138   6.378   3.777
 2519SOL    HW2 8457   5.050   6.243   3.751
 2520SOL     OW 8458   1.423   2.762   0.158
 2520SOL    HW1 8459   1.417   2.727   0.251
 2520SOL    HW2 8460   1.519   2.763   0.128
 2521SOL     OW 8461   1.241   6.100   5.948
 2521SOL    HW1 8462   1.160   6.048   5.921
 2521SOL    HW2 8463   1.218   6.161   6.023
 2522SOL     OW 8464   6.823   3.308   5.764
 2522SOL    HW1 8465   6.860   3.375   5.828
 2522SOL    HW2 8466   6.747   3.259   5.806
 2523SOL     OW 8467   6.944   2.897   1.941
 2523SOL    HW1 8468   6.911   2.954   2.016
 2523SOL    HW2 8469   6.967   2.806   1.976
 2524SOL     OW 8470   1.153   5.235   5.003
 2524SOL    HW1 8471   1.113   5.321   5.035
 2524SOL    HW2 8472   1.095   5.196   4.932
 2525SOL     OW 8473   0.633   2.699   4.165
 2525SOL    HW1 8474   0.539   2.666   4.158
 2525SOL    HW2 8475   0.650   2.733   4.257
 2526SOL     OW 8476   1.931   4.336   5.608
 2526SOL    HW1 8477   1.878   4.254   5.590
 2526SOL    HW2 8478   1.988   4.322   5.689
 2527SOL     OW 8479   5.306   6.190   5.112
 2527SOL    HW1 8480   5.237   6.184   5.184
 2527SOL    HW2 8481   5.336   6.285   5.104
 2528SOL     OW 8482   5.919   4.556   0.719
 2528SOL    HW1 8483   5.881   4.555   0.812
 2528SOL    HW2 8484   5.865   4.496   0.660
 2529SOL     OW 8485   6.895   6.515   6.681
 2529SOL    HW1 8486   6.853   6.601   6.653
 2529SOL    HW2 8487   6.926   6.465   6.600
 2530SOL     OW 8488   1.149   6.590   4.653
 2530SOL    HW1 8489   1.127   6.662   4.587
 2530SOL    HW2 8490   1.218   6.529   4.614
 2531SOL     OW 8491   4.827   5.909   4.399
 2531SOL    HW1 8492   4.831   6.004   4.431
 2531SOL    HW2 8493   4.876   5.901   4.312
 2532SOL     OW 8494   0.864   6.009   0.694
 2532SOL    HW1 8495   0.903   6.047   0.610
 2532SOL    HW2 8496   0.921   6.034   0.772
 2533SOL     OW 8497   3.557   0.251   3.043
 2533SOL    HW1 8498   3.599   0.259   2.953
 2533SOL    HW2 8499   3.502   0.167   3.047
 2534SOL     OW 8500   2.550   0.782   2.924
 2534SOL    HW1 8501   2.650   0.772   2.925
 2534SOL    HW2 8502   2.518   0.802   3.016
 2535SOL     OW 8503   2.628   2.633   6.640
 2535SOL    HW1 8504   2.654   2.690   6.562
 2535SOL    HW2 8505   2.711   2.597   6.684
 2536SOL     OW 8506   6.628   1.946   3.810
 2536SOL    HW1 8507   6.697   2.019   3.810
 2536SOL    HW2 8508   6.638   1.892   3.726
 2537SOL     OW 8509   5.109   6.276   6.620
 2537SOL    HW1 8510   5.134   6.267   6.523
 2537SOL    HW2 8511   5.048   6.355   6.631
 2538SOL     OW 8512   1.185   3.922   4.490
 2538SOL    HW1 8513   1.127   4.000   4.512
 2538SOL    HW2 8514   1.234   3.939   4.405
 2539SOL     OW 8515   5.090   0.466   6.227
 2539SOL    HW1 8516   5.172   0.411   6.220
 2539SOL    HW2 8517   5.113   0.562   6.213
 2540SOL     OW 8518   4.441   0.751   2.300
 2540SOL    HW1 8519   4.341   0.751   2.292
 2540SOL    HW2 8520   4.478   0.826   2.245
 2541SOL     OW 8521   1.879   6.502   5.336
 2541SOL    HW1 8522   1.856   6.517   5.433
 2541SOL    HW2 8523   1.826   6.566   5.280
 2542SOL     OW 8524   5.041   1.270   5.953
 2542SOL    HW1 8525   4.953   1.303   5.917
 2542SOL    HW2 8526   5.045   1.171   5.944
 2543SOL     OW 8527   1.934   1.602   2.617
 2543SOL    HW1 8528   1.838   1.626   2.623
 2543SOL    HW2 8529   1.944   1.503   2.612
 2544SOL     OW 8530   0.034   4.956   1.382
 2544SOL    HW1 8531   0.093   4.918   1.453
 2544SOL    HW2 8532   0.081   4.954   1.294
 2545SOL     OW 8533   1.830   0.836   1.014
 2545SOL    HW1 8534   1.844   0.908   0.947
 2545SOL    HW2 8535   1.834   0.747   0.969
 2546SOL     OW 8536   0.009   2.688   2.099
 2546SOL    HW1 8537   0.077   2.741   2.150
 2546SOL    HW2 8538   0.048   2.659   2.012
 2547SOL     OW 8539   5.905   4.732   0.070
 2547SOL    HW1 8540   5.954   4.819   0.083
 2547SOL    HW2 8541   5.953   4.678   0.001
 2548SOL     OW 8542   3.068   6.900   5.434
 2548SOL    HW1 8543   3.053   6.833   5.361
 2548SOL    HW2 8544   2.982   6.946   5.455
 2549SOL     OW 8545   1.885   1.259   1.255
 2549SOL    HW1 8546   1.901   1.316   1.174
 2549SOL    HW2 8547   1.958   1.191   1.262
 2550SOL     OW 8548   6.984   0.380   6.196
 2550SOL    HW1 8549   6.953   0.461   6.147
 2550SOL    HW2 8550   0.040   0.400   6.244
 2551SOL     OW 8551   2.803   5.678   0.263
 2551SOL    HW1 8552   2.749   5.686   0.179
 2551SOL    HW2 8553   2.765   5.605   0.320
 2552SOL     OW 8554   1.204   5.561   6.275
 2552SOL    HW1 8555   1.265   5.515   6.339
 2552SOL    HW2 8556   1.146   5.626   6.324
 2553SOL     OW 8557   3.599   3.892   6.710
 2553SOL    HW1 8558   3.556   3.886   6.800
 2553SOL    HW2 8559   3.698   3.887   6.719
 2554SOL     OW 8560   1.477   5.976   6.892
 2554SOL    HW1 8561   1.444   6.069   6.878
 2554SOL    HW2 8562   1.542   5.975   6.968
 2555SOL     OW 8563   6.511   6.338   6.137
 2555SOL    HW1 8564   6.578   6.409   6.115
 2555SOL    HW2 8565   6.422   6.380   6.151
 2556SOL     OW 8566   3.940   5.910   0.526
 2556SOL    HW1 8567   4.029   5.891   0.484
 2556SOL    HW2 8568   3.920   6.007   0.520
 2557SOL     OW 8569   2.273   2.518   6.342
 2557SOL    HW1 8570   2.247   2.610   6.372
 2557SOL    HW2 8571   2.234   2.450   6.404
 2558SOL     OW 8572   4.145   3.450   5.828
 2558SOL    HW1 8573   4.171   3.356   5.848
 2558SOL    HW2 8574   4.138   3.502   5.913
 2559SOL     OW 8575   6.390   3.495   4.700
 2559SOL    HW1 8576   6.393   3.408   4.651
 2559SOL    HW2 8577   6.482   3.523   4.726
 2560SOL     OW 8578   5.430   3.764   4.270
 2560SOL    HW1 8579   5.483   3.681   4.290
 2560SOL    HW2 8580   5.366   3.745   4.197
 2561SOL     OW 8581   3.098   0.304   3.993
 2561SOL    HW1 8582   3.022   0.333   3.933
 2561SOL    HW2 8583   3.174   0.368   3.983
 2562SOL     OW 8584   1.939   5.793   2.419
 2562SOL    HW1 8585   1.970   5.744   2.337
 2562SOL    HW2 8586   1.862   5.743   2.460
 2563SOL     OW 8587   4.307   1.631   6.920
 2563SOL    HW1 8588   4.250   1.611   7.000
 2563SOL    HW2 8589   4.253   1.617   6.837
 2564SOL     OW 8590   0.982   6.574   6.500
 2564SOL    HW1 8591   1.037   6.652   6.527
 2564SOL    HW2 8592   1.011   6.542   6.409
 2565SOL     OW 8593   0.118   0.644   0.131
 2565SOL    HW1 8594   0.037   0.702   0.139
 2565SOL    HW2 8595   0.094   0.549   0.145
 2566SOL     OW 8596   1.606   0.057   0.972
 2566SOL    HW1 8597   1.524   0.046   0.917
 2566SOL    HW2 8598   1.686   0.027   0.920
 2567SOL     OW 8599   1.245   1.266   1.804
 2567SOL    HW1 8600   1.284   1.206   1.734
 2567SOL    HW2 8601   1.153   1.293   1.777
 2568SOL     OW 8602   3.207   0.094   6.832
 2568SOL    HW1 8603   3.116   0.059   6.813
 2568SOL    HW2 8604   3.241   0.054   6.917
 2569SOL     OW 8605   2.874   0.376   1.648
 2569SOL    HW1 8606   2.868   0.303   1.581
 2569SOL    HW2 8607   2.817   0.355   1.727
 2570SOL     OW 8608   6.108   0.777   6.990
 2570SOL    HW1 8609   6.147   0.724   0.037
 2570SOL    HW2 8610   6.023   0.735   6.960
 2571SOL     OW 8611   2.225   3.284   5.628
 2571SOL    HW1 8612   2.272   3.342   5.695
 2571SOL    HW2 8613   2.246   3.317   5.536
 2572SOL     OW 8614   1.942   6.245   1.049
 2572SOL    HW1 8615   1.850   6.215   1.073
 2572SOL    HW2 8616   1.970   6.319   1.109
 2573SOL     OW 8617   6.480   1.633   2.305
 2573SOL    HW1 8618   6.558   1.628   2.367
 2573SOL    HW2 8619   6.487   1.714   2.248
 2574SOL     OW 8620   6.908   3.493   0.139
 2574SOL    HW1 8621   6.881   3.444   0.222
 2574SOL    HW2 8622   6.999   3.464   0.112
 2575SOL     OW 8623   5.082   5.019   0.083
 2575SOL    HW1 8624   5.135   4.961   0.145
 2575SOL    HW2 8625   4.999   4.971   0.056
 2576SOL     OW 8626   4.098   6.980   4.611
 2576SOL    HW1 8627   4.004   6.970   4.579
 2576SOL    HW2 8628   4.153   7.024   4.541
 2577SOL     OW 8629   4.155   6.222   2.218
 2577SOL    HW1 8630   4.101   6.263   2.291
 2577SOL    HW2 8631   4.251   6.251   2.228
 2578SOL     OW 8632   4.684   2.462   4.586
 2578SOL    HW1 8633   4.699   2.377   4.535
 2578SOL    HW2 8634   4.769   2.514   4.590
 2579SOL     OW 8635   0.944   0.632   3.260
 2579SOL    HW1 8636   0.933   0.616   3.161
 2579SOL    HW2 8637   1.029   0.682   3.276
 2580SOL     OW 8638   2.330   2.805   6.851
 2580SOL    HW1 8639   2.307   2.859   6.932
 2580SOL    HW2 8640   2.359   2.713   6.878
 2581SOL     OW 8641   6.829   4.294   1.044
 2581SOL    HW1 8642   6.928   4.303   1.038
 2581SOL    HW2 8643   6.801   4.205   1.008
 2582SOL     OW 8644   0.768   4.182   1.949
 2582SOL    HW1 8645   0.722   4.201   1.863
 2582SOL    HW2 8646   0.865   4.205   1.941
 2583SOL     OW 8647   0.456   1.745   1.160
 2583SOL    HW1 8648   0.408   1.833   1.153
 2583SOL    HW2 8649   0.390   1.670   1.155
 2584SOL     OW 8650   3.970   5.767   0.199
 2584SOL    HW1 8651   3.929   5.854   0.173
 2584SOL    HW2 8652   4.056   5.754   0.149
 2585SOL     OW 8653   4.212   1.793   0.370
 2585SOL    HW1 8654   4.294   1.828   0.326
 2585SOL    HW2 8655   4.236   1.751   0.457
 2586SOL     OW 8656   3.736   1.363   3.858
 2586SOL    HW1 8657   3.732   1.297   3.783
 2586SOL    HW2 8658   3.643   1.385   3.888
 2587SOL     OW 8659   6.758   0.862   3.787
 2587SOL    HW1 8660   6.785   0.848   3.692
 2587SOL    HW2 8661   6.733   0.958   3.800
 2588SOL     OW 8662   4.754   6.902   6.823
 2588SOL    HW1 8663   4.689   6.837   6.783
 2588SOL    HW2 8664   4.830   6.852   6.864
 2589SOL     OW 8665   0.556   5.811   6.305
 2589SOL    HW1 8666   0.505   5.882   6.353
 2589SOL    HW2 8667   0.526   5.721   6.337
 2590SOL     OW 8668   3.200   6.269   1.946
 2590SOL    HW1 8669   3.145   6.261   2.029
 2590SOL    HW2 8670   3.201   6.181   1.898
 2591SOL     OW 8671   6.667   5.692   1.803
 2591SOL    HW1 8672   6.640   5.690   1.706
 2591SOL    HW2 8673   6.717   5.776   1.822
 2592SOL     OW 8674   3.386   6.415   1.201
 2592SOL    HW1 8675   3.433   6.431   1.288
 2592SOL    HW2 8676   3.452   6.405   1.127
 2593SOL     OW 8677   2.816   6.024   1.303
 2593SOL    HW1 8678   2.735   6.066   1.263
 2593SOL    HW2 8679   2.793   5.985   1.392
 2594SOL     OW 8680   0.472   5.904   6.049
 2594SOL    HW1 8681   0.552   5.867   6.001
 2594SOL    HW2 8682   0.470   5.870   6.143
 2595SOL     OW 8683   6.378   1.370   4.726
 2595SOL    HW1 8684   6.364   1.402   4.632
 2595SOL    HW2 8685   6.322   1.424   4.789
 2596SOL     OW 8686   3.749   1.957   1.824
 2596SOL    HW1 8687   3.711   2.026   1.885
 2596SOL    HW2 8688   3.819   1.998   1.766
 2597SOL     OW 8689   1.731   3.945   6.512
 2597SOL    HW1 8690   1.801   3.967   6.444
 2597SOL    HW2 8691   1.675   4.026   6.530
 2598SOL     OW 8692   6.328   1.459   4.427
 2598SOL    HW1 8693   6.341   1.537   4.488
 2598SOL    HW2 8694   6.250   1.476   4.367
 2599SOL     OW 8695   3.118   0.182   0.690
 2599SOL    HW1 8696   3.109   0.281   0.700
 2599SOL    HW2 8697   3.027   0.141   0.685
 2600SOL     OW 8698   4.931   3.394   4.340
 2600SOL    HW1 8699   4.949   3.440   4.426
 2600SOL    HW2 8700   4.898   3.301   4.358
 2601SOL     OW 8701   2.055   2.114   6.934
 2601SOL    HW1 8702   2.023   2.094   6.842
 2601SOL    HW2 8703   1.976   2.129   6.994
 2602SOL     OW 8704   6.544   4.491   3.852
 2602SOL    HW1 8705   6.526   4.447   3.764
 2602SOL    HW2 8706   6.512   4.585   3.849
 2603SOL     OW 8707   2.124   1.747   1.891
 2603SOL    HW1 8708   2.220   1.727   1.913
 2603SOL    HW2 8709   2.120   1.818   1.821
 2604SOL     OW 8710   4.891   1.425   3.247
 2604SOL    HW1 8711   4.921   1.405   3.154
 2604SOL    HW2 8712   4.898   1.342   3.303
 2605SOL     OW 8713   2.199   4.308   2.840
 2605SOL    HW1 8714   2.264   4.379   2.868
 2605SOL    HW2 8715   2.189   4.309   2.741
 2606SOL     OW 8716   6.842   4.567   1.244
 2606SOL    HW1 8717   6.751   4.530   1.229
 2606SOL    HW2 8718   6.877   4.538   1.333
 2607SOL     OW 8719   0.186   1.171   0.241
 2607SOL    HW1 8720   0.148   1.170   0.148
 2607SOL    HW2 8721   0.285   1.158   0.237
 2608SOL     OW 8722   5.034   4.677   1.575
 2608SOL    HW1 8723   5.102   4.649   1.507
 2608SOL    HW2 8724   5.073   4.668   1.667
 2609SOL     OW 8725   6.961   1.575   1.533
 2609SOL    HW1 8726   6.976   1.576   1.632
 2609SOL    HW2 8727   6.922   1.487   1.506
 2610SOL     OW 8728   0.167   4.917   4.315
 2610SOL    HW1 8729   0.135   4.967   4.235
 2610SOL    HW2 8730   0.155   4.974   4.397
 2611SOL     OW 8731   4.586   6.295   0.905
 2611SOL    HW1 8732   4.598   6.290   1.004
 2611SOL    HW2 8733   4.517   6.364   0.883
 2612SOL     OW 8734   6.559   0.120   5.772
 2612SOL    HW1 8735   6.652   0.110   5.736
 2612SOL    HW2 8736   6.528   0.214   5.758
 2613SOL     OW 8737   2.608   6.996   0.281
 2613SOL    HW1 8738   2.571   0.036   0.344
 2613SOL    HW2 8739   2.707   6.992   0.290
 2614SOL     OW 8740   6.880   0.600   6.058
 2614SOL    HW1 8741   6.812   0.651   6.110
 2614SOL    HW2 8742   6.873   0.622   5.961
 2615SOL     OW 8743   6.922   3.230   2.966
 2615SOL    HW1 8744   6.964   3.311   2.926
 2615SOL    HW2 8745   6.840   3.256   3.016
 2616SOL     OW 8746   3.855   3.087   5.063
 2616SOL    HW1 8747   3.796   3.027   5.118
 2616SOL    HW2 8748   3.807   3.174   5.048
 2617SOL     OW 8749   3.703   6.665   1.169
 2617SOL    HW1 8750   3.704   6.587   1.232
 2617SOL    HW2 8751   3.633   6.650   1.099
 2618SOL     OW 8752   0.499   0.226   4.363
 2618SOL    HW1 8753   0.538   0.273   4.284
 2618SOL    HW2 8754   0.416   0.177   4.336
 2619SOL     OW 8755   4.113   1.570   3.083
 2619SOL    HW1 8756   4.199   1.614   3.109
 2619SOL    HW2 8757   4.057   1.556   3.164
 2620SOL     OW 8758   0.066   6.900   2.895
 2620SOL    HW1 8759   0.114   6.959   2.831
 2620SOL    HW2 8760   6.998   6.896   2.871
 2621SOL     OW 8761   1.353   6.056   3.075
 2621SOL    HW1 8762   1.347   6.152   3.103
 2621SOL    HW2 8763   1.302   5.999   3.139
 2622SOL     OW 8764   2.028   2.770   5.733
 2622SOL    HW1 8765   2.115   2.769   5.683
 2622SOL    HW2 8766   2.046   2.766   5.831
 2623SOL     OW 8767   2.114   1.575   5.512
 2623SOL    HW1 8768   2.203   1.619   5.496
 2623SOL    HW2 8769   2.065   1.567   5.425
 2624SOL     OW 8770   6.603   2.130   5.503
 2624SOL    HW1 8771   6.658   2.095   5.428
 2624SOL    HW2 8772   6.559   2.054   5.551
 2625SOL     OW 8773   2.368   2.198   5.164
 2625SOL    HW1 8774   2.403   2.183   5.256
 2625SOL    HW2 8775   2.443   2.220   5.103
 2626SOL     OW 8776   0.628   6.715   5.404
 2626SOL    HW1 8777   0.528   6.711   5.400
 2626SOL    HW2 8778   0.657   6.807   5.430
 2627SOL     OW 8779   1.460   1.468   5.582
 2627SOL    HW1 8780   1.395   1.448   5.508
 2627SOL    HW2 8781   1.425   1.543   5.638
 2628SOL     OW 8782   2.386   4.939   6.176
 2628SOL    HW1 8783   2.326   4.875   6.129
 2628SOL    HW2 8784   2.437   4.993   6.109
 2629SOL     OW 8785   2.594   3.271   1.445
 2629SOL    HW1 8786   2.588   3.200   1.375
 2629SOL    HW2 8787   2.688   3.304   1.452
 2630SOL     OW 8788   2.995   1.933   2.812
 2630SOL    HW1 8789   3.053   2.007   2.844
 2630SOL    HW2 8790   2.904   1.941   2.853
 2631SOL     OW 8791   5.524   0.580   5.560
 2631SOL    HW1 8792   5.467   0.500   5.583
 2631SOL    HW2 8793   5.619   0.561   5.583
 2632SOL     OW 8794   3.917   2.513   6.445
 2632SOL    HW1 8795   3.983   2.534   6.518
 2632SOL    HW2 8796   3.951   2.548   6.358
 2633SOL     OW 8797   0.000   0.949   4.579
 2633SOL    HW1 8798   0.015   0.870   4.519
 2633SOL    HW2 8799   0.047   1.029   4.542
 2634SOL     OW 8800   0.725   4.535   3.112
 2634SOL    HW1 8801   0.801   4.486   3.154
 2634SOL    HW2 8802   0.645   4.531   3.171
 2635SOL     OW 8803   6.104   6.140   5.704
 2635SOL    HW1 8804   6.076   6.100   5.617
 2635SOL    HW2 8805   6.204   6.150   5.705
 2636SOL     OW 8806   4.683   0.485   5.517
 2636SOL    HW1 8807   4.649   0.503   5.609
 2636SOL    HW2 8808   4.758   0.419   5.521
 2637SOL     OW 8809   5.128   1.892   3.658
 2637SOL    HW1 8810   5.222   1.866   3.639
 2637SOL    HW2 8811   5.111   1.890   3.757
 2638SOL     OW 8812   6.656   0.483   3.166
 2638SOL    HW1 8813   6.635   0.482   3.068
 2638SOL    HW2 8814   6.671   0.389   3.197
 2639SOL     OW 8815   0.713   6.658   0.987
 2639SOL    HW1 8816   0.797   6.603   0.982
 2639SOL    HW2 8817   0.723   6.739   0.929
 2640SOL     OW 8818   0.690   5.672   4.978
 2640SOL    HW1 8819   0.696   5.642   5.073
 2640SOL    HW2 8820   0.601   5.713   4.962
 2641SOL     OW 8821   4.913   2.971   2.318
 2641SOL    HW1 8822   4.851   2.917   2.261
 2641SOL    HW2 8823   4.862   3.007   2.396
 2642SOL     OW 8824   4.050   6.718   4.053
 2642SOL    HW1 8825   4.123   6.752   3.995
 2642SOL    HW2 8826   4.085   6.645   4.112
 2643SOL     OW 8827   0.099   3.961   3.083
 2643SOL    HW1 8828   0.186   4.009   3.089
 2643SOL    HW2 8829   0.073   3.949   2.988
 2644SOL     OW 8830   6.300   5.926   5.862
 2644SOL    HW1 8831   6.301   5.850   5.928
 2644SOL    HW2 8832   6.344   5.897   5.777
 2645SOL     OW 8833   4.544   5.717   4.814
 2645SOL    HW1 8834   4.606   5.643   4.839
 2645SOL    HW2 8835   4.596   5.790   4.768
 2646SOL     OW 8836   6.016   0.533   6.730
 2646SOL    HW1 8837   6.073   0.588   6.791
 2646SOL    HW2 8838   6.038   0.436   6.742
 2647SOL     OW 8839   6.531   6.780   2.284
 2647SOL    HW1 8840   6.497   6.874   2.292
 2647SOL    HW2 8841   6.462   6.717   2.319
 2648SOL     OW 8842   0.665   0.338   4.189
 2648SOL    HW1 8843   0.742   0.357   4.250
 2648SOL    HW2 8844   0.694   0.273   4.118
 2649SOL     OW 8845   5.544   3.240   0.062
 2649SOL    HW1 8846   5.546   3.164   7.026
 2649SOL    HW2 8847   5.502   3.210   0.147
 2650SOL     OW 8848   1.038   4.118   4.590
 2650SOL    HW1 8849   1.068   4.178   4.664
 2650SOL    HW2 8850   0.963   4.060   4.621
 2651SOL     OW 8851   0.980   0.813   0.411
 2651SOL    HW1 8852   0.996   0.851   0.320
 2651SOL    HW2 8853   0.883   0.824   0.435
 2652SOL     OW 8854   3.418   3.665   4.540
 2652SOL    HW1 8855   3.357   3.739   4.569
 2652SOL    HW2 8856   3.501   3.703   4.501
 2653SOL     OW 8857   5.053   6.780   5.350
 2653SOL    HW1 8858   5.122   6.831   5.401
 2653SOL    HW2 8859   5.002   6.843   5.291
 2654SOL     OW 8860   4.730   5.829   1.620
 2654SOL    HW1 8861   4.781   5.789   1.544
 2654SOL    HW2 8862   4.661   5.892   1.583
 2655SOL     OW 8863   4.335   6.240   4.194
 2655SOL    HW1 8864   4.376   6.245   4.285
 2655SOL    HW2 8865   4.263   6.310   4.186
 2656SOL     OW 8866   3.570   4.925   4.257
 2656SOL    HW1 8867   3.549   4.975   4.341
 2656SOL    HW2 8868   3.514   4.843   4.251
 2657SOL     OW 8869   1.057   3.895   6.007
 2657SOL    HW1 8870   1.088   3.968   5.946
 2657SOL    HW2 8871   1.111   3.812   5.989
 2658SOL     OW 8872   4.993   3.992   0.564
 2658SOL    HW1 8873   4.939   4.012   0.482
 2658SOL    HW2 8874   5.037   4.076   0.596
 2659SOL     OW 8875   5.646   3.065   4.215
 2659SOL    HW1 8876   5.625   3.045   4.310
 2659SOL    HW2 8877   5.561   3.081   4.165
 2660SOL     OW 8878   1.470   0.491   1.354
 2660SOL    HW1 8879   1.496   0.398   1.381
 2660SOL    HW2 8880   1.428   0.538   1.431
 2661SOL     OW 8881   2.564   6.712   1.258
 2661SOL    HW1 8882   2.550   6.700   1.160
 2661SOL    HW2 8883   2.476   6.730   1.303
 2662SOL     OW 8884   5.141   6.579   5.070
 2662SOL    HW1 8885   5.048   6.616   5.068
 2662SOL    HW2 8886   5.155   6.519   4.991
 2663SOL     OW 8887   3.228   3.869   6.877
 2663SOL    HW1 8888   3.131   3.845   6.875
 2663SOL    HW2 8889   3.239   3.965   6.852
 2664SOL     OW 8890   4.204   4.011   5.358
 2664SOL    HW1 8891   4.114   4.042   5.390
 2664SOL    HW2 8892   4.270   4.019   5.433
 2665SOL     OW 8893   2.470   2.740   5.180
 2665SOL    HW1 8894   2.444   2.696   5.094
 2665SOL    HW2 8895   2.483   2.838   5.166
 2666SOL     OW 8896   5.718   4.204   1.067
 2666SOL    HW1 8897   5.770   4.289   1.060
 2666SOL    HW2 8898   5.772   4.136   1.117
 2667SOL     OW 8899   0.615   6.592   3.757
 2667SOL    HW1 8900   0.544   6.619   3.692
 2667SOL    HW2 8901   0.675   6.523   3.714
 2668SOL     OW 8902   0.122   3.039   4.553
 2668SOL    HW1 8903   0.198   3.098   4.526
 2668SOL    HW2 8904   0.115   3.037   4.652
 2669SOL     OW 8905   2.742   4.354   5.299
 2669SOL    HW1 8906   2.817   4.394   5.245
 2669SOL    HW2 8907   2.779   4.318   5.385
 2670SOL     OW 8908   6.147   3.325   6.236
 2670SOL    HW1 8909   6.189   3.398   6.289
 2670SOL    HW2 8910   6.128   3.358   6.144
 2671SOL     OW 8911   4.135   5.328   5.737
 2671SOL    HW1 8912   4.154   5.286   5.825
 2671SOL    HW2 8913   4.203   5.398   5.718
 2672SOL     OW 8914   1.479   4.884   0.779
 2672SOL    HW1 8915   1.448   4.949   0.849
 2672SOL    HW2 8916   1.523   4.806   0.824
 2673SOL     OW 8917   6.132   0.630   3.709
 2673SOL    HW1 8918   6.205   0.629   3.641
 2673SOL    HW2 8919   6.044   0.624   3.662
 2674SOL     OW 8920   1.421   4.470   3.968
 2674SOL    HW1 8921   1.513   4.484   4.003
 2674SOL    HW2 8922   1.370   4.557   3.970
 2675SOL     OW 8923   6.670   5.426   3.528
 2675SOL    HW1 8924   6.638   5.520   3.540
 2675SOL    HW2 8925   6.665   5.402   3.431
 2676SOL     OW 8926   4.147   2.426   0.684
 2676SOL    HW1 8927   4.071   2.485   0.656
 2676SOL    HW2 8928   4.111   2.345   0.731
 2677SOL     OW 8929   3.058   3.381   0.467
 2677SOL    HW1 8930   3.095   3.411   0.379
 2677SOL    HW2 8931   3.095   3.291   0.489
 2678SOL     OW 8932   0.346   2.813   1.106
 2678SOL    HW1 8933   0.342   2.771   1.197
 2678SOL    HW2 8934   0.441   2.823   1.078
 2679SOL     OW 8935   3.541   4.570   1.219
 2679SOL    HW1 8936   3.590   4.628   1.155
 2679SOL    HW2 8937   3.603   4.537   1.290
 2680SOL     OW 8938   1.099   1.749   0.751
 2680SOL    HW1 8939   1.105   1.827   0.813
 2680SOL    HW2 8940   1.174   1.686   0.770
 2681SOL     OW 8941   1.446   2.735   3.982
 2681SOL    HW1 8942   1.530   2.785   3.965
 2681SOL    HW2 8943   1.407   2.765   4.070
 2682SOL     OW 8944   4.772   4.128   2.621
 2682SOL    HW1 8945   4.869   4.153   2.608
 2682SOL    HW2 8946   4.739   4.082   2.539
 2683SOL     OW 8947   2.339   4.895   1.562
 2683SOL    HW1 8948   2.434   4.865   1.570
 2683SOL    HW2 8949   2.335   4.995   1.568
 2684SOL     OW 8950   4.043   5.577   1.539
 2684SOL    HW1 8951   4.027   5.627   1.625
 2684SOL    HW2 8952   4.038   5.640   1.462
 2685SOL     OW 8953   6.200   6.472   6.480
 2685SOL    HW1 8954   6.104   6.457   6.457
 2685SOL    HW2 8955   6.244   6.525   6.407
 2686SOL     OW 8956   1.672   1.537   5.930
 2686SOL    HW1 8957   1.742   1.501   5.992
 2686SOL    HW2 8958   1.697   1.629   5.901
 2687SOL     OW 8959   4.619   4.507   2.431
 2687SOL    HW1 8960   4.628   4.448   2.511
 2687SOL    HW2 8961   4.655   4.598   2.452
 2688SOL     OW 8962   3.827   4.154   6.994
 2688SOL    HW1 8963   3.790   4.197   6.911
 2688SOL    HW2 8964   3.845   4.224   0.034
 2689SOL     OW 8965   1.606   3.845   3.454
 2689SOL    HW1 8966   1.508   3.825   3.449
 2689SOL    HW2 8967   1.643   3.854   3.361
 2690SOL     OW 8968   3.485   3.257   4.071
 2690SOL    HW1 8969   3.515   3.334   4.015
 2690SOL    HW2 8970   3.452   3.184   4.012
 2691SOL     OW 8971   1.497   5.226   2.250
 2691SOL    HW1 8972   1.469   5.312   2.293
 2691SOL    HW2 8973   1.595   5.230   2.230
 2692SOL     OW 8974   3.421   5.478   2.963
 2692SOL    HW1 8975   3.442   5.543   2.890
 2692SOL    HW2 8976   3.484   5.400   2.957
 2693SOL     OW 8977   2.358   5.341   3.099
 2693SOL    HW1 8978   2.330   5.248   3.076
 2693SOL    HW2 8979   2.358   5.352   3.199
 2694SOL     OW 8980   3.919   6.309   3.228
 2694SOL    HW1 8981   3.916   6.232   3.291
 2694SOL    HW2 8982   3.889   6.279   3.137
 2695SOL     OW 8983   5.513   0.364   2.612
 2695SOL    HW1 8984   5.546   0.419   2.535
 2695SOL    HW2 8985   5.590   0.335   2.668
 2696SOL     OW 8986   3.647   3.629   5.412
 2696SOL    HW1 8987   3.730   3.667   5.371
 2696SOL    HW2 8988   3.654   3.634   5.512
 2697SOL     OW 8989   3.212   1.803   2.560
 2697SOL    HW1 8990   3.117   1.826   2.581
 2697SOL    HW2 8991   3.260   1.780   2.644
 2698SOL     OW 8992   2.233   6.664   0.219
 2698SOL    HW1 8993   2.314   6.717   0.245
 2698SOL    HW2 8994   2.152   6.702   0.263
 2699SOL     OW 8995   2.599   6.607   0.604
 2699SOL    HW1 8996   2.570   6.662   0.682
 2699SOL    HW2 8997   2.606   6.511   0.631
 2700SOL     OW 8998   2.130   3.683   0.422
 2700SOL    HW1 8999   2.207   3.746   0.426
 2700SOL    HW2 9000   2.150   3.608   0.359
 2701SOL     OW 9001   5.818   1.393   6.102
 2701SOL    HW1 9002   5.806   1.428   6.009
 2701SOL    HW2 9003   5.883   1.317   6.101
 2702SOL     OW 9004   0.736   3.058   3.429
 2702SOL    HW1 9005   0.785   3.125   3.484
 2702SOL    HW2 9006   0.773   2.967   3.445
 2703SOL     OW 9007   1.639   0.075   1.234
 2703SOL    HW1 9008   1.629   0.060   1.135
 2703SOL    HW2 9009   1.553   0.051   1.279
 2704SOL     OW 9010   6.801   5.908   1.216
 2704SOL    HW1 9011   6.736   5.942   1.283
 2704SOL    HW2 9012   6.847   5.986   1.171
 2705SOL     OW 9013   6.873   5.814   4.663
 2705SOL    HW1 9014   6.885   5.888   4.730
 2705SOL    HW2 9015   6.949   5.816   4.598
 2706SOL     OW 9016   0.266   6.454   1.831
 2706SOL    HW1 9017   0.319   6.421   1.753
 2706SOL    HW2 9018   0.328   6.480   1.905
 2707SOL     OW 9019   3.649   0.169   4.395
 2707SOL    HW1 9020   3.703   0.245   4.359
 2707SOL    HW2 9021   3.640   0.098   4.325
 2708SOL     OW 9022   0.391   2.209   6.926
 2708SOL    HW1 9023   0.478   2.231   6.883
 2708SOL    HW2 9024   0.377   2.268   7.006
 2709SOL     OW 9025   6.175   6.879   0.177
 2709SOL    HW1 9026   6.217   6.938   0.246
 2709SOL    HW2 9027   6.224   6.792   0.173
 2710SOL     OW 9028   1.346   3.769   3.524
 2710SOL    HW1 9029   1.336   3.672   3.500
 2710SOL    HW2 9030   1.345   3.779   3.623
 2711SOL     OW 9031   2.478   1.118   3.963
 2711SOL    HW1 9032   2.522   1.206   3.981
 2711SOL    HW2 9033   2.545   1.044   3.972
 2712SOL     OW 9034   2.905   4.580   0.981
 2712SOL    HW1 9035   2.983   4.524   0.952
 2712SOL    HW2 9036   2.842   4.524   1.034
 2713SOL     OW 9037   2.472   2.282   4.643
 2713SOL    HW1 9038   2.476   2.364   4.700
 2713SOL    HW2 9039   2.555   2.228   4.657
 2714SOL     OW 9040   3.854   2.538   0.609
 2714SOL    HW1 9041   3.863   2.637   0.614
 2714SOL    HW2 9042   3.757   2.513   0.605
 2715SOL     OW 9043   4.943   1.812   0.797
 2715SOL    HW1 9044   5.006   1.875   0.842
 2715SOL    HW2 9045   4.988   1.724   0.783
 2716SOL     OW 9046   5.039   4.260   2.579
 2716SOL    HW1 9047   5.088   4.346   2.560
 2716SOL    HW2 9048   5.057   4.232   2.673
 2717SOL     OW 9049   0.950   6.370   2.518
 2717SOL    HW1 9050   0.865   6.416   2.490
 2717SOL    HW2 9051   0.927   6.281   2.557
 2718SOL     OW 9052   2.098   1.983   4.777
 2718SOL    HW1 9053   2.122   2.080   4.784
 2718SOL    HW2 9054   2.048   1.955   4.859
 2719SOL     OW 9055   6.832   5.418   0.525
 2719SOL    HW1 9056   6.838   5.505   0.477
 2719SOL    HW2 9057   6.771   5.427   0.604
 2720SOL     OW 9058   1.922   6.686   1.965
 2720SOL    HW1 9059   1.863   6.737   2.028
 2720SOL    HW2 9060   1.996   6.642   2.017
 2721SOL     OW 9061   2.419   0.316   3.421
 2721SOL    HW1 9062   2.488   0.378   3.458
 2721SOL    HW2 9063   2.449   0.281   3.332
 2722SOL     OW 9064   6.840   5.630   1.150
 2722SOL    HW1 9065   6.821   5.724   1.177
 2722SOL    HW2 9066   6.886   5.582   1.225
 2723SOL     OW 9067   0.652   6.933   5.974
 2723SOL    HW1 9068   0.641   6.855   5.912
 2723SOL    HW2 9069   0.658   6.899   6.068
 2724SOL     OW 9070   1.799   6.808   0.069
 2724SOL    HW1 9071   1.773   6.867   0.145
 2724SOL    HW2 9072   1.863   6.856   0.009
 2725SOL     OW 9073   5.437   5.303   4.146
 2725SOL    HW1 9074   5.482   5.245   4.213
 2725SOL    HW2 9075   5.496   5.382   4.125
 2726SOL     OW 9076   6.961   2.871   1.060
 2726SOL    HW1 9077   6.952   2.835   1.153
 2726SOL    HW2 9078   6.969   2.971   1.064
 2727SOL     OW 9079   0.311   5.075   2.888
 2727SOL    HW1 9080   0.277   5.161   2.927
 2727SOL    HW2 9081   0.390   5.044   2.941
 2728SOL     OW 9082   4.678   6.267   5.877
 2728SOL    HW1 9083   4.698   6.176   5.843
 2728SOL    HW2 9084   4.651   6.262   5.973
 2729SOL     OW 9085   6.918   6.129   1.054
 2729SOL    HW1 9086   6.903   6.068   0.976
 2729SOL    HW2 9087   6.886   6.221   1.031
 2730SOL     OW 9088   1.563   5.691   1.526
 2730SOL    HW1 9089   1.568   5.790   1.512
 2730SOL    HW2 9090   1.636   5.646   1.474
 2731SOL     OW 9091   3.967   3.700   3.094
 2731SOL    HW1 9092   3.931   3.777   3.146
 2731SOL    HW2 9093   3.949   3.713   2.997
 2732SOL     OW 9094   5.538   2.087   1.571
 2732SOL    HW1 9095   5.575   2.154   1.507
 2732SOL    HW2 9096   5.471   2.030   1.524
 2733SOL     OW 9097   6.688   0.393   4.802
 2733SOL    HW1 9098   6.724   0.453   4.730
 2733SOL    HW2 9099   6.614   0.439   4.850
 2734SOL     OW 9100   2.508   6.222   1.812
 2734SOL    HW1 9101   2.498   6.132   1.854
 2734SOL    HW2 9102   2.603   6.253   1.818
 2735SOL     OW 9103   1.450   3.331   2.762
 2735SOL    HW1 9104   1.354   3.333   2.788
 2735SOL    HW2 9105   1.464   3.391   2.682
 2736SOL     OW 9106   4.828   6.723   5.524
 2736SOL    HW1 9107   4.866   6.788   5.458
 2736SOL    HW2 9108   4.754   6.671   5.480
 2737SOL     OW 9109   3.393   3.772   5.963
 2737SOL    HW1 9110   3.397   3.798   5.866
 2737SOL    HW2 9111   3.468   3.708   5.983
 2738SOL     OW 9112   4.886   6.049   2.655
 2738SOL    HW1 9113   4.882   5.995   2.570
 2738SOL    HW2 9114   4.794   6.054   2.695
 2739SOL     OW 9115   6.796   4.949   1.425
 2739SOL    HW1 9116   6.733   4.913   1.357
 2739SOL    HW2 9117   6.889   4.916   1.404
 2740SOL     OW 9118   6.888   3.961   2.397
 2740SOL    HW1 9119   6.825   4.038   2.392
 2740SOL    HW2 9120   6.981   3.993   2.379
 2741SOL     OW 9121   6.400   0.031   5.079
 2741SOL    HW1 9122   6.475   0.043   5.145
 2741SOL    HW2 9123   6.410   0.098   5.005
 2742SOL     OW 9124   2.644   5.772   6.785
 2742SOL    HW1 9125   2.553   5.731   6.791
 2742SOL    HW2 9126   2.694   5.733   6.708
 2743SOL     OW 9127   0.018   5.049   2.039
 2743SOL    HW1 9128   0.071   5.050   2.124
 2743SOL    HW2 9129   7.012   5.141   2.020
 2744SOL     OW 9130   5.326   2.056   6.302
 2744SOL    HW1 9131   5.266   2.107   6.240
 2744SOL    HW2 9132   5.417   2.097   6.302
 2745SOL     OW 9133   6.779   6.771   5.790
 2745SOL    HW1 9134   6.751   6.675   5.799
 2745SOL    HW2 9135   6.754   6.821   5.873
 2746SOL     OW 9136   2.426   2.204   3.764
 2746SOL    HW1 9137   2.497   2.243   3.706
 2746SOL    HW2 9138   2.377   2.133   3.713
 2747SOL     OW 9139   6.272   3.765   6.613
 2747SOL    HW1 9140   6.347   3.701   6.593
 2747SOL    HW2 9141   6.291   3.853   6.568
 2748SOL     OW 9142   5.378   1.438   1.134
 2748SOL    HW1 9143   5.373   1.339   1.141
 2748SOL    HW2 9144   5.442   1.473   1.203
 2749SOL     OW 9145   0.156   5.051   2.259
 2749SOL    HW1 9146   0.122   5.136   2.298
 2749SOL    HW2 9147   0.185   4.990   2.332
 2750SOL     OW 9148   0.916   5.503   1.144
 2750SOL    HW1 9149   0.832   5.525   1.096
 2750SOL    HW2 9150   0.900   5.504   1.242
 2751SOL     OW 9151   1.017   6.012   1.608
 2751SOL    HW1 9152   1.067   6.089   1.568
 2751SOL    HW2 9153   1.052   5.926   1.571
 2752SOL     OW 9154   3.998   5.211   6.090
 2752SOL    HW1 9155   4.014   5.119   6.055
 2752SOL    HW2 9156   3.905   5.240   6.065
 2753SOL     OW 9157   0.468   6.066   5.425
 2753SOL    HW1 9158   0.512   6.125   5.493
 2753SOL    HW2 9159   0.537   6.005   5.385
 2754SOL     OW 9160   0.316   0.664   2.848
 2754SOL    HW1 9161   0.365   0.718   2.779
 2754SOL    HW2 9162   0.351   0.687   2.939
 2755SOL     OW 9163   2.131   6.892   3.062
 2755SOL    HW1 9164   2.119   6.969   3.000
 2755SOL    HW2 9165   2.163   6.924   3.151
 2756SOL     OW 9166   6.105   4.815   6.735
 2756SOL    HW1 9167   6.076   4.761   6.814
 2756SOL    HW2 9168   6.155   4.756   6.671
 2757SOL     OW 9169   2.604   0.627   6.663
 2757SOL    HW1 9170   2.526   0.654   6.720
 2757SOL    HW2 9171   2.677   0.592   6.722
 2758SOL     OW 9172   4.464   6.807   3.584
 2758SOL    HW1 9173   4.366   6.787   3.589
 2758SOL    HW2 9174   4.493   6.807   3.488
 2759SOL     OW 9175   4.709   5.754   5.313
 2759SOL    HW1 9176   4.676   5.691   5.242
 2759SOL    HW2 9177   4.809   5.753   5.314
 2760SOL     OW 9178   0.376   5.954   2.827
 2760SOL    HW1 9179   0.451   5.900   2.789
 2760SOL    HW2 9180   0.291   5.933   2.779
 2761SOL     OW 9181   1.752   4.453   5.136
 2761SOL    HW1 9182   1.796   4.497   5.057
 2761SOL    HW2 9183   1.695   4.377   5.104
 2762SOL     OW 9184   1.928   0.301   6.179
 2762SOL    HW1 9185   2.021   0.268   6.160
 2762SOL    HW2 9186   1.905   0.374   6.115
 2763SOL     OW 9187   4.768   2.283   4.389
 2763SOL    HW1 9188   4.717   2.204   4.423
 2763SOL    HW2 9189   4.739   2.304   4.296
 2764SOL     OW 9190   6.641   1.223   1.269
 2764SOL    HW1 9191   6.645   1.309   1.320
 2764SOL    HW2 9192   6.674   1.237   1.176
 2765SOL     OW 9193   6.540   0.043   0.383
 2765SOL    HW1 9194   6.525   0.139   0.407
 2765SOL    HW2 9195   6.509   0.027   0.289
 2766SOL     OW 9196   5.112   2.807   0.376
 2766SOL    HW1 9197   5.013   2.819   0.389
 2766SOL    HW2 9198   5.160   2.832   0.460
 2767SOL     OW 9199   6.657   4.801   0.169
 2767SOL    HW1 9200   6.614   4.781   0.257
 2767SOL    HW2 9201   6.679   4.898   0.163
 2768SOL     OW 9202   4.396   0.499   1.235
 2768SOL    HW1 9203   4.477   0.550   1.209
 2768SOL    HW2 9204   4.316   0.533   1.185
 2769SOL     OW 9205   1.796   4.372   6.111
 2769SOL    HW1 9206   1.793   4.352   6.013
 2769SOL    HW2 9207   1.843   4.459   6.125
 2770SOL     OW 9208   4.454   5.420   5.943
 2770SOL    HW1 9209   4.438   5.502   5.998
 2770SOL    HW2 9210   4.517   5.359   5.992
 2771SOL     OW 9211   6.106   1.004   4.029
 2771SOL    HW1 9212   6.077   0.946   3.953
 2771SOL    HW2 9213   6.183   0.961   4.075
 2772SOL     OW 9214   3.947   1.854   0.401
 2772SOL    HW1 9215   3.916   1.942   0.366
 2772SOL    HW2 9216   4.043   1.840   0.378
 2773SOL     OW 9217   6.219   1.446   4.943
 2773SOL    HW1 9218   6.261   1.465   5.032
 2773SOL    HW2 9219   6.165   1.362   4.948
 2774SOL     OW 9220   5.096   2.724   2.993
 2774SOL    HW1 9221   5.098   2.647   3.057
 2774SOL    HW2 9222   5.012   2.719   2.938
 2775SOL     OW 9223   6.842   4.064   5.270
 2775SOL    HW1 9224   6.874   4.159   5.268
 2775SOL    HW2 9225   6.849   4.024   5.179
 2776SOL     OW 9226   4.708   4.782   5.989
 2776SOL    HW1 9227   4.766   4.847   5.939
 2776SOL    HW2 9228   4.682   4.707   5.930
 2777SOL     OW 9229   2.857   1.669   1.384
 2777SOL    HW1 9230   2.818   1.670   1.476
 2777SOL    HW2 9231   2.957   1.673   1.389
 2778SOL     OW 9232   1.762   6.861   5.321
 2778SOL    HW1 9233   1.737   6.957   5.308
 2778SOL    HW2 9234   1.787   6.821   5.233
 2779SOL     OW 9235   5.340   6.354   2.326
 2779SOL    HW1 9236   5.298   6.402   2.404
 2779SOL    HW2 9237   5.374   6.265   2.357
 2780SOL     OW 9238   0.738   6.561   6.917
 2780SOL    HW1 9239   0.737   6.483   6.980
 2780SOL    HW2 9240   0.677   6.632   6.952
 2781SOL     OW 9241   5.953   0.376   2.250
 2781SOL    HW1 9242   6.047   0.397   2.223
 2781SOL    HW2 9243   5.952   0.291   2.303
 2782SOL     OW 9244   4.624   1.204   5.353
 2782SOL    HW1 9245   4.618   1.235   5.258
 2782SOL    HW2 9246   4.553   1.250   5.407
 2783SOL     OW 9247   5.088   4.201   2.821
 2783SOL    HW1 9248   5.132   4.112   2.811
 2783SOL    HW2 9249   4.993   4.189   2.848
 2784SOL     OW 9250   3.162   1.286   2.096
 2784SOL    HW1 9251   3.220   1.349   2.148
 2784SOL    HW2 9252   3.068   1.320   2.094
 2785SOL     OW 9253   5.470   2.688   0.691
 2785SOL    HW1 9254   5.423   2.603   0.666
 2785SOL    HW2 9255   5.530   2.671   0.769
 2786SOL     OW 9256   4.590   6.647   2.901
 2786SOL    HW1 9257   4.523   6.626   2.972
 2786SOL    HW2 9258   4.546   6.697   2.827
 2787SOL     OW 9259   5.597   0.298   6.166
 2787SOL    HW1 9260   5.506   0.305   6.206
 2787SOL    HW2 9261   5.623   0.386   6.126
 2788SOL     OW 9262   2.019   5.621   5.949
 2788SOL    HW1 9263   2.027   5.639   6.047
 2788SOL    HW2 9264   2.061   5.696   5.898
 2789SOL     OW 9265   1.447   2.174   3.909
 2789SOL    HW1 9266   1.402   2.233   3.842
 2789SOL    HW2 9267   1.411   2.081   3.901
 2790SOL     OW 9268   3.575   5.737   2.021
 2790SOL    HW1 9269   3.561   5.668   2.092
 2790SOL    HW2 9270   3.672   5.762   2.019
 2791SOL     OW 9271   0.637   2.571   2.833
 2791SOL    HW1 9272   0.702   2.529   2.770
 2791SOL    HW2 9273   0.611   2.661   2.798
 2792SOL     OW 9274   1.762   0.557   3.912
 2792SOL    HW1 9275   1.740   0.648   3.948
 2792SOL    HW2 9276   1.777   0.494   3.988
 2793SOL     OW 9277   5.297   3.686   1.762
 2793SOL    HW1 9278   5.237   3.728   1.830
 2793SOL    HW2 9279   5.289   3.735   1.675
 2794SOL     OW 9280   6.965   1.923   6.251
 2794SOL    HW1 9281   7.007   1.987   6.186
 2794SOL    HW2 9282   6.922   1.974   6.325
 2795SOL     OW 9283   0.628   3.673   0.709
 2795SOL    HW1 9284   0.721   3.685   0.742
 2795SOL    HW2 9285   0.630   3.633   0.617
 2796SOL     OW 9286   0.213   6.490   2.923
 2796SOL    HW1 9287   0.202   6.561   2.992
 2796SOL    HW2 9288   0.215   6.400   2.967
 2797SOL     OW 9289   5.138   5.624   4.781
 2797SOL    HW1 9290   5.049   5.664   4.801
 2797SOL    HW2 9291   5.208   5.667   4.839
 2798SOL     OW 9292   6.936   5.320   2.115
 2798SOL    HW1 9293   6.853   5.302   2.167
 2798SOL    HW2 9294   6.997   5.378   2.169
 2799SOL     OW 9295   6.039   5.394   5.696
 2799SOL    HW1 9296   6.038   5.355   5.603
 2799SOL    HW2 9297   6.130   5.432   5.714
 2800SOL     OW 9298   4.752   6.214   6.431
 2800SOL    HW1 9299   4.762   6.214   6.530
 2800SOL    HW2 9300   4.750   6.120   6.397
 2801SOL     OW 9301   7.016   5.554   5.737
 2801SOL    HW1 9302   6.967   5.548   5.650
 2801SOL    HW2 9303   6.985   5.635   5.787
 2802SOL     OW 9304   5.537   6.011   5.546
 2802SOL    HW1 9305   5.445   5.977   5.528
 2802SOL    HW2 9306   5.573   6.053   5.463
 2803SOL     OW 9307   4.386   5.389   6.226
 2803SOL    HW1 9308   4.383   5.289   6.224
 2803SOL    HW2 9309   4.461   5.418   6.286
 2804SOL     OW 9310   0.270   4.580   5.588
 2804SOL    HW1 9311   0.183   4.546   5.623
 2804SOL    HW2 9312   0.270   4.575   5.488
 2805SOL     OW 9313   6.143   3.439   2.368
 2805SOL    HW1 9314   6.142   3.502   2.446
 2805SOL    HW2 9315   6.050   3.404   2.353
 2806SOL     OW 9316   0.689   4.370   5.446
 2806SOL    HW1 9317   0.609   4.330   5.490
 2806SOL    HW2 9318   0.772   4.341   5.493
 2807SOL     OW 9319   3.521   6.920   4.342
 2807SOL    HW1 9320   3.430   6.945   4.308
 2807SOL    HW2 9321   3.512   6.865   4.425
 2808SOL     OW 9322   6.651   5.145   1.890
 2808SOL    HW1 9323   6.677   5.157   1.985
 2808SOL    HW2 9324   6.584   5.070   1.882
 2809SOL     OW 9325   5.419   2.794   0.983
 2809SOL    HW1 9326   5.405   2.835   0.893
 2809SOL    HW2 9327   5.415   2.865   1.053
 2810SOL     OW 9328   2.884   5.796   3.107
 2810SOL    HW1 9329   2.785   5.787   3.095
 2810SOL    HW2 9330   2.909   5.893   3.115
 2811SOL     OW 9331   1.377   2.108   4.193
 2811SOL    HW1 9332   1.394   2.132   4.098
 2811SOL    HW2 9333   1.352   2.012   4.200
 2812SOL     OW 9334   5.229   3.173   6.904
 2812SOL    HW1 9335   5.191   3.081   6.910
 2812SOL    HW2 9336   5.157   3.236   6.873
 2813SOL     OW 9337   0.715   0.621   6.471
 2813SOL    HW1 9338   0.790   0.590   6.530
 2813SOL    HW2 9339   0.635   0.562   6.485
 2814SOL     OW 9340   3.449   3.822   5.448
 2814SOL    HW1 9341   3.439   3.918   5.422
 2814SOL    HW2 9342   3.517   3.778   5.389
 2815SOL     OW 9343   0.096   5.754   6.516
 2815SOL    HW1 9344   0.108   5.816   6.439
 2815SOL    HW2 9345   0.037   5.678   6.489
 2816SOL     OW 9346   6.658   6.043   3.325
 2816SOL    HW1 9347   6.573   6.095   3.319
 2816SOL    HW2 9348   6.706   6.068   3.409
 2817SOL     OW 9349   3.101   7.021   1.910
 2817SOL    HW1 9350   3.082   6.963   1.989
 2817SOL    HW2 9351   3.158   6.971   1.845
 2818SOL     OW 9352   0.501   0.684   2.320
 2818SOL    HW1 9353   0.447   0.636   2.250
 2818SOL    HW2 9354   0.496   0.783   2.303
 2819SOL     OW 9355   2.260   0.857   1.501
 2819SOL    HW1 9356   2.359   0.873   1.498
 2819SOL    HW2 9357   2.214   0.934   1.456
 2820SOL     OW 9358   1.081   2.167   3.669
 2820SOL    HW1 9359   1.107   2.170   3.766
 2820SOL    HW2 9360   1.159   2.193   3.613
 2821SOL     OW 9361   3.503   4.798   6.204
 2821SOL    HW1 9362   3.525   4.767   6.112
 2821SOL    HW2 9363   3.578   4.775   6.266
 2822SOL     OW 9364   3.709   1.776   0.553
 2822SOL    HW1 9365   3.790   1.781   0.495
 2822SOL    HW2 9366   3.687   1.868   0.586
 2823SOL     OW 9367   5.523   0.917   1.139
 2823SOL    HW1 9368   5.455   0.882   1.203
 2823SOL    HW2 9369   5.477   0.961   1.062
 2824SOL     OW 9370   2.396   1.448   4.339
 2824SOL    HW1 9371   2.336   1.505   4.395
 2824SOL    HW2 9372   2.488   1.486   4.340
 2825SOL     OW 9373   4.799   6.034   6.703
 2825SOL    HW1 9374   4.778   5.945   6.663
 2825SOL    HW2 9375   4.874   6.023   6.769
 2826SOL     OW 9376   5.034   1.450   6.715
 2826SOL    HW1 9377   5.020   1.548   6.699
 2826SOL    HW2 9378   4.980   1.422   6.794
 2827SOL     OW 9379   0.492   1.419   6.548
 2827SOL    HW1 9380   0.525   1.489   6.485
 2827SOL    HW2 9381   0.449   1.463   6.627
 2828SOL     OW 9382   2.295   2.489   0.389
 2828SOL    HW1 9383   2.237   2.419   0.347
 2828SOL    HW2 9384   2.380   2.446   0.421
 2829SOL     OW 9385   3.122   3.063   4.484
 2829SOL    HW1 9386   3.194   3.004   4.521
 2829SOL    HW2 9387   3.148   3.096   4.394
 2830SOL     OW 9388   3.216   4.207   5.452
 2830SOL    HW1 9389   3.164   4.168   5.528
 2830SOL    HW2 9390   3.157   4.214   5.372
 2831SOL     OW 9391   0.882   4.031   3.238
 2831SOL    HW1 9392   0.831   3.998   3.318
 2831SOL    HW2 9393   0.934   3.955   3.199
 2832SOL     OW 9394   0.947   3.302   1.934
 2832SOL    HW1 9395   1.004   3.226   1.904
 2832SOL    HW2 9396   0.854   3.269   1.952
 2833SOL     OW 9397   2.704   1.670   2.481
 2833SOL    HW1 9398   2.636   1.706   2.418
 2833SOL    HW2 9399   2.785   1.729   2.480
 2834SOL     OW 9400   4.013   6.613   5.813
 2834SOL    HW1 9401   4.095   6.667   5.834
 2834SOL    HW2 9402   4.025   6.520   5.846
 2835SOL     OW 9403   0.411   6.088   1.537
 2835SOL    HW1 9404   0.439   6.111   1.630
 2835SOL    HW2 9405   0.335   6.147   1.509
 2836SOL     OW 9406   0.623   6.432   1.857
 2836SOL    HW1 9407   0.554   6.467   1.920
 2836SOL    HW2 9408   0.648   6.339   1.883
 2837SOL     OW 9409   4.632   4.367   2.664
 2837SOL    HW1 9410   4.577   4.357   2.747
 2837SOL    HW2 9411   4.706   4.300   2.665
 2838SOL     OW 9412   3.960   3.938   0.850
 2838SOL    HW1 9413   4.038   3.906   0.796
 2838SOL    HW2 9414   3.981   3.927   0.948
 2839SOL     OW 9415   6.982   2.285   3.387
 2839SOL    HW1 9416   7.006   2.309   3.292
 2839SOL    HW2 9417   6.888   2.313   3.406
 2840SOL     OW 9418   1.818   0.277   1.903
 2840SOL    HW1 9419   1.770   0.364   1.911
 2840SOL    HW2 9420   1.870   0.259   1.986
 2841SOL     OW 9421   6.137   1.447   6.159
 2841SOL    HW1 9422   6.045   1.470   6.127
 2841SOL    HW2 9423   6.158   1.353   6.132
 2842SOL     OW 9424   6.916   4.663   3.941
 2842SOL    HW1 9425   6.939   4.577   3.987
 2842SOL    HW2 9426   6.874   4.725   4.008
 2843SOL     OW 9427   2.094   2.140   2.974
 2843SOL    HW1 9428   2.039   2.220   2.995
 2843SOL    HW2 9429   2.179   2.169   2.929
 2844SOL     OW 9430   6.199   5.185   6.777
 2844SOL    HW1 9431   6.206   5.117   6.704
 2844SOL    HW2 9432   6.163   5.141   6.860
 2845SOL     OW 9433   5.756   3.513   2.513
 2845SOL    HW1 9434   5.812   3.437   2.481
 2845SOL    HW2 9435   5.767   3.523   2.612
 2846SOL     OW 9436   3.873   0.411   0.492
 2846SOL    HW1 9437   3.905   0.461   0.412
 2846SOL    HW2 9438   3.889   0.465   0.575
 2847SOL     OW 9439   5.432   4.205   2.737
 2847SOL    HW1 9440   5.341   4.166   2.731
 2847SOL    HW2 9441   5.449   4.236   2.831
 2848SOL     OW 9442   2.044   2.446   4.769
 2848SOL    HW1 9443   1.952   2.427   4.803
 2848SOL    HW2 9444   2.040   2.464   4.670
 2849SOL     OW 9445   3.999   0.523   0.721
 2849SOL    HW1 9446   3.912   0.534   0.770
 2849SOL    HW2 9447   4.072   0.505   0.787
 2850SOL     OW 9448   1.797   0.100   2.510
 2850SOL    HW1 9449   1.862   0.102   2.586
 2850SOL    HW2 9450   1.730   0.173   2.521
 2851SOL     OW 9451   5.469   2.339   5.981
 2851SOL    HW1 9452   5.439   2.403   6.051
 2851SOL    HW2 9453   5.476   2.247   6.021
 2852SOL     OW 9454   0.020   4.462   6.610
 2852SOL    HW1 9455   0.033   4.543   6.552
 2852SOL    HW2 9456   0.106   4.412   6.618
 2853SOL     OW 9457   1.805   1.998   5.971
 2853SOL    HW1 9458   1.817   2.072   5.905
 2853SOL    HW2 9459   1.826   1.910   5.928
 2854SOL     OW 9460   4.643   0.917   5.894
 2854SOL    HW1 9461   4.646   0.990   5.963
 2854SOL    HW2 9462   4.731   0.870   5.892
 2855SOL     OW 9463   2.099   1.672   5.919
 2855SOL    HW1 9464   2.036   1.642   5.848
 2855SOL    HW2 9465   2.185   1.621   5.911
 2856SOL     OW 9466   0.426   3.547   5.413
 2856SOL    HW1 9467   0.343   3.506   5.375
 2856SOL    HW2 9468   0.436   3.521   5.509
 2857SOL     OW 9469   1.449   2.760   1.415
 2857SOL    HW1 9470   1.368   2.701   1.412
 2857SOL    HW2 9471   1.501   2.740   1.497
 2858SOL     OW 9472   4.405   5.034   1.956
 2858SOL    HW1 9473   4.334   5.064   2.020
 2858SOL    HW2 9474   4.459   4.961   1.999
 2859SOL     OW 9475   6.367   6.670   0.141
 2859SOL    HW1 9476   6.347   6.576   0.112
 2859SOL    HW2 9477   6.442   6.669   0.206
 2860SOL     OW 9478   1.932   1.540   1.862
 2860SOL    HW1 9479   1.958   1.469   1.926
 2860SOL    HW2 9480   2.004   1.609   1.857
 2861SOL     OW 9481   3.070   5.322   6.262
 2861SOL    HW1 9482   3.044   5.228   6.287
 2861SOL    HW2 9483   2.994   5.384   6.282
 2862SOL     OW 9484   4.270   1.559   1.734
 2862SOL    HW1 9485   4.279   1.630   1.804
 2862SOL    HW2 9486   4.334   1.578   1.659
 2863SOL     OW 9487   4.577   1.551   6.844
 2863SOL    HW1 9488   4.550   1.546   6.748
 2863SOL    HW2 9489   4.495   1.547   6.902
 2864SOL     OW 9490   4.777   2.226   1.120
 2864SOL    HW1 9491   4.787   2.127   1.128
 2864SOL    HW2 9492   4.828   2.258   1.040
 2865SOL     OW 9493   3.999   6.356   4.573
 2865SOL    HW1 9494   4.016   6.340   4.670
 2865SOL    HW2 9495   4.086   6.364   4.524
 2866SOL     OW 9496   5.414   5.089   6.453
 2866SOL    HW1 9497   5.512   5.086   6.469
 2866SOL    HW2 9498   5.366   5.080   6.540
 2867SOL     OW 9499   6.002   6.126   2.783
 2867SOL    HW1 9500   5.957   6.198   2.836
 2867SOL    HW2 9501   6.101   6.143   2.782
 2868SOL     OW 9502   2.009   1.326   5.881
 2868SOL    HW1 9503   1.970   1.335   5.789
 2868SOL    HW2 9504   2.109   1.332   5.875
 2869SOL     OW 9505   6.975   1.098   2.791
 2869SOL    HW1 9506   6.998   1.138   2.880
 2869SOL    HW2 9507   6.926   1.012   2.804
 2870SOL     OW 9508   0.476   1.863   5.682
 2870SOL    HW1 9509   0.519   1.787   5.634
 2870SOL    HW2 9510   0.388   1.884   5.640
 2871SOL     OW 9511   6.019   1.045   6.908
 2871SOL    HW1 9512   5.923   1.022   6.899
 2871SOL    HW2 9513   6.074   0.962   6.916
 2872SOL     OW 9514   2.489   2.242   1.783
 2872SOL    HW1 9515   2.413   2.297   1.816
 2872SOL    HW2 9516   2.564   2.246   1.849
 2873SOL     OW 9517   6.690   5.789   2.063
 2873SOL    HW1 9518   6.644   5.757   1.980
 2873SOL    HW2 9519   6.785   5.811   2.041
 2874SOL     OW 9520   4.790   7.009   2.879
 2874SOL    HW1 9521   4.761   0.041   2.953
 2874SOL    HW2 9522   4.880   6.971   2.900
 2875SOL     OW 9523   5.373   0.139   1.793
 2875SOL    HW1 9524   5.336   0.184   1.875
 2875SOL    HW2 9525   5.298   0.107   1.736
 2876SOL     OW 9526   2.121   0.609   2.680
 2876SOL    HW1 9527   2.195   0.673   2.705
 2876SOL    HW2 9528   2.088   0.630   2.588
 2877SOL     OW 9529   2.625   1.447   5.160
 2877SOL    HW1 9530   2.558   1.393   5.210
 2877SOL    HW2 9531   2.717   1.414   5.181
 2878SOL     OW 9532   3.857   4.334   5.363
 2878SOL    HW1 9533   3.819   4.267   5.427
 2878SOL    HW2 9534   3.948   4.305   5.334
 2879SOL     OW 9535   5.015   5.031   6.498
 2879SOL    HW1 9536   5.002   5.042   6.400
 2879SOL    HW2 9537   5.085   4.961   6.514
 2880SOL     OW 9538   0.255   2.180   2.768
 2880SOL    HW1 9539   0.184   2.249   2.783
 2880SOL    HW2 9540   0.280   2.179   2.672
 2881SOL     OW 9541   4.093   6.041   6.575
 2881SOL    HW1 9542   4.043   5.987   6.507
 2881SOL    HW2 9543   4.072   6.008   6.667
 2882SOL     OW 9544   0.169   5.608   1.635
 2882SOL    HW1 9545   0.150   5.638   1.541
 2882SOL    HW2 9546   0.192   5.510   1.634
 2883SOL     OW 9547   6.077   0.229   3.848
 2883SOL    HW1 9548   5.986   0.254   3.817
 2883SOL    HW2 9549   6.133   0.311   3.857
 2884SOL     OW 9550   0.487   6.760   3.192
 2884SOL    HW1 9551   0.518   6.765   3.097
 2884SOL    HW2 9552   0.415   6.692   3.200
 2885SOL     OW 9553   1.835   3.950   3.918
 2885SOL    HW1 9554   1.801   4.000   3.839
 2885SOL    HW2 9555   1.931   3.925   3.904
 2886SOL     OW 9556   1.042   2.961   6.066
 2886SOL    HW1 9557   1.014   3.030   6.132
 2886SOL    HW2 9558   0.986   2.968   5.984
 2887SOL     OW 9559   0.494   6.513   5.612
 2887SOL    HW1 9560   0.585   6.555   5.613
 2887SOL    HW2 9561   0.424   6.585   5.619
 2888SOL     OW 9562   6.814   4.371   6.191
 2888SOL    HW1 9563   6.889   4.435   6.170
 2888SOL    HW2 9564   6.835   4.322   6.275
 2889SOL     OW 9565   2.999   6.402   2.702
 2889SOL    HW1 9566   3.082   6.355   2.671
 2889SOL    HW2 9567   2.919   6.359   2.660
 2890SOL     OW 9568   1.515   5.949   0.513
 2890SOL    HW1 9569   1.492   5.946   0.610
 2890SOL    HW2 9570   1.567   5.868   0.488
 2891SOL     OW 9571   0.406   4.818   3.296
 2891SOL    HW1 9572   0.406   4.800   3.197
 2891SOL    HW2 9573   0.448   4.741   3.344
 2892SOL     OW 9574   6.401   3.554   0.949
 2892SOL    HW1 9575   6.343   3.475   0.970
 2892SOL    HW2 9576   6.461   3.531   0.873
 2893SOL     OW 9577   0.225   5.618   4.620
 2893SOL    HW1 9578   0.202   5.632   4.524
 2893SOL    HW2 9579   0.156   5.561   4.663
 2894SOL     OW 9580   0.234   2.806   1.921
 2894SOL    HW1 9581   0.212   2.895   1.882
 2894SOL    HW2 9582   0.281   2.750   1.852
 2895SOL     OW 9583   4.822   1.108   5.541
 2895SOL    HW1 9584   4.764   1.131   5.464
 2895SOL    HW2 9585   4.894   1.045   5.511
 2896SOL     OW 9586   4.481   6.767   5.801
 2896SOL    HW1 9587   4.388   6.739   5.826
 2896SOL    HW2 9588   4.479   6.815   5.713
 2897SOL     OW 9589   3.880   4.912   2.882
 2897SOL    HW1 9590   3.829   4.932   2.965
 2897SOL    HW2 9591   3.817   4.914   2.804
 2898SOL     OW 9592   4.529   4.651   4.508
 2898SOL    HW1 9593   4.456   4.644   4.440
 2898SOL    HW2 9594   4.489   4.662   4.599
 2899SOL     OW 9595   0.626   1.672   0.457
 2899SOL    HW1 9596   0.721   1.653   0.482
 2899SOL    HW2 9597   0.616   1.771   0.441
 2900SOL     OW 9598   2.715   4.171   6.214
 2900SOL    HW1 9599   2.692   4.233   6.288
 2900SOL    HW2 9600   2.761   4.222   6.141
 2901SOL     OW 9601   2.294   4.760   2.807
 2901SOL    HW1 9602   2.359   4.687   2.831
 2901SOL    HW2 9603   2.237   4.781   2.887
 2902SOL     OW 9604   5.979   5.712   3.126
 2902SOL    HW1 9605   6.038   5.732   3.204
 2902SOL    HW2 9606   5.898   5.663   3.157
 2903SOL     OW 9607   3.984   0.236   0.720
 2903SOL    HW1 9608   3.957   0.331   0.705
 2903SOL    HW2 9609   3.903   0.180   0.738
 2904SOL     OW 9610   2.453   4.823   4.091
 2904SOL    HW1 9611   2.524   4.752   4.091
 2904SOL    HW2 9612   2.483   4.900   4.146
 2905SOL     OW 9613   1.431   3.465   4.771
 2905SOL    HW1 9614   1.449   3.559   4.741
 2905SOL    HW2 9615   1.431   3.404   4.692
 2906SOL     OW 9616   4.747   5.073   2.625
 2906SOL    HW1 9617   4.763   5.062   2.527
 2906SOL    HW2 9618   4.656   5.110   2.640
 2907SOL     OW 9619   0.247   1.575   3.854
 2907SOL    HW1 9620   0.193   1.524   3.787
 2907SOL    HW2 9621   0.246   1.672   3.830
 2908SOL     OW 9622   4.799   6.625   3.498
 2908SOL    HW1 9623   4.725   6.580   3.548
 2908SOL    HW2 9624   4.873   6.561   3.482
 2909SOL     OW 9625   1.429   5.529   3.682
 2909SOL    HW1 9626   1.380   5.541   3.768
 2909SOL    HW2 9627   1.525   5.553   3.696
 2910SOL     OW 9628   5.734   1.413   4.217
 2910SOL    HW1 9629   5.659   1.467   4.178
 2910SOL    HW2 9630   5.766   1.346   4.150
 2911SOL     OW 9631   1.554   5.964   3.659
 2911SOL    HW1 9632   1.592   5.985   3.569
 2911SOL    HW2 9633   1.455   5.979   3.658
 2912SOL     OW 9634   5.251   6.653   0.506
 2912SOL    HW1 9635   5.332   6.708   0.490
 2912SOL    HW2 9636   5.248   6.623   0.601
 2913SOL     OW 9637   3.227   5.168   2.200
 2913SOL    HW1 9638   3.281   5.235   2.251
 2913SOL    HW2 9639   3.257   5.076   2.224
 2914SOL     OW 9640   6.801   6.199   6.446
 2914SOL    HW1 9641   6.750   6.154   6.374
 2914SOL    HW2 9642   6.855   6.274   6.407
 2915SOL     OW 9643   3.751   1.629   3.944
 2915SOL    HW1 9644   3.794   1.543   3.917
 2915SOL    HW2 9645   3.729   1.683   3.863
 2916SOL     OW 9646   1.396   5.591   0.589
 2916SOL    HW1 9647   1.310   5.551   0.556
 2916SOL    HW2 9648   1.472   5.556   0.535
 2917SOL     OW 9649   2.267   0.535   3.130
 2917SOL    HW1 9650   2.300   0.553   3.222
 2917SOL    HW2 9651   2.237   0.440   3.122
 2918SOL     OW 9652   6.312   4.523   5.275
 2918SOL    HW1 9653   6.354   4.503   5.363
 2918SOL    HW2 9654   6.254   4.446   5.247
 2919SOL     OW 9655   5.579   0.563   2.432
 2919SOL    HW1 9656   5.495   0.611   2.459
 2919SOL    HW2 9657   5.656   0.598   2.485
 2920SOL     OW 9658   3.301   1.293   1.433
 2920SOL    HW1 9659   3.240   1.367   1.404
 2920SOL    HW2 9660   3.372   1.280   1.364
 2921SOL     OW 9661   0.702   6.602   4.498
 2921SOL    HW1 9662   0.619   6.657   4.509
 2921SOL    HW2 9663   0.780   6.651   4.537
 2922SOL     OW 9664   4.729   0.073   1.225
 2922SOL    HW1 9665   4.699   0.105   1.135
 2922SOL    HW2 9666   4.806   0.128   1.256
 2923SOL     OW 9667   6.147   5.007   2.899
 2923SOL    HW1 9668   6.161   5.104   2.880
 2923SOL    HW2 9669   6.049   4.988   2.905
 2924SOL     OW 9670   6.278   1.652   5.658
 2924SOL    HW1 9671   6.249   1.747   5.669
 2924SOL    HW2 9672   6.242   1.597   5.733
 2925SOL     OW 9673   4.855   2.082   1.537
 2925SOL    HW1 9674   4.817   1.989   1.532
 2925SOL    HW2 9675   4.869   2.107   1.633
 2926SOL     OW 9676   5.726   1.392   5.619
 2926SOL    HW1 9677   5.703   1.297   5.639
 2926SOL    HW2 9678   5.780   1.429   5.695
 2927SOL     OW 9679   1.567   3.945   1.573
 2927SOL    HW1 9680   1.487   3.960   1.514
 2927SOL    HW2 9681   1.562   4.006   1.652
 2928SOL     OW 9682   0.549   0.643   6.858
 2928SOL    HW1 9683   0.583   0.702   6.931
 2928SOL    HW2 9684   0.455   0.615   6.878
 2929SOL     OW 9685   1.262   2.322   6.437
 2929SOL    HW1 9686   1.215   2.376   6.368
 2929SOL    HW2 9687   1.223   2.341   6.527
 2930SOL     OW 9688   5.572   6.551   5.341
 2930SOL    HW1 9689   5.483   6.529   5.301
 2930SOL    HW2 9690   5.588   6.495   5.422
 2931SOL     OW 9691   5.557   4.710   6.682
 2931SOL    HW1 9692   5.599   4.709   6.773
 2931SOL    HW2 9693   5.611   4.654   6.620
 2932SOL     OW 9694   1.133   5.604   2.255
 2932SOL    HW1 9695   1.152   5.697   2.223
 2932SOL    HW2 9696   1.164   5.538   2.186
 2933SOL     OW 9697   0.985   5.541   2.650
 2933SOL    HW1 9698   0.924   5.617   2.627
 2933SOL    HW2 9699   1.070   5.578   2.688
 2934SOL     OW 9700   5.256   1.168   0.011
 2934SOL    HW1 9701   5.305   1.254   7.026
 2934SOL    HW2 9702   5.160   1.180   7.015
 2935SOL     OW 9703   0.181   2.814   6.641
 2935SOL    HW1 9704   0.168   2.731   6.586
 2935SOL    HW2 9705   0.259   2.802   6.703
 2936SOL     OW 9706   4.315   6.428   0.848
 2936SOL    HW1 9707   4.254   6.506   0.857
 2936SOL    HW2 9708   4.267   6.344   0.874
 2937SOL     OW 9709   5.695   4.558   1.488
 2937SOL    HW1 9710   5.716   4.596   1.397
 2937SOL    HW2 9711   5.738   4.468   1.496
 2938SOL     OW 9712   4.840   5.087   6.860
 2938SOL    HW1 9713   4.842   5.118   6.955
 2938SOL    HW2 9714   4.749   5.051   6.839
 2939SOL     OW 9715   2.099   0.971   2.453
 2939SOL    HW1 9716   2.196   0.950   2.467
 2939SOL    HW2 9717   2.044   0.895   2.489
 2940SOL     OW 9718   5.803   4.678   5.480
 2940SOL    HW1 9719   5.815   4.594   5.533
 2940SOL    HW2 9720   5.887   4.699   5.431
 2941SOL     OW 9721   1.371   2.247   4.421
 2941SOL    HW1 9722   1.361   2.204   4.331
 2941SOL    HW2 9723   1.444   2.200   4.472
 2942SOL     OW 9724   3.588   2.486   0.675
 2942SOL    HW1 9725   3.514   2.513   0.737
 2942SOL    HW2 9726   3.550   2.465   0.585
 2943SOL     OW 9727   5.401   3.760   3.689
 2943SOL    HW1 9728   5.463   3.834   3.663
 2943SOL    HW2 9729   5.453   3.676   3.702
 2944SOL     OW 9730   2.430   6.187   4.225
 2944SOL    HW1 9731   2.388   6.099   4.246
 2944SOL    HW2 9732   2.441   6.195   4.126
 2945SOL     OW 9733   3.330   3.791   3.168
 2945SOL    HW1 9734   3.268   3.849   3.220
 2945SOL    HW2 9735   3.423   3.800   3.205
 2946SOL     OW 9736   1.320   4.714   5.454
 2946SOL    HW1 9737   1.400   4.687   5.400
 2946SOL    HW2 9738   1.310   4.813   5.451
 2947SOL     OW 9739   0.175   4.612   1.568
 2947SOL    HW1 9740   0.235   4.597   1.489
 2947SOL    HW2 9741   0.171   4.709   1.589
 2948SOL     OW 9742   0.563   3.852   4.439
 2948SOL    HW1 9743   0.567   3.837   4.538
 2948SOL    HW2 9744   0.543   3.766   4.393
 2949SOL     OW 9745   2.192   5.154   0.772
 2949SOL    HW1 9746   2.113   5.116   0.724
 2949SOL    HW2 9747   2.255   5.080   0.796
 2950SOL     OW 9748   5.416   5.279   3.709
 2950SOL    HW1 9749   5.418   5.373   3.741
 2950SOL    HW2 9750   5.345   5.268   3.640
 2951SOL     OW 9751   5.274   1.437   2.312
 2951SOL    HW1 9752   5.275   1.399   2.220
 2951SOL    HW2 9753   5.225   1.375   2.373
 2952SOL     OW 9754   6.762   5.235   4.686
 2952SOL    HW1 9755   6.811   5.182   4.755
 2952SOL    HW2 9756   6.715   5.312   4.731
 2953SOL     OW 9757   5.888   3.894   2.591
 2953SOL    HW1 9758   5.943   3.830   2.538
 2953SOL    HW2 9759   5.880   3.980   2.541
 2954SOL     OW 9760   1.021   5.285   2.161
 2954SOL    HW1 9761   1.057   5.331   2.243
 2954SOL    HW2 9762   1.017   5.187   2.178
 2955SOL     OW 9763   0.520   3.769   1.613
 2955SOL    HW1 9764   0.557   3.690   1.564
 2955SOL    HW2 9765   0.430   3.745   1.650
 2956SOL     OW 9766   5.566   5.770   3.142
 2956SOL    HW1 9767   5.486   5.752   3.085
 2956SOL    HW2 9768   5.554   5.725   3.231
 2957SOL     OW 9769   5.780   3.630   1.908
 2957SOL    HW1 9770   5.791   3.583   1.820
 2957SOL    HW2 9771   5.862   3.616   1.964
 2958SOL     OW 9772   2.244   4.548   3.246
 2958SOL    HW1 9773   2.326   4.548   3.188
 2958SOL    HW2 9774   2.164   4.570   3.190
 2959SOL     OW 9775   5.053   3.402   0.877
 2959SOL    HW1 9776   5.056   3.316   0.828
 2959SOL    HW2 9777   5.119   3.466   0.837
 2960SOL     OW 9778   3.029   0.429   0.753
 2960SOL    HW1 9779   3.000   0.493   0.824
 2960SOL    HW2 9780   2.956   0.418   0.686
 2961SOL     OW 9781   5.717   4.107   3.004
 2961SOL    HW1 9782   5.754   4.031   2.949
 2961SOL    HW2 9783   5.659   4.070   3.076
 2962SOL     OW 9784   4.160   6.474   3.113
 2962SOL    HW1 9785   4.212   6.432   3.038
 2962SOL    HW2 9786   4.100   6.545   3.075
 2963SOL     OW 9787   1.941   0.986   6.009
 2963SOL    HW1 9788   1.966   1.081   6.030
 2963SOL    HW2 9789   1.942   0.933   6.094
 2964SOL     OW 9790   0.349   0.796   4.495
 2964SOL    HW1 9791   0.399   0.730   4.439
 2964SOL    HW2 9792   0.251   0.775   4.492
 2965SOL     OW 9793   0.438   0.590   4.302
 2965SOL    HW1 9794   0.519   0.546   4.342
 2965SOL    HW2 9795   0.361   0.527   4.306
 2966SOL     OW 9796   4.175   5.273   3.356
 2966SOL    HW1 9797   4.214   5.274   3.448
 2966SOL    HW2 9798   4.239   5.228   3.294
 2967SOL     OW 9799   6.236   0.786   4.800
 2967SOL    HW1 9800   6.192   0.862   4.752
 2967SOL    HW2 9801   6.166   0.731   4.846
 2968SOL     OW 9802   0.925   2.937   0.618
 2968SOL    HW1 9803   0.948   2.840   0.626
 2968SOL    HW2 9804   0.999   2.984   0.569
 2969SOL     OW 9805   5.268   2.366   4.418
 2969SOL    HW1 9806   5.310   2.363   4.328
 2969SOL    HW2 9807   5.205   2.289   4.428
 2970SOL     OW 9808   2.475   3.125   5.605
 2970SOL    HW1 9809   2.472   3.056   5.678
 2970SOL    HW2 9810   2.384   3.164   5.593
 2971SOL     OW 9811   5.025   4.412   6.971
 2971SOL    HW1 9812   5.105   4.374   6.924
 2971SOL    HW2 9813   4.944   4.399   6.914
 2972SOL     OW 9814   6.722   4.691   6.376
 2972SOL    HW1 9815   6.800   4.707   6.315
 2972SOL    HW2 9816   6.639   4.680   6.322
 2973SOL     OW 9817   5.346   6.115   2.432
 2973SOL    HW1 9818   5.265   6.086   2.483
 2973SOL    HW2 9819   5.428   6.098   2.487
 2974SOL     OW 9820   0.659   4.565   3.936
 2974SOL    HW1 9821   0.749   4.561   3.979
 2974SOL    HW2 9822   0.645   4.655   3.896
 2975SOL     OW 9823   5.241   3.486   3.842
 2975SOL    HW1 9824   5.275   3.441   3.924
 2975SOL    HW2 9825   5.255   3.426   3.763
 2976SOL     OW 9826   3.739   2.167   2.936
 2976SOL    HW1 9827   3.693   2.082   2.961
 2976SOL    HW2 9828   3.713   2.239   3.000
 2977SOL     OW 9829   2.277   0.276   2.496
 2977SOL    HW1 9830   2.308   0.314   2.583
 2977SOL    HW2 9831   2.251   0.181   2.509
 2978SOL     OW 9832   4.265   5.020   0.031
 2978SOL    HW1 9833   4.275   4.933   0.078
 2978SOL    HW2 9834   4.169   5.032   0.003
 2979SOL     OW 9835   3.618   0.988   3.994
 2979SOL    HW1 9836   3.637   0.962   3.900
 2979SOL    HW2 9837   3.684   1.056   4.024
 2980SOL     OW 9838   1.515   5.652   4.678
 2980SOL    HW1 9839   1.572   5.649   4.596
 2980SOL    HW2 9840   1.570   5.622   4.757
 2981SOL     OW 9841   2.626   1.594   6.506
 2981SOL    HW1 9842   2.689   1.566   6.434
 2981SOL    HW2 9843   2.540   1.625   6.466
 2982SOL     OW 9844   3.035   5.459   2.070
 2982SOL    HW1 9845   2.960   5.415   2.022
 2982SOL    HW2 9846   2.998   5.524   2.137
 2983SOL     OW 9847   6.445   2.143   2.547
 2983SOL    HW1 9848   6.497   2.216   2.502
 2983SOL    HW2 9849   6.489   2.055   2.530
 2984SOL     OW 9850   5.597   4.650   0.322
 2984SOL    HW1 9851   5.583   4.730   0.265
 2984SOL    HW2 9852   5.693   4.621   0.318
 2985SOL     OW 9853   1.848   2.519   4.978
 2985SOL    HW1 9854   1.834   2.596   4.916
 2985SOL    HW2 9855   1.801   2.537   5.065
 2986SOL     OW 9856   3.631   4.161   3.565
 2986SOL    HW1 9857   3.721   4.162   3.610
 2986SOL    HW2 9858   3.559   4.166   3.635
 2987SOL     OW 9859   0.749   1.607   3.959
 2987SOL    HW1 9860   0.676   1.561   3.908
 2987SOL    HW2 9861   0.733   1.595   4.058
 2988SOL     OW 9862   1.768   5.904   2.752
 2988SOL    HW1 9863   1.844   5.844   2.777
 2988SOL    HW2 9864   1.694   5.894   2.819
 2989SOL     OW 9865   5.324   5.582   5.802
 2989SOL    HW1 9866   5.334   5.525   5.884
 2989SOL    HW2 9867   5.399   5.648   5.799
 2990SOL     OW 9868   3.586   2.009   4.691
 2990SOL    HW1 9869   3.529   2.073   4.742
 2990SOL    HW2 9870   3.679   2.011   4.728
 2991SOL     OW 9871   6.857   3.941   5.038
 2991SOL    HW1 9872   6.869   3.845   5.063
 2991SOL    HW2 9873   6.826   3.948   4.944
 2992SOL     OW 9874   1.753   5.966   4.396
 2992SOL    HW1 9875   1.815   5.888   4.385
 2992SOL    HW2 9876   1.784   6.042   4.339
 2993SOL     OW 9877   0.827   4.619   1.262
 2993SOL    HW1 9878   0.809   4.666   1.349
 2993SOL    HW2 9879   0.743   4.613   1.209
 2994SOL     OW 9880   4.086   6.758   6.562
 2994SOL    HW1 9881   4.080   6.720   6.654
 2994SOL    HW2 9882   4.063   6.687   6.495
 2995SOL     OW 9883   2.808   1.553   6.314
 2995SOL    HW1 9884   2.854   1.502   6.242
 2995SOL    HW2 9885   2.848   1.644   6.322
 2996SOL     OW 9886   1.310   1.377   5.033
 2996SOL    HW1 9887   1.286   1.312   4.962
 2996SOL    HW2 9888   1.270   1.466   5.012
 2997SOL     OW 9889   5.440   6.877   3.158
 2997SOL    HW1 9890   5.404   6.788   3.187
 2997SOL    HW2 9891   5.388   6.949   3.203
 2998SOL     OW 9892   4.610   0.020   4.002
 2998SOL    HW1 9893   4.708   0.006   4.016
 2998SOL    HW2 9894   4.595   0.104   3.950
 2999SOL     OW 9895   2.510   5.257   4.992
 2999SOL    HW1 9896   2.537   5.168   5.028
 2999SOL    HW2 9897   2.422   5.283   5.031
 3000SOL     OW 9898   3.090   3.833   5.964
 3000SOL    HW1 9899   3.039   3.812   6.047
 3000SOL    HW2 9900   3.188   3.823   5.981
 3001SOL     OW 9901   0.260   0.607   5.825
 3001SOL    HW1 9902   0.201   0.653   5.892
 3001SOL    HW2 9903   0.285   0.516   5.859
 3002SOL     OW 9904   3.211   1.960   0.046
 3002SOL    HW1 9905   3.173   1.979   6.984
 3002SOL    HW2 9906   3.268   2.037   0.075
 3003SOL     OW 9907   1.483   7.024   0.614
 3003SOL    HW1 9908   1.490   0.071   0.548
 3003SOL    HW2 9909   1.421   0.022   0.688
 3004SOL     OW 9910   0.542   4.006   3.106
 3004SOL    HW1 9911   0.557   3.944   3.183
 3004SOL    HW2 9912   0.611   4.078   3.107
 3005SOL     OW 9913   1.853   2.164   0.086
 3005SOL    HW1 9914   1.882   2.235   0.150
 3005SOL    HW2 9915   1.753   2.164   0.078
 3006SOL     OW 9916   5.307   1.508   4.385
 3006SOL    HW1 9917   5.322   1.438   4.315
 3006SOL    HW2 9918   5.395   1.535   4.423
 3007SOL     OW 9919   5.582   4.163   0.651
 3007SOL    HW1 9920   5.543   4.197   0.736
 3007SOL    HW2 9921   5.520   4.184   0.575
 3008SOL     OW 9922   3.878   2.168   6.054
 3008SOL    HW1 9923   3.876   2.242   5.987
 3008SOL    HW2 9924   3.791   2.163   6.102
 3009SOL     OW 9925   6.964   1.958   2.746
 3009SOL    HW1 9926   0.023   1.914   2.768
 3009SOL    HW2 9927   6.899   1.888   2.715
 3010SOL     OW 9928   3.599   5.560   3.663
 3010SOL    HW1 9929   3.544   5.644   3.668
 3010SOL    HW2 9930   3.562   5.501   3.591
 3011SOL     OW 9931   6.336   1.544   2.524
 3011SOL    HW1 9932   6.378   1.569   2.437
 3011SOL    HW2 9933   6.298   1.626   2.567
 3012SOL     OW 9934   1.982   3.311   6.213
 3012SOL    HW1 9935   2.005   3.264   6.128
 3012SOL    HW2 9936   1.986   3.246   6.289
 3013SOL     OW 9937   5.127   5.716   3.753
 3013SOL    HW1 9938   5.188   5.650   3.797
 3013SOL    HW2 9939   5.126   5.699   3.655
 3014SOL     OW 9940   4.550   2.153   4.760
 3014SOL    HW1 9941   4.514   2.234   4.807
 3014SOL    HW2 9942   4.556   2.171   4.662
 3015SOL     OW 9943   2.950   2.085   0.154
 3015SOL    HW1 9944   3.027   2.022   0.146
 3015SOL    HW2 9945   2.875   2.054   0.095
 3016SOL     OW 9946   2.666   6.364   3.839
 3016SOL    HW1 9947   2.673   6.265   3.825
 3016SOL    HW2 9948   2.750   6.398   3.880
 3017SOL     OW 9949   5.937   5.356   2.231
 3017SOL    HW1 9950   5.935   5.274   2.173
 3017SOL    HW2 9951   5.844   5.393   2.239
 3018SOL     OW 9952   2.800   0.253   5.693
 3018SOL    HW1 9953   2.704   0.269   5.668
 3018SOL    HW2 9954   2.804   0.211   5.784
 3019SOL     OW 9955   0.282   6.628   0.084
 3019SOL    HW1 9956   0.297   6.593   7.020
 3019SOL    HW2 9957   0.369   6.634   0.132
 3020SOL     OW 9958   3.817   2.525   1.433
 3020SOL    HW1 9959   3.909   2.524   1.395
 3020SOL    HW2 9960   3.821   2.519   1.533
 3021SOL     OW 9961   2.822   0.099   5.912
 3021SOL    HW1 9962   2.751   0.047   5.958
 3021SOL    HW2 9963   2.882   0.037   5.862
 3022SOL     OW 9964   4.195   5.354   4.851
 3022SOL    HW1 9965   4.156   5.265   4.828
 3022SOL    HW2 9966   4.295   5.349   4.845
 3023SOL     OW 9967   3.934   6.719   3.015
 3023SOL    HW1 9968   3.871   6.767   3.076
 3023SOL    HW2 9969   3.891   6.635   2.981
 3024SOL     OW 9970   4.997   6.990   5.103
 3024SOL    HW1 9971   5.023   0.037   5.164
 3024SOL    HW2 9972   5.011   7.018   5.008
 3025SOL     OW 9973   4.224   6.734   0.569
 3025SOL    HW1 9974   4.185   6.798   0.503
 3025SOL    HW2 9975   4.158   6.660   0.584
 3026SOL     OW 9976   1.488   0.305   6.472
 3026SOL    HW1 9977   1.396   0.276   6.498
 3026SOL    HW2 9978   1.494   0.310   6.372
 3027SOL     OW 9979   4.322   1.150   2.908
 3027SOL    HW1 9980   4.249   1.123   2.846
 3027SOL    HW2 9981   4.338   1.248   2.901
 3028SOL     OW 9982   1.547   4.075   6.074
 3028SOL    HW1 9983   1.634   4.060   6.028
 3028SOL    HW2 9984   1.473   4.039   6.017
 3029SOL     OW 9985   0.228   2.407   5.308
 3029SOL    HW1 9986   0.211   2.488   5.364
 3029SOL    HW2 9987   0.327   2.398   5.292
 3030SOL     OW 9988   0.740   3.445   0.230
 3030SOL    HW1 9989   0.738   3.485   0.322
 3030SOL    HW2 9990   0.833   3.416   0.208
 3031SOL     OW 9991   6.977   4.473   1.492
 3031SOL    HW1 9992   0.030   4.529   1.505
 3031SOL    HW2 9993   7.001   4.392   1.438
 3032SOL     OW 9994   2.750   6.339   1.564
 3032SOL    HW1 9995   2.687   6.286   1.507
 3032SOL    HW2 9996   2.776   6.422   1.515
 3033SOL     OW 9997   5.497   1.827   1.194
 3033SOL    HW1 9998   5.568   1.759   1.207
 3033SOL    HW2 9999   5.413   1.783   1.164
 3034SOL     OW10000   1.537   6.822   2.558
 3034SOL    HW110001   1.474   6.764   2.508
 3034SOL    HW210002   1.529   6.805   2.656
 3035SOL     OW10003   6.960   2.970   6.618
 3035SOL    HW110004   6.938   2.959   6.715
 3035SOL    HW210005   0.020   2.927   6.599
 3036SOL     OW10006   2.456   1.754   6.229
 3036SOL    HW110007   2.516   1.834   6.219
 3036SOL    HW210008   2.365   1.784   6.259
 3037SOL     OW10009   6.291   5.678   6.000
 3037SOL    HW110010   6.238   5.618   6.061
 3037SOL    HW210011   6.387   5.650   6.002
 3038SOL     OW10012   4.806   5.686   5.973
 3038SOL    HW110013   4.784   5.724   5.884
 3038SOL    HW210014   4.899   5.649   5.971
 3039SOL     OW10015   0.339   3.562   0.667
 3039SOL    HW110016   0.405   3.506   0.617
 3039SOL    HW210017   0.269   3.596   0.604
 3040SOL     OW10018   3.649   3.946   5.725
 3040SOL    HW110019   3.584   3.870   5.723
 3040SOL    HW210020   3.631   4.002   5.807
 3041SOL     OW10021   1.881   3.149   4.861
 3041SOL    HW110022   1.869   3.245   4.885
 3041SOL    HW210023   1.940   3.105   4.928
 3042SOL     OW10024   5.416   5.655   2.593
 3042SOL    HW110025   5.446   5.695   2.506
 3042SOL    HW210026   5.329   5.696   2.620
 3043SOL     OW10027   2.902   4.271   1.622
 3043SOL    HW110028   2.968   4.285   1.548
 3043SOL    HW210029   2.919   4.337   1.695
 3044SOL     OW10030   3.476   4.628   5.592
 3044SOL    HW110031   3.420   4.546   5.578
 3044SOL    HW210032   3.538   4.639   5.515
 3045SOL     OW10033   4.917   6.854   3.364
 3045SOL    HW110034   4.885   6.930   3.420
 3045SOL    HW210035   4.889   6.768   3.406
 3046SOL     OW10036   2.397   1.116   5.793
 3046SOL    HW110037   2.349   1.043   5.841
 3046SOL    HW210038   2.367   1.121   5.698
 3047SOL     OW10039   5.872   0.078   1.957
 3047SOL    HW110040   5.870   0.081   1.857
 3047SOL    HW210041   5.830   0.161   1.994
 3048SOL     OW10042   3.877   2.192   1.720
 3048SOL    HW110043   3.818   2.228   1.792
 3048SOL    HW210044   3.958   2.250   1.711
 3049SOL     OW10045   1.291   0.024   2.710
 3049SOL    HW110046   1.343   0.038   2.627
 3049SOL    HW210047   1.229   0.100   2.725
 3050SOL     OW10048   3.241   1.440   1.791
 3050SOL    HW110049   3.203   1.461   1.881
 3050SOL    HW210050   3.308   1.510   1.767
 3051SOL     OW10051   1.845   5.617   6.474
 3051SOL    HW110052   1.787   5.679   6.421
 3051SOL    HW210053   1.791   5.541   6.508
 3052SOL     OW10054   5.060   5.590   2.375
 3052SOL    HW110055   5.000   5.621   2.301
 3052SOL    HW210056   5.088   5.496   2.357
 3053SOL     OW10057   0.058   2.380   0.610
 3053SOL    HW110058   7.000   2.385   0.561
 3053SOL    HW210059   0.046   2.325   0.693
 3054SOL     OW10060   6.639   2.508   0.978
 3054SOL    HW110061   6.552   2.536   0.937
 3054SOL    HW210062   6.620   2.446   1.055
 3055SOL     OW10063   4.915   0.434   4.852
 3055SOL    HW110064   4.925   0.389   4.940
 3055SOL    HW210065   4.999   0.422   4.799
 3056SOL     OW10066   6.337   0.660   5.794
 3056SOL    HW110067   6.422   0.709   5.773
 3056SOL    HW210068   6.340   0.628   5.889
 3057SOL     OW10069   4.460   5.830   3.104
 3057SOL    HW110070   4.555   5.801   3.112
 3057SOL    HW210071   4.434   5.882   3.186
 3058SOL     OW10072   6.856   4.769   1.006
 3058SOL    HW110073   6.826   4.730   1.092
 3058SOL    HW210074   6.811   4.857   0.991
 3059SOL     OW10075   3.060   2.155   3.918
 3059SOL    HW110076   3.017   2.202   3.841
 3059SOL    HW210077   3.056   2.214   3.999
 3060SOL     OW10078   1.410   5.047   0.557
 3060SOL    HW110079   1.319   5.032   0.519
 3060SOL    HW210080   1.413   5.013   0.651
 3061SOL     OW10081   0.290   6.100   5.764
 3061SOL    HW110082   0.322   6.189   5.734
 3061SOL    HW210083   0.308   6.032   5.693
 3062SOL     OW10084   2.288   0.163   0.870
 3062SOL    HW110085   2.256   0.252   0.836
 3062SOL    HW210086   2.294   0.166   0.970
 3063SOL     OW10087   2.013   5.071   2.317
 3063SOL    HW110088   2.090   5.090   2.378
 3063SOL    HW210089   2.044   5.079   2.222
 3064SOL     OW10090   4.930   3.749   1.790
 3064SOL    HW110091   4.909   3.754   1.692
 3064SOL    HW210092   5.020   3.787   1.806
 3065SOL     OW10093   1.970   1.621   7.016
 3065SOL    HW110094   2.034   1.546   0.001
 3065SOL    HW210095   2.019   1.708   7.025
 3066SOL     OW10096   5.030   4.760   0.699
 3066SOL    HW110097   5.095   4.818   0.650
 3066SOL    HW210098   4.961   4.818   0.743
 3067SOL     OW10099   3.864   0.527   5.916
 3067SOL    HW110100   3.782   0.573   5.882
 3067SOL    HW210101   3.932   0.596   5.943
 3068SOL     OW10102   6.803   6.836   0.625
 3068SOL    HW110103   6.838   6.743   0.633
 3068SOL    HW210104   6.714   6.836   0.580
 3069SOL     OW10105   6.669   6.175   1.386
 3069SOL    HW110106   6.703   6.253   1.334
 3069SOL    HW210107   6.572   6.189   1.406
 3070SOL     OW10108   3.273   1.174   0.287
 3070SOL    HW110109   3.361   1.130   0.274
 3070SOL    HW210110   3.264   1.204   0.383
 3071SOL     OW10111   6.816   6.589   3.336
 3071SOL    HW110112   6.829   6.688   3.339
 3071SOL    HW210113   6.806   6.559   3.241
 3072SOL     OW10114   2.287   5.900   6.396
 3072SOL    HW110115   2.190   5.875   6.400
 3072SOL    HW210116   2.323   5.879   6.305
 3073SOL     OW10117   6.354   3.691   4.335
 3073SOL    HW110118   6.307   3.659   4.417
 3073SOL    HW210119   6.361   3.790   4.337
 3074SOL     OW10120   6.086   3.888   1.315
 3074SOL    HW110121   6.034   3.817   1.268
 3074SOL    HW210122   6.062   3.888   1.412
 3075SOL     OW10123   2.975   5.617   1.568
 3075SOL    HW110124   2.986   5.527   1.525
 3075SOL    HW210125   2.935   5.681   1.503
 3076SOL     OW10126   6.376   0.718   3.575
 3076SOL    HW110127   6.380   0.717   3.475
 3076SOL    HW210128   6.344   0.808   3.606
 3077SOL     OW10129   6.074   4.753   1.373
 3077SOL    HW110130   6.022   4.787   1.452
 3077SOL    HW210131   6.158   4.709   1.406
 3078SOL     OW10132   0.385   2.984   2.943
 3078SOL    HW110133   0.318   3.036   2.996
 3078SOL    HW210134   0.354   2.889   2.936
 3079SOL     OW10135   2.692   2.413   2.785
 3079SOL    HW110136   2.665   2.493   2.839
 3079SOL    HW210137   2.668   2.428   2.689
 3080SOL     OW10138   5.209   5.172   2.411
 3080SOL    HW110139   5.283   5.188   2.347
 3080SOL    HW210140   5.239   5.197   2.503
 3081SOL     OW10141   1.124   2.584   5.476
 3081SOL    HW110142   1.103   2.679   5.456
 3081SOL    HW210143   1.073   2.524   5.414
 3082SOL     OW10144   2.173   5.634   4.132
 3082SOL    HW110145   2.272   5.638   4.148
 3082SOL    HW210146   2.155   5.622   4.035
 3083SOL     OW10147   2.944   6.370   3.790
 3083SOL    HW110148   2.940   6.271   3.783
 3083SOL    HW210149   3.004   6.406   3.718
 3084SOL     OW10150   0.032   3.835   4.274
 3084SOL    HW110151   0.129   3.810   4.283
 3084SOL    HW210152   7.013   3.813   4.359
 3085SOL     OW10153   5.296   4.322   6.920
 3085SOL    HW110154   5.263   4.314   7.015
 3085SOL    HW210155   5.349   4.241   6.897
 3086SOL     OW10156   5.266   1.177   1.527
 3086SOL    HW110157   5.289   1.091   1.571
 3086SOL    HW210158   5.179   1.169   1.479
 3087SOL     OW10159   1.620   5.707   4.223
 3087SOL    HW110160   1.638   5.804   4.208
 3087SOL    HW210161   1.612   5.660   4.135
 3088SOL     OW10162   2.085   4.927   5.095
 3088SOL    HW110163   2.063   4.835   5.128
 3088SOL    HW210164   2.017   4.955   5.027
 3089SOL     OW10165   2.403   2.229   5.448
 3089SOL    HW110166   2.310   2.201   5.470
 3089SOL    HW210167   2.423   2.316   5.494
 3090SOL     OW10168   2.458   1.575   1.590
 3090SOL    HW110169   2.371   1.532   1.566
 3090SOL    HW210170   2.444   1.673   1.607
 3091SOL     OW10171   1.841   0.517   1.335
 3091SOL    HW110172   1.912   0.506   1.404
 3091SOL    HW210173   1.754   0.482   1.371
 3092SOL     OW10174   5.743   1.435   0.346
 3092SOL    HW110175   5.708   1.360   0.402
 3092SOL    HW210176   5.731   1.413   0.249
 3093SOL     OW10177   5.521   6.409   6.518
 3093SOL    HW110178   5.429   6.371   6.532
 3093SOL    HW210179   5.576   6.344   6.466
 3094SOL     OW10180   2.192   0.066   4.305
 3094SOL    HW110181   2.278   0.016   4.317
 3094SOL    HW210182   2.118   0.000   4.292
 3095SOL     OW10183   2.327   5.078   5.517
 3095SOL    HW110184   2.287   5.074   5.608
 3095SOL    HW210185   2.376   4.993   5.499
 3096SOL     OW10186   0.895   5.154   5.520
 3096SOL    HW110187   0.853   5.245   5.520
 3096SOL    HW210188   0.860   5.101   5.597
 3097SOL     OW10189   5.571   2.366   6.928
 3097SOL    HW110190   5.501   2.398   6.864
 3097SOL    HW210191   5.579   2.432   7.003
 3098SOL     OW10192   2.092   2.208   1.161
 3098SOL    HW110193   2.022   2.179   1.226
 3098SOL    HW210194   2.150   2.130   1.137
 3099SOL     OW10195   0.627   0.028   3.862
 3099SOL    HW110196   0.679   7.007   3.793
 3099SOL    HW210197   0.689   0.060   3.934
 3100SOL     OW10198   6.675   6.914   3.459
 3100SOL    HW110199   6.727   6.918   3.544
 3100SOL    HW210200   6.613   6.992   3.454
 3101SOL     OW10201   6.000   6.122   0.190
 3101SOL    HW110202   6.084   6.175   0.201
 3101SOL    HW210203   5.944   6.132   0.272
 3102SOL     OW10204   6.385   5.487   2.317
 3102SOL    HW110205   6.426   5.416   2.375
 3102SOL    HW210206   6.446   5.566   2.314
 3103SOL     OW10207   4.250   0.961   1.985
 3103SOL    HW110208   4.265   1.015   1.902
 3103SOL    HW210209   4.247   0.864   1.961
 3104SOL     OW10210   5.278   1.005   5.366
 3104SOL    HW110211   5.331   0.938   5.313
 3104SOL    HW210212   5.339   1.055   5.426
 3105SOL     OW10213   5.594   4.140   1.464
 3105SOL    HW110214   5.520   4.144   1.531
 3105SOL    HW210215   5.571   4.197   1.385
 3106SOL     OW10216   4.967   0.519   3.662
 3106SOL    HW110217   5.040   0.509   3.595
 3106SOL    HW210218   5.002   0.501   3.753
 3107SOL     OW10219   4.243   1.565   5.292
 3107SOL    HW110220   4.272   1.479   5.252
 3107SOL    HW210221   4.165   1.601   5.241
 3108SOL     OW10222   1.781   6.159   4.216
 3108SOL    HW110223   1.725   6.101   4.157
 3108SOL    HW210224   1.848   6.208   4.160
 3109SOL     OW10225   5.433   6.059   4.177
 3109SOL    HW110226   5.503   6.065   4.106
 3109SOL    HW210227   5.343   6.068   4.134
 3110SOL     OW10228   1.201   3.374   2.798
 3110SOL    HW110229   1.199   3.461   2.847
 3110SOL    HW210230   1.174   3.300   2.860
 3111SOL     OW10231   0.518   4.671   3.616
 3111SOL    HW110232   0.451   4.739   3.643
 3111SOL    HW210233   0.482   4.580   3.634
 3112SOL     OW10234   3.962   3.172   0.135
 3112SOL    HW110235   3.926   3.261   0.106
 3112SOL    HW210236   3.890   3.104   0.129
 3113SOL     OW10237   2.584   4.613   3.546
 3113SOL    HW110238   2.606   4.597   3.450
 3113SOL    HW210239   2.529   4.537   3.581
 3114SOL     OW10240   3.724   2.276   0.761
 3114SOL    HW110241   3.671   2.221   0.825
 3114SOL    HW210242   3.663   2.343   0.717
 3115SOL     OW10243   4.310   4.846   6.351
 3115SOL    HW110244   4.277   4.753   6.368
 3115SOL    HW210245   4.385   4.844   6.285
 3116SOL     OW10246   6.868   2.891   0.335
 3116SOL    HW110247   6.933   2.878   0.410
 3116SOL    HW210248   6.784   2.841   0.354
 3117SOL     OW10249   4.883   3.828   5.251
 3117SOL    HW110250   4.862   3.751   5.190
 3117SOL    HW210251   4.974   3.814   5.291
 3118SOL     OW10252   0.444   5.836   2.220
 3118SOL    HW110253   0.455   5.862   2.315
 3118SOL    HW210254   0.496   5.753   2.201
 3119SOL     OW10255   2.292   2.923   6.600
 3119SOL    HW110256   2.319   3.019   6.587
 3119SOL    HW210257   2.334   2.888   6.684
 3120SOL     OW10258   3.439   0.359   5.928
 3120SOL    HW110259   3.383   0.363   5.845
 3120SOL    HW210260   3.381   0.333   6.006
 3121SOL     OW10261   0.053   0.908   3.824
 3121SOL    HW110262   0.081   0.895   3.920
 3121SOL    HW210263   6.990   0.869   3.811
 3122SOL     OW10264   3.926   5.590   6.176
 3122SOL    HW110265   3.857   5.555   6.240
 3122SOL    HW210266   3.995   5.519   6.161
 3123SOL     OW10267   1.954   1.819   3.339
 3123SOL    HW110268   1.930   1.856   3.428
 3123SOL    HW210269   1.944   1.720   3.340
 3124SOL     OW10270   4.864   6.769   4.758
 3124SOL    HW110271   4.787   6.757   4.695
 3124SOL    HW210272   4.941   6.715   4.726
 3125SOL     OW10273   0.863   2.976   5.412
 3125SOL    HW110274   0.811   2.958   5.329
 3125SOL    HW210275   0.841   3.067   5.446
 3126SOL     OW10276   5.651   4.019   5.561
 3126SOL    HW110277   5.613   3.927   5.570
 3126SOL    HW210278   5.745   4.013   5.527
 3127SOL     OW10279   1.374   2.873   5.656
 3127SOL    HW110280   1.342   2.783   5.682
 3127SOL    HW210281   1.474   2.873   5.651
 3128SOL     OW10282   3.109   0.617   6.809
 3128SOL    HW110283   3.187   0.680   6.817
 3128SOL    HW210284   3.141   0.523   6.820
 3129SOL     OW10285   6.396   3.548   6.982
 3129SOL    HW110286   6.347   3.476   6.934
 3129SOL    HW210287   6.456   3.597   6.919
 3130SOL     OW10288   2.044   4.545   1.717
 3130SOL    HW110289   2.038   4.569   1.814
 3130SOL    HW210290   2.124   4.590   1.676
 3131SOL     OW10291   0.627   3.303   2.153
 3131SOL    HW110292   0.624   3.327   2.056
 3131SOL    HW210293   0.719   3.321   2.189
 3132SOL     OW10294   4.156   5.733   6.622
 3132SOL    HW110295   4.142   5.634   6.630
 3132SOL    HW210296   4.161   5.759   6.526
 3133SOL     OW10297   3.126   1.516   3.236
 3133SOL    HW110298   3.053   1.559   3.183
 3133SOL    HW210299   3.086   1.448   3.299
 3134SOL     OW10300   4.924   4.028   1.530
 3134SOL    HW110301   4.951   3.934   1.507
 3134SOL    HW210302   4.943   4.046   1.626
 3135SOL     OW10303   4.511   0.754   5.224
 3135SOL    HW110304   4.523   0.736   5.322
 3135SOL    HW210305   4.520   0.668   5.173
 3136SOL     OW10306   5.358   0.926   2.253
 3136SOL    HW110307   5.267   0.964   2.235
 3136SOL    HW210308   5.369   0.912   2.351
 3137SOL     OW10309   6.406   0.652   2.109
 3137SOL    HW110310   6.376   0.607   2.192
 3137SOL    HW210311   6.478   0.718   2.131
 3138SOL     OW10312   6.417   4.654   3.386
 3138SOL    HW110313   6.472   4.728   3.348
 3138SOL    HW210314   6.340   4.693   3.437
 3139SOL     OW10315   4.835   6.004   0.779
 3139SOL    HW110316   4.757   6.065   0.766
 3139SOL    HW210317   4.891   6.003   0.697
 3140SOL     OW10318   6.827   0.063   0.414
 3140SOL    HW110319   6.851   7.011   0.360
 3140SOL    HW210320   6.729   0.064   0.430
 3141SOL     OW10321   0.576   6.880   6.536
 3141SOL    HW110322   0.494   6.869   6.592
 3141SOL    HW210323   0.625   6.794   6.531
 3142SOL     OW10324   3.302   6.963   2.577
 3142SOL    HW110325   3.372   7.008   2.522
 3142SOL    HW210326   3.315   6.987   2.674
 3143SOL     OW10327   6.444   2.002   0.429
 3143SOL    HW110328   6.390   2.026   0.348
 3143SOL    HW210329   6.427   2.069   0.502
 3144SOL     OW10330   3.440   3.827   1.478
 3144SOL    HW110331   3.529   3.816   1.521
 3144SOL    HW210332   3.368   3.831   1.547
 3145SOL     OW10333   2.270   5.861   1.641
 3145SOL    HW110334   2.213   5.935   1.606
 3145SOL    HW210335   2.354   5.855   1.586
 3146SOL     OW10336   1.505   1.324   4.431
 3146SOL    HW110337   1.583   1.353   4.374
 3146SOL    HW210338   1.538   1.293   4.520
 3147SOL     OW10339   3.116   5.685   0.819
 3147SOL    HW110340   3.023   5.652   0.838
 3147SOL    HW210341   3.125   5.779   0.850
 3148SOL     OW10342   6.000   6.729   3.781
 3148SOL    HW110343   5.955   6.647   3.816
 3148SOL    HW210344   6.055   6.770   3.853
 3149SOL     OW10345   2.697   0.737   5.327
 3149SOL    HW110346   2.771   0.773   5.383
 3149SOL    HW210347   2.731   0.719   5.235
 3150SOL     OW10348   6.120   5.494   4.394
 3150SOL    HW110349   6.170   5.491   4.308
 3150SOL    HW210350   6.072   5.407   4.408
 3151SOL     OW10351   7.009   0.829   5.188
 3151SOL    HW110352   7.018   0.907   5.250
 3151SOL    HW210353   7.023   0.860   5.094
 3152SOL     OW10354   1.004   5.148   1.159
 3152SOL    HW110355   1.096   5.187   1.152
 3152SOL    HW210356   0.976   5.111   1.071
 3153SOL     OW10357   6.306   5.119   0.468
 3153SOL    HW110358   6.222   5.112   0.414
 3153SOL    HW210359   6.321   5.033   0.518
 3154SOL     OW10360   6.925   1.582   6.979
 3154SOL    HW110361   6.889   1.641   0.022
 3154SOL    HW210362   6.871   1.592   6.896
 3155SOL     OW10363   6.378   4.216   0.361
 3155SOL    HW110364   6.435   4.152   0.412
 3155SOL    HW210365   6.311   4.258   0.424
 3156SOL     OW10366   3.592   2.867   3.362
 3156SOL    HW110367   3.494   2.885   3.376
 3156SOL    HW210368   3.606   2.832   3.269
 3157SOL     OW10369   2.830   2.092   5.184
 3157SOL    HW110370   2.736   2.090   5.218
 3157SOL    HW210371   2.881   2.016   5.224
 3158SOL     OW10372   3.554   1.641   3.584
 3158SOL    HW110373   3.556   1.558   3.640
 3158SOL    HW210374   3.617   1.709   3.622
 3159SOL     OW10375   6.373   1.288   0.372
 3159SOL    HW110376   6.431   1.278   0.452
 3159SOL    HW210377   6.429   1.307   0.292
 3160SOL     OW10378   0.668   5.675   5.535
 3160SOL    HW110379   0.611   5.688   5.616
 3160SOL    HW210380   0.755   5.723   5.547
 3161SOL     OW10381   2.431   2.592   2.913
 3161SOL    HW110382   2.432   2.649   2.995
 3161SOL    HW210383   2.373   2.512   2.929
 3162SOL     OW10384   1.485   6.046   1.780
 3162SOL    HW110385   1.430   6.104   1.841
 3162SOL    HW210386   1.430   5.967   1.751
 3163SOL     OW10387   4.784   2.945   6.322
 3163SOL    HW110388   4.827   2.897   6.246
 3163SOL    HW210389   4.854   2.987   6.380
 3164SOL     OW10390   4.257   5.160   1.324
 3164SOL    HW110391   4.217   5.154   1.232
 3164SOL    HW210392   4.345   5.207   1.319
 3165SOL     OW10393   0.936   6.512   0.896
 3165SOL    HW110394   1.016   6.569   0.876
 3165SOL    HW210395   0.961   6.442   0.962
 3166SOL     OW10396   4.159   1.954   4.374
 3166SOL    HW110397   4.104   1.958   4.457
 3166SOL    HW210398   4.253   1.931   4.397
 3167SOL     OW10399   6.490   4.728   0.976
 3167SOL    HW110400   6.556   4.800   0.995
 3167SOL    HW210401   6.519   4.643   1.020
 3168SOL     OW10402   5.231   2.784   6.759
 3168SOL    HW110403   5.205   2.854   6.825
 3168SOL    HW210404   5.170   2.705   6.767
 3169SOL     OW10405   2.231   3.884   4.101
 3169SOL    HW110406   2.191   3.811   4.157
 3169SOL    HW210407   2.329   3.870   4.093
 3170SOL     OW10408   4.570   6.395   1.398
 3170SOL    HW110409   4.505   6.439   1.336
 3170SOL    HW210410   4.572   6.444   1.485
 3171SOL     OW10411   0.244   0.591   2.162
 3171SOL    HW110412   0.213   0.611   2.255
 3171SOL    HW210413   0.182   0.525   2.120
 3172SOL     OW10414   6.908   5.280   0.293
 3172SOL    HW110415   7.004   5.303   0.276
 3172SOL    HW210416   6.881   5.318   0.382
 3173SOL     OW10417   2.765   1.878   0.595
 3173SOL    HW110418   2.686   1.819   0.580
 3173SOL    HW210419   2.740   1.952   0.657
 3174SOL     OW10420   2.639   2.469   1.024
 3174SOL    HW110421   2.594   2.512   1.102
 3174SOL    HW210422   2.618   2.371   1.024
 3175SOL     OW10423   6.273   1.229   1.616
 3175SOL    HW110424   6.212   1.186   1.682
 3175SOL    HW210425   6.220   1.258   1.535
 3176SOL     OW10426   1.763   4.116   5.629
 3176SOL    HW110427   1.670   4.134   5.597
 3176SOL    HW210428   1.800   4.037   5.581
 3177SOL     OW10429   5.025   3.646   3.920
 3177SOL    HW110430   5.000   3.613   4.011
 3177SOL    HW210431   5.077   3.576   3.872
 3178SOL     OW10432   6.327   2.332   0.830
 3178SOL    HW110433   6.334   2.428   0.859
 3178SOL    HW210434   6.232   2.303   0.836
 3179SOL     OW10435   1.277   3.204   1.977
 3179SOL    HW110436   1.277   3.242   1.884
 3179SOL    HW210437   1.310   3.273   2.041
 3180SOL     OW10438   4.695   0.987   0.028
 3180SOL    HW110439   4.669   1.083   0.019
 3180SOL    HW210440   4.783   0.971   7.012
 3181SOL     OW10441   6.916   2.017   3.522
 3181SOL    HW110442   6.966   1.933   3.543
 3181SOL    HW210443   6.978   2.082   3.478
 3182SOL     OW10444   3.276   0.248   6.119
 3182SOL    HW110445   3.180   0.253   6.146
 3182SOL    HW210446   3.297   0.154   6.089
 3183SOL     OW10447   4.292   4.063   1.702
 3183SOL    HW110448   4.322   3.994   1.636
 3183SOL    HW210449   4.372   4.111   1.738
 3184SOL     OW10450   0.796   3.827   2.785
 3184SOL    HW110451   0.881   3.793   2.745
 3184SOL    HW210452   0.789   3.926   2.769
 3185SOL     OW10453   5.584   5.646   6.924
 3185SOL    HW110454   5.502   5.640   6.867
 3185SOL    HW210455   5.664   5.662   6.866
 3186SOL     OW10456   3.319   2.196   1.828
 3186SOL    HW110457   3.395   2.226   1.770
 3186SOL    HW210458   3.355   2.147   1.907
 3187SOL     OW10459   4.672   4.611   0.840
 3187SOL    HW110460   4.691   4.706   0.820
 3187SOL    HW210461   4.747   4.554   0.808
 3188SOL     OW10462   2.192   0.480   4.263
 3188SOL    HW110463   2.255   0.448   4.192
 3188SOL    HW210464   2.209   0.430   4.348
 3189SOL     OW10465   1.201   1.201   1.251
 3189SOL    HW110466   1.254   1.253   1.319
 3189SOL    HW210467   1.239   1.109   1.243
 3190SOL     OW10468   0.260   5.800   0.485
 3190SOL    HW110469   0.212   5.786   0.398
 3190SOL    HW210470   0.204   5.856   0.546
 3191SOL     OW10471   4.963   5.677   0.725
 3191SOL    HW110472   4.897   5.744   0.759
 3191SOL    HW210473   4.946   5.589   0.769
 3192SOL     OW10474   6.883   2.372   0.909
 3192SOL    HW110475   6.861   2.282   0.870
 3192SOL    HW210476   6.798   2.418   0.935
 3193SOL     OW10477   3.794   1.434   6.780
 3193SOL    HW110478   3.719   1.459   6.841
 3193SOL    HW210479   3.834   1.347   6.810
 3194SOL     OW10480   1.866   2.413   6.182
 3194SOL    HW110481   1.881   2.315   6.174
 3194SOL    HW210482   1.769   2.430   6.203
 3195SOL     OW10483   2.948   1.667   3.075
 3195SOL    HW110484   2.949   1.654   2.976
 3195SOL    HW210485   2.878   1.735   3.099
 3196SOL     OW10486   0.328   1.215   6.367
 3196SOL    HW110487   0.272   1.224   6.285
 3196SOL    HW210488   0.343   1.305   6.407
 3197SOL     OW10489   2.604   6.573   3.348
 3197SOL    HW110490   2.697   6.587   3.381
 3197SOL    HW210491   2.593   6.477   3.320
 3198SOL     OW10492   5.602   3.153   4.762
 3198SOL    HW110493   5.626   3.151   4.665
 3198SOL    HW210494   5.534   3.082   4.781
 3199SOL     OW10495   5.086   3.550   2.301
 3199SOL    HW110496   5.023   3.608   2.249
 3199SOL    HW210497   5.176   3.551   2.258
 3200SOL     OW10498   6.157   2.981   1.849
 3200SOL    HW110499   6.130   2.903   1.793
 3200SOL    HW210500   6.256   2.984   1.857
 3201SOL     OW10501   5.803   4.783   4.064
 3201SOL    HW110502   5.805   4.704   4.002
 3201SOL    HW210503   5.809   4.752   4.159
 3202SOL     OW10504   0.076   4.690   2.015
 3202SOL    HW110505   0.152   4.627   2.004
 3202SOL    HW210506   0.027   4.699   1.928
 3203SOL     OW10507   6.447   2.417   0.378
 3203SOL    HW110508   6.541   2.425   0.344
 3203SOL    HW210509   6.385   2.397   0.302
 3204SOL     OW10510   4.665   6.253   2.300
 3204SOL    HW110511   4.652   6.154   2.303
 3204SOL    HW210512   4.648   6.292   2.391
 3205SOL     OW10513   6.531   3.177   6.349
 3205SOL    HW110514   6.612   3.163   6.405
 3205SOL    HW210515   6.545   3.138   6.258
 3206SOL     OW10516   1.132   5.803   6.447
 3206SOL    HW110517   1.049   5.769   6.403
 3206SOL    HW210518   1.107   5.868   6.519
 3207SOL     OW10519   0.972   0.332   5.799
 3207SOL    HW110520   0.988   0.233   5.807
 3207SOL    HW210521   0.921   0.350   5.715
 3208SOL     OW10522   4.786   5.746   5.715
 3208SOL    HW110523   4.711   5.747   5.649
 3208SOL    HW210524   4.872   5.767   5.669
 3209SOL     OW10525   4.701   6.269   3.470
 3209SOL    HW110526   4.606   6.266   3.436
 3209SOL    HW210527   4.701   6.249   3.568
 3210SOL     OW10528   1.002   4.334   1.660
 3210SOL    HW110529   0.926   4.387   1.698
 3210SOL    HW210530   1.039   4.382   1.581
 3211SOL     OW10531   1.556   4.087   0.947
 3211SOL    HW110532   1.485   4.152   0.976
 3211SOL    HW210533   1.623   4.135   0.890
 3212SOL     OW10534   3.402   0.455   1.132
 3212SOL    HW110535   3.429   0.381   1.069
 3212SOL    HW210536   3.308   0.482   1.112
 3213SOL     OW10537   0.624   5.720   1.472
 3213SOL    HW110538   0.531   5.758   1.469
 3213SOL    HW210539   0.662   5.719   1.380
 3214SOL     OW10540   4.917   5.407   0.610
 3214SOL    HW110541   4.908   5.444   0.518
 3214SOL    HW210542   4.829   5.369   0.639
 3215SOL     OW10543   6.912   3.180   0.640
 3215SOL    HW110544   6.990   3.137   0.686
 3215SOL    HW210545   6.831   3.173   0.699
 3216SOL     OW10546   5.882   5.184   0.477
 3216SOL    HW110547   5.906   5.100   0.430
 3216SOL    HW210548   5.952   5.206   0.545
 3217SOL     OW10549   0.057   5.514   2.248
 3217SOL    HW110550   7.005   5.572   2.245
 3217SOL    HW210551   0.135   5.563   2.209
 3218SOL     OW10552   4.444   1.613   3.634
 3218SOL    HW110553   4.368   1.548   3.627
 3218SOL    HW210554   4.461   1.654   3.545
 3219SOL     OW10555   7.019   1.779   3.620
 3219SOL    HW110556   6.939   1.741   3.666
 3219SOL    HW210557   0.065   1.790   3.686
 3220SOL     OW10558   6.541   5.605   6.623
 3220SOL    HW110559   6.520   5.703   6.632
 3220SOL    HW210560   6.570   5.586   6.529
 3221SOL     OW10561   3.855   0.740   1.748
 3221SOL    HW110562   3.925   0.805   1.719
 3221SOL    HW210563   3.785   0.787   1.802
 3222SOL     OW10564   3.577   1.606   2.085
 3222SOL    HW110565   3.615   1.619   2.177
 3222SOL    HW210566   3.499   1.668   2.072
 3223SOL     OW10567   1.968   6.101   6.243
 3223SOL    HW110568   2.015   6.030   6.296
 3223SOL    HW210569   1.906   6.059   6.178
 3224SOL     OW10570   4.368   3.743   6.463
 3224SOL    HW110571   4.364   3.650   6.501
 3224SOL    HW210572   4.358   3.809   6.538
 3225SOL     OW10573   4.766   3.204   6.642
 3225SOL    HW110574   4.742   3.237   6.550
 3225SOL    HW210575   4.693   3.145   6.676
 3226SOL     OW10576   1.910   1.305   3.615
 3226SOL    HW110577   1.995   1.331   3.569
 3226SOL    HW210578   1.838   1.371   3.593
 3227SOL     OW10579   3.687   2.484   0.287
 3227SOL    HW110580   3.763   2.423   0.308
 3227SOL    HW210581   3.721   2.573   0.258
 3228SOL     OW10582   6.582   4.139   2.944
 3228SOL    HW110583   6.629   4.134   3.032
 3228SOL    HW210584   6.525   4.057   2.932
 3229SOL     OW10585   4.377   0.138   5.412
 3229SOL    HW110586   4.424   0.139   5.500
 3229SOL    HW210587   4.356   0.044   5.387
 3230SOL     OW10588   1.838   3.431   4.935
 3230SOL    HW110589   1.817   3.483   4.852
 3230SOL    HW210590   1.789   3.471   5.012
 3231SOL     OW10591   2.393   0.712   1.273
 3231SOL    HW110592   2.449   0.634   1.301
 3231SOL    HW210593   2.351   0.754   1.354
 3232SOL     OW10594   4.861   5.664   5.058
 3232SOL    HW110595   4.931   5.727   5.091
 3232SOL    HW210596   4.845   5.680   4.961
 3233SOL     OW10597   0.895   2.788   1.369
 3233SOL    HW110598   0.798   2.800   1.352
 3233SOL    HW210599   0.910   2.767   1.466
 3234SOL     OW10600   6.898   1.957   6.920
 3234SOL    HW110601   6.939   1.945   6.829
 3234SOL    HW210602   6.967   1.943   6.990
 3235SOL     OW10603   5.645   1.053   1.666
 3235SOL    HW110604   5.703   0.982   1.626
 3235SOL    HW210605   5.596   1.016   1.745
 3236SOL     OW10606   1.640   2.750   0.779
 3236SOL    HW110607   1.667   2.668   0.830
 3236SOL    HW210608   1.666   2.832   0.831
 3237SOL     OW10609   4.977   1.488   4.287
 3237SOL    HW110610   4.890   1.523   4.251
 3237SOL    HW210611   5.042   1.479   4.213
 3238SOL     OW10612   0.396   5.240   0.666
 3238SOL    HW110613   0.307   5.212   0.629
 3238SOL    HW210614   0.383   5.317   0.729
 3239SOL     OW10615   6.411   1.628   1.880
 3239SOL    HW110616   6.510   1.643   1.879
 3239SOL    HW210617   6.365   1.713   1.904
 3240SOL     OW10618   0.734   0.207   6.369
 3240SOL    HW110619   0.727   0.297   6.412
 3240SOL    HW210620   0.795   0.212   6.290
 3241SOL     OW10621   4.409   1.955   5.604
 3241SOL    HW110622   4.410   2.001   5.515
 3241SOL    HW210623   4.334   1.889   5.606
 3242SOL     OW10624   3.277   4.219   6.844
 3242SOL    HW110625   3.233   4.308   6.835
 3242SOL    HW210626   3.318   4.211   6.935
 3243SOL     OW10627   4.355   4.703   0.423
 3243SOL    HW110628   4.387   4.621   0.472
 3243SOL    HW210629   4.432   4.743   0.374
 3244SOL     OW10630   5.261   5.427   0.429
 3244SOL    HW110631   5.202   5.496   0.470
 3244SOL    HW210632   5.249   5.340   0.478
 3245SOL     OW10633   4.923   3.102   5.086
 3245SOL    HW110634   4.860   3.049   5.029
 3245SOL    HW210635   4.872   3.151   5.156
 3246SOL     OW10636   5.866   0.583   2.551
 3246SOL    HW110637   5.954   0.568   2.505
 3246SOL    HW210638   5.872   0.548   2.645
 3247SOL     OW10639   5.925   4.693   2.689
 3247SOL    HW110640   6.008   4.727   2.645
 3247SOL    HW210641   5.852   4.762   2.681
 3248SOL     OW10642   6.766   3.484   0.970
 3248SOL    HW110643   6.697   3.512   0.904
 3248SOL    HW210644   6.738   3.399   1.014
 3249SOL     OW10645   4.154   3.392   4.429
 3249SOL    HW110646   4.150   3.345   4.517
 3249SOL    HW210647   4.248   3.421   4.411
 3250SOL     OW10648   6.002   6.456   2.042
 3250SOL    HW110649   5.992   6.469   1.943
 3250SOL    HW210650   6.093   6.485   2.071
 3251SOL     OW10651   2.764   1.044   3.401
 3251SOL    HW110652   2.687   1.012   3.457
 3251SOL    HW210653   2.756   1.142   3.387
 3252SOL     OW10654   2.269   2.010   2.616
 3252SOL    HW110655   2.221   1.926   2.639
 3252SOL    HW210656   2.311   2.048   2.699
 3253SOL     OW10657   5.318   3.504   2.141
 3253SOL    HW110658   5.305   3.599   2.115
 3253SOL    HW210659   5.273   3.444   2.074
 3254SOL     OW10660   5.446   5.461   5.007
 3254SOL    HW110661   5.421   5.402   4.930
 3254SOL    HW210662   5.446   5.409   5.092
 3255SOL     OW10663   5.417   5.802   0.674
 3255SOL    HW110664   5.411   5.730   0.605
 3255SOL    HW210665   5.377   5.886   0.638
 3256SOL     OW10666   3.173   0.994   6.955
 3256SOL    HW110667   3.189   1.091   6.974
 3256SOL    HW210668   3.168   0.944   0.013
 3257SOL     OW10669   1.730   1.207   1.970
 3257SOL    HW110670   1.739   1.277   2.041
 3257SOL    HW210671   1.820   1.186   1.933
 3258SOL     OW10672   4.216   4.642   1.919
 3258SOL    HW110673   4.272   4.615   1.997
 3258SOL    HW210674   4.233   4.579   1.842
 3259SOL     OW10675   4.530   5.463   3.551
 3259SOL    HW110676   4.447   5.413   3.577
 3259SOL    HW210677   4.600   5.398   3.522
 3260SOL     OW10678   2.043   1.922   1.085
 3260SOL    HW110679   1.965   1.964   1.038
 3260SOL    HW210680   2.019   1.830   1.114
 3261SOL     OW10681   5.378   6.993   1.126
 3261SOL    HW110682   5.430   6.966   1.045
 3261SOL    HW210683   5.281   7.001   1.103
 3262SOL     OW10684   3.285   2.075   2.530
 3262SOL    HW110685   3.283   1.978   2.552
 3262SOL    HW210686   3.379   2.109   2.532
 3263SOL     OW10687   2.391   0.638   3.368
 3263SOL    HW110688   2.442   0.609   3.449
 3263SOL    HW210689   2.305   0.680   3.396
 3264SOL     OW10690   1.761   4.268   0.880
 3264SOL    HW110691   1.799   4.341   0.936
 3264SOL    HW210692   1.831   4.236   0.816
 3265SOL     OW10693   4.971   0.498   6.700
 3265SOL    HW110694   4.960   0.470   6.795
 3265SOL    HW210695   5.053   0.555   6.691
 3266SOL     OW10696   1.692   3.287   0.956
 3266SOL    HW110697   1.688   3.315   1.052
 3266SOL    HW210698   1.616   3.224   0.937
 3267SOL     OW10699   3.592   0.404   0.556
 3267SOL    HW110700   3.528   0.331   0.578
 3267SOL    HW210701   3.673   0.365   0.510
 3268SOL     OW10702   1.209   3.876   0.534
 3268SOL    HW110703   1.258   3.937   0.472
 3268SOL    HW210704   1.121   3.850   0.494
 3269SOL     OW10705   4.372   5.559   2.263
 3269SOL    HW110706   4.434   5.637   2.252
 3269SOL    HW210707   4.426   5.476   2.279
 3270SOL     OW10708   0.484   4.332   5.633
 3270SOL    HW110709   0.533   4.302   5.714
 3270SOL    HW210710   0.421   4.405   5.657
 3271SOL     OW10711   6.101   3.571   2.626
 3271SOL    HW110712   6.104   3.583   2.725
 3271SOL    HW210713   6.069   3.478   2.605
 3272SOL     OW10714   3.585   4.370   6.298
 3272SOL    HW110715   3.631   4.281   6.294
 3272SOL    HW210716   3.653   4.443   6.287
 3273SOL     OW10717   0.528   6.378   0.987
 3273SOL    HW110718   0.468   6.370   1.067
 3273SOL    HW210719   0.616   6.415   1.015
 3274SOL     OW10720   4.663   1.376   1.422
 3274SOL    HW110721   4.664   1.364   1.322
 3274SOL    HW210722   4.755   1.402   1.453
 3275SOL     OW10723   6.753   1.532   6.720
 3275SOL    HW110724   6.748   1.434   6.741
 3275SOL    HW210725   6.664   1.574   6.736
 3276SOL     OW10726   2.163   6.142   0.187
 3276SOL    HW110727   2.150   6.210   0.115
 3276SOL    HW210728   2.074   6.111   0.220
 3277SOL     OW10729   4.140   6.798   0.159
 3277SOL    HW110730   4.125   6.877   0.219
 3277SOL    HW210731   4.156   6.830   0.066
 3278SOL     OW10732   1.092   0.831   6.341
 3278SOL    HW110733   1.136   0.742   6.352
 3278SOL    HW210734   1.161   0.901   6.321
 3279SOL     OW10735   5.453   0.631   6.797
 3279SOL    HW110736   5.546   0.607   6.772
 3279SOL    HW210737   5.453   0.682   6.883
 3280SOL     OW10738   3.782   5.727   4.218
 3280SOL    HW110739   3.798   5.761   4.311
 3280SOL    HW210740   3.692   5.683   4.213
 3281SOL     OW10741   1.938   6.119   1.641
 3281SOL    HW110742   2.016   6.111   1.579
 3281SOL    HW210743   1.962   6.080   1.730
 3282SOL     OW10744   0.445   4.767   5.715
 3282SOL    HW110745   0.537   4.729   5.706
 3282SOL    HW210746   0.378   4.693   5.711
 3283SOL     OW10747   4.262   1.145   1.097
 3283SOL    HW110748   4.255   1.242   1.122
 3283SOL    HW210749   4.294   1.137   1.003
 3284SOL     OW10750   0.165   5.250   7.010
 3284SOL    HW110751   0.157   5.344   0.015
 3284SOL    HW210752   0.248   5.208   0.019
 3285SOL     OW10753   5.107   3.085   3.899
 3285SOL    HW110754   5.168   3.087   3.820
 3285SOL    HW210755   5.015   3.060   3.869
 3286SOL     OW10756   3.875   3.077   2.300
 3286SOL    HW110757   3.844   3.084   2.205
 3286SOL    HW210758   3.857   2.985   2.334
 3287SOL     OW10759   0.953   6.970   6.921
 3287SOL    HW110760   0.986   6.921   7.002
 3287SOL    HW210761   0.890   6.911   6.870
 3288SOL     OW10762   0.486   5.128   6.435
 3288SOL    HW110763   0.439   5.208   6.399
 3288SOL    HW210764   0.486   5.055   6.367
 3289SOL     OW10765   2.750   6.935   5.660
 3289SOL    HW110766   2.697   6.863   5.615
 3289SOL    HW210767   2.786   6.900   5.747
 3290SOL     OW10768   0.438   6.995   2.191
 3290SOL    HW110769   0.472   0.040   2.133
 3290SOL    HW210770   0.485   6.997   2.279
 3291SOL     OW10771   2.092   6.696   1.188
 3291SOL    HW110772   2.068   6.681   1.092
 3291SOL    HW210773   2.030   6.763   1.228
 3292SOL     OW10774   0.498   0.681   1.212
 3292SOL    HW110775   0.469   0.702   1.119
 3292SOL    HW210776   0.589   0.640   1.210
 3293SOL     OW10777   0.664   3.775   3.014
 3293SOL    HW110778   0.630   3.865   3.043
 3293SOL    HW210779   0.714   3.785   2.928
 3294SOL     OW10780   6.357   1.650   6.224
 3294SOL    HW110781   6.376   1.669   6.127
 3294SOL    HW210782   6.266   1.610   6.233
 3295SOL     OW10783   1.775   3.133   1.949
 3295SOL    HW110784   1.816   3.135   1.858
 3295SOL    HW210785   1.728   3.046   1.963
 3296SOL     OW10786   1.547   6.464   2.205
 3296SOL    HW110787   1.492   6.387   2.238
 3296SOL    HW210788   1.527   6.480   2.108
 3297SOL     OW10789   3.463   0.587   4.622
 3297SOL    HW110790   3.542   0.621   4.673
 3297SOL    HW210791   3.383   0.583   4.683
 3298SOL     OW10792   5.355   1.400   4.819
 3298SOL    HW110793   5.361   1.389   4.918
 3298SOL    HW210794   5.418   1.472   4.790
 3299SOL     OW10795   2.691   5.468   3.678
 3299SOL    HW110796   2.747   5.456   3.760
 3299SOL    HW210797   2.746   5.510   3.606
 3300SOL     OW10798   0.383   0.660   5.205
 3300SOL    HW110799   0.381   0.688   5.301
 3300SOL    HW210800   0.289   0.651   5.171
 3301SOL     OW10801   2.183   3.210   3.472
 3301SOL    HW110802   2.146   3.302   3.462
 3301SOL    HW210803   2.182   3.185   3.569
 3302SOL     OW10804   0.288   4.966   4.984
 3302SOL    HW110805   0.376   4.999   5.017
 3302SOL    HW210806   0.226   4.954   5.062
 3303SOL     OW10807   3.439   3.496   1.540
 3303SOL    HW110808   3.367   3.545   1.589
 3303SOL    HW210809   3.476   3.554   1.468
 3304SOL     OW10810   0.798   5.905   4.153
 3304SOL    HW110811   0.725   5.900   4.222
 3304SOL    HW210812   0.770   5.855   4.071
 3305SOL     OW10813   1.928   1.615   3.080
 3305SOL    HW110814   1.877   1.580   3.001
 3305SOL    HW210815   1.975   1.699   3.054
 3306SOL     OW10816   2.118   5.334   4.888
 3306SOL    HW110817   2.056   5.258   4.869
 3306SOL    HW210818   2.165   5.318   4.975
 3307SOL     OW10819   0.130   5.708   0.234
 3307SOL    HW110820   0.054   5.687   0.173
 3307SOL    HW210821   0.214   5.668   0.198
 3308SOL     OW10822   3.491   6.417   6.980
 3308SOL    HW110823   3.537   6.417   6.891
 3308SOL    HW210824   3.517   6.335   0.002
 3309SOL     OW10825   6.945   5.949   2.575
 3309SOL    HW110826   6.960   5.935   2.477
 3309SOL    HW210827   6.901   6.038   2.590
 3310SOL     OW10828   0.138   3.580   5.903
 3310SOL    HW110829   0.164   3.484   5.912
 3310SOL    HW210830   0.090   3.595   5.817
 3311SOL     OW10831   2.529   4.103   1.750
 3311SOL    HW110832   2.535   4.022   1.692
 3311SOL    HW210833   2.566   4.182   1.700
 3312SOL     OW10834   4.339   4.654   5.905
 3312SOL    HW110835   4.403   4.669   5.830
 3312SOL    HW210836   4.249   4.632   5.868
 3313SOL     OW10837   0.273   5.044   3.380
 3313SOL    HW110838   0.314   4.955   3.364
 3313SOL    HW210839   0.344   5.110   3.405
 3314SOL     OW10840   2.693   1.598   3.308
 3314SOL    HW110841   2.679   1.614   3.210
 3314SOL    HW210842   2.781   1.636   3.336
 3315SOL     OW10843   6.490   3.240   4.949
 3315SOL    HW110844   6.467   3.270   5.041
 3315SOL    HW210845   6.448   3.301   4.882
 3316SOL     OW10846   5.007   2.018   5.892
 3316SOL    HW110847   5.057   2.100   5.864
 3316SOL    HW210848   5.018   1.947   5.822
 3317SOL     OW10849   4.367   3.059   1.755
 3317SOL    HW110850   4.356   3.151   1.716
 3317SOL    HW210851   4.461   3.047   1.786
 3318SOL     OW10852   2.773   0.642   0.430
 3318SOL    HW110853   2.859   0.652   0.380
 3318SOL    HW210854   2.709   0.713   0.402
 3319SOL     OW10855   6.329   0.880   4.077
 3319SOL    HW110856   6.294   0.792   4.044
 3319SOL    HW210857   6.403   0.911   4.017
 3320SOL     OW10858   5.553   0.598   4.802
 3320SOL    HW110859   5.583   0.573   4.894
 3320SOL    HW210860   5.454   0.581   4.794
 3321SOL     OW10861   4.580   2.213   0.359
 3321SOL    HW110862   4.654   2.160   0.398
 3321SOL    HW210863   4.542   2.165   0.280
 3322SOL     OW10864   5.892   3.472   0.696
 3322SOL    HW110865   5.806   3.421   0.693
 3322SOL    HW210866   5.944   3.455   0.613
 3323SOL     OW10867   3.023   2.866   0.489
 3323SOL    HW110868   3.033   2.865   0.390
 3323SOL    HW210869   3.113   2.874   0.532
 3324SOL     OW10870   2.582   4.292   6.425
 3324SOL    HW110871   2.567   4.275   6.523
 3324SOL    HW210872   2.497   4.277   6.375
 3325SOL     OW10873   1.838   2.923   6.798
 3325SOL    HW110874   1.758   2.914   6.738
 3325SOL    HW210875   1.840   3.015   6.837
 3326SOL     OW10876   5.096   2.308   2.245
 3326SOL    HW110877   4.998   2.325   2.252
 3326SOL    HW210878   5.138   2.379   2.189
 3327SOL     OW10879   2.451   5.943   1.855
 3327SOL    HW110880   2.381   5.927   1.785
 3327SOL    HW210881   2.503   5.859   1.870
 3328SOL     OW10882   4.244   1.521   0.956
 3328SOL    HW110883   4.207   1.613   0.950
 3328SOL    HW210884   4.261   1.486   0.864
 3329SOL     OW10885   4.780   0.074   4.700
 3329SOL    HW110886   4.785   0.082   4.601
 3329SOL    HW210887   4.869   0.045   4.735
 3330SOL     OW10888   6.303   4.922   1.257
 3330SOL    HW110889   6.276   4.951   1.349
 3330SOL    HW210890   6.304   4.822   1.252
 3331SOL     OW10891   1.482   3.806   0.897
 3331SOL    HW110892   1.549   3.880   0.889
 3331SOL    HW210893   1.429   3.818   0.981
 3332SOL     OW10894   6.726   5.050   0.125
 3332SOL    HW110895   6.790   5.107   0.177
 3332SOL    HW210896   6.646   5.105   0.100
 3333SOL     OW10897   3.215   3.794   6.488
 3333SOL    HW110898   3.129   3.843   6.475
 3333SOL    HW210899   3.196   3.700   6.517
 3334SOL     OW10900   2.297   4.137   1.369
 3334SOL    HW110901   2.251   4.085   1.297
 3334SOL    HW210902   2.247   4.124   1.455
 3335SOL     OW10903   5.140   7.018   5.739
 3335SOL    HW110904   5.172   0.005   5.833
 3335SOL    HW210905   5.066   6.951   5.740
 3336SOL     OW10906   1.805   6.519   4.108
 3336SOL    HW110907   1.816   6.423   4.085
 3336SOL    HW210908   1.892   6.556   4.142
 3337SOL     OW10909   3.061   3.936   1.618
 3337SOL    HW110910   2.979   3.989   1.594
 3337SOL    HW210911   3.086   3.956   1.713
 3338SOL     OW10912   5.956   3.288   2.240
 3338SOL    HW110913   5.865   3.297   2.199
 3338SOL    HW210914   6.015   3.233   2.180
 3339SOL     OW10915   0.941   6.941   6.294
 3339SOL    HW110916   0.923   6.991   6.378
 3339SOL    HW210917   0.864   6.880   6.273
 3340SOL     OW10918   3.574   1.689   3.317
 3340SOL    HW110919   3.576   1.674   3.416
 3340SOL    HW210920   3.480   1.685   3.285
 3341SOL     OW10921   0.764   4.782   3.579
 3341SOL    HW110922   0.687   4.721   3.597
 3341SOL    HW210923   0.821   4.789   3.660
 3342SOL     OW10924   1.623   6.131   3.855
 3342SOL    HW110925   1.610   6.066   3.781
 3342SOL    HW210926   1.558   6.206   3.846
 3343SOL     OW10927   4.827   3.713   0.060
 3343SOL    HW110928   4.856   3.728   0.155
 3343SOL    HW210929   4.845   3.796   0.006
 3344SOL     OW10930   5.930   3.317   3.400
 3344SOL    HW110931   5.854   3.266   3.439
 3344SOL    HW210932   5.980   3.364   3.473
 3345SOL     OW10933   1.723   2.649   6.032
 3345SOL    HW110934   1.736   2.615   6.125
 3345SOL    HW210935   1.641   2.706   6.028
 3346SOL     OW10936   1.089   1.264   6.839
 3346SOL    HW110937   1.093   1.170   6.806
 3346SOL    HW210938   1.042   1.321   6.772
 3347SOL     OW10939   0.848   3.233   5.518
 3347SOL    HW110940   0.920   3.279   5.570
 3347SOL    HW210941   0.791   3.300   5.471
 3348SOL     OW10942   3.710   3.842   4.877
 3348SOL    HW110943   3.784   3.879   4.821
 3348SOL    HW210944   3.717   3.742   4.880
 3349SOL     OW10945   1.674   5.092   3.157
 3349SOL    HW110946   1.646   5.180   3.119
 3349SOL    HW210947   1.603   5.024   3.140
 3350SOL     OW10948   7.007   2.356   5.817
 3350SOL    HW110949   6.954   2.363   5.732
 3350SOL    HW210950   0.014   2.446   5.842
 3351SOL     OW10951   4.968   0.459   2.695
 3351SOL    HW110952   4.931   0.419   2.778
 3351SOL    HW210953   5.067   0.469   2.704
 3352SOL     OW10954   6.625   3.150   0.431
 3352SOL    HW110955   6.682   3.125   0.509
 3352SOL    HW210956   6.681   3.189   0.358
 3353SOL     OW10957   3.022   5.789   1.808
 3353SOL    HW110958   3.027   5.719   1.738
 3353SOL    HW210959   3.077   5.868   1.780
 3354SOL     OW10960   4.581   2.458   5.522
 3354SOL    HW110961   4.573   2.520   5.444
 3354SOL    HW210962   4.663   2.403   5.513
 3355SOL     OW10963   2.615   2.050   6.191
 3355SOL    HW110964   2.715   2.049   6.195
 3355SOL    HW210965   2.585   2.052   6.096
 3356SOL     OW10966   0.384   5.384   5.686
 3356SOL    HW110967   0.296   5.423   5.658
 3356SOL    HW210968   0.379   5.284   5.681
 3357SOL     OW10969   2.203   3.802   2.050
 3357SOL    HW110970   2.236   3.864   1.979
 3357SOL    HW210971   2.242   3.711   2.035
 3358SOL     OW10972   4.542   1.885   1.134
 3358SOL    HW110973   4.503   1.965   1.180
 3358SOL    HW210974   4.488   1.804   1.156
 3359SOL     OW10975   0.544   6.826   2.644
 3359SOL    HW110976   0.544   6.909   2.587
 3359SOL    HW210977   0.531   6.746   2.585
 3360SOL     OW10978   1.528   1.623   6.913
 3360SOL    HW110979   1.495   1.703   6.862
 3360SOL    HW210980   1.455   1.556   6.920
 3361SOL     OW10981   0.403   5.167   4.702
 3361SOL    HW110982   0.410   5.232   4.626
 3361SOL    HW210983   0.397   5.074   4.666
 3362SOL     OW10984   3.578   1.794   2.549
 3362SOL    HW110985   3.546   1.889   2.546
 3362SOL    HW210986   3.505   1.736   2.584
 3363SOL     OW10987   6.496   0.674   2.363
 3363SOL    HW110988   6.466   0.601   2.426
 3363SOL    HW210989   6.568   0.638   2.304
 3364SOL     OW10990   1.427   4.757   3.857
 3364SOL    HW110991   1.389   4.828   3.798
 3364SOL    HW210992   1.513   4.789   3.897
 3365SOL     OW10993   0.235   2.059   5.009
 3365SOL    HW110994   0.167   1.987   4.996
 3365SOL    HW210995   0.224   2.099   5.100
 3366SOL     OW10996   5.765   5.502   4.631
 3366SOL    HW110997   5.796   5.591   4.597
 3366SOL    HW210998   5.841   5.437   4.626
 3367SOL     OW10999   3.790   2.935   2.544
 3367SOL    HW111000   3.784   3.025   2.587
 3367SOL    HW211001   3.839   2.872   2.605
 3368SOL     OW11002   0.522   5.725   6.825
 3368SOL    HW111003   0.607   5.677   6.805
 3368SOL    HW211004   0.444   5.671   6.792
 3369SOL     OW11005   3.620   2.008   0.659
 3369SOL    HW111006   3.647   2.104   0.650
 3369SOL    HW211007   3.582   1.993   0.750
 3370SOL     OW11008   0.071   6.300   0.581
 3370SOL    HW111009   0.004   6.226   0.588
 3370SOL    HW211010   0.065   6.342   0.490
 3371SOL     OW11011   2.245   2.453   1.794
 3371SOL    HW111012   2.302   2.528   1.829
 3371SOL    HW211013   2.195   2.410   1.869
 3372SOL     OW11014   6.766   2.134   0.773
 3372SOL    HW111015   6.686   2.138   0.832
 3372SOL    HW211016   6.774   2.042   0.734
 3373SOL     OW11017   0.527   1.513   3.846
 3373SOL    HW111018   0.443   1.568   3.848
 3373SOL    HW211019   0.518   1.442   3.776
 3374SOL     OW11020   1.305   6.399   4.561
 3374SOL    HW111021   1.292   6.365   4.467
 3374SOL    HW211022   1.281   6.326   4.625
 3375SOL     OW11023   0.297   4.498   6.809
 3375SOL    HW111024   0.266   4.436   6.736
 3375SOL    HW211025   0.313   4.445   6.892
 3376SOL     OW11026   4.084   3.661   4.704
 3376SOL    HW111027   4.018   3.628   4.637
 3376SOL    HW211028   4.065   3.757   4.726
 3377SOL     OW11029   6.572   5.842   6.211
 3377SOL    HW111030   6.555   5.940   6.225
 3377SOL    HW211031   6.578   5.824   6.113
 3378SOL     OW11032   1.019   0.945   1.004
 3378SOL    HW111033   0.979   0.979   1.089
 3378SOL    HW211034   0.946   0.916   0.942
 3379SOL     OW11035   0.590   1.044   6.024
 3379SOL    HW111036   0.508   0.992   6.004
 3379SOL    HW211037   0.592   1.127   5.968
 3380SOL     OW11038   5.562   6.356   5.011
 3380SOL    HW111039   5.553   6.267   4.966
 3380SOL    HW211040   5.613   6.418   4.952
 3381SOL     OW11041   0.246   2.749   1.396
 3381SOL    HW111042   0.279   2.837   1.429
 3381SOL    HW211043   0.303   2.676   1.434
 3382SOL     OW11044   0.686   2.776   0.437
 3382SOL    HW111045   0.639   2.756   0.523
 3382SOL    HW211046   0.714   2.690   0.394
 3383SOL     OW11047   4.303   5.867   1.364
 3383SOL    HW111048   4.375   5.905   1.306
 3383SOL    HW211049   4.324   5.887   1.460
 3384SOL     OW11050   2.624   3.158   6.650
 3384SOL    HW111051   2.704   3.099   6.665
 3384SOL    HW211052   2.559   3.113   6.590
 3385SOL     OW11053   0.002   3.418   4.901
 3385SOL    HW111054   0.076   3.403   4.835
 3385SOL    HW211055   6.976   3.496   4.872
 3386SOL     OW11056   5.300   4.645   6.996
 3386SOL    HW111057   5.391   4.609   7.014
 3386SOL    HW211058   5.234   4.570   6.993
 3387SOL     OW11059   2.319   0.777   2.770
 3387SOL    HW111060   2.305   0.875   2.780
 3387SOL    HW211061   2.391   0.747   2.832
 3388SOL     OW11062   5.345   3.013   2.111
 3388SOL    HW111063   5.366   3.075   2.035
 3388SOL    HW211064   5.386   3.048   2.195
 3389SOL     OW11065   5.750   5.431   6.545
 3389SOL    HW111066   5.721   5.339   6.571
 3389SOL    HW211067   5.848   5.442   6.565
 3390SOL     OW11068   5.770   6.884   6.525
 3390SOL    HW111069   5.746   6.807   6.466
 3390SOL    HW211070   5.689   6.914   6.575
 3391SOL     OW11071   4.517   2.427   4.832
 3391SOL    HW111072   4.580   2.448   4.758
 3391SOL    HW211073   4.452   2.503   4.844
 3392SOL     OW11074   2.391   0.460   3.797
 3392SOL    HW111075   2.354   0.527   3.732
 3392SOL    HW211076   2.471   0.415   3.757
 3393SOL     OW11077   0.325   6.201   0.694
 3393SOL    HW111078   0.264   6.266   0.650
 3393SOL    HW211079   0.418   6.214   0.661
 3394SOL     OW11080   5.978   3.118   1.463
 3394SOL    HW111081   6.048   3.117   1.392
 3394SOL    HW211082   5.955   3.024   1.489
 3395SOL     OW11083   5.357   3.134   3.282
 3395SOL    HW111084   5.415   3.053   3.287
 3395SOL    HW211085   5.278   3.122   3.342
 3396SOL     OW11086   5.254   1.722   3.095
 3396SOL    HW111087   5.320   1.797   3.097
 3396SOL    HW211088   5.245   1.687   3.002
 3397SOL     OW11089   2.951   6.117   5.720
 3397SOL    HW111090   2.994   6.160   5.799
 3397SOL    HW211091   2.993   6.028   5.704
 3398SOL     OW11092   0.923   6.858   4.838
 3398SOL    HW111093   1.006   6.907   4.812
 3398SOL    HW211094   0.911   6.861   4.937
 3399SOL     OW11095   5.456   4.053   3.570
 3399SOL    HW111096   5.407   4.132   3.533
 3399SOL    HW211097   5.430   3.971   3.518
 3400SOL     OW11098   4.582   3.312   6.209
 3400SOL    HW111099   4.635   3.279   6.130
 3400SOL    HW211100   4.490   3.338   6.179
 3401SOL     OW11101   0.475   3.092   0.477
 3401SOL    HW111102   0.514   3.041   0.554
 3401SOL    HW211103   0.535   3.084   0.397
 3402SOL     OW11104   4.564   5.816   0.098
 3402SOL    HW111105   4.548   5.791   0.193
 3402SOL    HW211106   4.524   5.905   0.079
 3403SOL     OW11107   3.182   5.456   5.740
 3403SOL    HW111108   3.199   5.359   5.724
 3403SOL    HW211109   3.262   5.498   5.781
 3404SOL     OW11110   5.053   1.258   0.265
 3404SOL    HW111111   5.091   1.348   0.285
 3404SOL    HW211112   5.029   1.253   0.169
 3405SOL     OW11113   6.379   4.212   6.051
 3405SOL    HW111114   6.478   4.202   6.065
 3405SOL    HW211115   6.353   4.165   5.967
 3406SOL     OW11116   0.976   3.483   1.633
 3406SOL    HW111117   1.004   3.549   1.564
 3406SOL    HW211118   1.057   3.442   1.675
 3407SOL     OW11119   1.286   4.527   6.562
 3407SOL    HW111120   1.378   4.518   6.600
 3407SOL    HW211121   1.286   4.499   6.466
 3408SOL     OW11122   4.963   3.520   4.593
 3408SOL    HW111123   4.890   3.542   4.658
 3408SOL    HW211124   5.040   3.582   4.609
 3409SOL     OW11125   3.568   6.591   6.471
 3409SOL    HW111126   3.481   6.631   6.443
 3409SOL    HW211127   3.607   6.539   6.395
 3410SOL     OW11128   6.552   6.892   1.153
 3410SOL    HW111129   6.543   6.879   1.252
 3410SOL    HW211130   6.498   6.970   1.125
 3411SOL     OW11131   0.566   3.126   1.151
 3411SOL    HW111132   0.564   3.101   1.055
 3411SOL    HW211133   0.536   3.221   1.161
 3412SOL     OW11134   4.755   2.582   0.568
 3412SOL    HW111135   4.717   2.490   0.575
 3412SOL    HW211136   4.792   2.609   0.657
 3413SOL     OW11137   5.986   1.578   0.773
 3413SOL    HW111138   5.896   1.583   0.817
 3413SOL    HW211139   5.978   1.525   0.688
 3414SOL     OW11140   3.756   1.680   6.568
 3414SOL    HW111141   3.659   1.684   6.593
 3414SOL    HW211142   3.793   1.590   6.589
 3415SOL     OW11143   1.967   3.631   4.067
 3415SOL    HW111144   1.883   3.579   4.085
 3415SOL    HW211145   2.039   3.600   4.129
 3416SOL     OW11146   6.329   6.160   0.891
 3416SOL    HW111147   6.262   6.231   0.912
 3416SOL    HW211148   6.402   6.199   0.834
 3417SOL     OW11149   0.154   6.720   3.108
 3417SOL    HW111150   0.140   6.801   3.164
 3417SOL    HW211151   0.131   6.741   3.013
 3418SOL     OW11152   3.437   5.968   3.540
 3418SOL    HW111153   3.516   5.936   3.488
 3418SOL    HW211154   3.353   5.953   3.487
 3419SOL     OW11155   2.949   5.820   5.681
 3419SOL    HW111156   2.958   5.747   5.749
 3419SOL    HW211157   2.853   5.825   5.651
 3420SOL     OW11158   6.039   3.253   3.773
 3420SOL    HW111159   6.036   3.352   3.757
 3420SOL    HW211160   6.095   3.234   3.853
 3421SOL     OW11161   4.593   1.872   4.725
 3421SOL    HW111162   4.630   1.845   4.814
 3421SOL    HW211163   4.556   1.964   4.731
 3422SOL     OW11164   2.034   0.424   0.238
 3422SOL    HW111165   2.109   0.422   0.172
 3422SOL    HW211166   1.984   0.510   0.230
 3423SOL     OW11167   0.255   4.768   6.412
 3423SOL    HW111168   0.166   4.767   6.457
 3423SOL    HW211169   0.327   4.745   6.478
 3424SOL     OW11170   2.420   6.410   0.875
 3424SOL    HW111171   2.337   6.412   0.819
 3424SOL    HW211172   2.500   6.398   0.815
 3425SOL     OW11173   4.949   5.335   2.497
 3425SOL    HW111174   4.973   5.322   2.594
 3425SOL    HW211175   4.901   5.254   2.464
 3426SOL     OW11176   4.475   2.892   0.318
 3426SOL    HW111177   4.561   2.921   0.275
 3426SOL    HW211178   4.413   2.857   0.247
 3427SOL     OW11179   0.147   1.296   0.863
 3427SOL    HW111180   0.119   1.364   0.931
 3427SOL    HW211181   0.155   1.340   0.773
 3428SOL     OW11182   2.442   5.827   0.088
 3428SOL    HW111183   2.431   5.736   0.048
 3428SOL    HW211184   2.388   5.833   0.172
 3429SOL     OW11185   0.575   1.390   0.515
 3429SOL    HW111186   0.528   1.362   0.598
 3429SOL    HW211187   0.569   1.490   0.506
 3430SOL     OW11188   1.587   6.339   5.482
 3430SOL    HW111189   1.644   6.421   5.479
 3430SOL    HW211190   1.551   6.326   5.574
 3431SOL     OW11191   1.882   0.097   1.356
 3431SOL    HW111192   1.886   0.030   1.429
 3431SOL    HW211193   1.792   0.093   1.311
 3432SOL     OW11194   1.649   3.340   6.115
 3432SOL    HW111195   1.670   3.242   6.119
 3432SOL    HW211196   1.723   3.391   6.159
 3433SOL     OW11197   1.344   6.650   5.262
 3433SOL    HW111198   1.270   6.601   5.306
 3433SOL    HW211199   1.415   6.672   5.329
 3434SOL     OW11200   4.453   1.014   2.220
 3434SOL    HW111201   4.404   1.084   2.271
 3434SOL    HW211202   4.400   0.989   2.138
 3435SOL     OW11203   1.919   1.039   0.821
 3435SOL    HW111204   1.838   1.078   0.777
 3435SOL    HW211205   1.988   1.110   0.833
 3436SOL     OW11206   4.105   6.682   6.868
 3436SOL    HW111207   4.167   6.607   6.848
 3436SOL    HW211208   4.157   6.767   6.875
 3437SOL     OW11209   2.259   0.024   5.493
 3437SOL    HW111210   2.351   0.062   5.501
 3437SOL    HW211211   2.196   0.095   5.460
 3438SOL     OW11212   1.373   3.168   0.272
 3438SOL    HW111213   1.402   3.258   0.241
 3438SOL    HW211214   1.439   3.133   0.339
 3439SOL     OW11215   2.299   6.223   4.869
 3439SOL    HW111216   2.278   6.134   4.828
 3439SOL    HW211217   2.335   6.284   4.799
 3440SOL     OW11218   2.928   3.350   1.072
 3440SOL    HW111219   2.883   3.267   1.040
 3440SOL    HW211220   2.873   3.429   1.046
 3441SOL     OW11221   6.308   5.031   5.678
 3441SOL    HW111222   6.283   5.126   5.696
 3441SOL    HW211223   6.368   5.027   5.598
 3442SOL     OW11224   1.989   4.631   2.048
 3442SOL    HW111225   2.065   4.571   2.070
 3442SOL    HW211226   2.021   4.725   2.042
 3443SOL     OW11227   3.836   6.308   1.617
 3443SOL    HW111228   3.894   6.325   1.697
 3443SOL    HW211229   3.851   6.215   1.585
 3444SOL     OW11230   5.480   5.769   6.319
 3444SOL    HW111231   5.490   5.702   6.392
 3444SOL    HW211232   5.412   5.837   6.346
 3445SOL     OW11233   5.918   5.514   2.762
 3445SOL    HW111234   6.013   5.493   2.783
 3445SOL    HW211235   5.911   5.550   2.669
 3446SOL     OW11236   6.495   1.393   1.713
 3446SOL    HW111237   6.428   1.323   1.687
 3446SOL    HW211238   6.448   1.476   1.740
 3447SOL     OW11239   5.173   5.429   0.771
 3447SOL    HW111240   5.119   5.437   0.687
 3447SOL    HW211241   5.180   5.519   0.814
 3448SOL     OW11242   4.052   1.025   6.766
 3448SOL    HW111243   4.151   1.036   6.774
 3448SOL    HW211244   4.021   1.059   6.677
 3449SOL     OW11245   5.719   5.861   4.320
 3449SOL    HW111246   5.731   5.893   4.226
 3449SOL    HW211247   5.651   5.787   4.321
 3450SOL     OW11248   0.201   2.564   6.890
 3450SOL    HW111249   0.121   2.583   6.947
 3450SOL    HW211250   0.200   2.624   6.810
 3451SOL     OW11251   2.541   6.081   0.556
 3451SOL    HW111252   2.489   6.166   0.549
 3451SOL    HW211253   2.626   6.090   0.504
 3452SOL     OW11254   6.032   0.908   6.372
 3452SOL    HW111255   5.954   0.953   6.416
 3452SOL    HW211256   6.041   0.815   6.407
 3453SOL     OW11257   6.826   5.844   6.567
 3453SOL    HW111258   6.732   5.858   6.597
 3453SOL    HW211259   6.884   5.915   6.606
 3454SOL     OW11260   0.685   3.158   4.813
 3454SOL    HW111261   0.639   3.175   4.899
 3454SOL    HW211262   0.722   3.244   4.778
 3455SOL     OW11263   2.482   2.105   4.147
 3455SOL    HW111264   2.514   2.140   4.235
 3455SOL    HW211265   2.469   2.182   4.083
 3456SOL     OW11266   5.298   5.078   2.024
 3456SOL    HW111267   5.367   5.143   2.057
 3456SOL    HW211268   5.227   5.067   2.094
 3457SOL     OW11269   3.015   5.321   3.537
 3457SOL    HW111270   2.969   5.363   3.459
 3457SOL    HW211271   3.081   5.385   3.575
 3458SOL     OW11272   4.944   0.821   2.243
 3458SOL    HW111273   4.859   0.769   2.250
 3458SOL    HW211274   4.942   0.897   2.308
 3459SOL     OW11275   5.827   3.317   2.836
 3459SOL    HW111276   5.765   3.242   2.859
 3459SOL    HW211277   5.774   3.400   2.818
 3460SOL     OW11278   2.404   2.545   6.833
 3460SOL    HW111279   2.438   2.583   6.747
 3460SOL    HW211280   2.340   2.471   6.813
 3461SOL     OW11281   5.284   4.279   5.706
 3461SOL    HW111282   5.382   4.269   5.689
 3461SOL    HW211283   5.243   4.337   5.636
 3462SOL     OW11284   0.072   4.156   4.061
 3462SOL    HW111285   0.152   4.181   4.115
 3462SOL    HW211286   0.098   4.150   3.964
 3463SOL     OW11287   1.040   4.187   1.870
 3463SOL    HW111288   1.134   4.154   1.876
 3463SOL    HW211289   1.021   4.220   1.778
 3464SOL     OW11290   6.967   4.331   5.285
 3464SOL    HW111291   0.024   4.293   5.250
 3464SOL    HW211292   6.951   4.421   5.242
 3465SOL     OW11293   1.183   2.009   1.812
 3465SOL    HW111294   1.243   1.984   1.736
 3465SOL    HW211295   1.106   1.947   1.816
 3466SOL     OW11296   6.707   4.802   6.642
 3466SOL    HW111297   6.669   4.773   6.554
 3466SOL    HW211298   6.785   4.864   6.626
 3467SOL     OW11299   1.959   2.698   0.320
 3467SOL    HW111300   2.045   2.652   0.299
 3467SOL    HW211301   1.967   2.744   0.409
 3468SOL     OW11302   4.474   6.233   3.098
 3468SOL    HW111303   4.406   6.199   3.034
 3468SOL    HW211304   4.565   6.220   3.060
 3469SOL     OW11305   5.285   0.043   3.264
 3469SOL    HW111306   5.306   0.084   3.353
 3469SOL    HW211307   5.266   0.116   3.197
 3470SOL     OW11308   6.529   4.032   1.320
 3470SOL    HW111309   6.590   4.102   1.355
 3470SOL    HW211310   6.581   3.966   1.265
 3471SOL     OW11311   3.971   5.302   4.113
 3471SOL    HW111312   3.974   5.402   4.116
 3471SOL    HW211313   4.017   5.265   4.194
 3472SOL     OW11314   2.340   1.037   2.131
 3472SOL    HW111315   2.373   0.942   2.132
 3472SOL    HW211316   2.411   1.097   2.095
 3473SOL     OW11317   0.434   2.211   0.898
 3473SOL    HW111318   0.358   2.275   0.910
 3473SOL    HW211319   0.511   2.239   0.957
 3474SOL     OW11320   1.502   5.171   2.767
 3474SOL    HW111321   1.569   5.098   2.753
 3474SOL    HW211322   1.522   5.247   2.706
 3475SOL     OW11323   0.822   5.331   4.591
 3475SOL    HW111324   0.830   5.360   4.496
 3475SOL    HW211325   0.732   5.357   4.626
 3476SOL     OW11326   3.280   1.758   2.914
 3476SOL    HW111327   3.332   1.740   2.997
 3476SOL    HW211328   3.193   1.708   2.918
 3477SOL     OW11329   3.279   4.845   1.010
 3477SOL    HW111330   3.282   4.934   1.055
 3477SOL    HW211331   3.351   4.840   0.941
 3478SOL     OW11332   2.424   5.913   4.614
 3478SOL    HW111333   2.445   5.823   4.577
 3478SOL    HW211334   2.349   5.905   4.680
 3479SOL     OW11335   1.551   0.984   2.962
 3479SOL    HW111336   1.491   0.905   2.970
 3479SOL    HW211337   1.503   1.057   2.912
 3480SOL     OW11338   0.399   6.425   5.282
 3480SOL    HW111339   0.466   6.422   5.356
 3480SOL    HW211340   0.434   6.375   5.203
 3481SOL     OW11341   4.878   6.953   0.303
 3481SOL    HW111342   4.936   0.001   0.330
 3481SOL    HW211343   4.908   6.870   0.349
 3482SOL     OW11344   5.894   1.866   1.153
 3482SOL    HW111345   5.904   1.799   1.227
 3482SOL    HW211346   5.966   1.851   1.085
 3483SOL     OW11347   4.784   1.807   1.537
 3483SOL    HW111348   4.880   1.785   1.553
 3483SOL    HW211349   4.729   1.765   1.609
 3484SOL     OW11350   2.343   3.720   1.370
 3484SOL    HW111351   2.283   3.704   1.292
 3484SOL    HW211352   2.296   3.778   1.437
 3485SOL     OW11353   1.481   0.949   3.956
 3485SOL    HW111354   1.515   1.037   3.921
 3485SOL    HW211355   1.394   0.927   3.913
 3486SOL     OW11356   3.056   1.573   2.836
 3486SOL    HW111357   2.957   1.557   2.839
 3486SOL    HW211358   3.094   1.533   2.752
 3487SOL     OW11359   5.763   2.700   5.729
 3487SOL    HW111360   5.722   2.781   5.771
 3487SOL    HW211361   5.710   2.619   5.754
 3488SOL     OW11362   6.179   1.724   5.143
 3488SOL    HW111363   6.111   1.748   5.212
 3488SOL    HW211364   6.149   1.644   5.092
 3489SOL     OW11365   3.245   0.014   0.441
 3489SOL    HW111366   3.149   0.040   0.451
 3489SOL    HW211367   3.297   0.092   0.408
 3490SOL     OW11368   4.199   4.782   0.193
 3490SOL    HW111369   4.230   4.718   0.263
 3490SOL    HW211370   4.100   4.791   0.198
 3491SOL     OW11371   5.549   2.935   5.121
 3491SOL    HW111372   5.608   3.010   5.091
 3491SOL    HW211373   5.458   2.944   5.080
 3492SOL     OW11374   0.949   5.819   1.094
 3492SOL    HW111375   1.013   5.878   1.045
 3492SOL    HW211376   0.989   5.728   1.106
 3493SOL     OW11377   5.876   4.439   6.251
 3493SOL    HW111378   5.779   4.427   6.233
 3493SOL    HW211379   5.927   4.365   6.207
 3494SOL     OW11380   4.018   0.698   2.001
 3494SOL    HW111381   3.994   0.636   1.927
 3494SOL    HW211382   3.961   0.780   1.996
 3495SOL     OW11383   4.539   5.377   2.042
 3495SOL    HW111384   4.501   5.392   1.951
 3495SOL    HW211385   4.606   5.303   2.040
 3496SOL     OW11386   6.612   4.066   0.490
 3496SOL    HW111387   6.680   4.004   0.527
 3496SOL    HW211388   6.649   4.112   0.409
 3497SOL     OW11389   3.202   0.759   3.263
 3497SOL    HW111390   3.121   0.714   3.225
 3497SOL    HW211391   3.254   0.802   3.190
 3498SOL     OW11392   2.282   2.368   0.983
 3498SOL    HW111393   2.337   2.305   0.929
 3498SOL    HW211394   2.195   2.326   1.006
 3499SOL     OW11395   4.767   2.941   4.186
 3499SOL    HW111396   4.784   2.889   4.102
 3499SOL    HW211397   4.735   2.880   4.258
 3500SOL     OW11398   1.392   3.626   5.083
 3500SOL    HW111399   1.426   3.697   5.021
 3500SOL    HW211400   1.324   3.570   5.035
 3501SOL     OW11401   2.215   5.374   4.027
 3501SOL    HW111402   2.210   5.455   4.086
 3501SOL    HW211403   2.278   5.308   4.067
 3502SOL     OW11404   6.200   2.701   2.419
 3502SOL    HW111405   6.103   2.697   2.393
 3502SOL    HW211406   6.225   2.795   2.440
 3503SOL     OW11407   6.589   6.305   4.805
 3503SOL    HW111408   6.577   6.243   4.728
 3503SOL    HW211409   6.511   6.368   4.810
 3504SOL     OW11410   2.379   1.729   1.111
 3504SOL    HW111411   2.449   1.670   1.150
 3504SOL    HW211412   2.302   1.736   1.174
 3505SOL     OW11413   5.455   5.082   4.825
 3505SOL    HW111414   5.525   5.152   4.833
 3505SOL    HW211415   5.446   5.055   4.729
 3506SOL     OW11416   5.066   5.696   6.232
 3506SOL    HW111417   5.081   5.794   6.219
 3506SOL    HW211418   5.090   5.647   6.148
 3507SOL     OW11419   2.353   0.605   0.288
 3507SOL    HW111420   2.393   0.697   0.295
 3507SOL    HW211421   2.327   0.587   0.193
 3508SOL     OW11422   3.039   2.264   6.333
 3508SOL    HW111423   3.098   2.312   6.268
 3508SOL    HW211424   2.944   2.290   6.316
 3509SOL     OW11425   5.695   0.088   6.024
 3509SOL    HW111426   5.677   7.020   6.010
 3509SOL    HW211427   5.638   0.122   6.100
 3510SOL     OW11428   1.623   2.124   1.294
 3510SOL    HW111429   1.574   2.205   1.327
 3510SOL    HW211430   1.712   2.119   1.338
 3511SOL     OW11431   1.996   4.930   0.424
 3511SOL    HW111432   1.943   4.855   0.383
 3511SOL    HW211433   2.089   4.928   0.389
 3512SOL     OW11434   6.999   4.473   0.281
 3512SOL    HW111435   0.048   4.524   0.318
 3512SOL    HW211436   7.010   4.375   0.301
 3513SOL     OW11437   6.041   3.703   0.684
 3513SOL    HW111438   5.987   3.621   0.705
 3513SOL    HW211439   6.134   3.676   0.658
 3514SOL     OW11440   0.134   1.426   1.835
 3514SOL    HW111441   0.103   1.354   1.774
 3514SOL    HW211442   0.233   1.421   1.844
 3515SOL     OW11443   4.382   6.543   3.433
 3515SOL    HW111444   4.426   6.520   3.520
 3515SOL    HW211445   4.416   6.631   3.400
 3516SOL     OW11446   4.614   6.890   0.711
 3516SOL    HW111447   4.560   6.807   0.720
 3516SOL    HW211448   4.601   6.929   0.620
 3517SOL     OW11449   0.843   2.127   0.623
 3517SOL    HW111450   0.751   2.161   0.603
 3517SOL    HW211451   0.895   2.197   0.671
 3518SOL     OW11452   5.573   4.073   4.828
 3518SOL    HW111453   5.670   4.051   4.817
 3518SOL    HW211454   5.519   4.012   4.772
 3519SOL     OW11455   1.371   0.616   6.351
 3519SOL    HW111456   1.340   0.585   6.262
 3519SOL    HW211457   1.471   0.627   6.350
 3520SOL     OW11458   2.806   5.118   6.314
 3520SOL    HW111459   2.790   5.023   6.288
 3520SOL    HW211460   2.829   5.123   6.411
 3521SOL     OW11461   5.320   3.671   0.319
 3521SOL    HW111462   5.294   3.733   0.393
 3521SOL    HW211463   5.321   3.577   0.354
 3522SOL     OW11464   5.903   5.099   2.105
 3522SOL    HW111465   5.848   5.030   2.057
 3522SOL    HW211466   5.958   5.054   2.175
 3523SOL     OW11467   2.759   5.279   5.591
 3523SOL    HW111468   2.819   5.354   5.565
 3523SOL    HW211469   2.681   5.275   5.529
 3524SOL     OW11470   3.167   1.015   0.923
 3524SOL    HW111471   3.172   0.918   0.945
 3524SOL    HW211472   3.084   1.054   0.963
 3525SOL     OW11473   0.702   4.225   1.695
 3525SOL    HW111474   0.633   4.185   1.634
 3525SOL    HW211475   0.793   4.197   1.664
 3526SOL     OW11476   2.858   6.609   3.548
 3526SOL    HW111477   2.932   6.545   3.566
 3526SOL    HW211478   2.798   6.614   3.627
 3527SOL     OW11479   6.184   3.683   5.996
 3527SOL    HW111480   6.171   3.782   5.989
 3527SOL    HW211481   6.278   3.663   6.023
 3528SOL     OW11482   1.015   5.410   3.864
 3528SOL    HW111483   0.978   5.358   3.787
 3528SOL    HW211484   1.048   5.347   3.934
 3529SOL     OW11485   5.191   6.495   6.145
 3529SOL    HW111486   5.196   6.570   6.080
 3529SOL    HW211487   5.160   6.412   6.098
 3530SOL     OW11488   1.534   4.864   3.314
 3530SOL    HW111489   1.437   4.879   3.297
 3530SOL    HW211490   1.576   4.822   3.234
 3531SOL     OW11491   4.755   3.997   1.197
 3531SOL    HW111492   4.830   3.958   1.143
 3531SOL    HW211493   4.739   3.940   1.277
 3532SOL     OW11494   2.542   0.495   0.444
 3532SOL    HW111495   2.467   0.499   0.378
 3532SOL    HW211496   2.618   0.552   0.413
 3533SOL     OW11497   1.339   2.060   2.607
 3533SOL    HW111498   1.312   2.026   2.697
 3533SOL    HW211499   1.401   2.137   2.617
 3534SOL     OW11500   5.693   0.962   5.245
 3534SOL    HW111501   5.759   0.904   5.196
 3534SOL    HW211502   5.697   1.055   5.209
 3535SOL     OW11503   0.768   6.323   0.765
 3535SOL    HW111504   0.750   6.231   0.800
 3535SOL    HW211505   0.800   6.381   0.840
 3536SOL     OW11506   2.186   2.530   4.045
 3536SOL    HW111507   2.226   2.539   3.954
 3536SOL    HW211508   2.193   2.435   4.075
 3537SOL     OW11509   2.665   5.204   0.303
 3537SOL    HW111510   2.655   5.195   0.402
 3537SOL    HW211511   2.761   5.223   0.281
 3538SOL     OW11512   1.907   0.187   5.007
 3538SOL    HW111513   1.963   0.264   5.037
 3538SOL    HW211514   1.833   0.221   4.949
 3539SOL     OW11515   5.686   3.286   6.365
 3539SOL    HW111516   5.727   3.366   6.409
 3539SOL    HW211517   5.756   3.218   6.347
 3540SOL     OW11518   1.885   1.976   5.007
 3540SOL    HW111519   1.864   1.934   5.095
 3540SOL    HW211520   1.877   2.075   5.014
 3541SOL     OW11521   2.602   2.517   6.300
 3541SOL    HW111522   2.589   2.531   6.202
 3541SOL    HW211523   2.513   2.509   6.345
 3542SOL     OW11524   0.777   3.618   1.536
 3542SOL    HW111525   0.788   3.571   1.449
 3542SOL    HW211526   0.843   3.582   1.602
 3543SOL     OW11527   0.650   3.050   5.667
 3543SOL    HW111528   0.681   3.068   5.573
 3543SOL    HW211529   0.578   3.114   5.691
 3544SOL     OW11530   2.276   4.605   6.151
 3544SOL    HW111531   2.330   4.559   6.081
 3544SOL    HW211532   2.329   4.612   6.235
 3545SOL     OW11533   3.644   5.090   6.999
 3545SOL    HW111534   3.554   5.132   6.996
 3545SOL    HW211535   3.683   5.099   0.061
 3546SOL     OW11536   6.813   4.559   3.319
 3546SOL    HW111537   6.775   4.630   3.260
 3546SOL    HW211538   6.913   4.562   3.315
 3547SOL     OW11539   6.189   3.952   3.934
 3547SOL    HW111540   6.128   3.944   3.855
 3547SOL    HW211541   6.267   4.011   3.911
 3548SOL     OW11542   5.270   0.296   6.147
 3548SOL    HW111543   5.296   0.291   6.050
 3548SOL    HW211544   5.286   0.207   6.190
 3549SOL     OW11545   0.427   4.659   6.610
 3549SOL    HW111546   0.507   4.703   6.651
 3549SOL    HW211547   0.370   4.621   6.683
 3550SOL     OW11548   5.667   2.644   4.843
 3550SOL    HW111549   5.682   2.557   4.797
 3550SOL    HW211550   5.721   2.716   4.800
 3551SOL     OW11551   3.880   1.944   4.044
 3551SOL    HW111552   3.853   1.851   4.020
 3551SOL    HW211553   3.805   2.007   4.022
 3552SOL     OW11554   6.097   6.835   1.905
 3552SOL    HW111555   6.001   6.822   1.928
 3552SOL    HW211556   6.131   6.918   1.950
 3553SOL     OW11557   3.527   5.645   0.442
 3553SOL    HW111558   3.501   5.741   0.431
 3553SOL    HW211559   3.608   5.626   0.386
 3554SOL     OW11560   4.614   2.125   0.817
 3554SOL    HW111561   4.534   2.103   0.872
 3554SOL    HW211562   4.690   2.065   0.843
 3555SOL     OW11563   0.783   3.567   4.840
 3555SOL    HW111564   0.849   3.523   4.779
 3555SOL    HW211565   0.703   3.507   4.851
 3556SOL     OW11566   3.754   0.458   4.191
 3556SOL    HW111567   3.750   0.538   4.250
 3556SOL    HW211568   3.827   0.397   4.222
 3557SOL     OW11569   1.251   0.278   3.910
 3557SOL    HW111570   1.301   0.334   3.976
 3557SOL    HW211571   1.154   0.301   3.915
 3558SOL     OW11572   1.279   5.545   2.639
 3558SOL    HW111573   1.306   5.506   2.551
 3558SOL    HW211574   1.281   5.474   2.710
 3559SOL     OW11575   0.624   5.904   5.257
 3559SOL    HW111576   0.722   5.891   5.270
 3559SOL    HW211577   0.605   5.928   5.162
 3560SOL     OW11578   2.542   4.919   2.845
 3560SOL    HW111579   2.444   4.937   2.850
 3560SOL    HW211580   2.558   4.825   2.814
 3561SOL     OW11581   4.987   4.203   5.131
 3561SOL    HW111582   5.050   4.150   5.187
 3561SOL    HW211583   4.895   4.165   5.139
 3562SOL     OW11584   3.513   1.088   2.746
 3562SOL    HW111585   3.550   1.087   2.838
 3562SOL    HW211586   3.424   1.133   2.746
 3563SOL     OW11587   6.674   1.923   6.767
 3563SOL    HW111588   6.658   2.002   6.708
 3563SOL    HW211589   6.763   1.934   6.813
 3564SOL     OW11590   0.921   4.505   2.367
 3564SOL    HW111591   0.935   4.429   2.303
 3564SOL    HW211592   0.852   4.479   2.434
 3565SOL     OW11593   2.731   6.290   4.185
 3565SOL    HW111594   2.651   6.318   4.238
 3565SOL    HW211595   2.701   6.229   4.111
 3566SOL     OW11596   6.465   3.053   6.687
 3566SOL    HW111597   6.387   3.085   6.634
 3566SOL    HW211598   6.436   3.033   6.781
 3567SOL     OW11599   0.727   2.149   6.824
 3567SOL    HW111600   0.718   2.088   6.746
 3567SOL    HW211601   0.783   2.228   6.798
 3568SOL     OW11602   5.302   4.487   4.525
 3568SOL    HW111603   5.325   4.393   4.549
 3568SOL    HW211604   5.213   4.490   4.480
 3569SOL     OW11605   2.394   2.171   6.296
 3569SOL    HW111606   2.356   2.244   6.239
 3569SOL    HW211607   2.484   2.145   6.261
 3570SOL     OW11608   4.875   0.481   6.074
 3570SOL    HW111609   4.884   0.423   5.993
 3570SOL    HW211610   4.961   0.479   6.125
 3571SOL     OW11611   0.803   5.325   5.869
 3571SOL    HW111612   0.897   5.302   5.896
 3571SOL    HW211613   0.765   5.250   5.815
 3572SOL     OW11614   6.143   4.189   2.995
 3572SOL    HW111615   6.052   4.151   3.013
 3572SOL    HW211616   6.194   4.127   2.935
 3573SOL     OW11617   0.522   5.114   3.709
 3573SOL    HW111618   0.597   5.061   3.669
 3573SOL    HW211619   0.459   5.052   3.756
 3574SOL     OW11620   0.001   3.860   1.005
 3574SOL    HW111621   6.998   3.774   0.966
 3574SOL    HW211622   0.074   3.897   0.948
 3575SOL     OW11623   5.096   5.069   3.107
 3575SOL    HW111624   5.025   5.104   3.169
 3575SOL    HW211625   5.053   5.032   3.025
 3576SOL     OW11626   0.097   1.492   5.749
 3576SOL    HW111627   0.039   1.457   5.822
 3576SOL    HW211628   0.179   1.534   5.788
 3577SOL     OW11629   1.635   2.549   6.289
 3577SOL    HW111630   1.627   2.602   6.373
 3577SOL    HW211631   1.548   2.551   6.240
 3578SOL     OW11632   2.590   2.595   1.279
 3578SOL    HW111633   2.619   2.689   1.260
 3578SOL    HW211634   2.671   2.538   1.295
 3579SOL     OW11635   5.946   2.985   4.533
 3579SOL    HW111636   6.008   3.011   4.608
 3579SOL    HW211637   6.001   2.953   4.455
 3580SOL     OW11638   6.069   3.238   1.697
 3580SOL    HW111639   6.022   3.202   1.616
 3580SOL    HW211640   6.064   3.171   1.771
 3581SOL     OW11641   0.610   6.159   3.634
 3581SOL    HW111642   0.658   6.246   3.624
 3581SOL    HW211643   0.546   6.147   3.557
 3582SOL     OW11644   0.903   2.435   5.353
 3582SOL    HW111645   0.924   2.350   5.304
 3582SOL    HW211646   0.842   2.415   5.429
 3583SOL     OW11647   1.270   3.691   6.538
 3583SOL    HW111648   1.186   3.740   6.563
 3583SOL    HW211649   1.349   3.736   6.580
 3584SOL     OW11650   5.986   5.235   6.299
 3584SOL    HW111651   5.896   5.278   6.298
 3584SOL    HW211652   6.007   5.199   6.208
 3585SOL     OW11653   4.180   7.008   4.872
 3585SOL    HW111654   4.176   7.021   4.773
 3585SOL    HW211655   4.217   6.917   4.892
 3586SOL     OW11656   0.245   1.664   4.844
 3586SOL    HW111657   0.194   1.733   4.794
 3586SOL    HW211658   0.181   1.600   4.887
 3587SOL     OW11659   3.274   5.888   6.878
 3587SOL    HW111660   3.197   5.840   6.837
 3587SOL    HW211661   3.261   5.987   6.870
 3588SOL     OW11662   1.749   2.428   5.848
 3588SOL    HW111663   1.657   2.389   5.840
 3588SOL    HW211664   1.745   2.511   5.903
 3589SOL     OW11665   3.573   1.623   5.219
 3589SOL    HW111666   3.667   1.620   5.185
 3589SOL    HW211667   3.513   1.662   5.150
 3590SOL     OW11668   1.118   2.615   6.869
 3590SOL    HW111669   1.206   2.644   6.909
 3590SOL    HW211670   1.043   2.644   6.929
 3591SOL     OW11671   5.444   3.541   6.448
 3591SOL    HW111672   5.479   3.558   6.540
 3591SOL    HW211673   5.363   3.483   6.453
 3592SOL     OW11674   6.868   4.484   1.740
 3592SOL    HW111675   6.898   4.474   1.645
 3592SOL    HW211676   6.870   4.580   1.766
 3593SOL     OW11677   1.006   5.455   5.064
 3593SOL    HW111678   1.025   5.553   5.056
 3593SOL    HW211679   0.911   5.438   5.040
 3594SOL     OW11680   4.576   0.580   3.258
 3594SOL    HW111681   4.582   0.569   3.159
 3594SOL    HW211682   4.490   0.625   3.281
 3595SOL     OW11683   2.797   6.194   0.299
 3595SOL    HW111684   2.800   6.112   0.357
 3595SOL    HW211685   2.706   6.202   0.258
 3596SOL     OW11686   6.485   2.926   3.339
 3596SOL    HW111687   6.523   3.013   3.308
 3596SOL    HW211688   6.475   2.926   3.438
 3597SOL     OW11689   1.686   1.607   4.274
 3597SOL    HW111690   1.678   1.618   4.373
 3597SOL    HW211691   1.714   1.513   4.253
 3598SOL     OW11692   0.816   5.408   5.550
 3598SOL    HW111693   0.831   5.469   5.472
 3598SOL    HW211694   0.756   5.452   5.616
 3599SOL     OW11695   6.988   1.765   5.816
 3599SOL    HW111696   7.011   1.747   5.720
 3599SOL    HW211697   0.036   1.810   5.861
 3600SOL     OW11698   1.009   3.780   0.785
 3600SOL    HW111699   0.994   3.845   0.710
 3600SOL    HW211700   1.104   3.749   0.783
 3601SOL     OW11701   5.156   4.671   6.264
 3601SOL    HW111702   5.166   4.713   6.353
 3601SOL    HW211703   5.073   4.706   6.219
 3602SOL     OW11704   1.624   1.980   1.031
 3602SOL    HW111705   1.558   2.002   0.959
 3602SOL    HW211706   1.607   2.039   1.111
 3603SOL     OW11707   3.348   0.412   3.315
 3603SOL    HW111708   3.426   0.390   3.373
 3603SOL    HW211709   3.379   0.462   3.235
 3604SOL     OW11710   6.981   4.862   3.065
 3604SOL    HW111711   7.018   4.954   3.080
 3604SOL    HW211712   0.025   4.802   3.032
 3605SOL     OW11713   6.405   3.907   5.371
 3605SOL    HW111714   6.482   3.962   5.403
 3605SOL    HW211715   6.428   3.864   5.284
 3606SOL     OW11716   6.968   0.111   5.110
 3606SOL    HW111717   7.015   0.190   5.072
 3606SOL    HW211718   6.902   0.077   5.044
 3607SOL     OW11719   5.535   5.725   2.128
 3607SOL    HW111720   5.452   5.756   2.083
 3607SOL    HW211721   5.577   5.652   2.075
 3608SOL     OW11722   5.708   1.877   3.620
 3608SOL    HW111723   5.790   1.838   3.660
 3608SOL    HW211724   5.673   1.951   3.677
 3609SOL     OW11725   1.155   6.849   3.810
 3609SOL    HW111726   1.145   6.780   3.882
 3609SOL    HW211727   1.219   6.919   3.840
 3610SOL     OW11728   1.556   6.749   5.432
 3610SOL    HW111729   1.629   6.785   5.374
 3610SOL    HW211730   1.555   6.798   5.519
 3611SOL     OW11731   4.531   5.842   5.838
 3611SOL    HW111732   4.526   5.824   5.740
 3611SOL    HW211733   4.539   5.755   5.888
 3612SOL     OW11734   6.508   7.014   0.124
 3612SOL    HW111735   6.515   6.938   0.060
 3612SOL    HW211736   6.554   0.066   0.086
 3613SOL     OW11737   4.606   4.850   1.710
 3613SOL    HW111738   4.552   4.770   1.684
 3613SOL    HW211739   4.561   4.897   1.786
 3614SOL     OW11740   3.941   3.227   1.422
 3614SOL    HW111741   3.884   3.263   1.495
 3614SOL    HW211742   3.904   3.256   1.333
 3615SOL     OW11743   4.986   5.629   6.860
 3615SOL    HW111744   5.024   5.583   6.940
 3615SOL    HW211745   4.952   5.720   6.887
 3616SOL     OW11746   0.900   2.562   6.528
 3616SOL    HW111747   0.898   2.660   6.506
 3616SOL    HW211748   0.811   2.536   6.565
 3617SOL     OW11749   4.125   1.782   6.721
 3617SOL    HW111750   4.121   1.682   6.728
 3617SOL    HW211751   4.036   1.820   6.747
 3618SOL     OW11752   2.293   2.466   5.247
 3618SOL    HW111753   2.323   2.370   5.243
 3618SOL    HW211754   2.245   2.489   5.162
 3619SOL     OW11755   5.269   2.791   4.646
 3619SOL    HW111756   5.171   2.774   4.651
 3619SOL    HW211757   5.319   2.719   4.694
 3620SOL     OW11758   6.090   6.203   6.263
 3620SOL    HW111759   6.143   6.157   6.192
 3620SOL    HW211760   6.109   6.160   6.351
 3621SOL     OW11761   3.472   2.768   5.169
 3621SOL    HW111762   3.478   2.846   5.231
 3621SOL    HW211763   3.421   2.694   5.212
 3622SOL     OW11764   2.002   1.798   5.631
 3622SOL    HW111765   2.023   1.719   5.574
 3622SOL    HW211766   2.025   1.882   5.581
 3623SOL     OW11767   6.270   6.119   4.169
 3623SOL    HW111768   6.361   6.114   4.128
 3623SOL    HW211769   6.202   6.134   4.097
 3624SOL     OW11770   1.519   6.477   1.943
 3624SOL    HW111771   1.472   6.389   1.945
 3624SOL    HW211772   1.612   6.465   1.908
 3625SOL     OW11773   6.379   2.939   6.942
 3625SOL    HW111774   6.342   2.847   6.935
 3625SOL    HW211775   6.308   3.001   6.976
 3626SOL     OW11776   1.509   2.273   5.900
 3626SOL    HW111777   1.480   2.229   5.815
 3626SOL    HW211778   1.533   2.203   5.967
 3627SOL     OW11779   3.467   3.003   3.125
 3627SOL    HW111780   3.395   2.997   3.194
 3627SOL    HW211781   3.475   3.098   3.093
 3628SOL     OW11782   1.653   1.126   1.478
 3628SOL    HW111783   1.716   1.098   1.405
 3628SOL    HW211784   1.701   1.184   1.543
 3629SOL     OW11785   0.116   1.252   5.622
 3629SOL    HW111786   0.106   1.348   5.649
 3629SOL    HW211787   0.043   1.198   5.663
 3630SOL     OW11788   5.462   2.807   3.820
 3630SOL    HW111789   5.529   2.817   3.895
 3630SOL    HW211790   5.438   2.710   3.811
 3631SOL     OW11791   1.718   0.821   3.649
 3631SOL    HW111792   1.653   0.894   3.626
 3631SOL    HW211793   1.677   0.759   3.715
 3632SOL     OW11794   5.351   5.656   1.578
 3632SOL    HW111795   5.397   5.735   1.618
 3632SOL    HW211796   5.341   5.670   1.479
 3633SOL     OW11797   4.225   1.714   6.000
 3633SOL    HW111798   4.235   1.775   5.921
 3633SOL    HW211799   4.220   1.619   5.969
 3634SOL     OW11800   1.402   4.331   4.670
 3634SOL    HW111801   1.415   4.235   4.644
 3634SOL    HW211802   1.358   4.380   4.595
 3635SOL     OW11803   3.706   0.258   6.702
 3635SOL    HW111804   3.780   0.212   6.752
 3635SOL    HW211805   3.636   0.191   6.677
 3636SOL     OW11806   0.642   5.592   0.734
 3636SOL    HW111807   0.585   5.671   0.710
 3636SOL    HW211808   0.611   5.512   0.682
 3637SOL     OW11809   0.086   1.483   2.127
 3637SOL    HW111810   0.089   1.465   2.029
 3637SOL    HW211811   0.108   1.400   2.177
 3638SOL     OW11812   0.528   4.408   3.727
 3638SOL    HW111813   0.584   4.456   3.795
 3638SOL    HW211814   0.489   4.325   3.767
 3639SOL     OW11815   3.084   4.388   0.865
 3639SOL    HW111816   3.096   4.292   0.891
 3639SOL    HW211817   3.171   4.436   0.878
 3640SOL     OW11818   4.086   1.020   0.856
 3640SOL    HW111819   4.128   0.947   0.802
 3640SOL    HW211820   4.158   1.076   0.896
 3641SOL     OW11821   5.351   3.659   2.970
 3641SOL    HW111822   5.290   3.618   3.038
 3641SOL    HW211823   5.393   3.586   2.915
 3642SOL     OW11824   5.614   0.654   0.015
 3642SOL    HW111825   5.566   0.736   0.046
 3642SOL    HW211826   5.609   0.583   0.085
 3643SOL     OW11827   2.960   5.796   4.850
 3643SOL    HW111828   2.885   5.788   4.785
 3643SOL    HW211829   3.017   5.714   4.845
 3644SOL     OW11830   6.916   1.311   1.510
 3644SOL    HW111831   6.971   1.265   1.580
 3644SOL    HW211832   6.833   1.258   1.493
 3645SOL     OW11833   0.625   2.427   3.259
 3645SOL    HW111834   0.676   2.500   3.214
 3645SOL    HW211835   0.653   2.338   3.221
 3646SOL     OW11836   0.715   4.104   6.116
 3646SOL    HW111837   0.626   4.058   6.109
 3646SOL    HW211838   0.769   4.084   6.034
 3647SOL     OW11839   2.352   5.296   5.907
 3647SOL    HW111840   2.319   5.284   6.000
 3647SOL    HW211841   2.379   5.391   5.893
 3648SOL     OW11842   3.878   4.838   1.913
 3648SOL    HW111843   3.788   4.824   1.953
 3648SOL    HW211844   3.868   4.880   1.823
 3649SOL     OW11845   5.054   2.889   1.868
 3649SOL    HW111846   5.056   2.939   1.955
 3649SOL    HW211847   5.080   2.794   1.884
 3650SOL     OW11848   6.855   5.772   1.469
 3650SOL    HW111849   6.848   5.848   1.404
 3650SOL    HW211850   6.764   5.733   1.484
 3651SOL     OW11851   0.677   6.529   5.039
 3651SOL    HW111852   0.587   6.496   5.010
 3651SOL    HW211853   0.744   6.508   4.968
 3652SOL     OW11854   5.607   6.280   3.506
 3652SOL    HW111855   5.518   6.245   3.477
 3652SOL    HW211856   5.626   6.367   3.460
 3653SOL     OW11857   0.829   1.428   3.727
 3653SOL    HW111858   0.826   1.334   3.762
 3653SOL    HW211859   0.782   1.489   3.791
 3654SOL     OW11860   3.132   3.889   0.781
 3654SOL    HW111861   3.146   3.805   0.728
 3654SOL    HW211862   3.094   3.867   0.871
 3655SOL     OW11863   2.085   5.566   4.524
 3655SOL    HW111864   2.177   5.548   4.490
 3655SOL    HW211865   2.084   5.558   4.624
 3656SOL     OW11866   0.546   4.295   1.381
 3656SOL    HW111867   0.466   4.246   1.416
 3656SOL    HW211868   0.578   4.359   1.451
 3657SOL     OW11869   5.169   5.681   5.540
 3657SOL    HW111870   5.215   5.625   5.472
 3657SOL    HW211871   5.190   5.646   5.632
 3658SOL     OW11872   1.775   4.931   5.901
 3658SOL    HW111873   1.874   4.924   5.901
 3658SOL    HW211874   1.746   4.999   5.833
 3659SOL     OW11875   2.170   3.919   5.831
 3659SOL    HW111876   2.113   3.845   5.794
 3659SOL    HW211877   2.241   3.879   5.890
 3660SOL     OW11878   5.643   6.625   3.884
 3660SOL    HW111879   5.577   6.609   3.957
 3660SOL    HW211880   5.702   6.702   3.909
 3661SOL     OW11881   5.375   0.634   5.322
 3661SOL    HW111882   5.444   0.628   5.394
 3661SOL    HW211883   5.396   0.711   5.262
 3662SOL     OW11884   3.116   0.928   4.241
 3662SOL    HW111885   3.170   0.922   4.325
 3662SOL    HW211886   3.159   0.874   4.169
 3663SOL     OW11887   2.161   1.515   6.581
 3663SOL    HW111888   2.162   1.456   6.662
 3663SOL    HW211889   2.100   1.593   6.598
 3664SOL     OW11890   4.642   2.740   1.411
 3664SOL    HW111891   4.615   2.644   1.405
 3664SOL    HW211892   4.561   2.796   1.427
 3665SOL     OW11893   1.274   6.722   4.884
 3665SOL    HW111894   1.213   6.683   4.815
 3665SOL    HW211895   1.324   6.648   4.930
 3666SOL     OW11896   1.044   3.487   3.120
 3666SOL    HW111897   1.019   3.402   3.073
 3666SOL    HW211898   1.134   3.475   3.163
 3667SOL     OW11899   0.734   1.287   2.817
 3667SOL    HW111900   0.668   1.221   2.852
 3667SOL    HW211901   0.686   1.359   2.767
 3668SOL     OW11902   1.488   0.863   1.393
 3668SOL    HW111903   1.571   0.914   1.417
 3668SOL    HW211904   1.472   0.792   1.461
 3669SOL     OW11905   4.795   1.268   3.530
 3669SOL    HW111906   4.893   1.275   3.510
 3669SOL    HW211907   4.758   1.360   3.543
 3670SOL     OW11908   2.151   5.026   0.089
 3670SOL    HW111909   2.209   5.015   0.170
 3670SOL    HW211910   2.091   5.105   0.101
 3671SOL     OW11911   6.805   2.116   4.208
 3671SOL    HW111912   6.759   2.037   4.168
 3671SOL    HW211913   6.765   2.200   4.170
 3672SOL     OW11914   5.268   1.719   1.115
 3672SOL    HW111915   5.198   1.757   1.055
 3672SOL    HW211916   5.250   1.622   1.130
 3673SOL     OW11917   3.682   6.202   6.673
 3673SOL    HW111918   3.697   6.245   6.583
 3673SOL    HW211919   3.617   6.127   6.663
 3674SOL     OW11920   1.423   5.431   5.860
 3674SOL    HW111921   1.517   5.443   5.891
 3674SOL    HW211922   1.421   5.375   5.777
 3675SOL     OW11923   2.205   3.249   4.002
 3675SOL    HW111924   2.187   3.316   3.929
 3675SOL    HW211925   2.284   3.194   3.978
 3676SOL     OW11926   5.359   4.834   2.832
 3676SOL    HW111927   5.267   4.834   2.793
 3676SOL    HW211928   5.353   4.851   2.931
 3677SOL     OW11929   2.204   6.523   3.551
 3677SOL    HW111930   2.296   6.558   3.568
 3677SOL    HW211931   2.155   6.513   3.639
 3678SOL     OW11932   0.169   1.879   4.221
 3678SOL    HW111933   0.232   1.803   4.239
 3678SOL    HW211934   0.221   1.963   4.211
 3679SOL     OW11935   0.850   0.916   3.511
 3679SOL    HW111936   0.843   0.940   3.414
 3679SOL    HW211937   0.772   0.858   3.536
 3680SOL     OW11938   4.912   3.313   3.977
 3680SOL    HW111939   4.944   3.350   4.064
 3680SOL    HW211940   4.974   3.240   3.948
 3681SOL     OW11941   0.486   0.791   6.446
 3681SOL    HW111942   0.578   0.767   6.477
 3681SOL    HW211943   0.492   0.861   6.375
 3682SOL     OW11944   5.488   1.902   6.923
 3682SOL    HW111945   5.423   1.949   6.862
 3682SOL    HW211946   5.545   1.970   6.968
 3683SOL     OW11947   0.019   1.145   3.405
 3683SOL    HW111948   6.991   1.224   3.381
 3683SOL    HW211949   0.023   1.082   3.328
 3684SOL     OW11950   1.757   4.687   0.577
 3684SOL    HW111951   1.777   4.726   0.488
 3684SOL    HW211952   1.734   4.761   0.641
 3685SOL     OW11953   1.234   6.141   0.048
 3685SOL    HW111954   1.282   6.204   7.016
 3685SOL    HW211955   1.209   6.059   7.026
 3686SOL     OW11956   4.914   5.819   4.138
 3686SOL    HW111957   4.874   5.870   4.062
 3686SOL    HW211958   4.864   5.733   4.151
 3687SOL     OW11959   3.348   6.100   5.150
 3687SOL    HW111960   3.303   6.039   5.085
 3687SOL    HW211961   3.447   6.089   5.144
 3688SOL     OW11962   0.446   4.092   6.469
 3688SOL    HW111963   0.498   4.007   6.464
 3688SOL    HW211964   0.423   4.123   6.377
 3689SOL     OW11965   2.207   6.863   5.684
 3689SOL    HW111966   2.142   6.804   5.636
 3689SOL    HW211967   2.240   6.934   5.622
 3690SOL     OW11968   4.365   6.204   0.625
 3690SOL    HW111969   4.338   6.289   0.579
 3690SOL    HW211970   4.394   6.137   0.556
 3691SOL     OW11971   2.316   1.739   6.674
 3691SOL    HW111972   2.259   1.664   6.641
 3691SOL    HW211973   2.274   1.780   6.755
 3692SOL     OW11974   6.540   5.940   4.955
 3692SOL    HW111975   6.494   5.930   5.044
 3692SOL    HW211976   6.484   5.896   4.884
 3693SOL     OW11977   2.097   3.593   3.215
 3693SOL    HW111978   2.147   3.680   3.216
 3693SOL    HW211979   2.126   3.540   3.135
 3694SOL     OW11980   1.689   6.543   2.862
 3694SOL    HW111981   1.696   6.529   2.764
 3694SOL    HW211982   1.763   6.602   2.893
 3695SOL     OW11983   6.457   2.913   1.713
 3695SOL    HW111984   6.457   2.984   1.643
 3695SOL    HW211985   6.547   2.908   1.756
 3696SOL     OW11986   3.534   6.493   4.475
 3696SOL    HW111987   3.571   6.459   4.562
 3696SOL    HW211988   3.439   6.464   4.466
 3697SOL     OW11989   0.150   6.329   2.483
 3697SOL    HW111990   0.245   6.350   2.505
 3697SOL    HW211991   0.090   6.367   2.554
 3698SOL     OW11992   2.976   1.091   4.656
 3698SOL    HW111993   2.933   1.163   4.711
 3698SOL    HW211994   3.004   1.129   4.568
 3699SOL     OW11995   1.130   2.190   3.929
 3699SOL    HW111996   1.192   2.268   3.940
 3699SOL    HW211997   1.046   2.207   3.981
 3700SOL     OW11998   0.522   5.491   4.664
 3700SOL    HW111999   0.458   5.552   4.617
 3700SOL    HW212000   0.523   5.512   4.761
 3701SOL     OW12001   1.308   1.119   4.182
 3701SOL    HW112002   1.351   1.113   4.273
 3701SOL    HW212003   1.351   1.053   4.121
 3702SOL     OW12004   5.763   6.355   3.188
 3702SOL    HW112005   5.755   6.379   3.091
 3702SOL    HW212006   5.812   6.268   3.196
 3703SOL     OW12007   5.495   0.834   5.654
 3703SOL    HW112008   5.568   0.886   5.610
 3703SOL    HW212009   5.502   0.738   5.627
 3704SOL     OW12010   3.575   1.626   1.006
 3704SOL    HW112011   3.569   1.628   0.906
 3704SOL    HW212012   3.576   1.720   1.041
 3705SOL     OW12013   4.406   4.592   4.248
 3705SOL    HW112014   4.388   4.604   4.150
 3705SOL    HW212015   4.326   4.622   4.300
 3706SOL     OW12016   1.641   3.570   0.185
 3706SOL    HW112017   1.651   3.555   0.284
 3706SOL    HW212018   1.728   3.552   0.140
 3707SOL     OW12019   5.405   4.704   3.783
 3707SOL    HW112020   5.451   4.618   3.758
 3707SOL    HW212021   5.459   4.752   3.852
 3708SOL     OW12022   6.941   0.446   6.926
 3708SOL    HW112023   6.917   0.382   6.853
 3708SOL    HW212024   6.861   0.463   6.983
 3709SOL     OW12025   3.788   0.464   0.856
 3709SOL    HW112026   3.811   0.383   0.910
 3709SOL    HW212027   3.690   0.463   0.834
 3710SOL     OW12028   5.976   5.422   5.191
 3710SOL    HW112029   5.967   5.322   5.192
 3710SOL    HW212030   5.985   5.453   5.096
 3711SOL     OW12031   0.704   6.812   4.201
 3711SOL    HW112032   0.752   6.899   4.192
 3711SOL    HW212033   0.723   6.754   4.122
 3712SOL     OW12034   0.105   4.988   6.421
 3712SOL    HW112035   0.157   4.903   6.411
 3712SOL    HW212036   0.077   5.019   6.330
 3713SOL     OW12037   0.717   6.581   6.003
 3713SOL    HW112038   0.704   6.556   6.099
 3713SOL    HW212039   0.658   6.525   5.945
 3714SOL     OW12040   5.605   6.155   6.080
 3714SOL    HW112041   5.700   6.128   6.097
 3714SOL    HW212042   5.576   6.121   5.990
 3715SOL     OW12043   0.816   3.895   2.183
 3715SOL    HW112044   0.776   3.923   2.096
 3715SOL    HW212045   0.748   3.845   2.237
 3716SOL     OW12046   6.305   6.855   4.400
 3716SOL    HW112047   6.285   6.791   4.475
 3716SOL    HW212048   6.401   6.883   4.406
 3717SOL     OW12049   6.735   6.775   6.891
 3717SOL    HW112050   6.638   6.781   6.916
 3717SOL    HW212051   6.779   6.864   6.908
 3718SOL     OW12052   0.872   0.829   6.832
 3718SOL    HW112053   0.782   0.874   6.826
 3718SOL    HW212054   0.921   0.841   6.746
 3719SOL     OW12055   5.155   3.850   1.935
 3719SOL    HW112056   5.203   3.934   1.910
 3719SOL    HW212057   5.157   3.838   2.034
 3720SOL     OW12058   6.370   2.787   6.554
 3720SOL    HW112059   6.339   2.845   6.479
 3720SOL    HW212060   6.438   2.722   6.521
 3721SOL     OW12061   6.331   4.563   1.759
 3721SOL    HW112062   6.361   4.514   1.842
 3721SOL    HW212063   6.377   4.652   1.754
 3722SOL     OW12064   6.216   6.110   0.592
 3722SOL    HW112065   6.312   6.126   0.571
 3722SOL    HW212066   6.173   6.195   0.623
 3723SOL     OW12067   5.928   5.658   1.170
 3723SOL    HW112068   6.025   5.656   1.146
 3723SOL    HW212069   5.917   5.691   1.264
 3724SOL     OW12070   1.980   4.327   4.847
 3724SOL    HW112071   1.969   4.262   4.922
 3724SOL    HW212072   1.959   4.419   4.879
 3725SOL     OW12073   6.905   5.658   0.385
 3725SOL    HW112074   6.848   5.664   0.304
 3725SOL    HW212075   7.000   5.680   0.361
 3726SOL     OW12076   5.976   3.254   0.234
 3726SOL    HW112077   6.028   3.269   0.150
 3726SOL    HW212078   5.947   3.158   0.239
 3727SOL     OW12079   6.681   1.150   5.114
 3727SOL    HW112080   6.586   1.177   5.131
 3727SOL    HW212081   6.691   1.052   5.131
 3728SOL     OW12082   1.584   3.592   6.837
 3728SOL    HW112083   1.597   3.559   6.931
 3728SOL    HW212084   1.618   3.686   6.829
 3729SOL     OW12085   1.339   2.301   3.699
 3729SOL    HW112086   1.331   2.398   3.676
 3729SOL    HW212087   1.337   2.246   3.615
 3730SOL     OW12088   2.475   5.521   5.845
 3730SOL    HW112089   2.475   5.553   5.750
 3730SOL    HW212090   2.445   5.596   5.905
 3731SOL     OW12091   0.323   1.574   0.685
 3731SOL    HW112092   0.312   1.609   0.778
 3731SOL    HW212093   0.384   1.495   0.685
 3732SOL     OW12094   3.063   1.604   0.360
 3732SOL    HW112095   3.008   1.685   0.380
 3732SOL    HW212096   3.091   1.605   0.264
 3733SOL     OW12097   1.602   3.425   2.956
 3733SOL    HW112098   1.558   3.473   3.032
 3733SOL    HW212099   1.532   3.396   2.891
 3734SOL     OW12100   4.883   0.287   1.503
 3734SOL    HW112101   4.836   0.371   1.531
 3734SOL    HW212102   4.980   0.305   1.493
 3735SOL     OW12103   2.239   1.526   3.103
 3735SOL    HW112104   2.160   1.490   3.152
 3735SOL    HW212105   2.213   1.608   3.052
 3736SOL     OW12106   6.969   1.880   0.931
 3736SOL    HW112107   6.943   1.973   0.956
 3736SOL    HW212108   0.003   1.882   0.854
 3737SOL     OW12109   5.644   1.397   3.880
 3737SOL    HW112110   5.578   1.417   3.952
 3737SOL    HW212111   5.631   1.462   3.804
 3738SOL     OW12112   0.533   0.327   2.765
 3738SOL    HW112113   0.536   0.229   2.786
 3738SOL    HW212114   0.515   0.378   2.849
 3739SOL     OW12115   2.350   4.917   0.767
 3739SOL    HW112116   2.416   4.872   0.828
 3739SOL    HW212117   2.358   4.879   0.675
 3740SOL     OW12118   6.116   1.498   1.015
 3740SOL    HW112119   6.160   1.409   1.009
 3740SOL    HW212120   6.077   1.522   0.926
 3741SOL     OW12121   5.499   3.038   6.909
 3741SOL    HW112122   5.498   2.938   6.902
 3741SOL    HW212123   5.405   3.071   6.918
 3742SOL     OW12124   2.480   1.986   6.941
 3742SOL    HW112125   2.554   1.926   6.971
 3742SOL    HW212126   2.516   2.057   6.881
 3743SOL     OW12127   5.737   3.967   0.499
 3743SOL    HW112128   5.804   4.003   0.434
 3743SOL    HW212129   5.709   4.040   0.562
 3744SOL     OW12130   1.689   6.215   1.943
 3744SOL    HW112131   1.658   6.169   1.860
 3744SOL    HW212132   1.698   6.313   1.925
 3745SOL     OW12133   4.166   4.990   1.805
 3745SOL    HW112134   4.202   4.989   1.712
 3745SOL    HW212135   4.241   5.003   1.870
 3746SOL     OW12136   5.628   0.612   3.572
 3746SOL    HW112137   5.639   0.656   3.661
 3746SOL    HW212138   5.584   0.523   3.584
 3747SOL     OW12139   2.339   6.369   5.091
 3747SOL    HW112140   2.247   6.370   5.131
 3747SOL    HW212141   2.339   6.315   5.007
 3748SOL     OW12142   5.849   1.238   1.690
 3748SOL    HW112143   5.780   1.165   1.687
 3748SOL    HW212144   5.930   1.204   1.739
 3749SOL     OW12145   1.925   5.533   4.039
 3749SOL    HW112146   2.001   5.564   4.096
 3749SOL    HW212147   1.961   5.490   3.957
 3750SOL     OW12148   0.178   4.918   1.151
 3750SOL    HW112149   0.172   4.975   1.070
 3750SOL    HW212150   0.170   4.821   1.125
 3751SOL     OW12151   6.332   3.782   1.526
 3751SOL    HW112152   6.264   3.856   1.527
 3751SOL    HW212153   6.343   3.749   1.432
 3752SOL     OW12154   5.815   0.045   1.139
 3752SOL    HW112155   5.850   0.132   1.104
 3752SOL    HW212156   5.740   0.063   1.204
 3753SOL     OW12157   6.576   0.180   3.875
 3753SOL    HW112158   6.521   0.098   3.860
 3753SOL    HW212159   6.671   0.160   3.850
 3754SOL     OW12160   3.483   0.701   0.981
 3754SOL    HW112161   3.507   0.741   1.069
 3754SOL    HW212162   3.455   0.606   0.995
 3755SOL     OW12163   4.881   5.417   4.108
 3755SOL    HW112164   4.888   5.318   4.120
 3755SOL    HW212165   4.881   5.461   4.198
 3756SOL     OW12166   3.170   5.460   6.954
 3756SOL    HW112167   3.071   5.459   6.939
 3756SOL    HW212168   3.192   5.407   0.007
 3757SOL     OW12169   4.737   6.324   6.897
 3757SOL    HW112170   4.773   6.364   6.813
 3757SOL    HW212171   4.678   6.247   6.875
 3758SOL     OW12172   2.242   1.039   4.918
 3758SOL    HW112173   2.208   1.129   4.891
 3758SOL    HW212174   2.329   1.050   4.968
 3759SOL     OW12175   4.846   6.453   6.344
 3759SOL    HW112176   4.798   6.369   6.367
 3759SOL    HW212177   4.944   6.434   6.332
 3760SOL     OW12178   2.076   1.303   4.511
 3760SOL    HW112179   2.041   1.266   4.597
 3760SOL    HW212180   2.051   1.241   4.436
 3761SOL     OW12181   1.186   0.761   4.833
 3761SOL    HW112182   1.129   0.750   4.915
 3761SOL    HW212183   1.167   0.849   4.791
 3762SOL     OW12184   1.410   4.516   0.987
 3762SOL    HW112185   1.374   4.582   1.053
 3762SOL    HW212186   1.493   4.552   0.945
 3763SOL     OW12187   6.810   4.037   0.884
 3763SOL    HW112188   6.775   4.125   0.855
 3763SOL    HW212189   6.909   4.034   0.870
 3764SOL     OW12190   1.728   0.241   2.780
 3764SOL    HW112191   1.652   0.260   2.718
 3764SOL    HW212192   1.800   0.309   2.766
 3765SOL     OW12193   5.084   1.508   1.046
 3765SOL    HW112194   4.987   1.504   1.021
 3765SOL    HW212195   5.107   1.428   1.102
 3766SOL     OW12196   1.717   1.335   4.248
 3766SOL    HW112197   1.799   1.339   4.191
 3766SOL    HW212198   1.718   1.250   4.302
 3767SOL     OW12199   2.058   4.716   6.837
 3767SOL    HW112200   2.133   4.778   6.813
 3767SOL    HW212201   2.020   4.743   6.925
 3768SOL     OW12202   1.449   6.580   3.881
 3768SOL    HW112203   1.441   6.664   3.827
 3768SOL    HW212204   1.485   6.602   3.971
 3769SOL     OW12205   6.384   6.645   4.837
 3769SOL    HW112206   6.293   6.685   4.848
 3769SOL    HW212207   6.410   6.598   4.921
 3770SOL     OW12208   1.479   0.983   6.207
 3770SOL    HW112209   1.571   0.973   6.244
 3770SOL    HW212210   1.468   1.076   6.171
 3771SOL     OW12211   5.202   2.989   0.193
 3771SOL    HW112212   5.169   2.925   0.262
 3771SOL    HW212213   5.284   3.036   0.227
 3772SOL     OW12214   0.046   1.857   6.716
 3772SOL    HW112215   0.017   1.820   6.628
 3772SOL    HW212216   0.127   1.807   6.748
 3773SOL     OW12217   5.848   3.095   6.243
 3773SOL    HW112218   5.872   2.999   6.224
 3773SOL    HW212219   5.931   3.144   6.271
 3774SOL     OW12220   6.616   6.045   0.683
 3774SOL    HW112221   6.563   5.962   0.662
 3774SOL    HW212222   6.648   6.041   0.778
 3775SOL     OW12223   4.253   5.107   2.316
 3775SOL    HW112224   4.296   5.026   2.358
 3775SOL    HW212225   4.281   5.189   2.365
 3776SOL     OW12226   4.319   1.933   6.973
 3776SOL    HW112227   4.337   1.867   6.901
 3776SOL    HW212228   4.233   1.980   6.955
 3777SOL     OW12229   3.482   6.408   4.067
 3777SOL    HW112230   3.547   6.470   4.110
 3777SOL    HW212231   3.532   6.335   4.019
 3778SOL     OW12232   3.411   4.879   2.664
 3778SOL    HW112233   3.323   4.842   2.635
 3778SOL    HW212234   3.414   4.884   2.764
 3779SOL     OW12235   1.524   4.227   0.316
 3779SOL    HW112236   1.531   4.264   0.409
 3779SOL    HW212237   1.434   4.184   0.304
 3780SOL     OW12238   5.911   4.652   5.141
 3780SOL    HW112239   5.898   4.555   5.121
 3780SOL    HW212240   5.965   4.661   5.225
 3781SOL     OW12241   0.422   6.013   4.494
 3781SOL    HW112242   0.387   6.010   4.587
 3781SOL    HW212243   0.503   6.072   4.491
 3782SOL     OW12244   2.134   0.321   3.268
 3782SOL    HW112245   2.217   0.290   3.314
 3782SOL    HW212246   2.118   0.418   3.287
 3783SOL     OW12247   5.798   5.575   3.270
 3783SOL    HW112248   5.843   5.495   3.311
 3783SOL    HW212249   5.709   5.548   3.234
 3784SOL     OW12250   4.624   2.655   3.305
 3784SOL    HW112251   4.673   2.694   3.227
 3784SOL    HW212252   4.690   2.616   3.370
 3785SOL     OW12253   1.769   2.990   6.112
 3785SOL    HW112254   1.702   2.932   6.066
 3785SOL    HW212255   1.789   2.954   6.203
 3786SOL     OW12256   2.074   5.584   3.535
 3786SOL    HW112257   2.039   5.540   3.452
 3786SOL    HW212258   2.092   5.681   3.517
 3787SOL     OW12259   5.777   1.606   2.536
 3787SOL    HW112260   5.868   1.619   2.575
 3787SOL    HW212261   5.711   1.593   2.610
 3788SOL     OW12262   0.079   5.090   4.511
 3788SOL    HW112263   0.017   5.064   4.585
 3788SOL    HW212264   0.052   5.179   4.475
 3789SOL     OW12265   6.649   2.863   4.767
 3789SOL    HW112266   6.579   2.813   4.716
 3789SOL    HW212267   6.632   2.961   4.760
 3790SOL     OW12268   1.153   4.192   5.499
 3790SOL    HW112269   1.068   4.192   5.552
 3790SOL    HW212270   1.172   4.285   5.467
 3791SOL     OW12271   5.366   1.321   6.488
 3791SOL    HW112272   5.335   1.411   6.456
 3791SOL    HW212273   5.331   1.250   6.427
 3792SOL     OW12274   0.885   2.880   4.414
 3792SOL    HW112275   0.968   2.923   4.449
 3792SOL    HW212276   0.905   2.835   4.326
 3793SOL     OW12277   5.431   6.358   1.951
 3793SOL    HW112278   5.440   6.271   1.998
 3793SOL    HW212279   5.365   6.416   2.000
 3794SOL     OW12280   2.465   3.226   1.082
 3794SOL    HW112281   2.403   3.175   1.142
 3794SOL    HW212282   2.551   3.176   1.072
 3795SOL     OW12283   4.105   6.263   0.191
 3795SOL    HW112284   4.065   6.306   0.271
 3795SOL    HW212285   4.084   6.317   0.110
 3796SOL     OW12286   3.284   2.064   2.228
 3796SOL    HW112287   3.368   2.052   2.174
 3796SOL    HW212288   3.308   2.099   2.318
 3797SOL     OW12289   0.100   3.116   1.489
 3797SOL    HW112290   0.198   3.128   1.506
 3797SOL    HW212291   0.062   3.055   1.558
 3798SOL     OW12292   2.894   5.455   3.278
 3798SOL    HW112293   2.967   5.490   3.219
 3798SOL    HW212294   2.857   5.371   3.239
 3799SOL     OW12295   6.790   2.644   4.024
 3799SOL    HW112296   6.692   2.633   4.004
 3799SOL    HW212297   6.826   2.559   4.063
 3800SOL     OW12298   6.013   3.652   3.802
 3800SOL    HW112299   6.035   3.748   3.786
 3800SOL    HW212300   5.977   3.642   3.895
 3801SOL     OW12301   6.079   0.213   2.590
 3801SOL    HW112302   6.120   0.131   2.628
 3801SOL    HW212303   5.997   0.189   2.537
 3802SOL     OW12304   1.211   2.245   2.140
 3802SOL    HW112305   1.211   2.204   2.231
 3802SOL    HW212306   1.268   2.328   2.141
 3803SOL     OW12307   3.482   2.851   1.907
 3803SOL    HW112308   3.536   2.865   1.990
 3803SOL    HW212309   3.435   2.763   1.912
 3804SOL     OW12310   4.751   1.767   3.843
 3804SOL    HW112311   4.652   1.764   3.856
 3804SOL    HW212312   4.772   1.765   3.745
 3805SOL     OW12313   2.650   2.534   1.772
 3805SOL    HW112314   2.670   2.450   1.822
 3805SOL    HW212315   2.734   2.588   1.763
 3806SOL     OW12316   3.358   3.358   6.289
 3806SOL    HW112317   3.322   3.410   6.212
 3806SOL    HW212318   3.369   3.418   6.368
 3807SOL     OW12319   0.933   6.186   2.989
 3807SOL    HW112320   0.851   6.140   2.956
 3807SOL    HW212321   1.014   6.134   2.960
 3808SOL     OW12322   4.798   1.303   1.172
 3808SOL    HW112323   4.887   1.257   1.168
 3808SOL    HW212324   4.800   1.384   1.112
 3809SOL     OW12325   5.216   3.033   1.691
 3809SOL    HW112326   5.289   3.095   1.719
 3809SOL    HW212327   5.187   2.978   1.769
 3810SOL     OW12328   4.289   2.320   3.582
 3810SOL    HW112329   4.299   2.270   3.496
 3810SOL    HW212330   4.372   2.373   3.600
 3811SOL     OW12331   1.137   4.672   4.426
 3811SOL    HW112332   1.157   4.761   4.466
 3811SOL    HW212333   1.047   4.674   4.382
 3812SOL     OW12334   5.311   5.727   4.950
 3812SOL    HW112335   5.380   5.657   4.967
 3812SOL    HW212336   5.306   5.789   5.028
 3813SOL     OW12337   4.832   3.654   0.963
 3813SOL    HW112338   4.847   3.726   0.895
 3813SOL    HW212339   4.749   3.674   1.014
 3814SOL     OW12340   0.485   0.062   6.397
 3814SOL    HW112341   0.559   0.119   6.363
 3814SOL    HW212342   0.522   7.017   6.454
 3815SOL     OW12343   4.396   2.533   0.581
 3815SOL    HW112344   4.310   2.482   0.591
 3815SOL    HW212345   4.472   2.469   0.573
 3816SOL     OW12346   1.311   5.617   0.248
 3816SOL    HW112347   1.292   5.555   0.323
 3816SOL    HW212348   1.402   5.598   0.211
 3817SOL     OW12349   4.932   3.864   2.819
 3817SOL    HW112350   4.899   3.790   2.760
 3817SOL    HW212351   5.032   3.869   2.814
 3818SOL     OW12352   6.586   1.091   6.634
 3818SOL    HW112353   6.597   1.153   6.557
 3818SOL    HW212354   6.489   1.075   6.651
 3819SOL     OW12355   5.032   5.185   2.201
 3819SOL    HW112356   5.085   5.214   2.281
 3819SOL    HW212357   5.050   5.247   2.125
 3820SOL     OW12358   4.735   6.766   4.098
 3820SOL    HW112359   4.792   6.846   4.081
 3820SOL    HW212360   4.641   6.795   4.115
 3821SOL     OW12361   2.496   1.407   1.189
 3821SOL    HW112362   2.508   1.379   1.094
 3821SOL    HW212363   2.551   1.489   1.207
 3822SOL     OW12364   2.002   0.013   1.081
 3822SOL    HW112365   2.101   0.010   1.081
 3822SOL    HW212366   1.972   0.104   1.109
 3823SOL     OW12367   3.441   3.238   5.831
 3823SOL    HW112368   3.512   3.224   5.762
 3823SOL    HW212369   3.364   3.176   5.813
 3824SOL     OW12370   6.685   2.205   0.376
 3824SOL    HW112371   6.618   2.139   0.410
 3824SOL    HW212372   6.705   2.272   0.447
 3825SOL     OW12373   0.669   6.073   0.843
 3825SOL    HW112374   0.742   6.052   0.779
 3825SOL    HW212375   0.587   6.020   0.818
 3826SOL     OW12376   0.825   2.890   6.217
 3826SOL    HW112377   0.779   2.805   6.243
 3826SOL    HW212378   0.915   2.869   6.178
 3827SOL     OW12379   1.246   1.918   1.561
 3827SOL    HW112380   1.240   1.866   1.476
 3827SOL    HW212381   1.326   1.977   1.559
 3828SOL     OW12382   3.578   2.866   2.393
 3828SOL    HW112383   3.505   2.903   2.450
 3828SOL    HW212384   3.664   2.864   2.444
 3829SOL     OW12385   1.919   4.822   3.379
 3829SOL    HW112386   1.901   4.796   3.474
 3829SOL    HW212387   1.851   4.780   3.320
 3830SOL     OW12388   0.715   1.197   4.615
 3830SOL    HW112389   0.636   1.168   4.561
 3830SOL    HW212390   0.685   1.259   4.687
 3831SOL     OW12391   4.624   2.508   2.074
 3831SOL    HW112392   4.637   2.580   2.005
 3831SOL    HW212393   4.566   2.436   2.036
 3832SOL     OW12394   5.787   0.717   2.944
 3832SOL    HW112395   5.811   0.778   3.020
 3832SOL    HW212396   5.755   0.771   2.867
 3833SOL     OW12397   0.460   6.282   6.474
 3833SOL    HW112398   0.560   6.286   6.473
 3833SOL    HW212399   0.431   6.188   6.492
 3834SOL     OW12400   4.702   4.531   1.952
 3834SOL    HW112401   4.629   4.466   1.972
 3834SOL    HW212402   4.708   4.545   1.853
 3835SOL     OW12403   3.552   5.576   4.243
 3835SOL    HW112404   3.547   5.477   4.252
 3835SOL    HW212405   3.500   5.619   4.317
 3836SOL     OW12406   1.906   4.118   6.113
 3836SOL    HW112407   1.873   4.058   6.040
 3836SOL    HW212408   1.843   4.196   6.122
 3837SOL     OW12409   4.677   5.021   6.216
 3837SOL    HW112410   4.695   4.965   6.297
 3837SOL    HW212411   4.579   5.019   6.195
 3838SOL     OW12412   0.214   4.025   4.574
 3838SOL    HW112413   0.150   4.099   4.595
 3838SOL    HW212414   0.164   3.938   4.567
 3839SOL     OW12415   4.918   0.788   3.545
 3839SOL    HW112416   4.942   0.691   3.550
 3839SOL    HW212417   5.001   0.842   3.530
 3840SOL     OW12418   2.259   0.553   6.143
 3840SOL    HW112419   2.234   0.611   6.065
 3840SOL    HW212420   2.181   0.548   6.206
 3841SOL     OW12421   6.854   2.815   4.942
 3841SOL    HW112422   6.795   2.842   4.866
 3841SOL    HW212423   6.892   2.897   4.985
 3842SOL     OW12424   1.954   3.231   6.676
 3842SOL    HW112425   1.876   3.274   6.721
 3842SOL    HW212426   2.035   3.240   6.735
 3843SOL     OW12427   6.099   4.271   2.520
 3843SOL    HW112428   6.099   4.342   2.449
 3843SOL    HW212429   6.087   4.314   2.610
 3844SOL     OW12430   0.756   2.341   6.021
 3844SOL    HW112431   0.697   2.409   6.063
 3844SOL    HW212432   0.748   2.254   6.070
 3845SOL     OW12433   4.137   3.414   4.783
 3845SOL    HW112434   4.130   3.510   4.758
 3845SOL    HW212435   4.140   3.406   4.883
 3846SOL     OW12436   1.024   5.700   3.853
 3846SOL    HW112437   1.051   5.609   3.885
 3846SOL    HW212438   1.018   5.699   3.753
 3847SOL     OW12439   6.151   0.999   4.649
 3847SOL    HW112440   6.060   0.965   4.626
 3847SOL    HW212441   6.187   1.052   4.573
 3848SOL     OW12442   3.711   5.898   2.979
 3848SOL    HW112443   3.713   5.859   2.886
 3848SOL    HW212444   3.789   5.865   3.031
 3849SOL     OW12445   1.253   1.371   5.372
 3849SOL    HW112446   1.336   1.407   5.330
 3849SOL    HW212447   1.179   1.368   5.304
 3850SOL     OW12448   2.683   3.395   0.749
 3850SOL    HW112449   2.586   3.371   0.753
 3850SOL    HW212450   2.736   3.334   0.808
 3851SOL     OW12451   1.206   4.652   2.297
 3851SOL    HW112452   1.214   4.600   2.212
 3851SOL    HW212453   1.110   4.665   2.319
 3852SOL     OW12454   3.965   0.008   3.946
 3852SOL    HW112455   3.890   6.976   3.970
 3852SOL    HW212456   3.939   0.065   3.869
 3853SOL     OW12457   1.074   3.784   3.484
 3853SOL    HW112458   1.173   3.790   3.477
 3853SOL    HW212459   1.045   3.801   3.578
 3854SOL     OW12460   1.452   3.047   2.126
 3854SOL    HW112461   1.482   3.104   2.202
 3854SOL    HW212462   1.373   3.089   2.082
 3855SOL     OW12463   5.357   6.146   6.596
 3855SOL    HW112464   5.271   6.192   6.616
 3855SOL    HW212465   5.411   6.137   6.680
 3856SOL     OW12466   7.027   6.742   5.476
 3856SOL    HW112467   6.955   6.804   5.505
 3856SOL    HW212468   7.006   6.706   5.385
 3857SOL     OW12469   0.440   5.585   6.493
 3857SOL    HW112470   0.395   5.614   6.577
 3857SOL    HW212471   0.395   5.503   6.458
 3858SOL     OW12472   1.487   6.537   5.755
 3858SOL    HW112473   1.552   6.574   5.821
 3858SOL    HW212474   1.483   6.437   5.764
 3859SOL     OW12475   6.755   2.182   3.065
 3859SOL    HW112476   6.702   2.179   3.149
 3859SOL    HW212477   6.705   2.234   2.996
 3860SOL     OW12478   2.467   0.312   5.696
 3860SOL    HW112479   2.369   0.307   5.673
 3860SOL    HW212480   2.489   0.405   5.724
 3861SOL     OW12481   4.369   4.651   3.503
 3861SOL    HW112482   4.421   4.636   3.418
 3861SOL    HW212483   4.425   4.623   3.581
 3862SOL     OW12484   1.323   0.198   4.931
 3862SOL    HW112485   1.265   0.254   4.872
 3862SOL    HW212486   1.270   0.121   4.967
 3863SOL     OW12487   4.425   2.881   6.132
 3863SOL    HW112488   4.397   2.955   6.194
 3863SOL    HW212489   4.518   2.898   6.100
 3864SOL     OW12490   2.506   0.579   5.737
 3864SOL    HW112491   2.414   0.597   5.771
 3864SOL    HW212492   2.561   0.662   5.742
 3865SOL     OW12493   3.631   6.778   0.011
 3865SOL    HW112494   3.717   6.805   6.995
 3865SOL    HW212495   3.591   6.858   0.056
 3866SOL     OW12496   3.850   0.949   2.022
 3866SOL    HW112497   3.912   0.997   2.084
 3866SOL    HW212498   3.766   1.002   2.013
 3867SOL     OW12499   1.394   4.198   4.225
 3867SOL    HW112500   1.328   4.263   4.265
 3867SOL    HW212501   1.484   4.214   4.266
 3868SOL     OW12502   3.380   0.224   0.299
 3868SOL    HW112503   3.393   0.307   0.244
 3868SOL    HW212504   3.423   0.237   0.389
 3869SOL     OW12505   6.403   2.953   4.993
 3869SOL    HW112506   6.312   2.988   5.014
 3869SOL    HW212507   6.462   3.028   4.963
 3870SOL     OW12508   4.418   5.602   0.094
 3870SOL    HW112509   4.390   5.605   7.027
 3870SOL    HW212510   4.495   5.664   0.108
 3871SOL     OW12511   3.960   0.361   2.934
 3871SOL    HW112512   4.040   0.350   2.876
 3871SOL    HW212513   3.973   0.439   2.996
 3872SOL     OW12514   3.806   3.184   2.643
 3872SOL    HW112515   3.753   3.141   2.717
 3872SOL    HW212516   3.744   3.209   2.569
 3873SOL     OW12517   6.555   3.996   1.627
 3873SOL    HW112518   6.489   4.062   1.663
 3873SOL    HW212519   6.527   3.968   1.535
 3874SOL     OW12520   3.698   6.139   6.386
 3874SOL    HW112521   3.753   6.141   6.303
 3874SOL    HW212522   3.652   6.050   6.393
 3875SOL     OW12523   1.750   2.559   1.858
 3875SOL    HW112524   1.778   2.655   1.862
 3875SOL    HW212525   1.808   2.504   1.918
 3876SOL     OW12526   5.465   5.161   0.351
 3876SOL    HW112527   5.525   5.136   0.275
 3876SOL    HW212528   5.379   5.198   0.316
 3877SOL     OW12529   0.085   2.831   0.123
 3877SOL    HW112530   0.022   2.812   0.198
 3877SOL    HW212531   0.058   2.779   0.042
 3878SOL     OW12532   2.593   6.264   4.902
 3878SOL    HW112533   2.611   6.306   4.991
 3878SOL    HW212534   2.528   6.188   4.914
 3879SOL     OW12535   5.159   6.541   1.435
 3879SOL    HW112536   5.113   6.453   1.420
 3879SOL    HW212537   5.092   6.611   1.456
 3880SOL     OW12538   6.318   5.047   3.740
 3880SOL    HW112539   6.384   5.079   3.673
 3880SOL    HW212540   6.234   5.102   3.733
 3881SOL     OW12541   0.939   4.520   1.012
 3881SOL    HW112542   1.026   4.550   0.971
 3881SOL    HW212543   0.925   4.570   1.098
 3882SOL     OW12544   0.414   1.868   4.982
 3882SOL    HW112545   0.351   1.946   4.985
 3882SOL    HW212546   0.368   1.789   4.943
 3883SOL     OW12547   4.524   1.397   3.146
 3883SOL    HW112548   4.467   1.338   3.203
 3883SOL    HW212549   4.602   1.431   3.199
 3884SOL     OW12550   1.190   5.503   3.562
 3884SOL    HW112551   1.283   5.511   3.598
 3884SOL    HW212552   1.147   5.593   3.561
 3885SOL     OW12553   6.278   0.266   2.998
 3885SOL    HW112554   6.366   0.231   2.965
 3885SOL    HW212555   6.283   0.366   3.007
 3886SOL     OW12556   6.310   5.787   4.772
 3886SOL    HW112557   6.230   5.843   4.794
 3886SOL    HW212558   6.366   5.835   4.705
 3887SOL     OW12559   6.568   0.782   5.565
 3887SOL    HW112560   6.568   0.684   5.541
 3887SOL    HW212561   6.533   0.835   5.488
 3888SOL     OW12562   0.936   0.603   6.643
 3888SOL    HW112563   1.021   0.569   6.602
 3888SOL    HW212564   0.942   0.598   6.742
 3889SOL     OW12565   6.774   2.700   6.577
 3889SOL    HW112566   6.819   2.652   6.652
 3889SOL    HW212567   6.696   2.751   6.612
 3890SOL     OW12568   5.843   5.575   2.515
 3890SOL    HW112569   5.783   5.538   2.443
 3890SOL    HW212570   5.826   5.673   2.525
 3891SOL     OW12571   5.572   4.881   3.997
 3891SOL    HW112572   5.573   4.951   3.926
 3891SOL    HW212573   5.666   4.849   4.012
 3892SOL     OW12574   0.233   2.472   1.878
 3892SOL    HW112575   0.150   2.446   1.928
 3892SOL    HW212576   0.313   2.456   1.936
 3893SOL     OW12577   3.053   5.337   1.410
 3893SOL    HW112578   2.960   5.301   1.408
 3893SOL    HW212579   3.084   5.355   1.316
 3894SOL     OW12580   2.820   1.988   1.301
 3894SOL    HW112581   2.830   1.894   1.335
 3894SOL    HW212582   2.892   2.008   1.235
 3895SOL     OW12583   1.708   0.092   5.240
 3895SOL    HW112584   1.618   0.089   5.197
 3895SOL    HW212585   1.775   0.129   5.175
 3896SOL     OW12586   0.318   2.068   6.389
 3896SOL    HW112587   0.283   1.974   6.391
 3896SOL    HW212588   0.331   2.100   6.483
 3897SOL     OW12589   3.653   6.899   2.216
 3897SOL    HW112590   3.696   6.954   2.288
 3897SOL    HW212591   3.612   6.960   2.148
 3898SOL     OW12592   3.393   3.600   3.964
 3898SOL    HW112593   3.350   3.595   4.054
 3898SOL    HW212594   3.478   3.548   3.965
 3899SOL     OW12595   5.108   0.670   4.074
 3899SOL    HW112596   5.186   0.687   4.133
 3899SOL    HW212597   5.063   0.757   4.052
 3900SOL     OW12598   5.128   2.835   3.286
 3900SOL    HW112599   5.051   2.786   3.245
 3900SOL    HW212600   5.101   2.929   3.305
 3901SOL     OW12601   3.092   6.480   5.799
 3901SOL    HW112602   3.114   6.455   5.893
 3901SOL    HW212603   2.995   6.467   5.783
 3902SOL     OW12604   6.185   3.727   1.801
 3902SOL    HW112605   6.260   3.669   1.833
 3902SOL    HW212606   6.107   3.670   1.774
 3903SOL     OW12607   4.544   4.194   6.914
 3903SOL    HW112608   4.465   4.225   6.862
 3903SOL    HW212609   4.627   4.237   6.879
 3904SOL     OW12610   2.251   6.878   5.953
 3904SOL    HW112611   2.229   6.865   5.857
 3904SOL    HW212612   2.292   6.795   5.990
 3905SOL     OW12613   5.486   6.869   6.232
 3905SOL    HW112614   5.445   6.779   6.245
 3905SOL    HW212615   5.538   6.870   6.147
 3906SOL     OW12616   1.741   5.079   5.678
 3906SOL    HW112617   1.809   5.016   5.643
 3906SOL    HW212618   1.661   5.079   5.618
 3907SOL     OW12619   6.392   0.374   3.776
 3907SOL    HW112620   6.455   0.300   3.800
 3907SOL    HW212621   6.356   0.414   3.860
 3908SOL     OW12622   1.948   0.993   6.945
 3908SOL    HW112623   2.025   0.974   6.883
 3908SOL    HW212624   1.976   1.059   7.014
 3909SOL     OW12625   0.020   4.715   6.505
 3909SOL    HW112626   6.957   4.700   6.468
 3909SOL    HW212627   0.013   4.751   6.598
 3910SOL     OW12628   3.640   3.764   2.144
 3910SOL    HW112629   3.733   3.800   2.142
 3910SOL    HW212630   3.601   3.769   2.052
 3911SOL     OW12631   5.140   1.537   0.309
 3911SOL    HW112632   5.185   1.600   0.245
 3911SOL    HW212633   5.208   1.499   0.372
 3912SOL     OW12634   3.503   1.363   6.354
 3912SOL    HW112635   3.572   1.360   6.282
 3912SOL    HW212636   3.445   1.282   6.347
 3913SOL     OW12637   2.813   6.918   6.562
 3913SOL    HW112638   2.825   6.835   6.616
 3913SOL    HW212639   2.716   6.934   6.546
 3914SOL     OW12640   5.325   0.881   1.334
 3914SOL    HW112641   5.314   0.907   1.430
 3914SOL    HW212642   5.255   0.814   1.309
 3915SOL     OW12643   4.460   6.669   0.699
 3915SOL    HW112644   4.381   6.677   0.639
 3915SOL    HW212645   4.441   6.602   0.771
 3916SOL     OW12646   2.536   0.044   2.641
 3916SOL    HW112647   2.461   0.019   2.580
 3916SOL    HW212648   2.500   0.098   2.717
 3917SOL     OW12649   1.544   4.085   1.304
 3917SOL    HW112650   1.558   4.184   1.309
 3917SOL    HW212651   1.631   4.041   1.281
 3918SOL     OW12652   4.498   6.188   1.726
 3918SOL    HW112653   4.449   6.221   1.645
 3918SOL    HW212654   4.434   6.176   1.801
 3919SOL     OW12655   3.310   0.196   6.494
 3919SOL    HW112656   3.366   0.260   6.440
 3919SOL    HW212657   3.214   0.221   6.485
 3920SOL     OW12658   3.223   1.486   6.742
 3920SOL    HW112659   3.177   1.397   6.745
 3920SOL    HW212660   3.232   1.516   6.647
 3921SOL     OW12661   7.000   2.382   0.136
 3921SOL    HW112662   6.926   2.350   0.077
 3921SOL    HW212663   0.058   2.343   0.106
 3922SOL     OW12664   4.363   5.434   0.784
 3922SOL    HW112665   4.275   5.402   0.817
 3922SOL    HW212666   4.431   5.425   0.856
 3923SOL     OW12667   6.196   1.991   7.016
 3923SOL    HW112668   6.251   2.014   6.937
 3923SOL    HW212669   6.164   1.896   7.008
 3924SOL     OW12670   0.652   4.938   2.817
 3924SOL    HW112671   0.628   4.974   2.907
 3924SOL    HW212672   0.574   4.888   2.780
 3925SOL     OW12673   3.776   4.438   0.931
 3925SOL    HW112674   3.822   4.355   0.965
 3925SOL    HW212675   3.677   4.427   0.939
 3926SOL     OW12676   0.138   6.913   4.712
 3926SOL    HW112677   0.082   6.979   4.661
 3926SOL    HW212678   0.209   6.963   4.763
 3927SOL     OW12679   0.051   2.602   4.497
 3927SOL    HW112680   7.017   2.524   4.498
 3927SOL    HW212681   0.001   2.685   4.520
 3928SOL     OW12682   3.716   5.599   3.930
 3928SOL    HW112683   3.803   5.556   3.954
 3928SOL    HW212684   3.684   5.563   3.843
 3929SOL     OW12685   6.814   1.587   6.442
 3929SOL    HW112686   6.814   1.597   6.541
 3929SOL    HW212687   6.905   1.556   6.412
 3930SOL     OW12688   1.250   1.777   3.675
 3930SOL    HW112689   1.280   1.702   3.733
 3930SOL    HW212690   1.150   1.777   3.671
 3931SOL     OW12691   1.666   1.881   1.926
 3931SOL    HW112692   1.739   1.941   1.958
 3931SOL    HW212693   1.683   1.788   1.958
 3932SOL     OW12694   1.863   4.774   3.645
 3932SOL    HW112695   1.767   4.783   3.617
 3932SOL    HW212696   1.879   4.829   3.727
 3933SOL     OW12697   1.503   6.773   0.230
 3933SOL    HW112698   1.507   6.826   0.146
 3933SOL    HW212699   1.564   6.812   0.298
 3934SOL     OW12700   0.088   1.093   2.544
 3934SOL    HW112701   0.074   1.187   2.513
 3934SOL    HW212702   0.044   1.081   2.634
 3935SOL     OW12703   1.428   1.166   5.672
 3935SOL    HW112704   1.487   1.159   5.752
 3935SOL    HW212705   1.428   1.260   5.638
 3936SOL     OW12706   6.786   6.083   5.050
 3936SOL    HW112707   6.709   6.022   5.032
 3936SOL    HW212708   6.765   6.142   5.128
 3937SOL     OW12709   6.573   6.391   1.834
 3937SOL    HW112710   6.553   6.392   1.932
 3937SOL    HW212711   6.671   6.406   1.820
 3938SOL     OW12712   6.136   3.817   4.180
 3938SOL    HW112713   6.155   3.870   4.097
 3938SOL    HW212714   6.165   3.723   4.166
 3939SOL     OW12715   2.453   1.806   2.998
 3939SOL    HW112716   2.516   1.729   3.005
 3939SOL    HW212717   2.359   1.772   2.989
 3940SOL     OW12718   2.915   4.818   1.878
 3940SOL    HW112719   3.013   4.818   1.896
 3940SOL    HW212720   2.877   4.728   1.897
 3941SOL     OW12721   5.765   0.609   4.650
 3941SOL    HW112722   5.680   0.587   4.699
 3941SOL    HW212723   5.745   0.623   4.553
 3942SOL     OW12724   0.627   6.146   5.627
 3942SOL    HW112725   0.638   6.212   5.702
 3942SOL    HW212726   0.696   6.075   5.635
 3943SOL     OW12727   0.712   3.547   2.827
 3943SOL    HW112728   0.719   3.591   2.916
 3943SOL    HW212729   0.770   3.596   2.761
 3944SOL     OW12730   6.108   3.817   6.353
 3944SOL    HW112731   6.191   3.868   6.374
 3944SOL    HW212732   6.057   3.865   6.281
 3945SOL     OW12733   1.014   2.521   2.988
 3945SOL    HW112734   0.923   2.506   3.027
 3945SOL    HW212735   1.006   2.576   2.905
 3946SOL     OW12736   0.046   4.013   6.392
 3946SOL    HW112737   0.112   4.018   6.466
 3946SOL    HW212738   0.029   3.917   6.369
 3947SOL     OW12739   5.636   5.324   0.454
 3947SOL    HW112740   5.727   5.288   0.475
 3947SOL    HW212741   5.580   5.252   0.413
 3948SOL     OW12742   1.516   4.008   0.016
 3948SOL    HW112743   1.430   4.056   0.028
 3948SOL    HW212744   1.501   3.925   6.990
 3949SOL     OW12745   6.154   6.697   3.046
 3949SOL    HW112746   6.081   6.639   3.084
 3949SOL    HW212747   6.129   6.793   3.057
 3950SOL     OW12748   3.375   3.810   1.818
 3950SOL    HW112749   3.318   3.783   1.895
 3950SOL    HW212750   3.462   3.760   1.822
 3951SOL     OW12751   0.432   1.032   0.015
 3951SOL    HW112752   0.451   1.076   0.103
 3951SOL    HW212753   0.333   1.020   0.004
 3952SOL     OW12754   6.167   3.579   4.554
 3952SOL    HW112755   6.105   3.501   4.539
 3952SOL    HW212756   6.225   3.560   4.633
 3953SOL     OW12757   3.907   4.274   6.561
 3953SOL    HW112758   3.843   4.264   6.636
 3953SOL    HW212759   3.876   4.221   6.483
 3954SOL     OW12760   5.708   4.971   5.379
 3954SOL    HW112761   5.660   5.046   5.424
 3954SOL    HW212762   5.682   4.884   5.420
 3955SOL     OW12763   4.805   6.561   7.008
 3955SOL    HW112764   4.732   6.628   7.015
 3955SOL    HW212765   4.766   6.474   6.977
 3956SOL     OW12766   0.784   1.961   4.622
 3956SOL    HW112767   0.692   1.996   4.638
 3956SOL    HW212768   0.847   2.037   4.610
 3957SOL     OW12769   4.010   6.133   3.405
 3957SOL    HW112770   4.066   6.216   3.414
 3957SOL    HW212771   4.048   6.061   3.463
 3958SOL     OW12772   6.003   6.728   6.651
 3958SOL    HW112773   5.957   6.809   6.617
 3958SOL    HW212774   6.035   6.672   6.575
 3959SOL     OW12775   3.396   6.331   1.581
 3959SOL    HW112776   3.458   6.371   1.514
 3959SOL    HW212777   3.321   6.285   1.534
 3960SOL     OW12778   6.276   2.276   6.355
 3960SOL    HW112779   6.351   2.336   6.327
 3960SOL    HW212780   6.189   2.326   6.350
 3961SOL     OW12781   5.650   2.062   2.021
 3961SOL    HW112782   5.633   2.138   1.958
 3961SOL    HW212783   5.727   2.007   1.988
 3962SOL     OW12784   1.058   5.875   0.362
 3962SOL    HW112785   1.154   5.901   0.356
 3962SOL    HW212786   1.010   5.939   0.421
 3963SOL     OW12787   5.303   4.506   3.493
 3963SOL    HW112788   5.222   4.566   3.496
 3963SOL    HW212789   5.362   4.526   3.571
 3964SOL     OW12790   4.187   4.807   5.109
 3964SOL    HW112791   4.228   4.721   5.079
 3964SOL    HW212792   4.094   4.790   5.141
 3965SOL     OW12793   3.758   4.571   6.253
 3965SOL    HW112794   3.771   4.636   6.179
 3965SOL    HW212795   3.847   4.545   6.292
 3966SOL     OW12796   6.887   4.917   6.992
 3966SOL    HW112797   6.818   4.969   0.013
 3966SOL    HW212798   6.843   4.839   6.946
 3967SOL     OW12799   1.023   4.386   2.692
 3967SOL    HW112800   0.952   4.427   2.749
 3967SOL    HW212801   0.982   4.319   2.630
 3968SOL     OW12802   6.146   0.725   1.176
 3968SOL    HW112803   6.145   0.770   1.087
 3968SOL    HW212804   6.170   0.793   1.247
 3969SOL     OW12805   0.014   3.772   2.769
 3969SOL    HW112806   7.011   3.679   2.749
 3969SOL    HW212807   0.110   3.768   2.799
 3970SOL     OW12808   4.723   5.302   3.502
 3970SOL    HW112809   4.807   5.353   3.480
 3970SOL    HW212810   4.741   5.242   3.580
 3971SOL     OW12811   2.687   5.370   2.262
 3971SOL    HW112812   2.769   5.346   2.314
 3971SOL    HW212813   2.605   5.345   2.314
 3972SOL     OW12814   1.309   5.592   1.425
 3972SOL    HW112815   1.393   5.632   1.461
 3972SOL    HW212816   1.330   5.542   1.340
 3973SOL     OW12817   2.639   3.333   5.294
 3973SOL    HW112818   2.724   3.351   5.244
 3973SOL    HW212819   2.620   3.235   5.292
 3974SOL     OW12820   1.238   0.522   5.468
 3974SOL    HW112821   1.294   0.544   5.389
 3974SOL    HW212822   1.243   0.596   5.535
 3975SOL     OW12823   6.016   0.008   6.481
 3975SOL    HW112824   6.012   0.014   6.381
 3975SOL    HW212825   5.927   7.008   6.517
 3976SOL     OW12826   2.002   4.877   1.052
 3976SOL    HW112827   1.984   4.794   0.999
 3976SOL    HW212828   1.975   4.957   0.999
 3977SOL     OW12829   3.289   4.937   5.586
 3977SOL    HW112830   3.352   4.871   5.545
 3977SOL    HW212831   3.202   4.935   5.537
 3978SOL     OW12832   5.616   0.527   4.395
 3978SOL    HW112833   5.617   0.465   4.316
 3978SOL    HW212834   5.632   0.475   4.479
 3979SOL     OW12835   2.345   6.266   1.586
 3979SOL    HW112836   2.427   6.262   1.642
 3979SOL    HW212837   2.361   6.323   1.506
 3980SOL     OW12838   0.025   4.492   5.642
 3980SOL    HW112839   0.006   4.396   5.663
 3980SOL    HW212840   0.004   4.548   5.722
 3981SOL     OW12841   1.455   1.884   6.335
 3981SOL    HW112842   1.455   1.954   6.407
 3981SOL    HW212843   1.523   1.814   6.357
 3982SOL     OW12844   2.993   0.528   4.169
 3982SOL    HW112845   3.082   0.541   4.212
 3982SOL    HW212846   2.971   0.431   4.166
 3983SOL     OW12847   3.032   6.013   4.379
 3983SOL    HW112848   3.067   6.063   4.458
 3983SOL    HW212849   3.039   6.071   4.298
 3984SOL     OW12850   2.408   0.767   1.793
 3984SOL    HW112851   2.450   0.679   1.772
 3984SOL    HW212852   2.310   0.763   1.773
 3985SOL     OW12853   2.682   4.095   7.012
 3985SOL    HW112854   2.595   4.103   0.033
 3985SOL    HW212855   2.745   4.039   0.036
 3986SOL     OW12856   0.273   1.443   3.558
 3986SOL    HW112857   0.344   1.384   3.598
 3986SOL    HW212858   0.187   1.429   3.608
 3987SOL     OW12859   1.391   5.190   4.765
 3987SOL    HW112860   1.418   5.172   4.860
 3987SOL    HW212861   1.322   5.262   4.763
 3988SOL     OW12862   3.463   2.411   5.534
 3988SOL    HW112863   3.532   2.461   5.481
 3988SOL    HW212864   3.487   2.314   5.538
 3989SOL     OW12865   6.381   0.855   6.895
 3989SOL    HW112866   6.458   0.805   6.855
 3989SOL    HW212867   6.305   0.793   6.911
 3990SOL     OW12868   6.090   1.704   4.142
 3990SOL    HW112869   6.109   1.644   4.219
 3990SOL    HW212870   6.058   1.649   4.064
 3991SOL     OW12871   6.725   2.359   3.387
 3991SOL    HW112872   6.724   2.429   3.316
 3991SOL    HW212873   6.669   2.282   3.359
 3992SOL     OW12874   4.432   2.040   6.083
 3992SOL    HW112875   4.530   2.023   6.071
 3992SOL    HW212876   4.404   2.011   6.174
 3993SOL     OW12877   1.300   2.148   3.473
 3993SOL    HW112878   1.236   2.193   3.410
 3993SOL    HW212879   1.315   2.054   3.444
 3994SOL     OW12880   1.426   2.769   5.037
 3994SOL    HW112881   1.454   2.754   5.131
 3994SOL    HW212882   1.335   2.730   5.023
 3995SOL     OW12883   2.161   4.148   3.858
 3995SOL    HW112884   2.129   4.054   3.862
 3995SOL    HW212885   2.139   4.187   3.768
 3996SOL     OW12886   1.466   0.718   4.836
 3996SOL    HW112887   1.514   0.767   4.909
 3996SOL    HW212888   1.368   0.738   4.843
 3997SOL     OW12889   4.877   3.479   3.410
 3997SOL    HW112890   4.852   3.456   3.504
 3997SOL    HW212891   4.897   3.577   3.403
 3998SOL     OW12892   5.278   1.730   1.860
 3998SOL    HW112893   5.279   1.830   1.866
 3998SOL    HW212894   5.367   1.694   1.887
 3999SOL     OW12895   5.492   3.837   3.406
 3999SOL    HW112896   5.473   3.742   3.384
 3999SOL    HW212897   5.590   3.851   3.416
 4000SOL     OW12898   3.177   5.651   2.797
 4000SOL    HW112899   3.152   5.647   2.701
 4000SOL    HW212900   3.277   5.646   2.806
 4001SOL     OW12901   2.447   2.602   4.608
 4001SOL    HW112902   2.415   2.695   4.594
 4001SOL    HW212903   2.427   2.573   4.702
 4002SOL     OW12904   3.683   3.700   6.032
 4002SOL    HW112905   3.732   3.633   5.977
 4002SOL    HW212906   3.679   3.669   6.127
 4003SOL     OW12907   2.503   0.247   5.954
 4003SOL    HW112908   2.462   0.247   5.863
 4003SOL    HW212909   2.470   0.169   6.006
 4004SOL     OW12910   6.247   2.984   4.177
 4004SOL    HW112911   6.181   3.058   4.191
 4004SOL    HW212912   6.248   2.958   4.080
 4005SOL     OW12913   5.243   4.809   1.184
 4005SOL    HW112914   5.230   4.736   1.250
 4005SOL    HW212915   5.327   4.859   1.206
 4006SOL     OW12916   4.623   5.018   2.215
 4006SOL    HW112917   4.532   5.003   2.255
 4006SOL    HW212918   4.690   5.025   2.288
 4007SOL     OW12919   0.723   2.550   2.256
 4007SOL    HW112920   0.800   2.544   2.319
 4007SOL    HW212921   0.757   2.559   2.162
 4008SOL     OW12922   3.963   1.518   5.839
 4008SOL    HW112923   4.049   1.559   5.869
 4008SOL    HW212924   3.973   1.419   5.834
 4009SOL     OW12925   4.825   2.819   0.429
 4009SOL    HW112926   4.798   2.731   0.467
 4009SOL    HW212927   4.819   2.889   0.500
 4010SOL     OW12928   2.118   3.310   1.259
 4010SOL    HW112929   2.055   3.358   1.320
 4010SOL    HW212930   2.208   3.302   1.303
 4011SOL     OW12931   1.252   6.657   2.207
 4011SOL    HW112932   1.237   6.653   2.108
 4011SOL    HW212933   1.169   6.625   2.255
 4012SOL     OW12934   4.980   4.876   1.946
 4012SOL    HW112935   4.902   4.842   1.999
 4012SOL    HW212936   5.038   4.800   1.919
 4013SOL     OW12937   3.150   0.475   1.031
 4013SOL    HW112938   3.080   0.440   1.093
 4013SOL    HW212939   3.152   0.419   0.948
 4014SOL     OW12940   3.796   5.880   3.976
 4014SOL    HW112941   3.789   5.849   4.071
 4014SOL    HW212942   3.793   5.802   3.915
 4015SOL     OW12943   3.929   4.956   6.638
 4015SOL    HW112944   4.021   4.918   6.637
 4015SOL    HW212945   3.927   5.040   6.692
 4016SOL     OW12946   1.375   5.199   6.529
 4016SOL    HW112947   1.464   5.197   6.574
 4016SOL    HW212948   1.382   5.247   6.442
 4017SOL     OW12949   0.695   6.252   7.018
 4017SOL    HW112950   0.712   6.312   0.067
 4017SOL    HW212951   0.782   6.218   6.983
 4018SOL     OW12952   5.818   6.455   1.552
 4018SOL    HW112953   5.813   6.431   1.455
 4018SOL    HW212954   5.753   6.528   1.571
 4019SOL     OW12955   6.224   4.076   2.371
 4019SOL    HW112956   6.170   4.133   2.433
 4019SOL    HW212957   6.297   4.031   2.422
 4020SOL     OW12958   6.926   2.428   5.550
 4020SOL    HW112959   6.918   2.336   5.510
 4020SOL    HW212960   6.835   2.465   5.567
 4021SOL     OW12961   2.982   3.662   5.174
 4021SOL    HW112962   3.029   3.743   5.138
 4021SOL    HW212963   3.047   3.604   5.222
 4022SOL     OW12964   4.808   0.074   6.626
 4022SOL    HW112965   4.885   0.033   6.577
 4022SOL    HW212966   4.764   0.005   6.683
 4023SOL     OW12967   6.887   0.659   3.942
 4023SOL    HW112968   6.845   0.707   3.865
 4023SOL    HW212969   6.820   0.597   3.983
 4024SOL     OW12970   2.792   5.131   4.323
 4024SOL    HW112971   2.782   5.224   4.288
 4024SOL    HW212972   2.714   5.076   4.294
 4025SOL     OW12973   0.390   6.421   4.591
 4025SOL    HW112974   0.471   6.366   4.608
 4025SOL    HW212975   0.364   6.415   4.495
 4026SOL     OW12976   6.022   0.168   2.976
 4026SOL    HW112977   5.986   0.201   2.889
 4026SOL    HW212978   6.119   0.193   2.983
 4027SOL     OW12979   2.655   2.854   1.174
 4027SOL    HW112980   2.746   2.882   1.145
 4027SOL    HW212981   2.590   2.862   1.098
 4028SOL     OW12982   2.613   2.203   2.932
 4028SOL    HW112983   2.655   2.262   2.864
 4028SOL    HW212984   2.585   2.258   3.011
 4029SOL     OW12985   3.334   5.069   6.037
 4029SOL    HW112986   3.241   5.050   6.006
 4029SOL    HW212987   3.387   4.984   6.038
 4030SOL     OW12988   1.058   1.746   1.076
 4030SOL    HW112989   0.990   1.682   1.113
 4030SOL    HW212990   1.013   1.809   1.013
 4031SOL     OW12991   4.942   6.409   3.519
 4031SOL    HW112992   4.976   6.420   3.612
 4031SOL    HW212993   4.871   6.339   3.517
 4032SOL     OW12994   6.254   0.422   2.249
 4032SOL    HW112995   6.324   0.376   2.304
 4032SOL    HW212996   6.248   0.378   2.159
 4033SOL     OW12997   2.554   3.737   1.713
 4033SOL    HW112998   2.604   3.650   1.715
 4033SOL    HW212999   2.620   3.812   1.712
 4034SOL     OW13000   6.867   1.318   4.652
 4034SOL    HW113001   6.837   1.242   4.594
 4034SOL    HW213002   6.790   1.351   4.706
 4035SOL     OW13003   6.387   2.587   0.884
 4035SOL    HW113004   6.405   2.635   0.799
 4035SOL    HW213005   6.334   2.645   0.945
 4036SOL     OW13006   4.426   5.946   2.452
 4036SOL    HW113007   4.403   5.861   2.500
 4036SOL    HW213008   4.416   6.023   2.515
 4037SOL     OW13009   2.377   1.399   0.557
 4037SOL    HW113010   2.457   1.384   0.499
 4037SOL    HW213011   2.406   1.431   0.647
 4038SOL     OW13012   4.613   3.936   1.732
 4038SOL    HW113013   4.574   4.006   1.672
 4038SOL    HW213014   4.678   3.978   1.795
 4039SOL     OW13015   4.694   4.292   1.746
 4039SOL    HW113016   4.683   4.345   1.662
 4039SOL    HW213017   4.604   4.261   1.778
 4040SOL     OW13018   3.542   6.850   5.945
 4040SOL    HW113019   3.531   6.949   5.938
 4040SOL    HW213020   3.639   6.827   5.949
 4041SOL     OW13021   1.848   5.068   1.288
 4041SOL    HW113022   1.850   5.139   1.359
 4041SOL    HW213023   1.878   4.981   1.327
 4042SOL     OW13024   6.391   5.594   3.056
 4042SOL    HW113025   6.434   5.526   2.996
 4042SOL    HW213026   6.313   5.635   3.009
 4043SOL     OW13027   5.501   1.504   4.091
 4043SOL    HW113028   5.460   1.593   4.071
 4043SOL    HW213029   5.431   1.442   4.127
 4044SOL     OW13030   4.793   0.156   3.089
 4044SOL    HW113031   4.819   0.116   3.177
 4044SOL    HW213032   4.723   0.226   3.103
 4045SOL     OW13033   2.812   5.565   5.562
 4045SOL    HW113034   2.720   5.604   5.557
 4045SOL    HW213035   2.859   5.580   5.474
 4046SOL     OW13036   0.958   1.730   3.844
 4046SOL    HW113037   1.021   1.787   3.896
 4046SOL    HW213038   0.902   1.676   3.906
 4047SOL     OW13039   1.291   1.580   0.883
 4047SOL    HW113040   1.225   1.566   0.957
 4047SOL    HW213041   1.341   1.495   0.866
 4048SOL     OW13042   5.305   2.216   1.914
 4048SOL    HW113043   5.241   2.150   1.955
 4048SOL    HW213044   5.265   2.307   1.919
 4049SOL     OW13045   6.419   5.216   5.935
 4049SOL    HW113046   6.357   5.140   5.954
 4049SOL    HW213047   6.411   5.242   5.838
 4050SOL     OW13048   1.552   6.777   1.077
 4050SOL    HW113049   1.604   6.852   1.037
 4050SOL    HW213050   1.612   6.700   1.097
 4051SOL     OW13051   3.835   2.303   6.849
 4051SOL    HW113052   3.898   2.327   6.923
 4051SOL    HW213053   3.800   2.387   6.807
 4052SOL     OW13054   6.923   0.953   2.406
 4052SOL    HW113055   6.999   0.988   2.461
 4052SOL    HW213056   6.870   1.029   2.370
 4053SOL     OW13057   3.294   5.002   4.096
 4053SOL    HW113058   3.196   5.019   4.087
 4053SOL    HW213059   3.323   4.934   4.029
 4054SOL     OW13060   6.918   3.757   1.878
 4054SOL    HW113061   6.869   3.789   1.797
 4054SOL    HW213062   6.882   3.667   1.905
 4055SOL     OW13063   3.152   3.133   6.614
 4055SOL    HW113064   3.211   3.118   6.535
 4055SOL    HW213065   3.076   3.069   6.611
 4056SOL     OW13066   3.617   4.037   0.903
 4056SOL    HW113067   3.535   4.094   0.896
 4056SOL    HW213068   3.690   4.077   0.849
 4057SOL     OW13069   5.555   2.437   1.626
 4057SOL    HW113070   5.572   2.361   1.689
 4057SOL    HW213071   5.488   2.499   1.667
 4058SOL     OW13072   1.853   0.375   4.144
 4058SOL    HW113073   1.951   0.376   4.123
 4058SOL    HW213074   1.825   0.282   4.168
 4059SOL     OW13075   1.269   2.541   3.583
 4059SOL    HW113076   1.325   2.582   3.511
 4059SOL    HW213077   1.173   2.543   3.556
 4060SOL     OW13078   4.857   5.685   4.558
 4060SOL    HW113079   4.855   5.761   4.493
 4060SOL    HW213080   4.837   5.600   4.509
 4061SOL     OW13081   2.842   4.849   1.618
 4061SOL    HW113082   2.869   4.833   1.713
 4061SOL    HW213083   2.914   4.814   1.557
 4062SOL     OW13084   2.319   2.304   2.113
 4062SOL    HW113085   2.344   2.221   2.163
 4062SOL    HW213086   2.397   2.367   2.111
 4063SOL     OW13087   6.159   6.373   5.418
 4063SOL    HW113088   6.060   6.368   5.430
 4063SOL    HW213089   6.200   6.419   5.496
 4064SOL     OW13090   1.638   6.966   3.675
 4064SOL    HW113091   1.708   6.900   3.649
 4064SOL    HW213092   1.679   0.011   3.727
 4065SOL     OW13093   0.231   0.190   0.947
 4065SOL    HW113094   0.176   0.260   0.992
 4065SOL    HW213095   0.182   0.103   0.948
 4066SOL     OW13096   5.281   6.070   3.024
 4066SOL    HW113097   5.294   6.161   3.063
 4066SOL    HW213098   5.188   6.065   2.985
 4067SOL     OW13099   6.585   3.127   2.914
 4067SOL    HW113100   6.539   3.216   2.908
 4067SOL    HW213101   6.613   3.111   3.008
 4068SOL     OW13102   3.264   0.468   4.779
 4068SOL    HW113103   3.194   0.503   4.717
 4068SOL    HW213104   3.260   0.368   4.780
 4069SOL     OW13105   3.689   5.101   6.414
 4069SOL    HW113106   3.664   5.006   6.436
 4069SOL    HW213107   3.695   5.154   6.499
 4070SOL     OW13108   0.855   3.354   2.267
 4070SOL    HW113109   0.949   3.360   2.234
 4070SOL    HW213110   0.848   3.277   2.331
 4071SOL     OW13111   1.471   0.929   5.300
 4071SOL    HW113112   1.399   0.977   5.249
 4071SOL    HW213113   1.438   0.909   5.392
 4072SOL     OW13114   0.480   5.769   3.891
 4072SOL    HW113115   0.409   5.701   3.909
 4072SOL    HW213116   0.450   5.858   3.924
 4073SOL     OW13117   2.312   6.096   6.595
 4073SOL    HW113118   2.302   6.035   6.516
 4073SOL    HW213119   2.236   6.081   6.658
 4074SOL     OW13120   6.849   2.885   2.222
 4074SOL    HW113121   6.906   2.804   2.232
 4074SOL    HW213122   6.801   2.904   2.307
 4075SOL     OW13123   3.985   1.976   2.546
 4075SOL    HW113124   3.899   1.958   2.593
 4075SOL    HW213125   4.049   1.902   2.563
 4076SOL     OW13126   3.123   3.477   5.756
 4076SOL    HW113127   3.110   3.437   5.665
 4076SOL    HW213128   3.073   3.563   5.763
 4077SOL     OW13129   3.306   0.434   0.116
 4077SOL    HW113130   3.354   0.520   0.099
 4077SOL    HW213131   3.276   0.395   0.029
 4078SOL     OW13132   6.317   5.442   2.046
 4078SOL    HW113133   6.320   5.447   2.146
 4078SOL    HW213134   6.359   5.523   2.006
 4079SOL     OW13135   0.828   2.058   4.009
 4079SOL    HW113136   0.914   2.009   3.996
 4079SOL    HW213137   0.846   2.156   4.009
 4080SOL     OW13138   3.016   3.679   0.166
 4080SOL    HW113139   3.079   3.602   0.156
 4080SOL    HW213140   2.922   3.648   0.149
 4081SOL     OW13141   2.273   1.932   4.134
 4081SOL    HW113142   2.351   1.994   4.128
 4081SOL    HW213143   2.265   1.880   4.049
 4082SOL     OW13144   1.506   2.524   0.360
 4082SOL    HW113145   1.538   2.452   0.421
 4082SOL    HW213146   1.469   2.483   0.276
 4083SOL     OW13147   6.664   4.744   2.040
 4083SOL    HW113148   6.741   4.732   2.103
 4083SOL    HW213149   6.595   4.802   2.084
 4084SOL     OW13150   4.287   2.325   3.058
 4084SOL    HW113151   4.303   2.344   3.155
 4084SOL    HW213152   4.372   2.339   3.007
 4085SOL     OW13153   2.857   5.918   0.705
 4085SOL    HW113154   2.829   5.857   0.779
 4085SOL    HW213155   2.802   5.899   0.624
 4086SOL     OW13156   0.489   4.805   1.381
 4086SOL    HW113157   0.446   4.717   1.358
 4086SOL    HW213158   0.462   4.873   1.313
 4087SOL     OW13159   1.627   1.713   3.469
 4087SOL    HW113160   1.672   1.720   3.380
 4087SOL    HW213161   1.531   1.736   3.459
 4088SOL     OW13162   6.643   0.802   6.745
 4088SOL    HW113163   6.586   0.870   6.698
 4088SOL    HW213164   6.697   0.848   6.816
 4089SOL     OW13165   6.099   4.714   3.862
 4089SOL    HW113166   6.069   4.635   3.808
 4089SOL    HW213167   6.053   4.714   3.950
 4090SOL     OW13168   1.445   5.129   5.054
 4090SOL    HW113169   1.374   5.060   5.070
 4090SOL    HW213170   1.401   5.219   5.043
 4091SOL     OW13171   0.931   6.177   6.938
 4091SOL    HW113172   0.964   6.184   6.843
 4091SOL    HW213173   1.009   6.162   6.999
 4092SOL     OW13174   5.793   2.574   4.230
 4092SOL    HW113175   5.745   2.589   4.316
 4092SOL    HW213176   5.745   2.505   4.176
 4093SOL     OW13177   5.125   6.342   1.813
 4093SOL    HW113178   5.139   6.290   1.897
 4093SOL    HW213179   5.201   6.406   1.800
 4094SOL     OW13180   1.678   4.694   5.991
 4094SOL    HW113181   1.647   4.623   5.927
 4094SOL    HW213182   1.673   4.783   5.946
 4095SOL     OW13183   0.715   4.083   0.661
 4095SOL    HW113184   0.660   3.999   0.660
 4095SOL    HW213185   0.698   4.132   0.746
 4096SOL     OW13186   4.867   1.054   6.833
 4096SOL    HW113187   4.959   1.025   6.806
 4096SOL    HW213188   4.807   1.054   6.753
 4097SOL     OW13189   4.417   4.979   4.482
 4097SOL    HW113190   4.448   4.963   4.576
 4097SOL    HW213191   4.378   5.071   4.475
 4098SOL     OW13192   0.462   1.866   2.419
 4098SOL    HW113193   0.545   1.887   2.471
 4098SOL    HW213194   0.485   1.801   2.346
 4099SOL     OW13195   3.833   5.309   1.427
 4099SOL    HW113196   3.735   5.317   1.410
 4099SOL    HW213197   3.878   5.395   1.402
 4100SOL     OW13198   0.243   6.013   4.282
 4100SOL    HW113199   0.295   6.031   4.365
 4100SOL    HW213200   0.239   6.097   4.227
 4101SOL     OW13201   0.004   0.921   0.166
 4101SOL    HW113202   6.935   0.922   0.187
 4101SOL    HW213203   0.056   0.901   0.249
 4102SOL     OW13204   0.833   0.827   0.837
 4102SOL    HW113205   0.870   0.751   0.784
 4102SOL    HW213206   0.821   0.906   0.777
 4103SOL     OW13207   0.308   6.889   0.579
 4103SOL    HW113208   0.235   6.821   0.577
 4103SOL    HW213209   0.279   6.970   0.528
 4104SOL     OW13210   6.650   5.214   2.667
 4104SOL    HW113211   6.729   5.233   2.609
 4104SOL    HW213212   6.680   5.167   2.750
 4105SOL     OW13213   5.817   0.256   2.461
 4105SOL    HW113214   5.801   0.343   2.414
 4105SOL    HW213215   5.764   0.184   2.417
 4106SOL     OW13216   6.735   3.009   3.102
 4106SOL    HW113217   6.677   3.060   3.166
 4106SOL    HW213218   6.810   2.966   3.153
 4107SOL     OW13219   1.266   5.215   1.166
 4107SOL    HW113220   1.310   5.300   1.195
 4107SOL    HW213221   1.299   5.190   1.075
 4108SOL     OW13222   6.497   5.561   4.791
 4108SOL    HW113223   6.447   5.563   4.704
 4108SOL    HW213224   6.450   5.617   4.858
 4109SOL     OW13225   6.665   6.820   4.446
 4109SOL    HW113226   6.640   6.839   4.541
 4109SOL    HW213227   6.713   6.733   4.441
 4110SOL     OW13228   4.354   3.994   5.605
 4110SOL    HW113229   4.284   3.940   5.652
 4110SOL    HW213230   4.399   4.054   5.671
 4111SOL     OW13231   5.294   4.458   6.427
 4111SOL    HW113232   5.227   4.394   6.390
 4111SOL    HW213233   5.279   4.549   6.386
 4112SOL     OW13234   4.655   6.347   5.057
 4112SOL    HW113235   4.719   6.381   5.126
 4112SOL    HW213236   4.620   6.423   5.003
 4113SOL     OW13237   5.611   5.655   4.794
 4113SOL    HW113238   5.654   5.591   4.732
 4113SOL    HW213239   5.605   5.745   4.751
 4114SOL     OW13240   4.228   2.345   4.079
 4114SOL    HW113241   4.184   2.258   4.100
 4114SOL    HW213242   4.288   2.372   4.154
 4115SOL     OW13243   2.966   5.162   2.236
 4115SOL    HW113244   2.964   5.202   2.328
 4115SOL    HW213245   3.060   5.147   2.208
 4116SOL     OW13246   3.582   1.389   2.457
 4116SOL    HW113247   3.635   1.395   2.541
 4116SOL    HW213248   3.591   1.474   2.406
 4117SOL     OW13249   1.415   3.732   2.514
 4117SOL    HW113250   1.350   3.656   2.510
 4117SOL    HW213251   1.501   3.700   2.553
 4118SOL     OW13252   5.000   6.207   0.915
 4118SOL    HW113253   4.934   6.142   0.877
 4118SOL    HW213254   5.074   6.221   0.850
 4119SOL     OW13255   3.267   1.769   3.892
 4119SOL    HW113256   3.301   1.863   3.906
 4119SOL    HW213257   3.239   1.730   3.980
 4120SOL     OW13258   4.398   0.771   6.138
 4120SOL    HW113259   4.337   0.815   6.205
 4120SOL    HW213260   4.408   0.674   6.161
 4121SOL     OW13261   6.351   6.999   3.481
 4121SOL    HW113262   6.261   6.996   3.525
 4121SOL    HW213263   6.341   0.007   3.389
 4122SOL     OW13264   1.569   6.343   4.593
 4122SOL    HW113265   1.474   6.363   4.569
 4122SOL    HW213266   1.625   6.424   4.574
 4123SOL     OW13267   4.254   4.638   5.349
 4123SOL    HW113268   4.255   4.686   5.436
 4123SOL    HW213269   4.159   4.623   5.320
 4124SOL     OW13270   6.328   6.432   0.506
 4124SOL    HW113271   6.262   6.431   0.430
 4124SOL    HW213272   6.404   6.370   0.484
 4125SOL     OW13273   4.534   1.852   2.537
 4125SOL    HW113274   4.445   1.807   2.543
 4125SOL    HW213275   4.599   1.792   2.490
 4126SOL     OW13276   1.866   3.460   3.537
 4126SOL    HW113277   1.803   3.533   3.563
 4126SOL    HW213278   1.916   3.429   3.617
 4127SOL     OW13279   5.528   3.575   5.755
 4127SOL    HW113280   5.575   3.528   5.830
 4127SOL    HW213281   5.429   3.573   5.771
 4128SOL     OW13282   1.027   2.995   1.256
 4128SOL    HW113283   1.071   2.970   1.170
 4128SOL    HW213284   0.990   2.913   1.300
 4129SOL     OW13285   3.665   1.150   6.920
 4129SOL    HW113286   3.585   1.199   6.955
 4129SOL    HW213287   3.749   1.193   6.955
 4130SOL     OW13288   6.689   3.175   0.788
 4130SOL    HW113289   6.616   3.236   0.758
 4130SOL    HW213290   6.663   3.080   0.770
 4131SOL     OW13291   0.041   1.449   3.698
 4131SOL    HW113292   0.020   1.353   3.715
 4131SOL    HW213293   6.988   1.505   3.715
 4132SOL     OW13294   4.791   3.932   3.450
 4132SOL    HW113295   4.854   3.860   3.421
 4132SOL    HW213296   4.764   3.987   3.371
 4133SOL     OW13297   3.288   5.755   1.528
 4133SOL    HW113298   3.294   5.679   1.593
 4133SOL    HW213299   3.193   5.765   1.498
 4134SOL     OW13300   2.568   4.106   1.357
 4134SOL    HW113301   2.590   4.030   1.295
 4134SOL    HW213302   2.471   4.129   1.348
 4135SOL     OW13303   0.415   2.333   2.091
 4135SOL    HW113304   0.494   2.275   2.114
 4135SOL    HW213305   0.444   2.429   2.092
 4136SOL     OW13306   1.363   3.079   3.202
 4136SOL    HW113307   1.271   3.072   3.242
 4136SOL    HW213308   1.428   3.107   3.273
 4137SOL     OW13309   1.218   3.375   1.734
 4137SOL    HW113310   1.256   3.464   1.712
 4137SOL    HW213311   1.258   3.305   1.675
 4138SOL     OW13312   4.009   5.888   2.665
 4138SOL    HW113313   4.017   5.799   2.619
 4138SOL    HW213314   4.034   5.878   2.761
 4139SOL     OW13315   2.088   1.766   5.076
 4139SOL    HW113316   2.179   1.788   5.109
 4139SOL    HW213317   2.035   1.850   5.065
 4140SOL     OW13318   3.075   0.584   5.471
 4140SOL    HW113319   3.037   0.670   5.437
 4140SOL    HW213320   3.163   0.566   5.427
 4141SOL     OW13321   5.099   6.644   1.067
 4141SOL    HW113322   5.131   6.690   1.150
 4141SOL    HW213323   5.127   6.698   0.987
 4142SOL     OW13324   6.714   4.999   0.958
 4142SOL    HW113325   6.728   5.007   0.859
 4142SOL    HW213326   6.660   5.077   0.989
 4143SOL     OW13327   5.440   1.577   0.606
 4143SOL    HW113328   5.539   1.570   0.594
 4143SOL    HW213329   5.418   1.567   0.703
 4144SOL     OW13330   5.465   1.541   0.224
 4144SOL    HW113331   5.435   1.504   0.136
 4144SOL    HW213332   5.561   1.570   0.217
 4145SOL     OW13333   0.128   6.098   1.787
 4145SOL    HW113334   0.054   6.155   1.821
 4145SOL    HW213335   0.098   6.002   1.783
 4146SOL     OW13336   6.627   0.533   2.860
 4146SOL    HW113337   6.566   0.545   2.782
 4146SOL    HW213338   6.636   0.620   2.909
 4147SOL     OW13339   5.077   4.968   6.025
 4147SOL    HW113340   5.001   4.966   5.960
 4147SOL    HW213341   5.052   4.916   6.107
 4148SOL     OW13342   1.972   0.392   4.722
 4148SOL    HW113343   1.934   0.359   4.636
 4148SOL    HW213344   1.935   0.482   4.743
 4149SOL     OW13345   0.099   4.311   1.042
 4149SOL    HW113346   0.197   4.294   1.052
 4149SOL    HW213347   0.080   4.345   0.950
 4150SOL     OW13348   1.321   6.926   6.153
 4150SOL    HW113349   1.311   7.018   6.116
 4150SOL    HW213350   1.267   6.862   6.098
 4151SOL     OW13351   3.344   6.439   5.697
 4151SOL    HW113352   3.248   6.451   5.723
 4151SOL    HW213353   3.351   6.439   5.598
 4152SOL     OW13354   4.522   6.010   1.202
 4152SOL    HW113355   4.572   5.946   1.144
 4152SOL    HW213356   4.459   6.064   1.146
 4153SOL     OW13357   5.453   5.060   0.612
 4153SOL    HW113358   5.509   5.105   0.681
 4153SOL    HW213359   5.459   5.110   0.526
 4154SOL     OW13360   0.024   5.118   3.153
 4154SOL    HW113361   0.020   5.114   3.253
 4154SOL    HW213362   0.095   5.182   3.124
 4155SOL     OW13363   0.020   1.418   2.518
 4155SOL    HW113364   0.119   1.420   2.508
 4155SOL    HW213365   7.015   1.512   2.528
 4156SOL     OW13366   5.847   6.058   4.855
 4156SOL    HW113367   5.845   6.154   4.829
 4156SOL    HW213368   5.807   6.047   4.946
 4157SOL     OW13369   5.042   5.322   3.886
 4157SOL    HW113370   5.133   5.301   3.922
 4157SOL    HW213371   4.989   5.371   3.956
 4158SOL     OW13372   0.085   3.297   1.250
 4158SOL    HW113373   0.036   3.380   1.278
 4158SOL    HW213374   0.075   3.227   1.321
 4159SOL     OW13375   2.152   3.186   3.181
 4159SOL    HW113376   2.054   3.178   3.161
 4159SOL    HW213377   2.164   3.199   3.280
 4160SOL     OW13378   5.743   0.867   0.497
 4160SOL    HW113379   5.835   0.890   0.529
 4160SOL    HW213380   5.677   0.887   0.568
 4161SOL     OW13381   0.673   2.253   1.078
 4161SOL    HW113382   0.717   2.336   1.044
 4161SOL    HW213383   0.741   2.182   1.091
 4162SOL     OW13384   6.744   5.662   0.166
 4162SOL    HW113385   6.769   5.700   0.077
 4162SOL    HW213386   6.708   5.569   0.154
 4163SOL     OW13387   4.600   0.315   2.993
 4163SOL    HW113388   4.518   0.268   2.959
 4163SOL    HW213389   4.605   0.406   2.952
 4164SOL     OW13390   1.763   6.536   5.581
 4164SOL    HW113391   1.842   6.512   5.637
 4164SOL    HW213392   1.691   6.574   5.639
 4165SOL     OW13393   4.404   0.486   6.181
 4165SOL    HW113394   4.376   0.413   6.120
 4165SOL    HW213395   4.499   0.471   6.210
 4166SOL     OW13396   5.532   2.251   0.489
 4166SOL    HW113397   5.568   2.235   0.397
 4166SOL    HW213398   5.512   2.164   0.533
 4167SOL     OW13399   2.002   4.167   0.756
 4167SOL    HW113400   1.999   4.073   0.721
 4167SOL    HW213401   1.968   4.229   0.686
 4168SOL     OW13402   0.143   4.626   1.141
 4168SOL    HW113403   0.045   4.645   1.140
 4168SOL    HW213404   0.171   4.590   1.052
 4169SOL     OW13405   5.789   4.777   4.847
 4169SOL    HW113406   5.738   4.781   4.933
 4169SOL    HW213407   5.858   4.704   4.853
 4170SOL     OW13408   4.504   3.419   5.909
 4170SOL    HW113409   4.579   3.357   5.931
 4170SOL    HW213410   4.442   3.424   5.987
 4171SOL     OW13411   6.446   6.106   1.130
 4171SOL    HW113412   6.444   6.008   1.152
 4171SOL    HW213413   6.404   6.121   1.041
 4172SOL     OW13414   1.326   1.614   6.239
 4172SOL    HW113415   1.330   1.709   6.271
 4172SOL    HW213416   1.240   1.573   6.269
 4173SOL     OW13417   5.358   4.494   5.006
 4173SOL    HW113418   5.264   4.467   4.986
 4173SOL    HW213419   5.415   4.413   5.015
 4174SOL     OW13420   4.899   1.442   2.776
 4174SOL    HW113421   4.816   1.483   2.815
 4174SOL    HW213422   4.963   1.420   2.849
 4175SOL     OW13423   2.273   5.200   4.693
 4175SOL    HW113424   2.232   5.225   4.781
 4175SOL    HW213425   2.203   5.160   4.634
 4176SOL     OW13426   3.204   5.858   2.087
 4176SOL    HW113427   3.293   5.834   2.048
 4176SOL    HW213428   3.133   5.852   2.016
 4177SOL     OW13429   6.220   5.032   5.146
 4177SOL    HW113430   6.257   4.945   5.179
 4177SOL    HW213431   6.215   5.097   5.222
 4178SOL     OW13432   4.391   6.623   4.432
 4178SOL    HW113433   4.427   6.658   4.519
 4178SOL    HW213434   4.465   6.578   4.382
 4179SOL     OW13435   5.611   3.471   3.474
 4179SOL    HW113436   5.530   3.522   3.445
 4179SOL    HW213437   5.645   3.416   3.397
 4180SOL     OW13438   5.258   4.588   1.406
 4180SOL    HW113439   5.318   4.615   1.481
 4180SOL    HW213440   5.263   4.488   1.394
 4181SOL     OW13441   3.114   1.177   0.560
 4181SOL    HW113442   3.129   1.081   0.535
 4181SOL    HW213443   3.136   1.190   0.657
 4182SOL     OW13444   1.195   0.094   3.390
 4182SOL    HW113445   1.102   0.106   3.356
 4182SOL    HW213446   1.228   0.002   3.366
 4183SOL     OW13447   3.181   1.245   0.031
 4183SOL    HW113448   3.156   1.341   0.044
 4183SOL    HW213449   3.196   1.202   0.120
 4184SOL     OW13450   4.322   5.940   1.650
 4184SOL    HW113451   4.387   6.013   1.672
 4184SOL    HW213452   4.347   5.858   1.701
 4185SOL     OW13453   0.923   4.711   2.186
 4185SOL    HW113454   0.830   4.744   2.171
 4185SOL    HW213455   0.924   4.647   2.263
 4186SOL     OW13456   2.877   5.035   0.109
 4186SOL    HW113457   2.794   5.023   0.054
 4186SOL    HW213458   2.884   4.961   0.176
 4187SOL     OW13459   3.493   2.968   5.681
 4187SOL    HW113460   3.489   2.961   5.780
 4187SOL    HW213461   3.566   3.031   5.655
 4188SOL     OW13462   4.974   0.165   5.303
 4188SOL    HW113463   5.040   0.237   5.281
 4188SOL    HW213464   4.920   0.192   5.382
 4189SOL     OW13465   2.858   5.098   5.376
 4189SOL    HW113466   2.777   5.081   5.319
 4189SOL    HW213467   2.828   5.134   5.465
 4190SOL     OW13468   0.945   0.782   0.052
 4190SOL    HW113469   0.917   0.807   6.988
 4190SOL    HW213470   0.975   0.865   0.100
 4191SOL     OW13471   4.668   4.334   3.360
 4191SOL    HW113472   4.655   4.275   3.280
 4191SOL    HW213473   4.654   4.429   3.334
 4192SOL     OW13474   0.959   0.945   4.250
 4192SOL    HW113475   1.046   0.909   4.216
 4192SOL    HW213476   0.915   0.877   4.310
 4193SOL     OW13477   0.533   1.045   1.920
 4193SOL    HW113478   0.467   1.028   1.847
 4193SOL    HW213479   0.580   0.960   1.943
 4194SOL     OW13480   5.576   0.755   4.259
 4194SOL    HW113481   5.652   0.756   4.193
 4194SOL    HW213482   5.559   0.662   4.290
 4195SOL     OW13483   3.816   6.708   1.844
 4195SOL    HW113484   3.728   6.701   1.797
 4195SOL    HW213485   3.802   6.695   1.942
 4196SOL     OW13486   5.872   2.063   3.251
 4196SOL    HW113487   5.889   2.055   3.153
 4196SOL    HW213488   5.778   2.035   3.271
 4197SOL     OW13489   5.062   5.542   5.990
 4197SOL    HW113490   5.151   5.538   5.945
 4197SOL    HW213491   5.022   5.451   5.994
 4198SOL     OW13492   5.932   2.237   6.940
 4198SOL    HW113493   5.888   2.296   6.872
 4198SOL    HW213494   6.014   2.196   6.900
 4199SOL     OW13495   2.003   2.498   5.757
 4199SOL    HW113496   2.012   2.596   5.778
 4199SOL    HW213497   1.922   2.462   5.803
 4200SOL     OW13498   3.814   6.750   5.982
 4200SOL    HW113499   3.877   6.688   5.936
 4200SOL    HW213500   3.831   6.747   6.081
 4201SOL     OW13501   5.824   6.489   3.615
 4201SOL    HW113502   5.915   6.454   3.592
 4201SOL    HW213503   5.778   6.426   3.676
 4202SOL     OW13504   4.114   5.631   5.882
 4202SOL    HW113505   4.158   5.636   5.792
 4202SOL    HW213506   4.133   5.541   5.923
 4203SOL     OW13507   4.403   5.496   0.518
 4203SOL    HW113508   4.314   5.495   0.473
 4203SOL    HW213509   4.394   5.459   0.611
 4204SOL     OW13510   3.918   3.993   2.845
 4204SOL    HW113511   3.864   4.035   2.918
 4204SOL    HW213512   4.009   4.034   2.844
 4205SOL     OW13513   3.967   5.575   4.084
 4205SOL    HW113514   4.004   5.632   4.011
 4205SOL    HW213515   3.899   5.626   4.136
 4206SOL     OW13516   7.007   6.942   5.789
 4206SOL    HW113517   7.018   7.009   5.716
 4206SOL    HW213518   6.921   6.893   5.776
 4207SOL     OW13519   1.455   1.765   0.752
 4207SOL    HW113520   1.541   1.717   0.739
 4207SOL    HW213521   1.391   1.707   0.803
 4208SOL     OW13522   0.236   3.027   5.928
 4208SOL    HW113523   0.271   3.000   6.018
 4208SOL    HW213524   0.301   3.002   5.858
 4209SOL     OW13525   0.381   0.220   4.622
 4209SOL    HW113526   0.427   0.226   4.534
 4209SOL    HW213527   0.380   0.125   4.654
 4210SOL     OW13528   3.027   3.140   2.163
 4210SOL    HW113529   3.102   3.150   2.098
 4210SOL    HW213530   2.946   3.189   2.129
 4211SOL     OW13531   4.335   5.955   5.613
 4211SOL    HW113532   4.344   6.021   5.688
 4211SOL    HW213533   4.279   5.996   5.540
 4212SOL     OW13534   6.004   1.794   2.817
 4212SOL    HW113535   6.021   1.868   2.752
 4212SOL    HW213536   6.028   1.707   2.775
 4213SOL     OW13537   1.925   1.375   1.518
 4213SOL    HW113538   1.901   1.347   1.425
 4213SOL    HW213539   1.854   1.344   1.581
 4214SOL     OW13540   1.528   4.548   5.287
 4214SOL    HW113541   1.571   4.614   5.349
 4214SOL    HW213542   1.598   4.498   5.237
 4215SOL     OW13543   5.971   6.191   5.201
 4215SOL    HW113544   5.982   6.141   5.287
 4215SOL    HW213545   6.050   6.174   5.142
 4216SOL     OW13546   0.928   1.623   2.923
 4216SOL    HW113547   0.873   1.661   2.998
 4216SOL    HW213548   1.024   1.641   2.941
 4217SOL     OW13549   1.110   0.335   2.204
 4217SOL    HW113550   1.111   0.433   2.223
 4217SOL    HW213551   1.015   0.304   2.198
 4218SOL     OW13552   4.503   0.979   1.689
 4218SOL    HW113553   4.411   0.942   1.677
 4218SOL    HW213554   4.516   1.007   1.784
 4219SOL     OW13555   3.185   5.463   4.144
 4219SOL    HW113556   3.261   5.398   4.149
 4219SOL    HW213557   3.132   5.459   4.228
 4220SOL     OW13558   5.252   2.877   3.997
 4220SOL    HW113559   5.326   2.876   3.930
 4220SOL    HW213560   5.186   2.948   3.974
 4221SOL     OW13561   6.192   5.257   6.446
 4221SOL    HW113562   6.219   5.176   6.499
 4221SOL    HW213563   6.117   5.232   6.385
 4222SOL     OW13564   6.162   2.090   2.934
 4222SOL    HW113565   6.172   2.155   2.859
 4222SOL    HW213566   6.070   2.096   2.972
 4223SOL     OW13567   3.745   3.394   6.098
 4223SOL    HW113568   3.779   3.400   6.192
 4223SOL    HW213569   3.691   3.311   6.088
 4224SOL     OW13570   5.503   3.416   4.178
 4224SOL    HW113571   5.497   3.410   4.277
 4224SOL    HW213572   5.419   3.382   4.137
 4225SOL     OW13573   4.220   0.898   6.299
 4225SOL    HW113574   4.138   0.856   6.340
 4225SOL    HW213575   4.286   0.920   6.371
 4226SOL     OW13576   0.889   0.348   2.525
 4226SOL    HW113577   0.929   0.258   2.541
 4226SOL    HW213578   0.871   0.359   2.427
 4227SOL     OW13579   3.715   4.690   1.044
 4227SOL    HW113580   3.745   4.604   1.003
 4227SOL    HW213581   3.781   4.762   1.023
 4228SOL     OW13582   0.796   3.944   5.062
 4228SOL    HW113583   0.699   3.965   5.050
 4228SOL    HW213584   0.807   3.847   5.084
 4229SOL     OW13585   5.185   5.401   5.655
 4229SOL    HW113586   5.224   5.361   5.572
 4229SOL    HW213587   5.257   5.451   5.705
 4230SOL     OW13588   1.199   6.774   2.684
 4230SOL    HW113589   1.216   6.872   2.673
 4230SOL    HW213590   1.272   6.732   2.737
 4231SOL     OW13591   5.722   6.261   5.205
 4231SOL    HW113592   5.821   6.245   5.198
 4231SOL    HW213593   5.693   6.323   5.133
 4232SOL     OW13594   6.786   4.697   2.530
 4232SOL    HW113595   6.788   4.600   2.504
 4232SOL    HW213596   6.859   4.746   2.483
 4233SOL     OW13597   0.248   0.192   6.267
 4233SOL    HW113598   0.333   0.163   6.310
 4233SOL    HW213599   0.238   0.291   6.275
 4234SOL     OW13600   2.593   6.737   5.561
 4234SOL    HW113601   2.519   6.697   5.616
 4234SOL    HW213602   2.554   6.796   5.491
 4235SOL     OW13603   5.782   3.510   6.156
 4235SOL    HW113604   5.873   3.496   6.118
 4235SOL    HW213605   5.777   3.468   6.247
 4236SOL     OW13606   0.211   3.445   2.725
 4236SOL    HW113607   0.118   3.429   2.758
 4236SOL    HW213608   0.208   3.496   2.638
 4237SOL     OW13609   5.764   5.261   2.670
 4237SOL    HW113610   5.687   5.284   2.610
 4237SOL    HW213611   5.797   5.344   2.714
 4238SOL     OW13612   3.195   5.002   2.895
 4238SOL    HW113613   3.218   5.090   2.854
 4238SOL    HW213614   3.097   4.984   2.885
 4239SOL     OW13615   5.483   1.863   2.939
 4239SOL    HW113616   5.477   1.856   2.840
 4239SOL    HW213617   5.479   1.960   2.966
 4240SOL     OW13618   2.355   0.245   0.181
 4240SOL    HW113619   2.449   0.231   0.150
 4240SOL    HW213620   2.292   0.191   0.125
 4241SOL     OW13621   6.087   0.733   0.388
 4241SOL    HW113622   6.087   0.774   0.480
 4241SOL    HW213623   5.993   0.726   0.355
 4242SOL     OW13624   2.215   0.830   3.368
 4242SOL    HW113625   2.148   0.826   3.294
 4242SOL    HW213626   2.171   0.864   3.451
 4243SOL     OW13627   6.563   3.178   3.230
 4243SOL    HW113628   6.595   3.215   3.317
 4243SOL    HW213629   6.474   3.218   3.208
 4244SOL     OW13630   4.935   4.288   1.451
 4244SOL    HW113631   4.859   4.333   1.497
 4244SOL    HW213632   4.926   4.189   1.460
 4245SOL     OW13633   6.816   0.697   5.819
 4245SOL    HW113634   6.871   0.746   5.752
 4245SOL    HW213635   6.725   0.740   5.825
 4246SOL     OW13636   6.439   3.441   2.628
 4246SOL    HW113637   6.531   3.411   2.602
 4246SOL    HW213638   6.425   3.536   2.600
 4247SOL     OW13639   2.516   4.870   3.554
 4247SOL    HW113640   2.549   4.908   3.640
 4247SOL    HW213641   2.552   4.778   3.541
 4248SOL     OW13642   1.906   1.721   3.940
 4248SOL    HW113643   1.978   1.734   3.872
 4248SOL    HW213644   1.835   1.661   3.903
 4249SOL     OW13645   6.005   2.055   4.131
 4249SOL    HW113646   5.951   2.032   4.212
 4249SOL    HW213647   6.090   2.003   4.130
 4250SOL     OW13648   6.923   5.783   3.684
 4250SOL    HW113649   6.857   5.718   3.723
 4250SOL    HW213650   6.891   5.876   3.699
 4251SOL     OW13651   5.627   3.874   1.317
 4251SOL    HW113652   5.622   3.972   1.336
 4251SOL    HW213653   5.648   3.825   1.402
 4252SOL     OW13654   6.448   6.665   6.538
 4252SOL    HW113655   6.542   6.682   6.568
 4252SOL    HW213656   6.422   6.572   6.563
 4253SOL     OW13657   3.266   6.563   0.934
 4253SOL    HW113658   3.194   6.523   0.990
 4253SOL    HW213659   3.233   6.573   0.840
 4254SOL     OW13660   1.419   3.253   2.333
 4254SOL    HW113661   1.509   3.272   2.372
 4254SOL    HW213662   1.404   3.309   2.252
 4255SOL     OW13663   6.728   4.291   3.956
 4255SOL    HW113664   6.790   4.336   4.020
 4255SOL    HW213665   6.665   4.358   3.918
 4256SOL     OW13666   1.594   6.217   1.219
 4256SOL    HW113667   1.666   6.234   1.287
 4256SOL    HW213668   1.509   6.260   1.249
 4257SOL     OW13669   3.251   0.691   4.066
 4257SOL    HW113670   3.337   0.741   4.054
 4257SOL    HW213671   3.263   0.620   4.135
 4258SOL     OW13672   3.325   6.049   1.269
 4258SOL    HW113673   3.401   6.052   1.334
 4258SOL    HW213674   3.313   5.956   1.236
 4259SOL     OW13675   2.051   0.384   0.899
 4259SOL    HW113676   2.010   0.339   0.979
 4259SOL    HW213677   1.981   0.438   0.852
 4260SOL     OW13678   5.827   0.624   1.813
 4260SOL    HW113679   5.758   0.580   1.870
 4260SOL    HW213680   5.918   0.604   1.849
 4261SOL     OW13681   1.952   0.656   2.178
 4261SOL    HW113682   1.915   0.584   2.120
 4261SOL    HW213683   2.001   0.723   2.120
 4262SOL     OW13684   0.775   3.809   6.666
 4262SOL    HW113685   0.873   3.790   6.658
 4262SOL    HW213686   0.734   3.746   6.732
 4263SOL     OW13687   2.824   0.783   2.905
 4263SOL    HW113688   2.852   0.839   2.827
 4263SOL    HW213689   2.867   0.818   2.988
 4264SOL     OW13690   6.254   1.886   3.995
 4264SOL    HW113691   6.185   1.822   4.028
 4264SOL    HW213692   6.324   1.837   3.943
 4265SOL     OW13693   4.241   1.068   0.440
 4265SOL    HW113694   4.171   0.997   0.443
 4265SOL    HW213695   4.199   1.157   0.457
 4266SOL     OW13696   1.720   6.193   6.755
 4266SOL    HW113697   1.660   6.127   6.710
 4266SOL    HW213698   1.766   6.249   6.685
 4267SOL     OW13699   2.122   3.969   3.333
 4267SOL    HW113700   2.180   4.049   3.320
 4267SOL    HW213701   2.132   3.936   3.427
 4268SOL     OW13702   1.287   5.636   6.628
 4268SOL    HW113703   1.226   5.681   6.563
 4268SOL    HW213704   1.380   5.636   6.592
 4269SOL     OW13705   2.670   0.474   2.107
 4269SOL    HW113706   2.716   0.563   2.098
 4269SOL    HW213707   2.586   0.485   2.159
 4270SOL     OW13708   4.113   3.656   3.347
 4270SOL    HW113709   4.206   3.623   3.336
 4270SOL    HW213710   4.072   3.672   3.257
 4271SOL     OW13711   6.799   1.252   6.774
 4271SOL    HW113712   6.886   1.270   6.729
 4271SOL    HW213713   6.740   1.199   6.712
 4272SOL     OW13714   6.621   2.114   4.472
 4272SOL    HW113715   6.554   2.074   4.409
 4272SOL    HW213716   6.712   2.107   4.432
 4273SOL     OW13717   3.995   6.929   5.379
 4273SOL    HW113718   3.964   6.881   5.461
 4273SOL    HW213719   3.982   7.027   5.391
 4274SOL     OW13720   1.020   0.495   1.826
 4274SOL    HW113721   0.964   0.412   1.817
 4274SOL    HW213722   0.993   0.545   1.907
 4275SOL     OW13723   5.862   2.198   4.833
 4275SOL    HW113724   5.871   2.114   4.885
 4275SOL    HW213725   5.942   2.208   4.773
 4276SOL     OW13726   2.429   5.312   3.827
 4276SOL    HW113727   2.472   5.222   3.823
 4276SOL    HW213728   2.331   5.302   3.810
 4277SOL     OW13729   6.049   4.611   3.097
 4277SOL    HW113730   5.959   4.628   3.057
 4277SOL    HW213731   6.052   4.650   3.189
 4278SOL     OW13732   0.024   6.725   4.907
 4278SOL    HW113733   0.068   6.716   4.996
 4278SOL    HW213734   0.092   6.750   4.838
 4279SOL     OW13735   3.659   1.187   3.663
 4279SOL    HW113736   3.711   1.107   3.695
 4279SOL    HW213737   3.561   1.171   3.678
 4280SOL     OW13738   5.472   0.545   6.430
 4280SOL    HW113739   5.481   0.602   6.511
 4280SOL    HW213740   5.482   0.602   6.348
 4281SOL     OW13741   6.471   4.448   3.576
 4281SOL    HW113742   6.430   4.510   3.510
 4281SOL    HW213743   6.563   4.422   3.546
 4282SOL     OW13744   3.517   4.737   6.984
 4282SOL    HW113745   3.545   4.646   6.951
 4282SOL    HW213746   3.598   4.790   7.009
 4283SOL     OW13747   1.358   0.581   3.370
 4283SOL    HW113748   1.315   0.511   3.427
 4283SOL    HW213749   1.358   0.551   3.275
 4284SOL     OW13750   3.492   4.381   0.946
 4284SOL    HW113751   3.457   4.292   0.973
 4284SOL    HW213752   3.432   4.453   0.981
 4285SOL     OW13753   1.567   0.472   5.951
 4285SOL    HW113754   1.499   0.415   5.905
 4285SOL    HW213755   1.655   0.425   5.952
 4286SOL     OW13756   5.073   6.335   5.566
 4286SOL    HW113757   4.989   6.377   5.601
 4286SOL    HW213758   5.127   6.404   5.518
 4287SOL     OW13759   5.698   0.918   5.859
 4287SOL    HW113760   5.722   0.850   5.928
 4287SOL    HW213761   5.614   0.889   5.812
 4288SOL     OW13762   1.056   5.744   2.919
 4288SOL    HW113763   0.975   5.685   2.928
 4288SOL    HW213764   1.051   5.794   2.833
 4289SOL     OW13765   6.549   3.084   6.089
 4289SOL    HW113766   6.514   3.148   6.021
 4289SOL    HW213767   6.521   2.991   6.065
 4290SOL     OW13768   1.675   6.552   3.753
 4290SOL    HW113769   1.745   6.481   3.753
 4290SOL    HW213770   1.601   6.526   3.815
 4291SOL     OW13771   4.951   3.787   0.298
 4291SOL    HW113772   4.923   3.882   0.309
 4291SOL    HW213773   4.952   3.742   0.388
 4292SOL     OW13774   5.393   3.124   0.309
 4292SOL    HW113775   5.423   3.065   0.384
 4292SOL    HW213776   5.326   3.190   0.344
 4293SOL     OW13777   2.572   3.103   0.337
 4293SOL    HW113778   2.648   3.049   0.372
 4293SOL    HW213779   2.494   3.095   0.399
 4294SOL     OW13780   2.230   2.048   6.559
 4294SOL    HW113781   2.198   2.139   6.530
 4294SOL    HW213782   2.330   2.045   6.549
 4295SOL     OW13783   3.508   5.787   5.058
 4295SOL    HW113784   3.433   5.853   5.046
 4295SOL    HW213785   3.482   5.699   5.020
 4296SOL     OW13786   3.405   6.863   0.563
 4296SOL    HW113787   3.347   6.923   0.508
 4296SOL    HW213788   3.467   6.919   0.618
 4297SOL     OW13789   5.070   7.013   1.219
 4297SOL    HW113790   5.100   6.942   1.284
 4297SOL    HW213791   5.006   6.973   1.154
 4298SOL     OW13792   4.148   5.547   0.389
 4298SOL    HW113793   4.054   5.555   0.422
 4298SOL    HW213794   4.149   5.499   0.301
 4299SOL     OW13795   1.394   3.145   6.677
 4299SOL    HW113796   1.358   3.236   6.699
 4299SOL    HW213797   1.388   3.086   6.757
 4300SOL     OW13798   3.188   6.796   0.298
 4300SOL    HW113799   3.193   6.829   0.204
 4300SOL    HW213800   3.239   6.859   0.358
 4301SOL     OW13801   4.255   0.802   1.672
 4301SOL    HW113802   4.249   0.736   1.747
 4301SOL    HW213803   4.269   0.754   1.586
 4302SOL     OW13804   1.129   0.208   6.052
 4302SOL    HW113805   1.065   0.279   6.082
 4302SOL    HW213806   1.090   0.159   5.974
 4303SOL     OW13807   7.020   5.149   3.795
 4303SOL    HW113808   7.024   5.209   3.715
 4303SOL    HW213809   7.019   5.204   3.878
 4304SOL     OW13810   2.869   3.569   2.554
 4304SOL    HW113811   2.775   3.564   2.519
 4304SOL    HW213812   2.926   3.503   2.504
 4305SOL     OW13813   0.696   6.741   5.768
 4305SOL    HW113814   0.777   6.750   5.710
 4305SOL    HW213815   0.718   6.681   5.845
 4306SOL     OW13816   4.713   4.954   4.844
 4306SOL    HW113817   4.763   5.024   4.793
 4306SOL    HW213818   4.630   4.930   4.794
 4307SOL     OW13819   5.580   3.944   6.198
 4307SOL    HW113820   5.563   3.985   6.288
 4307SOL    HW213821   5.574   3.845   6.205
 4308SOL     OW13822   6.099   4.596   1.134
 4308SOL    HW113823   6.117   4.662   1.061
 4308SOL    HW213824   6.097   4.643   1.222
 4309SOL     OW13825   1.073   1.012   0.207
 4309SOL    HW113826   1.168   1.018   0.177
 4309SOL    HW213827   1.013   1.051   0.138
 4310SOL     OW13828   2.070   2.270   1.965
 4310SOL    HW113829   1.997   2.313   2.019
 4310SOL    HW213830   2.152   2.261   2.022
 4311SOL     OW13831   1.754   6.266   2.443
 4311SOL    HW113832   1.802   6.285   2.357
 4311SOL    HW213833   1.800   6.193   2.492
 4312SOL     OW13834   1.957   5.972   1.859
 4312SOL    HW113835   1.982   6.022   1.942
 4312SOL    HW213836   2.004   5.884   1.858
 4313SOL     OW13837   4.550   1.566   0.992
 4313SOL    HW113838   4.517   1.660   0.983
 4313SOL    HW213839   4.474   1.502   0.975
 4314SOL     OW13840   5.806   1.661   4.351
 4314SOL    HW113841   5.788   1.570   4.315
 4314SOL    HW213842   5.870   1.655   4.427
 4315SOL     OW13843   2.745   6.684   2.914
 4315SOL    HW113844   2.802   6.643   2.985
 4315SOL    HW213845   2.749   6.784   2.920
 4316SOL     OW13846   5.295   1.032   1.898
 4316SOL    HW113847   5.375   0.980   1.867
 4316SOL    HW213848   5.242   1.062   1.818
 4317SOL     OW13849   5.385   2.306   5.143
 4317SOL    HW113850   5.398   2.374   5.072
 4317SOL    HW213851   5.314   2.337   5.207
 4318SOL     OW13852   0.019   2.374   4.825
 4318SOL    HW113853   0.103   2.412   4.785
 4318SOL    HW213854   0.017   2.394   4.923
 4319SOL     OW13855   1.813   1.540   0.404
 4319SOL    HW113856   1.885   1.595   0.446
 4319SOL    HW213857   1.767   1.484   0.473
 4320SOL     OW13858   4.704   4.865   0.792
 4320SOL    HW113859   4.670   4.899   0.880
 4320SOL    HW213860   4.745   4.939   0.740
 4321SOL     OW13861   0.330   5.510   5.259
 4321SOL    HW113862   0.383   5.480   5.339
 4321SOL    HW213863   0.301   5.430   5.206
 4322SOL     OW13864   6.171   3.090   0.012
 4322SOL    HW113865   6.141   3.173   6.994
 4322SOL    HW213866   6.228   3.114   0.090
 4323SOL     OW13867   4.472   4.039   0.370
 4323SOL    HW113868   4.504   3.959   0.319
 4323SOL    HW213869   4.492   4.122   0.318
 4324SOL     OW13870   5.978   4.340   6.617
 4324SOL    HW113871   5.999   4.400   6.540
 4324SOL    HW213872   5.967   4.246   6.585
 4325SOL     OW13873   2.409   1.162   1.264
 4325SOL    HW113874   2.416   1.114   1.176
 4325SOL    HW213875   2.421   1.260   1.249
 4326SOL     OW13876   4.624   4.614   3.320
 4326SOL    HW113877   4.627   4.652   3.412
 4326SOL    HW213878   4.681   4.671   3.259
 4327SOL     OW13879   5.784   5.863   1.981
 4327SOL    HW113880   5.789   5.790   1.914
 4327SOL    HW213881   5.741   5.944   1.941
 4328SOL     OW13882   4.550   4.039   5.854
 4328SOL    HW113883   4.488   4.082   5.921
 4328SOL    HW213884   4.569   3.945   5.882
 4329SOL     OW13885   4.682   2.255   5.198
 4329SOL    HW113886   4.622   2.331   5.173
 4329SOL    HW213887   4.701   2.259   5.296
 4330SOL     OW13888   2.030   5.924   4.636
 4330SOL    HW113889   1.952   5.862   4.624
 4330SOL    HW213890   1.997   6.014   4.665
 4331SOL     OW13891   6.175   1.400   1.920
 4331SOL    HW113892   6.220   1.483   1.886
 4331SOL    HW213893   6.090   1.425   1.965
 4332SOL     OW13894   4.806   3.022   2.578
 4332SOL    HW113895   4.893   2.989   2.615
 4332SOL    HW213896   4.751   2.944   2.549
 4333SOL     OW13897   4.400   1.202   5.955
 4333SOL    HW113898   4.483   1.258   5.955
 4333SOL    HW213899   4.370   1.187   6.050
 4334SOL     OW13900   1.505   1.827   2.835
 4334SOL    HW113901   1.418   1.785   2.808
 4334SOL    HW213902   1.489   1.923   2.858
 4335SOL     OW13903   3.250   3.889   2.425
 4335SOL    HW113904   3.177   3.850   2.482
 4335SOL    HW213905   3.277   3.978   2.462
 4336SOL     OW13906   3.302   6.688   5.956
 4336SOL    HW113907   3.231   6.740   5.908
 4336SOL    HW213908   3.391   6.727   5.934
 4337SOL     OW13909   1.310   4.402   0.504
 4337SOL    HW113910   1.331   4.490   0.546
 4337SOL    HW213911   1.301   4.332   0.576
 4338SOL     OW13912   6.057   6.703   6.221
 4338SOL    HW113913   5.989   6.661   6.282
 4338SOL    HW213914   6.017   6.714   6.130
 4339SOL     OW13915   4.715   3.245   5.992
 4339SOL    HW113916   4.715   3.145   5.996
 4339SOL    HW213917   4.789   3.276   5.933
 4340SOL     OW13918   6.216   3.352   1.018
 4340SOL    HW113919   6.131   3.328   0.972
 4340SOL    HW213920   6.196   3.405   1.100
 4341SOL     OW13921   1.032   5.275   1.753
 4341SOL    HW113922   1.107   5.299   1.814
 4341SOL    HW213923   1.068   5.244   1.665
 4342SOL     OW13924   5.139   3.814   3.574
 4342SOL    HW113925   5.216   3.784   3.631
 4342SOL    HW213926   5.108   3.904   3.604
 4343SOL     OW13927   3.018   6.247   4.992
 4343SOL    HW113928   2.982   6.284   5.078
 4343SOL    HW213929   2.943   6.219   4.933
 4344SOL     OW13930   0.309   3.986   2.105
 4344SOL    HW113931   0.319   4.045   2.025
 4344SOL    HW213932   0.287   3.893   2.076
 4345SOL     OW13933   3.625   4.317   5.772
 4345SOL    HW113934   3.565   4.255   5.823
 4345SOL    HW213935   3.584   4.338   5.683
 4346SOL     OW13936   1.905   3.908   2.790
 4346SOL    HW113937   1.853   3.823   2.784
 4346SOL    HW213938   1.996   3.890   2.828
 4347SOL     OW13939   6.060   0.025   2.306
 4347SOL    HW113940   6.060   6.955   2.288
 4347SOL    HW213941   6.153   0.060   2.295
 4348SOL     OW13942   0.335   5.443   3.304
 4348SOL    HW113943   0.376   5.535   3.307
 4348SOL    HW213944   0.321   5.411   3.398
 4349SOL     OW13945   5.477   1.857   2.674
 4349SOL    HW113946   5.479   1.954   2.649
 4349SOL    HW213947   5.496   1.802   2.593
 4350SOL     OW13948   3.570   2.007   3.861
 4350SOL    HW113949   3.621   2.084   3.899
 4350SOL    HW213950   3.479   2.004   3.904
 4351SOL     OW13951   1.538   5.919   1.228
 4351SOL    HW113952   1.445   5.887   1.213
 4351SOL    HW213953   1.548   6.013   1.195
 4352SOL     OW13954   6.426   3.682   2.486
 4352SOL    HW113955   6.450   3.759   2.546
 4352SOL    HW213956   6.376   3.716   2.406
 4353SOL     OW13957   3.928   2.898   6.814
 4353SOL    HW113958   4.015   2.853   6.790
 4353SOL    HW213959   3.863   2.885   6.739
 4354SOL     OW13960   1.970   0.562   6.032
 4354SOL    HW113961   1.893   0.530   5.977
 4354SOL    HW213962   2.049   0.577   5.972
 4355SOL     OW13963   2.871   0.488   2.859
 4355SOL    HW113964   2.872   0.587   2.871
 4355SOL    HW213965   2.778   0.456   2.843
 4356SOL     OW13966   5.139   3.707   6.934
 4356SOL    HW113967   5.139   3.687   0.003
 4356SOL    HW213968   5.095   3.632   6.884
 4357SOL     OW13969   6.380   0.938   1.269
 4357SOL    HW113970   6.419   0.859   1.224
 4357SOL    HW213971   6.424   0.952   1.358
 4358SOL     OW13972   0.131   0.805   0.556
 4358SOL    HW113973   0.196   0.851   0.617
 4358SOL    HW213974   0.053   0.865   0.539
 4359SOL     OW13975   1.417   0.926   5.829
 4359SOL    HW113976   1.468   0.871   5.895
 4359SOL    HW213977   1.348   0.980   5.878
 4360SOL     OW13978   0.949   3.234   3.548
 4360SOL    HW113979   1.031   3.291   3.539
 4360SOL    HW213980   0.867   3.289   3.532
 4361SOL     OW13981   2.603   3.612   1.446
 4361SOL    HW113982   2.570   3.649   1.533
 4361SOL    HW213983   2.528   3.612   1.379
 4362SOL     OW13984   6.646   5.377   3.267
 4362SOL    HW113985   6.577   5.313   3.233
 4362SOL    HW213986   6.733   5.358   3.223
 4363SOL     OW13987   5.153   1.931   0.967
 4363SOL    HW113988   5.086   1.913   1.039
 4363SOL    HW213989   5.217   2.002   0.997
 4364SOL     OW13990   3.263   3.903   4.205
 4364SOL    HW113991   3.169   3.873   4.221
 4364SOL    HW213992   3.300   3.942   4.289
 4365SOL     OW13993   2.796   0.650   1.730
 4365SOL    HW113994   2.852   0.572   1.703
 4365SOL    HW213995   2.733   0.674   1.655
 4366SOL     OW13996   6.346   6.879   6.722
 4366SOL    HW113997   6.309   6.955   6.669
 4366SOL    HW213998   6.375   6.805   6.660
 4367SOL     OW13999   2.392   4.415   4.242
 4367SOL    HW114000   2.390   4.389   4.146
 4367SOL    HW214001   2.316   4.478   4.261
 4368SOL     OW14002   3.872   5.844   1.032
 4368SOL    HW114003   3.963   5.855   1.071
 4368SOL    HW214004   3.880   5.821   0.935
 4369SOL     OW14005   4.484   5.533   3.030
 4369SOL    HW114006   4.552   5.589   3.078
 4369SOL    HW214007   4.395   5.578   3.035
 4370SOL     OW14008   3.672   4.739   1.618
 4370SOL    HW114009   3.604   4.803   1.582
 4370SOL    HW214010   3.632   4.687   1.693
 4371SOL     OW14011   1.250   2.200   2.399
 4371SOL    HW114012   1.213   2.171   2.487
 4371SOL    HW214013   1.330   2.258   2.414
 4372SOL     OW14014   2.255   2.462   3.765
 4372SOL    HW114015   2.167   2.416   3.775
 4372SOL    HW214016   2.309   2.415   3.696
 4373SOL     OW14017   5.376   1.424   7.014
 4373SOL    HW114018   5.473   1.399   7.022
 4373SOL    HW214019   5.362   1.474   6.928
 4374SOL     OW14020   0.970   1.511   0.861
 4374SOL    HW114021   0.969   1.590   0.801
 4374SOL    HW214022   0.948   1.539   0.955
 4375SOL     OW14023   3.973   6.637   3.564
 4375SOL    HW114024   3.997   6.548   3.602
 4375SOL    HW214025   3.946   6.626   3.468
 4376SOL     OW14026   5.763   6.717   2.996
 4376SOL    HW114027   5.726   6.713   3.088
 4376SOL    HW214028   5.829   6.792   2.990
 4377SOL     OW14029   5.912   5.173   6.807
 4377SOL    HW114030   5.860   5.248   6.847
 4377SOL    HW214031   5.998   5.208   6.770
 4378SOL     OW14032   2.171   3.122   2.486
 4378SOL    HW114033   2.177   3.158   2.579
 4378SOL    HW214034   2.210   3.188   2.422
 4379SOL     OW14035   2.343   2.276   2.517
 4379SOL    HW114036   2.321   2.332   2.597
 4379SOL    HW214037   2.293   2.190   2.522
 4380SOL     OW14038   1.029   6.611   3.108
 4380SOL    HW114039   1.021   6.624   3.207
 4380SOL    HW214040   1.036   6.700   3.063
 4381SOL     OW14041   2.252   3.915   5.460
 4381SOL    HW114042   2.304   3.870   5.386
 4381SOL    HW214043   2.182   3.974   5.420
 4382SOL     OW14044   5.979   3.252   6.434
 4382SOL    HW114045   6.052   3.283   6.373
 4382SOL    HW214046   5.931   3.331   6.471
 4383SOL     OW14047   0.630   2.078   5.792
 4383SOL    HW114048   0.699   2.110   5.726
 4383SOL    HW214049   0.580   2.001   5.753
 4384SOL     OW14050   5.861   1.663   6.021
 4384SOL    HW114051   5.849   1.675   6.120
 4384SOL    HW214052   5.771   1.651   5.978
 4385SOL     OW14053   5.997   2.861   5.232
 4385SOL    HW114054   5.959   2.920   5.303
 4385SOL    HW214055   6.055   2.791   5.275
 4386SOL     OW14056   2.129   3.567   0.114
 4386SOL    HW114057   2.191   3.526   0.181
 4386SOL    HW214058   2.181   3.593   0.033
 4387SOL     OW14059   6.696   1.177   1.664
 4387SOL    HW114060   6.660   1.267   1.688
 4387SOL    HW214061   6.759   1.146   1.735
 4388SOL     OW14062   5.227   1.911   6.499
 4388SOL    HW114063   5.272   1.960   6.424
 4388SOL    HW214064   5.201   1.819   6.468
 4389SOL     OW14065   0.488   3.894   0.723
 4389SOL    HW114066   0.540   3.808   0.717
 4389SOL    HW214067   0.447   3.915   0.635
 4390SOL     OW14068   3.539   0.793   1.230
 4390SOL    HW114069   3.509   0.803   1.325
 4390SOL    HW214070   3.639   0.799   1.226
 4391SOL     OW14071   1.551   5.614   0.121
 4391SOL    HW114072   1.597   5.526   0.111
 4391SOL    HW214073   1.598   5.683   0.065
 4392SOL     OW14074   6.907   3.346   6.267
 4392SOL    HW114075   6.956   3.330   6.352
 4392SOL    HW214076   6.880   3.259   6.226
 4393SOL     OW14077   5.944   1.080   2.496
 4393SOL    HW114078   5.901   0.990   2.497
 4393SOL    HW214079   5.987   1.095   2.408
 4394SOL     OW14080   5.564   5.777   2.402
 4394SOL    HW114081   5.512   5.791   2.318
 4394SOL    HW214082   5.662   5.779   2.382
 4395SOL     OW14083   3.571   6.960   1.551
 4395SOL    HW114084   3.667   6.944   1.573
 4395SOL    HW214085   3.552   0.030   1.557
 4396SOL     OW14086   1.959   2.529   3.877
 4396SOL    HW114087   2.048   2.531   3.923
 4396SOL    HW214088   1.924   2.436   3.875
 4397SOL     OW14089   0.362   0.874   4.757
 4397SOL    HW114090   0.382   0.873   4.659
 4397SOL    HW214091   0.444   0.846   4.807
 4398SOL     OW14092   0.622   4.639   5.515
 4398SOL    HW114093   0.522   4.644   5.511
 4398SOL    HW214094   0.654   4.564   5.457
 4399SOL     OW14095   1.911   0.934   1.425
 4399SOL    HW114096   1.922   0.872   1.347
 4399SOL    HW214097   1.984   1.002   1.423
 4400SOL     OW14098   3.587   6.559   5.811
 4400SOL    HW114099   3.506   6.523   5.765
 4400SOL    HW214100   3.641   6.613   5.746
 4401SOL     OW14101   4.880   6.454   6.680
 4401SOL    HW114102   4.799   6.508   6.656
 4401SOL    HW214103   4.959   6.514   6.687
 4402SOL     OW14104   2.938   6.746   1.147
 4402SOL    HW114105   3.024   6.752   1.197
 4402SOL    HW214106   2.883   6.827   1.165
 4403SOL     OW14107   0.686   0.217   3.349
 4403SOL    HW114108   0.709   0.126   3.383
 4403SOL    HW214109   0.759   0.281   3.374
 4404SOL     OW14110   0.403   4.720   5.998
 4404SOL    HW114111   0.490   4.673   6.013
 4404SOL    HW214112   0.410   4.778   5.917
 4405SOL     OW14113   1.635   4.652   1.417
 4405SOL    HW114114   1.636   4.732   1.356
 4405SOL    HW214115   1.715   4.656   1.478
 4406SOL     OW14116   0.030   4.100   0.796
 4406SOL    HW114117   0.057   4.194   0.777
 4406SOL    HW214118   0.107   4.050   0.835
 4407SOL     OW14119   6.792   5.031   0.689
 4407SOL    HW114120   6.866   5.059   0.628
 4407SOL    HW214121   6.769   4.935   0.671
 4408SOL     OW14122   3.106   0.650   1.760
 4408SOL    HW114123   3.198   0.611   1.760
 4408SOL    HW214124   3.079   0.671   1.854
 4409SOL     OW14125   4.967   0.315   2.946
 4409SOL    HW114126   4.899   0.248   2.974
 4409SOL    HW214127   4.931   0.407   2.961
 4410SOL     OW14128   1.164   5.180   6.730
 4410SOL    HW114129   1.151   5.265   6.781
 4410SOL    HW214130   1.246   5.188   6.674
 4411SOL     OW14131   3.457   4.183   4.255
 4411SOL    HW114132   3.415   4.172   4.165
 4411SOL    HW214133   3.533   4.119   4.265
 4412SOL     OW14134   4.225   6.527   5.116
 4412SOL    HW114135   4.297   6.475   5.162
 4412SOL    HW214136   4.138   6.510   5.162
 4413SOL     OW14137   6.399   5.561   4.532
 4413SOL    HW114138   6.454   5.510   4.467
 4413SOL    HW214139   6.310   5.584   4.492
 4414SOL     OW14140   3.825   4.303   1.297
 4414SOL    HW114141   3.861   4.393   1.273
 4414SOL    HW214142   3.778   4.307   1.385
 4415SOL     OW14143   4.242   3.558   0.334
 4415SOL    HW114144   4.233   3.485   0.403
 4415SOL    HW214145   4.251   3.517   0.244
 4416SOL     OW14146   2.560   0.599   4.068
 4416SOL    HW114147   2.531   0.544   3.991
 4416SOL    HW214148   2.654   0.630   4.054
 4417SOL     OW14149   5.819   4.253   3.375
 4417SOL    HW114150   5.780   4.198   3.448
 4417SOL    HW214151   5.863   4.194   3.308
 4418SOL     OW14152   6.091   1.714   1.914
 4418SOL    HW114153   5.991   1.710   1.919
 4418SOL    HW214154   6.126   1.768   1.991
 4419SOL     OW14155   5.875   6.219   6.646
 4419SOL    HW114156   5.842   6.292   6.706
 4419SOL    HW214157   5.871   6.249   6.551
 4420SOL     OW14158   5.448   1.821   1.457
 4420SOL    HW114159   5.523   1.794   1.518
 4420SOL    HW214160   5.483   1.828   1.363
 4421SOL     OW14161   1.607   0.524   5.177
 4421SOL    HW114162   1.687   0.582   5.159
 4421SOL    HW214163   1.592   0.464   5.099
 4422SOL     OW14164   2.844   3.760   6.651
 4422SOL    HW114165   2.863   3.666   6.681
 4422SOL    HW214166   2.785   3.757   6.571
 4423SOL     OW14167   1.373   3.320   5.879
 4423SOL    HW114168   1.420   3.237   5.848
 4423SOL    HW214169   1.440   3.392   5.898
 4424SOL     OW14170   5.926   1.071   4.433
 4424SOL    HW114171   5.864   1.054   4.357
 4424SOL    HW214172   6.019   1.043   4.407
 4425SOL     OW14173   3.179   4.910   0.177
 4425SOL    HW114174   3.196   4.833   0.116
 4425SOL    HW214175   3.140   4.877   0.263
 4426SOL     OW14176   0.022   0.545   4.633
 4426SOL    HW114177   6.989   0.619   4.606
 4426SOL    HW214178   7.017   0.458   4.597
 4427SOL     OW14179   0.563   6.180   2.441
 4427SOL    HW114180   0.583   6.084   2.458
 4427SOL    HW214181   0.610   6.210   2.358
 4428SOL     OW14182   3.218   0.143   2.271
 4428SOL    HW114183   3.293   0.104   2.324
 4428SOL    HW214184   3.214   0.242   2.288
 4429SOL     OW14185   2.736   6.957   2.832
 4429SOL    HW114186   2.695   6.968   2.742
 4429SOL    HW214187   2.783   0.013   2.858
 4430SOL     OW14188   5.216   3.905   4.892
 4430SOL    HW114189   5.265   3.988   4.918
 4430SOL    HW214190   5.118   3.919   4.901
 4431SOL     OW14191   1.753   1.403   2.203
 4431SOL    HW114192   1.845   1.402   2.242
 4431SOL    HW214193   1.686   1.394   2.276
 4432SOL     OW14194   3.638   3.272   5.186
 4432SOL    HW114195   3.599   3.285   5.095
 4432SOL    HW214196   3.600   3.190   5.228
 4433SOL     OW14197   4.341   1.344   4.653
 4433SOL    HW114198   4.331   1.432   4.607
 4433SOL    HW214199   4.277   1.340   4.730
 4434SOL     OW14200   5.067   1.886   3.922
 4434SOL    HW114201   5.053   1.855   4.016
 4434SOL    HW214202   4.980   1.919   3.885
 4435SOL     OW14203   4.603   3.483   1.697
 4435SOL    HW114204   4.509   3.453   1.683
 4435SOL    HW214205   4.661   3.404   1.714
 4436SOL     OW14206   4.677   1.044   1.119
 4436SOL    HW114207   4.742   0.975   1.150
 4436SOL    HW214208   4.710   1.135   1.145
 4437SOL     OW14209   5.880   1.996   2.971
 4437SOL    HW114210   5.808   2.042   2.919
 4437SOL    HW214211   5.932   1.935   2.910
 4438SOL     OW14212   5.816   6.731   0.227
 4438SOL    HW114213   5.741   6.797   0.220
 4438SOL    HW214214   5.789   6.646   0.183
 4439SOL     OW14215   0.117   5.289   1.627
 4439SOL    HW114216   0.055   5.301   1.705
 4439SOL    HW214217   0.201   5.245   1.658
 4440SOL     OW14218   2.295   5.213   0.524
 4440SOL    HW114219   2.395   5.216   0.519
 4440SOL    HW214220   2.267   5.209   0.620
 4441SOL     OW14221   6.994   1.595   2.873
 4441SOL    HW114222   0.060   1.578   2.847
 4441SOL    HW214223   6.992   1.647   2.958
 4442SOL     OW14224   2.636   5.669   4.330
 4442SOL    HW114225   2.696   5.596   4.363
 4442SOL    HW214226   2.690   5.751   4.311
 4443SOL     OW14227   6.916   3.429   0.465
 4443SOL    HW114228   6.913   3.333   0.493
 4443SOL    HW214229   6.902   3.487   0.545
 4444SOL     OW14230   3.073   4.675   5.584
 4444SOL    HW114231   2.998   4.662   5.519
 4444SOL    HW214232   3.149   4.616   5.560
 4445SOL     OW14233   0.779   0.320   1.199
 4445SOL    HW114234   0.748   0.287   1.288
 4445SOL    HW214235   0.757   0.417   1.190
 4446SOL     OW14236   5.736   1.151   2.082
 4446SOL    HW114237   5.682   1.220   2.129
 4446SOL    HW214238   5.833   1.165   2.103
 4447SOL     OW14239   5.531   3.665   6.213
 4447SOL    HW114240   5.614   3.610   6.209
 4447SOL    HW214241   5.467   3.624   6.278
 4448SOL     OW14242   2.802   3.923   1.260
 4448SOL    HW114243   2.850   3.845   1.221
 4448SOL    HW214244   2.766   3.981   1.187
 4449SOL     OW14245   4.967   0.236   6.268
 4449SOL    HW114246   5.021   0.318   6.256
 4449SOL    HW214247   4.884   0.257   6.321
 4450SOL     OW14248   3.665   3.253   4.545
 4450SOL    HW114249   3.748   3.251   4.601
 4450SOL    HW214250   3.610   3.332   4.570
 4451SOL     OW14251   6.204   4.723   3.534
 4451SOL    HW114252   6.208   4.669   3.617
 4451SOL    HW214253   6.121   4.701   3.483
 4452SOL     OW14254   5.202   6.821   4.733
 4452SOL    HW114255   5.245   6.908   4.711
 4452SOL    HW214256   5.256   6.774   4.803
 4453SOL     OW14257   0.345   2.662   1.736
 4453SOL    HW114258   0.367   2.641   1.640
 4453SOL    HW214259   0.294   2.586   1.775
 4454SOL     OW14260   1.300   2.080   6.852
 4454SOL    HW114261   1.324   2.017   6.926
 4454SOL    HW214262   1.203   2.069   6.829
 4455SOL     OW14263   4.141   6.100   6.050
 4455SOL    HW114264   4.207   6.095   5.975
 4455SOL    HW214265   4.186   6.132   6.133
 4456SOL     OW14266   3.570   6.174   2.057
 4456SOL    HW114267   3.524   6.121   1.986
 4456SOL    HW214268   3.669   6.158   2.052
 4457SOL     OW14269   4.659   1.715   1.775
 4457SOL    HW114270   4.654   1.616   1.776
 4457SOL    HW214271   4.727   1.746   1.842
 4458SOL     OW14272   1.572   2.700   6.514
 4458SOL    HW114273   1.486   2.708   6.464
 4458SOL    HW214274   1.580   2.607   6.551
 4459SOL     OW14275   4.049   0.666   5.154
 4459SOL    HW114276   4.060   0.736   5.084
 4459SOL    HW214277   4.110   0.685   5.230
 4460SOL     OW14278   2.832   2.812   5.933
 4460SOL    HW114279   2.845   2.807   5.834
 4460SOL    HW214280   2.906   2.762   5.978
 4461SOL     OW14281   1.036   0.676   1.603
 4461SOL    HW114282   1.038   0.615   1.682
 4461SOL    HW214283   1.103   0.749   1.615
 4462SOL     OW14284   6.006   4.776   1.891
 4462SOL    HW114285   6.025   4.678   1.886
 4462SOL    HW214286   6.076   4.821   1.946
 4463SOL     OW14287   5.276   1.983   6.770
 4463SOL    HW114288   5.284   2.082   6.782
 4463SOL    HW214289   5.258   1.962   6.674
 4464SOL     OW14290   6.558   5.179   0.703
 4464SOL    HW114291   6.476   5.128   0.726
 4464SOL    HW214292   6.637   5.117   0.701
 4465SOL     OW14293   2.905   5.574   1.220
 4465SOL    HW114294   2.820   5.530   1.249
 4465SOL    HW214295   2.955   5.513   1.159
 4466SOL     OW14296   1.484   1.876   3.192
 4466SOL    HW114297   1.449   1.883   3.285
 4466SOL    HW214298   1.539   1.793   3.183
 4467SOL     OW14299   1.905   6.729   2.639
 4467SOL    HW114300   1.818   6.688   2.609
 4467SOL    HW214301   1.950   6.667   2.704
 4468SOL     OW14302   2.036   2.343   0.527
 4468SOL    HW114303   2.022   2.383   0.437
 4468SOL    HW214304   2.095   2.262   0.519
 4469SOL     OW14305   4.027   0.942   1.681
 4469SOL    HW114306   4.030   1.011   1.754
 4469SOL    HW214307   4.110   0.886   1.685
 4470SOL     OW14308   6.003   2.483   2.533
 4470SOL    HW114309   5.981   2.522   2.443
 4470SOL    HW214310   6.065   2.405   2.521
 4471SOL     OW14311   0.526   1.802   6.718
 4471SOL    HW114312   0.499   1.855   6.638
 4471SOL    HW214313   0.496   1.849   6.801
 4472SOL     OW14314   1.512   3.173   3.429
 4472SOL    HW114315   1.478   3.254   3.476
 4472SOL    HW214316   1.612   3.176   3.425
 4473SOL     OW14317   6.415   3.064   4.562
 4473SOL    HW114318   6.372   2.986   4.608
 4473SOL    HW214319   6.487   3.102   4.621
 4474SOL     OW14320   2.804   0.715   2.009
 4474SOL    HW114321   2.900   0.715   2.035
 4474SOL    HW214322   2.796   0.695   1.911
 4475SOL     OW14323   1.531   4.111   2.765
 4475SOL    HW114324   1.453   4.060   2.727
 4475SOL    HW214325   1.615   4.080   2.721
 4476SOL     OW14326   3.581   0.229   3.613
 4476SOL    HW114327   3.553   0.187   3.699
 4476SOL    HW214328   3.636   0.310   3.633
 4477SOL     OW14329   1.818   6.712   5.115
 4477SOL    HW114330   1.917   6.703   5.123
 4477SOL    HW214331   1.785   6.651   5.042
 4478SOL     OW14332   3.724   0.342   2.818
 4478SOL    HW114333   3.810   0.359   2.866
 4478SOL    HW214334   3.727   0.383   2.728
 4479SOL     OW14335   0.816   1.000   1.829
 4479SOL    HW114336   0.905   1.040   1.805
 4479SOL    HW214337   0.766   0.978   1.746
 4480SOL     OW14338   2.066   3.755   5.612
 4480SOL    HW114339   2.123   3.817   5.557
 4480SOL    HW214340   2.086   3.660   5.587
 4481SOL     OW14341   2.747   6.346   5.247
 4481SOL    HW114342   2.735   6.255   5.286
 4481SOL    HW214343   2.673   6.406   5.277
 4482SOL     OW14344   1.192   3.544   4.890
 4482SOL    HW114345   1.122   3.531   4.820
 4482SOL    HW214346   1.274   3.493   4.866
 4483SOL     OW14347   5.856   2.982   2.005
 4483SOL    HW114348   5.930   2.932   1.961
 4483SOL    HW214349   5.786   3.005   1.937
 4484SOL     OW14350   3.055   3.003   6.281
 4484SOL    HW114351   3.051   3.063   6.202
 4484SOL    HW214352   3.059   2.908   6.250
 4485SOL     OW14353   5.417   1.594   5.417
 4485SOL    HW114354   5.458   1.503   5.417
 4485SOL    HW214355   5.468   1.654   5.478
 4486SOL     OW14356   5.237   4.484   5.376
 4486SOL    HW114357   5.243   4.583   5.365
 4486SOL    HW214358   5.329   4.445   5.381
 4487SOL     OW14359   1.971   3.175   5.988
 4487SOL    HW114360   1.885   3.132   6.015
 4487SOL    HW214361   2.037   3.103   5.962
 4488SOL     OW14362   0.042   3.415   6.511
 4488SOL    HW114363   0.104   3.493   6.507
 4488SOL    HW214364   0.042   3.378   6.604
 4489SOL     OW14365   5.557   5.829   3.877
 4489SOL    HW114366   5.561   5.751   3.939
 4489SOL    HW214367   5.638   5.828   3.818
 4490SOL     OW14368   6.550   2.729   3.087
 4490SOL    HW114369   6.455   2.729   3.055
 4490SOL    HW214370   6.603   2.796   3.034
 4491SOL     OW14371   6.836   2.549   4.873
 4491SOL    HW114372   6.840   2.649   4.879
 4491SOL    HW214373   6.927   2.513   4.856
 4492SOL     OW14374   5.645   3.719   1.533
 4492SOL    HW114375   5.686   3.631   1.555
 4492SOL    HW214376   5.681   3.789   1.595
 4493SOL     OW14377   4.460   5.321   4.896
 4493SOL    HW114378   4.507   5.258   4.958
 4493SOL    HW214379   4.438   5.405   4.944
 4494SOL     OW14380   6.889   1.013   6.302
 4494SOL    HW114381   6.867   0.921   6.336
 4494SOL    HW214382   6.890   1.013   6.202
 4495SOL     OW14383   3.818   6.434   4.385
 4495SOL    HW114384   3.737   6.448   4.442
 4495SOL    HW214385   3.899   6.429   4.443
 4496SOL     OW14386   5.620   5.838   1.477
 4496SOL    HW114387   5.585   5.859   1.568
 4496SOL    HW214388   5.632   5.923   1.426
 4497SOL     OW14389   4.967   1.201   0.005
 4497SOL    HW114390   4.946   1.140   6.956
 4497SOL    HW214391   4.907   1.280   0.002
 4498SOL     OW14392   0.329   3.874   0.263
 4498SOL    HW114393   0.358   3.838   0.174
 4498SOL    HW214394   0.236   3.841   0.283
 4499SOL     OW14395   6.468   3.791   5.139
 4499SOL    HW114396   6.373   3.797   5.108
 4499SOL    HW214397   6.517   3.723   5.085
 4500SOL     OW14398   3.060   3.391   4.233
 4500SOL    HW114399   3.094   3.307   4.277
 4500SOL    HW214400   3.066   3.467   4.298
 4501SOL     OW14401   0.533   3.366   3.660
 4501SOL    HW114402   0.495   3.387   3.750
 4501SOL    HW214403   0.477   3.295   3.617
 4502SOL     OW14404   0.910   2.828   6.542
 4502SOL    HW114405   0.882   2.912   6.494
 4502SOL    HW214406   1.009   2.820   6.541
 4503SOL     OW14407   3.410   6.924   1.750
 4503SOL    HW114408   3.476   6.918   1.675
 4503SOL    HW214409   3.362   6.837   1.759
 4504SOL     OW14410   6.448   0.544   4.889
 4504SOL    HW114411   6.415   0.609   4.821
 4504SOL    HW214412   6.412   0.566   4.979
 4505SOL     OW14413   5.620   4.835   2.336
 4505SOL    HW114414   5.703   4.781   2.345
 4505SOL    HW214415   5.563   4.798   2.263
 4506SOL     OW14416   4.432   2.009   3.153
 4506SOL    HW114417   4.479   2.084   3.108
 4506SOL    HW214418   4.420   2.030   3.250
 4507SOL     OW14419   5.339   4.500   2.270
 4507SOL    HW114420   5.282   4.480   2.350
 4507SOL    HW214421   5.353   4.417   2.217
 4508SOL     OW14422   0.899   4.897   6.736
 4508SOL    HW114423   0.895   4.997   6.742
 4508SOL    HW214424   0.989   4.869   6.702
 4509SOL     OW14425   4.217   2.334   2.756
 4509SOL    HW114426   4.125   2.298   2.745
 4509SOL    HW214427   4.250   2.316   2.849
 4510SOL     OW14428   4.071   1.063   4.014
 4510SOL    HW114429   4.090   1.071   3.916
 4510SOL    HW214430   3.988   1.114   4.036
 4511SOL     OW14431   6.618   2.945   0.052
 4511SOL    HW114432   6.532   2.943   0.002
 4511SOL    HW214433   6.653   3.038   0.056
 4512SOL     OW14434   3.111   1.210   5.830
 4512SOL    HW114435   3.149   1.204   5.737
 4512SOL    HW214436   3.103   1.306   5.856
 4513SOL     OW14437   5.992   5.396   0.345
 4513SOL    HW114438   5.942   5.315   0.375
 4513SOL    HW214439   6.085   5.392   0.379
 4514SOL     OW14440   4.707   1.410   6.414
 4514SOL    HW114441   4.629   1.427   6.474
 4514SOL    HW214442   4.792   1.427   6.464
 4515SOL     OW14443   6.839   1.356   5.724
 4515SOL    HW114444   6.913   1.337   5.787
 4515SOL    HW214445   6.774   1.419   5.767
 4516SOL     OW14446   1.824   0.420   6.946
 4516SOL    HW114447   1.917   0.416   6.908
 4516SOL    HW214448   1.788   0.327   6.953
 4517SOL     OW14449   4.086   1.026   0.157
 4517SOL    HW114450   3.998   1.055   0.192
 4517SOL    HW214451   4.123   0.954   0.216
 4518SOL     OW14452   6.903   0.846   2.853
 4518SOL    HW114453   6.857   0.839   2.941
 4518SOL    HW214454   6.840   0.819   2.780
 4519SOL     OW14455   6.471   1.038   1.499
 4519SOL    HW114456   6.554   1.078   1.538
 4519SOL    HW214457   6.392   1.095   1.524
 4520SOL     OW14458   4.229   6.423   4.436
 4520SOL    HW114459   4.277   6.341   4.469
 4520SOL    HW214460   4.291   6.501   4.439
 4521SOL     OW14461   6.082   1.926   4.526
 4521SOL    HW114462   6.066   1.837   4.569
 4521SOL    HW214463   5.995   1.967   4.499
 4522SOL     OW14464   6.146   6.106   3.208
 4522SOL    HW114465   6.052   6.112   3.175
 4522SOL    HW214466   6.146   6.111   3.308
 4523SOL     OW14467   0.925   4.307   0.110
 4523SOL    HW114468   0.851   4.247   0.078
 4523SOL    HW214469   0.972   4.263   0.187
 4524SOL     OW14470   6.275   2.491   3.648
 4524SOL    HW114471   6.252   2.416   3.711
 4524SOL    HW214472   6.220   2.482   3.565
 4525SOL     OW14473   4.990   1.007   5.039
 4525SOL    HW114474   5.025   1.058   4.960
 4525SOL    HW214475   4.898   0.975   5.020
 4526SOL     OW14476   6.647   0.741   1.157
 4526SOL    HW114477   6.636   0.642   1.157
 4526SOL    HW214478   6.712   0.767   1.229
 4527SOL     OW14479   5.091   1.290   3.541
 4527SOL    HW114480   5.116   1.322   3.449
 4527SOL    HW214481   5.138   1.347   3.609
 4528SOL     OW14482   5.296   0.104   0.348
 4528SOL    HW114483   5.273   0.013   0.314
 4528SOL    HW214484   5.394   0.120   0.339
 4529SOL     OW14485   3.323   0.622   5.252
 4529SOL    HW114486   3.278   0.602   5.166
 4529SOL    HW214487   3.422   0.617   5.240
 4530SOL     OW14488   2.051   4.635   5.790
 4530SOL    HW114489   2.145   4.605   5.802
 4530SOL    HW214490   2.028   4.639   5.693
 4531SOL     OW14491   0.205   3.170   5.171
 4531SOL    HW114492   0.122   3.226   5.170
 4531SOL    HW214493   0.220   3.134   5.263
 4532SOL     OW14494   6.324   2.025   3.386
 4532SOL    HW114495   6.355   2.086   3.459
 4532SOL    HW214496   6.306   2.079   3.304
 4533SOL     OW14497   0.986   1.199   1.703
 4533SOL    HW114498   0.993   1.294   1.672
 4533SOL    HW214499   1.011   1.137   1.628
 4534SOL     OW14500   4.841   3.859   4.132
 4534SOL    HW114501   4.803   3.780   4.180
 4534SOL    HW214502   4.934   3.838   4.103
 4535SOL     OW14503   4.190   0.972   2.694
 4535SOL    HW114504   4.138   0.944   2.613
 4535SOL    HW214505   4.286   0.982   2.670
 4536SOL     OW14506   3.999   1.474   4.103
 4536SOL    HW114507   4.033   1.565   4.125
 4536SOL    HW214508   3.935   1.444   4.174
 4537SOL     OW14509   4.287   3.240   6.756
 4537SOL    HW114510   4.229   3.201   6.828
 4537SOL    HW214511   4.303   3.171   6.686
 4538SOL     OW14512   1.895   0.470   3.682
 4538SOL    HW114513   1.849   0.525   3.751
 4538SOL    HW214514   1.838   0.466   3.600
 4539SOL     OW14515   2.728   0.460   4.899
 4539SOL    HW114516   2.778   0.375   4.886
 4539SOL    HW214517   2.714   0.504   4.810
 4540SOL     OW14518   3.208   2.502   5.625
 4540SOL    HW114519   3.300   2.497   5.585
 4540SOL    HW214520   3.143   2.528   5.555
 4541SOL     OW14521   5.815   2.205   0.635
 4541SOL    HW114522   5.730   2.153   0.646
 4541SOL    HW214523   5.885   2.168   0.695
 4542SOL     OW14524   6.864   1.253   2.394
 4542SOL    HW114525   6.787   1.221   2.451
 4542SOL    HW214526   6.923   1.312   2.449
 4543SOL     OW14527   4.442   2.026   1.454
 4543SOL    HW114528   4.349   2.052   1.428
 4543SOL    HW214529   4.444   1.929   1.479
 4544SOL     OW14530   3.074   6.150   5.969
 4544SOL    HW114531   3.052   6.208   6.047
 4544SOL    HW214532   3.167   6.115   5.978
 4545SOL     OW14533   5.076   4.105   4.510
 4545SOL    HW114534   5.142   4.059   4.451
 4545SOL    HW214535   5.118   4.187   4.548
 4546SOL     OW14536   1.363   0.859   5.544
 4546SOL    HW114537   1.430   0.784   5.549
 4546SOL    HW214538   1.359   0.905   5.633
 4547SOL     OW14539   5.650   2.555   2.697
 4547SOL    HW114540   5.658   2.606   2.612
 4547SOL    HW214541   5.590   2.605   2.760
 4548SOL     OW14542   1.158   3.625   4.028
 4548SOL    HW114543   1.209   3.679   3.961
 4548SOL    HW214544   1.080   3.679   4.061
 4549SOL     OW14545   0.021   4.258   1.301
 4549SOL    HW114546   0.060   4.281   1.212
 4549SOL    HW214547   6.967   4.203   1.287
 4550SOL     OW14548   0.732   5.201   2.729
 4550SOL    HW114549   0.830   5.218   2.726
 4550SOL    HW214550   0.716   5.102   2.736
 4551SOL     OW14551   0.459   2.043   5.293
 4551SOL    HW114552   0.509   2.103   5.355
 4551SOL    HW214553   0.522   2.002   5.228
 4552SOL     OW14554   6.498   3.734   1.144
 4552SOL    HW114555   6.525   3.678   1.223
 4552SOL    HW214556   6.461   3.675   1.072
 4553SOL     OW14557   3.198   4.473   6.792
 4553SOL    HW114558   3.226   4.526   6.872
 4553SOL    HW214559   3.099   4.474   6.785
 4554SOL     OW14560   5.930   0.116   1.671
 4554SOL    HW114561   5.942   0.091   1.575
 4554SOL    HW214562   5.927   0.216   1.679
 4555SOL     OW14563   2.810   2.244   5.747
 4555SOL    HW114564   2.812   2.340   5.772
 4555SOL    HW214565   2.810   2.235   5.647
 4556SOL     OW14566   5.241   3.325   4.125
 4556SOL    HW114567   5.299   3.243   4.124
 4556SOL    HW214568   5.203   3.338   4.216
 4557SOL     OW14569   4.736   6.031   5.770
 4557SOL    HW114570   4.706   6.056   5.677
 4557SOL    HW214571   4.670   5.967   5.809
 4558SOL     OW14572   0.877   4.537   5.155
 4558SOL    HW114573   0.958   4.493   5.192
 4558SOL    HW214574   0.807   4.543   5.226
 4559SOL     OW14575   0.199   4.198   1.534
 4559SOL    HW114576   0.133   4.216   1.461
 4559SOL    HW214577   0.161   4.227   1.622
 4560SOL     OW14578   5.136   4.170   1.926
 4560SOL    HW114579   5.139   4.169   2.026
 4560SOL    HW214580   5.093   4.255   1.895
 4561SOL     OW14581   1.768   2.047   2.474
 4561SOL    HW114582   1.778   2.008   2.566
 4561SOL    HW214583   1.780   1.975   2.406
 4562SOL     OW14584   2.346   6.181   5.586
 4562SOL    HW114585   2.292   6.145   5.510
 4562SOL    HW214586   2.361   6.108   5.653
 4563SOL     OW14587   0.269   3.076   1.029
 4563SOL    HW114588   0.181   3.116   1.000
 4563SOL    HW214589   0.255   2.980   1.053
 4564SOL     OW14590   6.663   6.071   0.942
 4564SOL    HW114591   6.580   6.098   0.991
 4564SOL    HW214592   6.724   6.149   0.933
 4565SOL     OW14593   0.808   1.189   5.286
 4565SOL    HW114594   0.716   1.180   5.248
 4565SOL    HW214595   0.823   1.117   5.354
 4566SOL     OW14596   6.685   2.742   0.460
 4566SOL    HW114597   6.593   2.710   0.482
 4566SOL    HW214598   6.713   2.812   0.526
 4567SOL     OW14599   6.289   0.173   0.102
 4567SOL    HW114600   6.341   0.258   0.106
 4567SOL    HW214601   6.352   0.095   0.108
 4568SOL     OW14602   2.473   4.068   5.960
 4568SOL    HW114603   2.502   4.162   5.979
 4568SOL    HW214604   2.454   4.057   5.863
 4569SOL     OW14605   1.771   1.906   2.715
 4569SOL    HW114606   1.688   1.895   2.769
 4569SOL    HW214607   1.850   1.875   2.769
 4570SOL     OW14608   0.394   6.749   3.588
 4570SOL    HW114609   0.357   6.657   3.583
 4570SOL    HW214610   0.464   6.761   3.518
 4571SOL     OW14611   3.903   4.058   6.342
 4571SOL    HW114612   3.928   4.108   6.259
 4571SOL    HW214613   3.805   4.040   6.342
 4572SOL     OW14614   1.363   0.003   6.750
 4572SOL    HW114615   1.368   7.011   6.652
 4572SOL    HW214616   1.427   0.077   6.771
 4573SOL     OW14617   6.359   0.341   0.640
 4573SOL    HW114618   6.334   0.421   0.694
 4573SOL    HW214619   6.277   0.287   0.620
 4574SOL     OW14620   5.854   3.852   0.818
 4574SOL    HW114621   5.932   3.819   0.765
 4574SOL    HW214622   5.886   3.905   0.896
 4575SOL     OW14623   6.319   0.937   6.285
 4575SOL    HW114624   6.374   1.017   6.311
 4575SOL    HW214625   6.258   0.913   6.360
 4576SOL     OW14626   2.580   6.499   6.115
 4576SOL    HW114627   2.675   6.471   6.131
 4576SOL    HW214628   2.522   6.417   6.111
 4577SOL     OW14629   1.381   2.650   4.663
 4577SOL    HW114630   1.406   2.618   4.571
 4577SOL    HW214631   1.453   2.627   4.727
 4578SOL     OW14632   0.600   3.095   5.368
 4578SOL    HW114633   0.584   3.014   5.312
 4578SOL    HW214634   0.637   3.169   5.311
 4579SOL     OW14635   4.444   0.888   3.141
 4579SOL    HW114636   4.436   0.860   3.045
 4579SOL    HW214637   4.506   0.966   3.147
 4580SOL     OW14638   5.546   4.859   0.154
 4580SOL    HW114639   5.583   4.945   0.120
 4580SOL    HW214640   5.548   4.790   0.082
 4581SOL     OW14641   2.404   4.758   2.510
 4581SOL    HW114642   2.432   4.687   2.575
 4581SOL    HW214643   2.310   4.786   2.531
 4582SOL     OW14644   5.433   7.024   5.041
 4582SOL    HW114645   5.393   7.022   4.949
 4582SOL    HW214646   5.384   6.960   5.100
 4583SOL     OW14647   2.798   2.322   6.251
 4583SOL    HW114648   2.765   2.302   6.158
 4583SOL    HW214649   2.753   2.403   6.286
 4584SOL     OW14650   0.512   5.040   5.914
 4584SOL    HW114651   0.426   5.044   5.964
 4584SOL    HW214652   0.575   4.977   5.960
 4585SOL     OW14653   3.033   6.033   3.127
 4585SOL    HW114654   3.125   6.068   3.110
 4585SOL    HW214655   2.996   6.074   3.211
 4586SOL     OW14656   3.325   5.513   0.876
 4586SOL    HW114657   3.247   5.575   0.862
 4586SOL    HW214658   3.365   5.491   0.787
 4587SOL     OW14659   3.653   4.007   2.613
 4587SOL    HW114660   3.630   3.987   2.518
 4587SOL    HW214661   3.570   4.036   2.662
 4588SOL     OW14662   3.230   3.381   5.033
 4588SOL    HW114663   3.228   3.389   4.933
 4588SOL    HW214664   3.263   3.291   5.058
 4589SOL     OW14665   6.266   1.142   2.519
 4589SOL    HW114666   6.290   1.045   2.524
 4589SOL    HW214667   6.292   1.187   2.604
 4590SOL     OW14668   5.266   6.092   1.548
 4590SOL    HW114669   5.180   6.093   1.598
 4590SOL    HW214670   5.329   6.160   1.586
 4591SOL     OW14671   0.716   6.058   4.615
 4591SOL    HW114672   0.714   6.154   4.641
 4591SOL    HW214673   0.810   6.032   4.592
 4592SOL     OW14674   2.701   1.837   2.147
 4592SOL    HW114675   2.620   1.808   2.197
 4592SOL    HW214676   2.716   1.935   2.160
 4593SOL     OW14677   4.847   5.378   3.010
 4593SOL    HW114678   4.892   5.418   3.089
 4593SOL    HW214679   4.756   5.418   2.999
 4594SOL     OW14680   2.606   1.573   3.044
 4594SOL    HW114681   2.688   1.548   2.992
 4594SOL    HW214682   2.541   1.497   3.043
 4595SOL     OW14683   4.036   3.121   6.605
 4595SOL    HW114684   3.996   3.139   6.695
 4595SOL    HW214685   3.985   3.048   6.560
 4596SOL     OW14686   5.810   6.696   2.647
 4596SOL    HW114687   5.869   6.733   2.720
 4596SOL    HW214688   5.835   6.601   2.629
 4597SOL     OW14689   4.150   5.445   6.085
 4597SOL    HW114690   4.105   5.356   6.098
 4597SOL    HW214691   4.232   5.450   6.141
 4598SOL     OW14692   2.319   6.546   6.848
 4598SOL    HW114693   2.377   6.626   6.860
 4598SOL    HW214694   2.372   6.463   6.864
 4599SOL     OW14695   1.167   4.903   1.086
 4599SOL    HW114696   1.125   4.897   1.177
 4599SOL    HW214697   1.096   4.918   1.018
 4600SOL     OW14698   1.185   5.203   5.443
 4600SOL    HW114699   1.093   5.196   5.483
 4600SOL    HW214700   1.190   5.283   5.383
 4601SOL     OW14701   2.137   0.557   5.836
 4601SOL    HW114702   2.184   0.480   5.792
 4601SOL    HW214703   2.070   0.595   5.773
 4602SOL     OW14704   1.810   6.251   1.387
 4602SOL    HW114705   1.745   6.229   1.459
 4602SOL    HW214706   1.890   6.296   1.427
 4603SOL     OW14707   3.086   6.566   0.721
 4603SOL    HW114708   3.074   6.594   0.626
 4603SOL    HW214709   3.035   6.628   0.781
 4604SOL     OW14710   4.507   0.667   0.900
 4604SOL    HW114711   4.438   0.709   0.960
 4604SOL    HW214712   4.564   0.738   0.860
 4605SOL     OW14713   2.572   0.507   3.082
 4605SOL    HW114714   2.625   0.591   3.096
 4605SOL    HW214715   2.475   0.529   3.078
 4606SOL     OW14716   0.979   6.285   2.141
 4606SOL    HW114717   1.027   6.276   2.053
 4606SOL    HW214718   1.043   6.320   2.210
 4607SOL     OW14719   1.897   2.610   1.274
 4607SOL    HW114720   1.971   2.548   1.302
 4607SOL    HW214721   1.812   2.582   1.317
 4608SOL     OW14722   0.482   6.164   3.883
 4608SOL    HW114723   0.534   6.149   3.799
 4608SOL    HW214724   0.464   6.261   3.894
 4609SOL     OW14725   4.617   5.395   6.859
 4609SOL    HW114726   4.553   5.352   6.923
 4609SOL    HW214727   4.581   5.387   6.766
 4610SOL     OW14728   5.283   3.049   0.856
 4610SOL    HW114729   5.270   3.016   0.949
 4610SOL    HW214730   5.205   3.104   0.828
 4611SOL     OW14731   0.711   5.575   6.401
 4611SOL    HW114732   0.693   5.528   6.314
 4611SOL    HW214733   0.634   5.560   6.463
 4612SOL     OW14734   1.832   5.517   0.418
 4612SOL    HW114735   1.896   5.449   0.455
 4612SOL    HW214736   1.833   5.512   0.318
 4613SOL     OW14737   2.739   6.241   2.062
 4613SOL    HW114738   2.801   6.186   2.006
 4613SOL    HW214739   2.727   6.331   2.020
 4614SOL     OW14740   6.875   3.131   4.772
 4614SOL    HW114741   6.892   3.156   4.867
 4614SOL    HW214742   6.936   3.056   4.745
 4615SOL     OW14743   1.946   0.112   0.178
 4615SOL    HW114744   2.041   0.122   0.148
 4615SOL    HW214745   1.886   0.111   0.097
 4616SOL     OW14746   6.680   0.379   5.290
 4616SOL    HW114747   6.635   0.388   5.201
 4616SOL    HW214748   6.615   0.404   5.362
 4617SOL     OW14749   0.611   2.422   2.505
 4617SOL    HW114750   0.637   2.401   2.410
 4617SOL    HW214751   0.643   2.513   2.529
 4618SOL     OW14752   2.236   3.128   4.741
 4618SOL    HW114753   2.284   3.074   4.810
 4618SOL    HW214754   2.148   3.084   4.720
 4619SOL     OW14755   3.436   6.499   3.405
 4619SOL    HW114756   3.394   6.423   3.357
 4619SOL    HW214757   3.367   6.567   3.429
 4620SOL     OW14758   2.384   4.544   0.128
 4620SOL    HW114759   2.314   4.495   0.076
 4620SOL    HW214760   2.366   4.533   0.226
 4621SOL     OW14761   5.621   0.922   2.098
 4621SOL    HW114762   5.531   0.921   2.141
 4621SOL    HW214763   5.654   1.016   2.091
 4622SOL     OW14764   2.692   4.796   0.565
 4622SOL    HW114765   2.728   4.741   0.490
 4622SOL    HW214766   2.754   4.791   0.644
 4623SOL     OW14767   5.202   6.519   0.263
 4623SOL    HW114768   5.263   6.443   0.241
 4623SOL    HW214769   5.236   6.566   0.345
 4624SOL     OW14770   4.155   6.941   3.309
 4624SOL    HW114771   4.196   6.897   3.389
 4624SOL    HW214772   4.109   7.025   3.336
 4625SOL     OW14773   2.485   4.474   0.967
 4625SOL    HW114774   2.412   4.482   1.035
 4625SOL    HW214775   2.450   4.497   0.877
 4626SOL     OW14776   5.071   4.625   2.243
 4626SOL    HW114777   5.028   4.543   2.280
 4626SOL    HW214778   5.166   4.604   2.217
 4627SOL     OW14779   2.521   4.548   4.522
 4627SOL    HW114780   2.474   4.545   4.433
 4627SOL    HW214781   2.467   4.497   4.589
 4628SOL     OW14782   6.151   4.345   4.172
 4628SOL    HW114783   6.057   4.366   4.145
 4628SOL    HW214784   6.210   4.347   4.092
 4629SOL     OW14785   2.158   5.234   5.364
 4629SOL    HW114786   2.115   5.312   5.408
 4629SOL    HW214787   2.214   5.184   5.430
 4630SOL     OW14788   3.297   5.253   2.789
 4630SOL    HW114789   3.365   5.312   2.832
 4630SOL    HW214790   3.275   5.289   2.698
 4631SOL     OW14791   1.786   6.167   2.914
 4631SOL    HW114792   1.848   6.089   2.921
 4631SOL    HW214793   1.704   6.141   2.863
 4632SOL     OW14794   3.478   4.979   2.416
 4632SOL    HW114795   3.469   4.932   2.503
 4632SOL    HW214796   3.404   4.951   2.355
 4633SOL     OW14797   5.124   0.323   4.671
 4633SOL    HW114798   5.062   0.250   4.702
 4633SOL    HW214799   5.183   0.287   4.598
 4634SOL     OW14800   3.362   4.839   5.926
 4634SOL    HW114801   3.289   4.827   5.858
 4634SOL    HW214802   3.449   4.814   5.885
 4635SOL     OW14803   4.953   3.754   1.499
 4635SOL    HW114804   4.854   3.737   1.508
 4635SOL    HW214805   4.987   3.711   1.416
 4636SOL     OW14806   1.848   4.484   6.862
 4636SOL    HW114807   1.928   4.543   6.849
 4636SOL    HW214808   1.775   4.536   6.906
 4637SOL     OW14809   1.058   6.676   0.674
 4637SOL    HW114810   1.158   6.676   0.672
 4637SOL    HW214811   1.023   6.652   0.584
 4638SOL     OW14812   4.639   4.429   6.698
 4638SOL    HW114813   4.683   4.518   6.709
 4638SOL    HW214814   4.679   4.382   6.619
 4639SOL     OW14815   3.063   4.275   6.124
 4639SOL    HW114816   3.005   4.340   6.173
 4639SOL    HW214817   3.157   4.307   6.126
 4640SOL     OW14818   5.170   3.919   3.935
 4640SOL    HW114819   5.145   3.823   3.925
 4640SOL    HW214820   5.269   3.928   3.940
 4641SOL     OW14821   2.309   6.981   4.934
 4641SOL    HW114822   2.215   6.979   4.966
 4641SOL    HW214823   2.367   7.025   5.002
 4642SOL     OW14824   0.870   5.383   4.332
 4642SOL    HW114825   0.940   5.445   4.296
 4642SOL    HW214826   0.851   5.312   4.264
 4643SOL     OW14827   6.236   2.673   1.094
 4643SOL    HW114828   6.234   2.591   1.152
 4643SOL    HW214829   6.143   2.710   1.087
 4644SOL     OW14830   6.547   5.290   4.856
 4644SOL    HW114831   6.449   5.281   4.872
 4644SOL    HW214832   6.570   5.387   4.846
 4645SOL     OW14833   0.856   0.785   4.449
 4645SOL    HW114834   0.832   0.840   4.529
 4645SOL    HW214835   0.940   0.734   4.466
 4646SOL     OW14836   1.986   6.019   3.908
 4646SOL    HW114837   2.073   5.972   3.925
 4646SOL    HW214838   1.967   6.018   3.810
 4647SOL     OW14839   1.467   0.736   3.051
 4647SOL    HW114840   1.419   0.657   3.089
 4647SOL    HW214841   1.536   0.706   2.985
 4648SOL     OW14842   3.744   0.934   2.701
 4648SOL    HW114843   3.809   1.001   2.664
 4648SOL    HW214844   3.654   0.976   2.709
 4649SOL     OW14845   5.595   6.905   0.180
 4649SOL    HW114846   5.501   6.935   0.162
 4649SOL    HW214847   5.658   6.976   0.148
 4650SOL     OW14848   4.435   5.346   2.824
 4650SOL    HW114849   4.457   5.418   2.891
 4650SOL    HW214850   4.343   5.312   2.843
 4651SOL     OW14851   0.128   3.034   0.691
 4651SOL    HW114852   0.159   3.128   0.700
 4651SOL    HW214853   0.203   2.972   0.714
 4652SOL     OW14854   6.321   6.654   3.957
 4652SOL    HW114855   6.245   6.667   4.020
 4652SOL    HW214856   6.332   6.736   3.900
 4653SOL     OW14857   5.616   4.835   0.881
 4653SOL    HW114858   5.635   4.829   0.783
 4653SOL    HW214859   5.666   4.912   0.920
 4654SOL     OW14860   1.009   0.018   0.353
 4654SOL    HW114861   1.015   0.116   0.373
 4654SOL    HW214862   0.916   7.015   0.373
 4655SOL     OW14863   4.918   4.214   1.178
 4655SOL    HW114864   4.869   4.128   1.181
 4655SOL    HW214865   4.925   4.253   1.270
 4656SOL     OW14866   1.326   0.745   2.427
 4656SOL    HW114867   1.385   0.669   2.402
 4656SOL    HW214868   1.367   0.796   2.503
 4657SOL     OW14869   4.931   6.550   1.630
 4657SOL    HW114870   4.961   6.461   1.595
 4657SOL    HW214871   4.833   6.561   1.613
 4658SOL     OW14872   3.753   1.372   2.677
 4658SOL    HW114873   3.825   1.303   2.675
 4658SOL    HW214874   3.678   1.340   2.736
 4659SOL     OW14875   3.208   5.096   5.006
 4659SOL    HW114876   3.158   5.127   5.086
 4659SOL    HW214877   3.150   5.038   4.950
 4660SOL     OW14878   1.067   4.388   6.408
 4660SOL    HW114879   1.045   4.347   6.496
 4660SOL    HW214880   1.118   4.321   6.353
 4661SOL     OW14881   2.906   4.441   5.711
 4661SOL    HW114882   2.852   4.523   5.690
 4661SOL    HW214883   2.979   4.464   5.775
 4662SOL     OW14884   3.151   0.103   5.562
 4662SOL    HW114885   3.096   0.178   5.525
 4662SOL    HW214886   3.135   0.020   5.509
 4663SOL     OW14887   0.138   2.276   2.155
 4663SOL    HW114888   0.238   2.282   2.150
 4663SOL    HW214889   0.104   2.335   2.229
 4664SOL     OW14890   1.810   1.374   0.747
 4664SOL    HW114891   1.779   1.462   0.783
 4664SOL    HW214892   1.765   1.355   0.660
 4665SOL     OW14893   3.505   0.070   6.661
 4665SOL    HW114894   3.425   0.114   6.618
 4665SOL    HW214895   3.477   0.028   6.747
 4666SOL     OW14896   1.359   2.226   0.645
 4666SOL    HW114897   1.307   2.226   0.560
 4666SOL    HW214898   1.346   2.313   0.693
 4667SOL     OW14899   6.222   3.441   2.116
 4667SOL    HW114900   6.259   3.359   2.072
 4667SOL    HW214901   6.218   3.427   2.215
 4668SOL     OW14902   4.283   2.196   2.384
 4668SOL    HW114903   4.190   2.227   2.366
 4668SOL    HW214904   4.325   2.256   2.453
 4669SOL     OW14905   5.065   5.998   6.196
 4669SOL    HW114906   5.077   6.090   6.232
 4669SOL    HW214907   4.969   5.982   6.175
 4670SOL     OW14908   2.640   2.497   5.293
 4670SOL    HW114909   2.710   2.568   5.288
 4670SOL    HW214910   2.553   2.537   5.322
 4671SOL     OW14911   6.644   2.751   1.287
 4671SOL    HW114912   6.589   2.806   1.224
 4671SOL    HW214913   6.739   2.752   1.258
 4672SOL     OW14914   2.739   4.503   5.990
 4672SOL    HW114915   2.824   4.551   6.011
 4672SOL    HW214916   2.756   4.405   5.985
 4673SOL     OW14917   5.241   0.267   2.033
 4673SOL    HW114918   5.259   0.346   1.974
 4673SOL    HW214919   5.226   0.298   2.127
 4674SOL     OW14920   5.438   0.269   6.414
 4674SOL    HW114921   5.518   0.209   6.418
 4674SOL    HW214922   5.468   0.364   6.407
 4675SOL     OW14923   1.832   1.643   6.267
 4675SOL    HW114924   1.838   1.562   6.209
 4675SOL    HW214925   1.916   1.697   6.259
 4676SOL     OW14926   6.950   6.643   3.785
 4676SOL    HW114927   6.855   6.670   3.773
 4676SOL    HW214928   6.955   6.556   3.834
 4677SOL     OW14929   2.657   1.554   6.808
 4677SOL    HW114930   2.641   1.565   6.710
 4677SOL    HW214931   2.740   1.604   6.834
 4678SOL     OW14932   1.763   4.659   3.198
 4678SOL    HW114933   1.684   4.622   3.247
 4678SOL    HW214934   1.733   4.725   3.130
 4679SOL     OW14935   4.161   0.772   0.727
 4679SOL    HW114936   4.257   0.779   0.698
 4679SOL    HW214937   4.104   0.749   0.649
 4680SOL     OW14938   3.297   1.576   0.529
 4680SOL    HW114939   3.321   1.479   0.525
 4680SOL    HW214940   3.207   1.590   0.488
 4681SOL     OW14941   5.250   5.362   6.645
 4681SOL    HW114942   5.177   5.311   6.691
 4681SOL    HW214943   5.210   5.424   6.577
 4682SOL     OW14944   4.341   4.414   5.573
 4682SOL    HW114945   4.372   4.380   5.485
 4682SOL    HW214946   4.380   4.505   5.590
 4683SOL     OW14947   4.419   4.888   2.710
 4683SOL    HW114948   4.321   4.876   2.723
 4683SOL    HW214949   4.468   4.853   2.790
 4684SOL     OW14950   6.122   0.883   5.232
 4684SOL    HW114951   6.134   0.931   5.319
 4684SOL    HW214952   6.206   0.892   5.178
 4685SOL     OW14953   0.822   5.896   5.730
 4685SOL    HW114954   0.775   5.865   5.813
 4685SOL    HW214955   0.920   5.876   5.738
 4686SOL     OW14956   4.180   5.445   0.134
 4686SOL    HW114957   4.259   5.503   0.158
 4686SOL    HW214958   4.178   5.432   0.035
 4687SOL     OW14959   6.319   3.953   4.894
 4687SOL    HW114960   6.267   4.004   4.963
 4687SOL    HW214961   6.352   4.017   4.824
 4688SOL     OW14962   5.915   4.381   4.634
 4688SOL    HW114963   5.950   4.431   4.554
 4688SOL    HW214964   5.823   4.347   4.613
 4689SOL     OW14965   5.443   1.020   0.232
 4689SOL    HW114966   5.365   0.988   0.178
 4689SOL    HW214967   5.501   0.942   0.256
 4690SOL     OW14968   0.906   0.177   6.790
 4690SOL    HW114969   0.927   0.090   6.834
 4690SOL    HW214970   0.871   0.242   6.858
 4691SOL     OW14971   2.606   5.227   1.726
 4691SOL    HW114972   2.627   5.319   1.757
 4691SOL    HW214973   2.684   5.167   1.743
 4692SOL     OW14974   5.838   5.634   1.817
 4692SOL    HW114975   5.843   5.631   1.717
 4692SOL    HW214976   5.929   5.621   1.855
 4693SOL     OW14977   1.096   1.780   3.273
 4693SOL    HW114978   1.069   1.828   3.189
 4693SOL    HW214979   1.063   1.830   3.353
 4694SOL     OW14980   1.611   0.715   0.009
 4694SOL    HW114981   1.522   0.750   0.039
 4694SOL    HW214982   1.616   0.617   0.026
 4695SOL     OW14983   1.587   3.354   1.874
 4695SOL    HW114984   1.609   3.263   1.910
 4695SOL    HW214985   1.672   3.400   1.849
 4696SOL     OW14986   0.395   4.475   0.077
 4696SOL    HW114987   0.378   4.377   0.082
 4696SOL    HW214988   0.309   4.525   0.089
 4697SOL     OW14989   1.784   2.982   0.460
 4697SOL    HW114990   1.817   2.909   0.520
 4697SOL    HW214991   1.756   3.061   0.514
 4698SOL     OW14992   4.480   5.143   2.631
 4698SOL    HW114993   4.457   5.053   2.669
 4698SOL    HW214994   4.453   5.214   2.696
 4699SOL     OW14995   1.791   6.607   2.269
 4699SOL    HW114996   1.781   6.694   2.317
 4699SOL    HW214997   1.701   6.564   2.261
 4700SOL     OW14998   6.855   1.311   3.298
 4700SOL    HW114999   6.890   1.391   3.346
 4700SOL    HW215000   6.858   1.328   3.199
 4701SOL     OW15001   2.549   2.510   0.109
 4701SOL    HW115002   2.631   2.474   0.066
 4701SOL    HW215003   2.489   2.550   0.040
 4702SOL     OW15004   4.650   5.338   0.165
 4702SOL    HW115005   4.573   5.301   0.114
 4702SOL    HW215006   4.732   5.339   0.108
 4703SOL     OW15007   0.766   1.523   1.543
 4703SOL    HW115008   0.669   1.504   1.562
 4703SOL    HW215009   0.774   1.612   1.498
 4704SOL     OW15010   0.706   6.170   0.388
 4704SOL    HW115011   0.659   6.149   0.302
 4704SOL    HW215012   0.653   6.238   0.439
 4705SOL     OW15013   3.542   3.223   2.175
 4705SOL    HW115014   3.514   3.317   2.153
 4705SOL    HW215015   3.461   3.165   2.181
 4706SOL     OW15016   2.962   0.389   7.023
 4706SOL    HW115017   2.968   0.292   0.018
 4706SOL    HW215018   3.049   0.434   0.014
 4707SOL     OW15019   1.764   6.583   1.045
 4707SOL    HW115020   1.830   6.651   1.077
 4707SOL    HW215021   1.796   6.543   0.959
 4708SOL     OW15022   1.109   1.483   6.308
 4708SOL    HW115023   1.056   1.541   6.369
 4708SOL    HW215024   1.091   1.387   6.329
 4709SOL     OW15025   4.560   5.823   5.557
 4709SOL    HW115026   4.467   5.861   5.554
 4709SOL    HW215027   4.591   5.805   5.464
 4710SOL     OW15028   4.589   0.499   5.789
 4710SOL    HW115029   4.649   0.472   5.865
 4710SOL    HW215030   4.519   0.562   5.822
 4711SOL     OW15031   6.032   1.286   1.437
 4711SOL    HW115032   6.053   1.342   1.357
 4711SOL    HW215033   5.944   1.314   1.475
 4712SOL     OW15034   2.829   4.329   0.166
 4712SOL    HW115035   2.902   4.398   0.164
 4712SOL    HW215036   2.851   4.256   0.102
 4713SOL     OW15037   3.822   4.361   0.639
 4713SOL    HW115038   3.853   4.408   0.722
 4713SOL    HW215039   3.839   4.263   0.648
 4714SOL     OW15040   0.612   1.959   6.491
 4714SOL    HW115041   0.531   1.928   6.441
 4714SOL    HW215042   0.694   1.921   6.448
 4715SOL     OW15043   5.551   2.680   2.467
 4715SOL    HW115044   5.466   2.716   2.507
 4715SOL    HW215045   5.543   2.678   2.367
 4716SOL     OW15046   4.450   5.799   6.426
 4716SOL    HW115047   4.366   5.774   6.378
 4716SOL    HW215048   4.479   5.723   6.484
 4717SOL     OW15049   6.891   0.042   3.948
 4717SOL    HW115050   6.833   0.066   4.025
 4717SOL    HW215051   6.905   0.122   3.889
 4718SOL     OW15052   5.418   2.800   1.957
 4718SOL    HW115053   5.392   2.879   2.012
 4718SOL    HW215054   5.480   2.829   1.884
 4719SOL     OW15055   4.758   3.268   1.742
 4719SOL    HW115056   4.846   3.233   1.708
 4719SOL    HW215057   4.696   3.192   1.757
 4720SOL     OW15058   2.011   5.653   6.200
 4720SOL    HW115059   2.103   5.621   6.224
 4720SOL    HW215060   1.944   5.591   6.240
 4721SOL     OW15061   6.648   2.322   2.269
 4721SOL    HW115062   6.568   2.267   2.292
 4721SOL    HW215063   6.700   2.343   2.352
 4722SOL     OW15064   0.931   5.730   6.274
 4722SOL    HW115065   0.876   5.807   6.244
 4722SOL    HW215066   0.872   5.662   6.318
 4723SOL     OW15067   2.328   3.704   5.986
 4723SOL    HW115068   2.404   3.646   6.015
 4723SOL    HW215069   2.248   3.686   6.042
 4724SOL     OW15070   6.158   6.576   2.684
 4724SOL    HW115071   6.084   6.543   2.626
 4724SOL    HW215072   6.144   6.673   2.705
 4725SOL     OW15073   6.253   5.153   1.958
 4725SOL    HW115074   6.284   5.245   1.978
 4725SOL    HW215075   6.159   5.156   1.925
 4726SOL     OW15076   1.624   2.119   5.574
 4726SOL    HW115077   1.666   2.103   5.484
 4726SOL    HW215078   1.563   2.198   5.568
 4727SOL     OW15079   1.273   5.835   1.223
 4727SOL    HW115080   1.255   5.785   1.307
 4727SOL    HW215081   1.236   5.785   1.145
 4728SOL     OW15082   6.085   1.179   1.817
 4728SOL    HW115083   6.117   1.269   1.847
 4728SOL    HW215084   6.074   1.119   1.896
 4729SOL     OW15085   3.356   1.890   0.780
 4729SOL    HW115086   3.426   1.822   0.804
 4729SOL    HW215087   3.320   1.932   0.863
 4730SOL     OW15088   3.344   6.437   5.381
 4730SOL    HW115089   3.439   6.405   5.377
 4730SOL    HW215090   3.282   6.359   5.380
 4731SOL     OW15091   4.135   0.635   0.019
 4731SOL    HW115092   4.085   0.556   7.013
 4731SOL    HW215093   4.100   0.718   7.005
 4732SOL     OW15094   1.287   3.631   5.704
 4732SOL    HW115095   1.330   3.604   5.618
 4732SOL    HW215096   1.358   3.648   5.772
 4733SOL     OW15097   1.229   3.926   3.847
 4733SOL    HW115098   1.275   4.006   3.884
 4733SOL    HW215099   1.298   3.859   3.817
 4734SOL     OW15100   3.949   2.588   0.183
 4734SOL    HW115101   3.980   2.656   0.117
 4734SOL    HW215102   4.004   2.594   0.266
 4735SOL     OW15103   6.180   5.869   3.752
 4735SOL    HW115104   6.127   5.948   3.783
 4735SOL    HW215105   6.213   5.818   3.831
 4736SOL     OW15106   0.064   1.675   5.498
 4736SOL    HW115107   7.022   1.746   5.496
 4736SOL    HW215108   0.020   1.585   5.505
 4737SOL     OW15109   2.537   4.611   2.048
 4737SOL    HW115110   2.622   4.589   2.001
 4737SOL    HW215111   2.556   4.644   2.140
 4738SOL     OW15112   0.261   6.275   3.086
 4738SOL    HW115113   0.341   6.250   3.032
 4738SOL    HW215114   0.216   6.193   3.119
 4739SOL     OW15115   3.845   0.710   3.452
 4739SOL    HW115116   3.849   0.806   3.422
 4739SOL    HW215117   3.822   0.707   3.549
 4740SOL     OW15118   0.937   1.256   1.194
 4740SOL    HW115119   0.924   1.220   1.102
 4740SOL    HW215120   1.033   1.249   1.220
 4741SOL     OW15121   4.752   3.500   0.750
 4741SOL    HW115122   4.673   3.554   0.720
 4741SOL    HW215123   4.782   3.532   0.840
 4742SOL     OW15124   3.399   6.969   6.379
 4742SOL    HW115125   3.351   0.003   6.440
 4742SOL    HW215126   3.495   6.964   6.404
 4743SOL     OW15127   1.628   3.377   3.828
 4743SOL    HW115128   1.651   3.408   3.921
 4743SOL    HW215129   1.650   3.280   3.819
 4744SOL     OW15130   1.902   4.151   0.438
 4744SOL    HW115131   1.897   4.083   0.365
 4744SOL    HW215132   1.810   4.188   0.456
 4745SOL     OW15133   2.928   4.478   6.230
 4745SOL    HW115134   2.980   4.452   6.311
 4745SOL    HW215135   2.967   4.561   6.190
 4746SOL     OW15136   5.133   5.849   2.378
 4746SOL    HW115137   5.141   5.882   2.472
 4746SOL    HW215138   5.113   5.751   2.378
 4747SOL     OW15139   1.873   3.505   0.040
 4747SOL    HW115140   1.960   3.533   0.081
 4747SOL    HW215141   1.889   3.468   6.977
 4748SOL     OW15142   1.755   5.219   0.800
 4748SOL    HW115143   1.790   5.312   0.811
 4748SOL    HW215144   1.659   5.222   0.770
 4749SOL     OW15145   2.233   6.455   5.850
 4749SOL    HW115146   2.282   6.521   5.906
 4749SOL    HW215147   2.218   6.371   5.902
 4750SOL     OW15148   0.660   4.116   4.108
 4750SOL    HW115149   0.657   4.070   4.020
 4750SOL    HW215150   0.616   4.206   4.101
 4751SOL     OW15151   4.108   1.574   2.135
 4751SOL    HW115152   4.042   1.520   2.082
 4751SOL    HW215153   4.069   1.594   2.225
 4752SOL     OW15154   4.387   0.986   6.490
 4752SOL    HW115155   4.437   0.899   6.488
 4752SOL    HW215156   4.446   1.058   6.454
 4753SOL     OW15157   5.291   0.286   4.145
 4753SOL    HW115158   5.246   0.340   4.216
 4753SOL    HW215159   5.222   0.231   4.097
 4754SOL     OW15160   5.799   6.318   4.696
 4754SOL    HW115161   5.807   6.287   4.601
 4754SOL    HW215162   5.851   6.402   4.708
 4755SOL     OW15163   2.867   0.396   0.556
 4755SOL    HW115164   2.898   0.358   0.468
 4755SOL    HW215165   2.819   0.481   0.539
 4756SOL     OW15166   5.472   2.652   0.179
 4756SOL    HW115167   5.518   2.675   0.264
 4756SOL    HW215168   5.383   2.611   0.198
 4757SOL     OW15169   2.773   1.790   0.952
 4757SOL    HW115170   2.831   1.868   0.929
 4757SOL    HW215171   2.813   1.706   0.914
 4758SOL     OW15172   2.082   6.474   3.800
 4758SOL    HW115173   1.993   6.428   3.804
 4758SOL    HW215174   2.154   6.407   3.817
 4759SOL     OW15175   6.482   4.282   5.409
 4759SOL    HW115176   6.388   4.293   5.440
 4759SOL    HW215177   6.536   4.362   5.435
 4760SOL     OW15178   2.342   1.995   1.109
 4760SOL    HW115179   2.256   2.029   1.069
 4760SOL    HW215180   2.349   1.897   1.094
 4761SOL     OW15181   0.949   5.640   0.381
 4761SOL    HW115182   0.851   5.662   0.382
 4761SOL    HW215183   1.002   5.724   0.377
 4762SOL     OW15184   0.750   5.994   2.164
 4762SOL    HW115185   0.701   6.082   2.164
 4762SOL    HW215186   0.783   5.975   2.072
 4763SOL     OW15187   5.695   6.821   3.284
 4763SOL    HW115188   5.670   6.733   3.323
 4763SOL    HW215189   5.617   6.860   3.236
 4764SOL     OW15190   4.836   4.128   4.250
 4764SOL    HW115191   4.819   4.031   4.234
 4764SOL    HW215192   4.792   4.156   4.336
 4765SOL     OW15193   4.846   1.166   4.301
 4765SOL    HW115194   4.839   1.242   4.365
 4765SOL    HW215195   4.829   1.199   4.208
 4766SOL     OW15196   5.350   6.106   4.443
 4766SOL    HW115197   5.312   6.017   4.471
 4766SOL    HW215198   5.386   6.099   4.350
 4767SOL     OW15199   3.239   5.502   5.269
 4767SOL    HW115200   3.333   5.503   5.233
 4767SOL    HW215201   3.240   5.530   5.365
 4768SOL     OW15202   4.741   2.234   5.963
 4768SOL    HW115203   4.710   2.142   5.986
 4768SOL    HW215204   4.684   2.271   5.890
 4769SOL     OW15205   4.455   4.581   0.090
 4769SOL    HW115206   4.450   4.522   0.170
 4769SOL    HW215207   4.378   4.562   0.029
 4770SOL     OW15208   0.609   1.156   4.061
 4770SOL    HW115209   0.600   1.056   4.063
 4770SOL    HW215210   0.518   1.197   4.049
 4771SOL     OW15211   2.836   6.040   5.424
 4771SOL    HW115212   2.909   5.976   5.401
 4771SOL    HW215213   2.871   6.134   5.416
 4772SOL     OW15214   3.931   4.866   1.042
 4772SOL    HW115215   3.947   4.894   1.136
 4772SOL    HW215216   4.007   4.809   1.010
 4773SOL     OW15217   6.745   5.065   3.409
 4773SOL    HW115218   6.737   5.094   3.504
 4773SOL    HW215219   6.828   5.105   3.369
 4774SOL     OW15220   1.728   3.132   1.378
 4774SOL    HW115221   1.650   3.086   1.336
 4774SOL    HW215222   1.698   3.181   1.460
 4775SOL     OW15223   5.158   6.611   2.824
 4775SOL    HW115224   5.107   6.563   2.752
 4775SOL    HW215225   5.098   6.625   2.902
 4776SOL     OW15226   1.189   6.344   5.426
 4776SOL    HW115227   1.093   6.354   5.400
 4776SOL    HW215228   1.244   6.334   5.343
 4777SOL     OW15229   2.203   5.236   1.040
 4777SOL    HW115230   2.191   5.203   0.946
 4777SOL    HW215231   2.118   5.279   1.072
 4778SOL     OW15232   6.237   2.551   4.019
 4778SOL    HW115233   6.157   2.608   4.039
 4778SOL    HW215234   6.318   2.610   4.009
 4779SOL     OW15235   6.274   5.445   2.646
 4779SOL    HW115236   6.276   5.542   2.671
 4779SOL    HW215237   6.212   5.432   2.568
 4780SOL     OW15238   6.148   1.075   0.122
 4780SOL    HW115239   6.089   1.063   0.042
 4780SOL    HW215240   6.101   1.039   0.203
 4781SOL     OW15241   2.309   5.653   2.524
 4781SOL    HW115242   2.359   5.650   2.611
 4781SOL    HW215243   2.272   5.745   2.510
 4782SOL     OW15244   5.998   5.616   0.174
 4782SOL    HW115245   6.091   5.622   0.138
 4782SOL    HW215246   5.987   5.531   0.224
 4783SOL     OW15247   4.806   4.038   0.317
 4783SOL    HW115248   4.717   4.047   0.361
 4783SOL    HW215249   4.807   4.091   0.232
 4784SOL     OW15250   6.283   3.326   6.862
 4784SOL    HW115251   6.199   3.352   6.910
 4784SOL    HW215252   6.270   3.237   6.819
 4785SOL     OW15253   1.529   6.348   3.009
 4785SOL    HW115254   1.571   6.430   2.970
 4785SOL    HW215255   1.494   6.369   3.100
 4786SOL     OW15256   2.295   0.949   0.393
 4786SOL    HW115257   2.221   0.910   0.338
 4786SOL    HW215258   2.299   1.048   0.377
 4787SOL     OW15259   3.940   1.682   2.367
 4787SOL    HW115260   3.900   1.641   2.450
 4787SOL    HW215261   3.995   1.761   2.392
 4788SOL     OW15262   6.990   6.423   6.441
 4788SOL    HW115263   6.961   6.505   6.391
 4788SOL    HW215264   0.049   6.391   6.406
 4789SOL     OW15265   4.494   2.144   1.216
 4789SOL    HW115266   4.501   2.137   1.315
 4789SOL    HW215267   4.582   2.169   1.178
 4790SOL     OW15268   6.216   1.964   5.018
 4790SOL    HW115269   6.186   1.875   5.052
 4790SOL    HW215270   6.166   2.036   5.066
 4791SOL     OW15271   7.023   2.720   1.298
 4791SOL    HW115272   6.979   2.772   1.372
 4791SOL    HW215273   0.092   2.714   1.315
 4792SOL     OW15274   2.194   4.492   3.515
 4792SOL    HW115275   2.094   4.495   3.527
 4792SOL    HW215276   2.215   4.498   3.417
 4793SOL     OW15277   2.141   2.583   5.026
 4793SOL    HW115278   2.056   2.566   4.976
 4793SOL    HW215279   2.194   2.653   4.978
 4794SOL     OW15280   4.849   0.352   4.539
 4794SOL    HW115281   4.937   0.396   4.557
 4794SOL    HW215282   4.786   0.418   4.498
 4795SOL     OW15283   6.255   2.273   4.349
 4795SOL    HW115284   6.329   2.212   4.320
 4795SOL    HW215285   6.295   2.356   4.389
 4796SOL     OW15286   4.745   1.830   4.940
 4796SOL    HW115287   4.697   1.872   5.017
 4796SOL    HW215288   4.794   1.749   4.971
 4797SOL     OW15289   0.871   6.179   5.170
 4797SOL    HW115290   0.777   6.196   5.200
 4797SOL    HW215291   0.883   6.213   5.077
 4798SOL     OW15292   0.395   3.618   5.108
 4798SOL    HW115293   0.376   3.538   5.051
 4798SOL    HW215294   0.394   3.591   5.205
 4799SOL     OW15295   4.749   1.707   0.537
 4799SOL    HW115296   4.840   1.727   0.501
 4799SOL    HW215297   4.687   1.685   0.461
 4800SOL     OW15298   2.964   2.675   6.492
 4800SOL    HW115299   2.919   2.591   6.525
 4800SOL    HW215300   2.905   2.721   6.426
 4801SOL     OW15301   3.114   2.414   6.800
 4801SOL    HW115302   3.168   2.342   6.842
 4801SOL    HW215303   3.138   2.502   6.840
 4802SOL     OW15304   1.146   6.807   1.713
 4802SOL    HW115305   1.143   6.865   1.795
 4802SOL    HW215306   1.146   6.866   1.632
 4803SOL     OW15307   0.178   5.251   0.489
 4803SOL    HW115308   0.111   5.280   0.557
 4803SOL    HW215309   0.179   5.315   0.413
 4804SOL     OW15310   6.431   6.308   1.465
 4804SOL    HW115311   6.390   6.331   1.553
 4804SOL    HW215312   6.391   6.365   1.393
 4805SOL     OW15313   6.445   2.145   2.257
 4805SOL    HW115314   6.347   2.159   2.252
 4805SOL    HW215315   6.467   2.051   2.229
 4806SOL     OW15316   0.738   4.344   2.901
 4806SOL    HW115317   0.740   4.416   2.969
 4806SOL    HW215318   0.720   4.384   2.811
 4807SOL     OW15319   0.879   5.012   0.275
 4807SOL    HW115320   0.796   4.989   0.325
 4807SOL    HW215321   0.940   4.933   0.274
 4808SOL     OW15322   5.193   4.863   0.296
 4808SOL    HW115323   5.153   4.783   0.340
 4808SOL    HW215324   5.289   4.872   0.323
 4809SOL     OW15325   3.377   4.581   0.472
 4809SOL    HW115326   3.414   4.672   0.494
 4809SOL    HW215327   3.402   4.517   0.544
 4810SOL     OW15328   1.736   5.015   2.712
 4810SOL    HW115329   1.757   5.025   2.615
 4810SOL    HW215330   1.784   4.936   2.749
 4811SOL     OW15331   2.640   4.254   1.565
 4811SOL    HW115332   2.736   4.251   1.596
 4811SOL    HW215333   2.627   4.188   1.491
 4812SOL     OW15334   6.980   5.328   1.848
 4812SOL    HW115335   6.939   5.347   1.937
 4812SOL    HW215336   6.935   5.385   1.778
 4813SOL     OW15337   6.350   1.999   6.778
 4813SOL    HW115338   6.302   2.063   6.718
 4813SOL    HW215339   6.445   1.989   6.747
 4814SOL     OW15340   0.193   3.555   1.102
 4814SOL    HW115341   0.219   3.472   1.152
 4814SOL    HW215342   0.194   3.633   1.163
 4815SOL     OW15343   5.133   3.522   2.559
 4815SOL    HW115344   5.102   3.478   2.474
 4815SOL    HW215345   5.057   3.574   2.598
 4816SOL     OW15346   2.339   4.740   1.084
 4816SOL    HW115347   2.357   4.790   1.168
 4816SOL    HW215348   2.351   4.800   1.006
 4817SOL     OW15349   1.546   1.452   6.284
 4817SOL    HW115350   1.484   1.530   6.283
 4817SOL    HW215351   1.634   1.479   6.323
 4818SOL     OW15352   0.689   6.492   4.253
 4818SOL    HW115353   0.733   6.553   4.186
 4818SOL    HW215354   0.689   6.537   4.342
 4819SOL     OW15355   1.577   2.054   0.326
 4819SOL    HW115356   1.498   2.006   0.363
 4819SOL    HW215357   1.653   1.991   0.316
 4820SOL     OW15358   6.343   2.500   2.593
 4820SOL    HW115359   6.330   2.582   2.538
 4820SOL    HW215360   6.272   2.495   2.664
 4821SOL     OW15361   0.722   6.489   2.334
 4821SOL    HW115362   0.752   6.538   2.252
 4821SOL    HW215363   0.684   6.400   2.308
 4822SOL     OW15364   2.069   3.808   4.467
 4822SOL    HW115365   2.064   3.804   4.567
 4822SOL    HW215366   2.015   3.886   4.434
 4823SOL     OW15367   1.998   0.656   4.292
 4823SOL    HW115368   2.067   0.585   4.280
 4823SOL    HW215369   1.907   0.617   4.277
 4824SOL     OW15370   5.127   1.874   4.615
 4824SOL    HW115371   5.113   1.789   4.667
 4824SOL    HW215372   5.176   1.853   4.530
 4825SOL     OW15373   1.615   2.596   3.767
 4825SOL    HW115374   1.631   2.581   3.670
 4825SOL    HW215375   1.562   2.519   3.804
 4826SOL     OW15376   6.207   1.301   6.680
 4826SOL    HW115377   6.173   1.290   6.586
 4826SOL    HW215378   6.283   1.366   6.680
 4827SOL     OW15379   6.306   1.656   1.099
 4827SOL    HW115380   6.276   1.722   1.168
 4827SOL    HW215381   6.227   1.620   1.050
 4828SOL     OW15382   5.439   2.949   0.511
 4828SOL    HW115383   5.515   2.887   0.494
 4828SOL    HW215384   5.364   2.898   0.554
 4829SOL     OW15385   4.361   6.870   6.566
 4829SOL    HW115386   4.414   6.955   6.573
 4829SOL    HW215387   4.268   6.892   6.534
 4830SOL     OW15388   4.198   6.808   3.567
 4830SOL    HW115389   4.115   6.758   3.542
 4830SOL    HW215390   4.180   6.866   3.646
 4831SOL     OW15391   6.913   4.709   6.201
 4831SOL    HW115392   6.874   4.794   6.166
 4831SOL    HW215393   7.011   4.707   6.183
 4832SOL     OW15394   3.576   3.491   4.669
 4832SOL    HW115395   3.503   3.550   4.635
 4832SOL    HW215396   3.621   3.536   4.747
 4833SOL     OW15397   4.611   2.219   3.115
 4833SOL    HW115398   4.594   2.230   3.017
 4833SOL    HW215399   4.705   2.188   3.129
 4834SOL     OW15400   3.904   6.458   1.014
 4834SOL    HW115401   3.837   6.479   0.943
 4834SOL    HW215402   3.858   6.417   1.093
 4835SOL     OW15403   6.207   1.549   6.873
 4835SOL    HW115404   6.167   1.465   6.911
 4835SOL    HW215405   6.261   1.527   6.792
 4836SOL     OW15406   5.472   2.950   4.481
 4836SOL    HW115407   5.428   2.919   4.565
 4836SOL    HW215408   5.569   2.967   4.497
 4837SOL     OW15409   6.434   3.835   2.775
 4837SOL    HW115410   6.501   3.762   2.766
 4837SOL    HW215411   6.396   3.835   2.867
 4838SOL     OW15412   1.001   5.168   0.112
 4838SOL    HW115413   1.005   5.136   0.017
 4838SOL    HW215414   0.938   5.111   0.164
 4839SOL     OW15415   2.022   3.485   6.498
 4839SOL    HW115416   2.063   3.570   6.465
 4839SOL    HW215417   2.052   3.409   6.440
 4840SOL     OW15418   7.014   4.648   5.843
 4840SOL    HW115419   0.037   4.733   5.838
 4840SOL    HW215420   0.028   4.587   5.910
 4841SOL     OW15421   2.797   5.519   1.795
 4841SOL    HW115422   2.816   5.462   1.875
 4841SOL    HW215423   2.871   5.509   1.729
 4842SOL     OW15424   3.578   5.260   2.933
 4842SOL    HW115425   3.526   5.177   2.912
 4842SOL    HW215426   3.627   5.247   3.019
 4843SOL     OW15427   0.052   3.256   0.967
 4843SOL    HW115428   6.983   3.234   0.966
 4843SOL    HW215429   0.088   3.248   1.060
 4844SOL     OW15430   1.108   3.174   6.240
 4844SOL    HW115431   1.047   3.249   6.215
 4844SOL    HW215432   1.202   3.207   6.243
 4845SOL     OW15433   5.068   5.308   6.119
 4845SOL    HW115434   5.137   5.269   6.180
 4845SOL    HW215435   5.013   5.374   6.169
 4846SOL     OW15436   0.269   2.947   4.083
 4846SOL    HW115437   0.237   2.935   3.989
 4846SOL    HW215438   0.238   2.870   4.139
 4847SOL     OW15439   2.731   0.965   6.528
 4847SOL    HW115440   2.819   0.971   6.481
 4847SOL    HW215441   2.745   0.936   6.623
 4848SOL     OW15442   1.709   0.819   3.962
 4848SOL    HW115443   1.766   0.883   4.014
 4848SOL    HW215444   1.624   0.865   3.937
 4849SOL     OW15445   1.293   5.414   6.928
 4849SOL    HW115446   1.326   5.507   6.915
 4849SOL    HW215447   1.213   5.414   6.987
 4850SOL     OW15448   3.635   1.360   2.029
 4850SOL    HW115449   3.734   1.356   2.016
 4850SOL    HW215450   3.611   1.449   2.069
 4851SOL     OW15451   4.251   7.008   5.760
 4851SOL    HW115452   4.338   7.014   5.810
 4851SOL    HW215453   4.266   6.961   5.673
 4852SOL     OW15454   1.557   5.749   5.142
 4852SOL    HW115455   1.489   5.766   5.071
 4852SOL    HW215456   1.562   5.651   5.160
 4853SOL     OW15457   3.405   1.062   3.299
 4853SOL    HW115458   3.316   1.018   3.291
 4853SOL    HW215459   3.395   1.148   3.349
 4854SOL     OW15460   4.338   6.756   1.400
 4854SOL    HW115461   4.302   6.758   1.307
 4854SOL    HW215462   4.427   6.800   1.402
 4855SOL     OW15463   5.994   2.669   4.031
 4855SOL    HW115464   5.952   2.717   3.954
 4855SOL    HW215465   5.926   2.613   4.078
 4856SOL     OW15466   1.166   3.180   3.007
 4856SOL    HW115467   1.089   3.117   3.002
 4856SOL    HW215468   1.234   3.146   3.072
 4857SOL     OW15469   3.009   1.873   4.765
 4857SOL    HW115470   3.070   1.854   4.842
 4857SOL    HW215471   2.926   1.918   4.798
 4858SOL     OW15472   0.947   0.311   4.252
 4858SOL    HW115473   0.943   0.410   4.236
 4858SOL    HW215474   0.940   0.293   4.350
 4859SOL     OW15475   0.900   6.995   4.315
 4859SOL    HW115476   0.900   6.948   4.403
 4859SOL    HW215477   0.993   7.004   4.282
 4860SOL     OW15478   4.325   4.413   1.741
 4860SOL    HW115479   4.392   4.365   1.797
 4860SOL    HW215480   4.251   4.350   1.715
 4861SOL     OW15481   5.979   5.470   6.687
 4861SOL    HW115482   6.075   5.478   6.661
 4861SOL    HW215483   5.968   5.493   6.783
 4862SOL     OW15484   2.320   4.557   5.154
 4862SOL    HW115485   2.293   4.473   5.108
 4862SOL    HW215486   2.413   4.582   5.126
 4863SOL     OW15487   5.279   3.906   1.002
 4863SOL    HW115488   5.262   4.000   0.972
 4863SOL    HW215489   5.374   3.898   1.032
 4864SOL     OW15490   4.224   1.273   2.551
 4864SOL    HW115491   4.165   1.334   2.603
 4864SOL    HW215492   4.309   1.258   2.602
 4865SOL     OW15493   2.065   6.612   4.194
 4865SOL    HW115494   2.116   6.526   4.198
 4865SOL    HW215495   2.085   6.666   4.275
 4866SOL     OW15496   6.357   4.180   1.724
 4866SOL    HW115497   6.368   4.231   1.809
 4866SOL    HW215498   6.289   4.226   1.666
 4867SOL     OW15499   4.071   5.306   1.983
 4867SOL    HW115500   4.011   5.290   1.904
 4867SOL    HW215501   4.141   5.373   1.959
 4868SOL     OW15502   6.561   4.866   2.435
 4868SOL    HW115503   6.618   4.821   2.503
 4868SOL    HW215504   6.619   4.920   2.373
 4869SOL     OW15505   1.075   1.082   1.479
 4869SOL    HW115506   1.108   1.170   1.443
 4869SOL    HW215507   1.027   1.033   1.407
 4870SOL     OW15508   6.974   5.877   2.005
 4870SOL    HW115509   6.967   5.865   1.906
 4870SOL    HW215510   0.041   5.876   2.033
 4871SOL     OW15511   0.952   0.623   4.746
 4871SOL    HW115512   1.041   0.650   4.783
 4871SOL    HW215513   0.904   0.566   4.813
 4872SOL     OW15514   6.461   6.190   3.987
 4872SOL    HW115515   6.451   6.270   4.045
 4872SOL    HW215516   6.487   6.219   3.895
 4873SOL     OW15517   6.437   5.118   3.527
 4873SOL    HW115518   6.393   5.047   3.472
 4873SOL    HW215519   6.507   5.164   3.472
 4874SOL     OW15520   6.220   3.070   3.258
 4874SOL    HW115521   6.244   3.130   3.183
 4874SOL    HW215522   6.300   3.015   3.284
 4875SOL     OW15523   5.880   2.848   1.475
 4875SOL    HW115524   5.888   2.790   1.394
 4875SOL    HW215525   5.828   2.800   1.545
 4876SOL     OW15526   5.537   1.763   4.350
 4876SOL    HW115527   5.559   1.860   4.363
 4876SOL    HW215528   5.622   1.712   4.337
 4877SOL     OW15529   1.115   2.083   6.514
 4877SOL    HW115530   1.090   2.088   6.611
 4877SOL    HW215531   1.186   2.151   6.495
 4878SOL     OW15532   6.566   0.274   2.923
 4878SOL    HW115533   6.580   0.369   2.895
 4878SOL    HW215534   6.650   0.222   2.905
 4879SOL     OW15535   3.999   5.563   3.124
 4879SOL    HW115536   4.072   5.572   3.056
 4879SOL    HW215537   4.039   5.545   3.214
 4880SOL     OW15538   5.475   3.528   0.151
 4880SOL    HW115539   5.413   3.585   0.205
 4880SOL    HW215540   5.513   3.455   0.208
 4881SOL     OW15541   1.702   1.121   6.281
 4881SOL    HW115542   1.794   1.158   6.268
 4881SOL    HW215543   1.661   1.163   6.363
 4882SOL     OW15544   4.650   1.470   4.785
 4882SOL    HW115545   4.634   1.449   4.689
 4882SOL    HW215546   4.562   1.485   4.830
 4883SOL     OW15547   5.597   3.991   1.948
 4883SOL    HW115548   5.605   3.892   1.965
 4883SOL    HW215549   5.519   4.008   1.888
 4884SOL     OW15550   3.219   6.985   1.164
 4884SOL    HW115551   3.236   7.028   1.253
 4884SOL    HW215552   3.302   6.991   1.108
 4885SOL     OW15553   1.287   5.347   2.800
 4885SOL    HW115554   1.265   5.383   2.891
 4885SOL    HW215555   1.366   5.286   2.807
 4886SOL     OW15556   0.442   5.911   0.810
 4886SOL    HW115557   0.348   5.919   0.777
 4886SOL    HW215558   0.445   5.847   0.887
 4887SOL     OW15559   0.510   0.745   2.644
 4887SOL    HW115560   0.563   0.667   2.610
 4887SOL    HW215561   0.533   0.826   2.590
 4888SOL     OW15562   2.235   6.708   4.395
 4888SOL    HW115563   2.273   6.797   4.370
 4888SOL    HW215564   2.301   6.636   4.372
 4889SOL     OW15565   6.612   1.277   6.422
 4889SOL    HW115566   6.521   1.242   6.402
 4889SOL    HW215567   6.606   1.375   6.441
 4890SOL     OW15568   1.033   2.076   6.778
 4890SOL    HW115569   0.978   2.158   6.763
 4890SOL    HW215570   1.018   2.043   6.872
 4891SOL     OW15571   1.782   4.953   6.865
 4891SOL    HW115572   1.737   4.937   6.777
 4891SOL    HW215573   1.713   4.977   6.934
 4892SOL     OW15574   3.569   6.462   2.053
 4892SOL    HW115575   3.521   6.470   1.965
 4892SOL    HW215576   3.583   6.365   2.074
 4893SOL     OW15577   6.876   4.073   1.604
 4893SOL    HW115578   6.822   4.007   1.657
 4893SOL    HW215579   6.818   4.116   1.535
 4894SOL     OW15580   2.190   1.739   2.908
 4894SOL    HW115581   2.117   1.806   2.922
 4894SOL    HW215582   2.160   1.672   2.840
 4895SOL     OW15583   0.762   5.034   3.471
 4895SOL    HW115584   0.751   4.944   3.514
 4895SOL    HW215585   0.821   5.091   3.528
 4896SOL     OW15586   1.807   5.628   2.215
 4896SOL    HW115587   1.741   5.553   2.205
 4896SOL    HW215588   1.765   5.703   2.265
 4897SOL     OW15589   2.959   4.022   6.179
 4897SOL    HW115590   3.033   4.085   6.204
 4897SOL    HW215591   2.886   4.073   6.134
 4898SOL     OW15592   3.409   1.099   4.202
 4898SOL    HW115593   3.456   1.048   4.130
 4898SOL    HW215594   3.412   1.048   4.288
 4899SOL     OW15595   6.444   4.981   2.935
 4899SOL    HW115596   6.355   4.984   2.889
 4899SOL    HW215597   6.489   4.894   2.914
 4900SOL     OW15598   2.218   5.816   4.819
 4900SOL    HW115599   2.147   5.847   4.756
 4900SOL    HW215600   2.230   5.717   4.809
 4901SOL     OW15601   3.234   6.462   6.053
 4901SOL    HW115602   3.279   6.544   6.017
 4901SOL    HW215603   3.304   6.397   6.084
 4902SOL     OW15604   2.850   2.127   4.452
 4902SOL    HW115605   2.939   2.171   4.445
 4902SOL    HW215606   2.854   2.036   4.411
 4903SOL     OW15607   3.424   6.019   6.648
 4903SOL    HW115608   3.425   5.980   6.740
 4903SOL    HW215609   3.362   6.098   6.646
 4904SOL     OW15610   1.813   0.132   4.261
 4904SOL    HW115611   1.863   0.093   4.184
 4904SOL    HW215612   1.791   0.060   4.327
 4905SOL     OW15613   3.827   0.406   2.229
 4905SOL    HW115614   3.849   0.500   2.202
 4905SOL    HW215615   3.902   0.369   2.284
 4906SOL     OW15616   4.846   1.977   5.525
 4906SOL    HW115617   4.932   1.954   5.569
 4906SOL    HW215618   4.858   1.977   5.426
 4907SOL     OW15619   4.299   6.110   1.050
 4907SOL    HW115620   4.229   6.157   0.997
 4907SOL    HW215621   4.319   6.021   1.007
 4908SOL     OW15622   5.300   5.049   6.695
 4908SOL    HW115623   5.361   4.986   6.744
 4908SOL    HW215624   5.258   5.112   6.761
 4909SOL     OW15625   6.642   0.220   4.419
 4909SOL    HW115626   6.609   0.314   4.433
 4909SOL    HW215627   6.705   0.196   4.493
 4910SOL     OW15628   5.019   6.578   4.582
 4910SOL    HW115629   5.080   6.649   4.548
 4910SOL    HW215630   4.930   6.585   4.536
 4911SOL     OW15631   1.182   3.341   4.087
 4911SOL    HW115632   1.144   3.326   4.178
 4911SOL    HW215633   1.171   3.437   4.062
 4912SOL     OW15634   5.666   1.374   7.010
 4912SOL    HW115635   5.748   1.421   6.978
 4912SOL    HW215636   5.692   1.283   0.014
 4913SOL     OW15637   4.099   3.420   5.064
 4913SOL    HW115638   4.003   3.448   5.075
 4913SOL    HW215639   4.112   3.329   5.103
 4914SOL     OW15640   3.436   0.185   5.027
 4914SOL    HW115641   3.462   0.089   5.032
 4914SOL    HW215642   3.350   0.200   5.075
 4915SOL     OW15643   4.411   0.482   4.659
 4915SOL    HW115644   4.338   0.414   4.663
 4915SOL    HW215645   4.499   0.438   4.681
 4916SOL     OW15646   1.524   0.424   3.985
 4916SOL    HW115647   1.489   0.511   4.019
 4916SOL    HW215648   1.545   0.432   3.887
 4917SOL     OW15649   2.255   4.920   1.307
 4917SOL    HW115650   2.160   4.889   1.302
 4917SOL    HW215651   2.285   4.920   1.402
 4918SOL     OW15652   3.807   6.167   2.260
 4918SOL    HW115653   3.881   6.146   2.197
 4918SOL    HW215654   3.750   6.085   2.272
 4919SOL     OW15655   3.099   2.103   6.854
 4919SOL    HW115656   3.009   2.122   6.894
 4919SOL    HW215657   3.087   2.055   6.768
 4920SOL     OW15658   5.560   0.861   4.907
 4920SOL    HW115659   5.469   0.898   4.927
 4920SOL    HW215660   5.551   0.787   4.840
 4921SOL     OW15661   1.606   4.261   0.575
 4921SOL    HW115662   1.582   4.317   0.655
 4921SOL    HW215663   1.576   4.167   0.590
 4922SOL     OW15664   2.321   2.824   4.572
 4922SOL    HW115665   2.256   2.806   4.499
 4922SOL    HW215666   2.369   2.910   4.554
 4923SOL     OW15667   3.733   1.999   1.324
 4923SOL    HW115668   3.706   2.065   1.394
 4923SOL    HW215669   3.653   1.970   1.272
 4924SOL     OW15670   2.646   2.023   5.788
 4924SOL    HW115671   2.696   1.959   5.730
 4924SOL    HW215672   2.695   2.110   5.792
 4925SOL     OW15673   5.987   6.448   1.749
 4925SOL    HW115674   5.923   6.458   1.673
 4925SOL    HW215675   6.019   6.353   1.752
 4926SOL     OW15676   5.570   1.869   0.304
 4926SOL    HW115677   5.600   1.790   0.252
 4926SOL    HW215678   5.583   1.952   0.250
 4927SOL     OW15679   4.044   3.844   4.450
 4927SOL    HW115680   4.135   3.818   4.483
 4927SOL    HW215681   3.980   3.769   4.465
 4928SOL     OW15682   1.223   0.262   6.561
 4928SOL    HW115683   1.210   0.234   6.656
 4928SOL    HW215684   1.168   0.205   6.501
 4929SOL     OW15685   0.891   4.905   4.546
 4929SOL    HW115686   0.925   4.858   4.628
 4929SOL    HW215687   0.952   4.980   4.523
 4930SOL     OW15688   4.732   0.842   3.330
 4930SOL    HW115689   4.710   0.746   3.314
 4930SOL    HW215690   4.781   0.851   3.417
 4931SOL     OW15691   7.012   0.358   0.586
 4931SOL    HW115692   6.992   0.453   0.564
 4931SOL    HW215693   7.013   0.346   0.685
 4932SOL     OW15694   2.596   3.428   1.712
 4932SOL    HW115695   2.525   3.441   1.781
 4932SOL    HW215696   2.584   3.340   1.667
 4933SOL     OW15697   1.944   0.206   3.443
 4933SOL    HW115698   1.997   0.244   3.367
 4933SOL    HW215699   2.007   0.171   3.513
 4934SOL     OW15700   2.621   5.313   3.000
 4934SOL    HW115701   2.530   5.342   3.026
 4934SOL    HW215702   2.675   5.292   3.082
 4935SOL     OW15703   1.432   1.285   6.448
 4935SOL    HW115704   1.345   1.236   6.446
 4935SOL    HW215705   1.454   1.319   6.357
 4936SOL     OW15706   2.423   5.077   1.868
 4936SOL    HW115707   2.498   5.115   1.814
 4936SOL    HW215708   2.436   4.978   1.879
 4937SOL     OW15709   6.816   2.574   6.338
 4937SOL    HW115710   6.821   2.638   6.415
 4937SOL    HW215711   6.883   2.601   6.269
 4938SOL     OW15712   2.479   6.265   6.238
 4938SOL    HW115713   2.473   6.180   6.291
 4938SOL    HW215714   2.457   6.343   6.297
 4939SOL     OW15715   6.474   2.059   4.260
 4939SOL    HW115716   6.512   2.149   4.238
 4939SOL    HW215717   6.477   2.000   4.179
 4940SOL     OW15718   0.596   0.841   4.910
 4940SOL    HW115719   0.578   0.742   4.908
 4940SOL    HW215720   0.610   0.870   5.004
 4941SOL     OW15721   5.003   2.641   5.352
 4941SOL    HW115722   5.084   2.588   5.328
 4941SOL    HW215723   5.010   2.733   5.314
 4942SOL     OW15724   5.619   3.404   5.965
 4942SOL    HW115725   5.647   3.309   5.951
 4942SOL    HW215726   5.665   3.441   6.045
 4943SOL     OW15727   4.600   3.675   5.852
 4943SOL    HW115728   4.557   3.589   5.878
 4943SOL    HW215729   4.562   3.706   5.765
 4944SOL     OW15730   2.441   4.402   1.694
 4944SOL    HW115731   2.488   4.341   1.629
 4944SOL    HW215732   2.501   4.478   1.718
 4945SOL     OW15733   1.350   0.210   4.499
 4945SOL    HW115734   1.301   0.204   4.412
 4945SOL    HW215735   1.324   0.133   4.557
 4946SOL     OW15736   1.434   5.192   0.187
 4946SOL    HW115737   1.490   5.136   0.248
 4946SOL    HW215738   1.474   5.194   0.096
 4947SOL     OW15739   2.254   0.461   0.746
 4947SOL    HW115740   2.212   0.492   0.660
 4947SOL    HW215741   2.185   0.461   0.818
 4948SOL     OW15742   1.401   3.056   2.724
 4948SOL    HW115743   1.415   3.014   2.634
 4948SOL    HW215744   1.407   3.156   2.715
 4949SOL     OW15745   5.911   5.002   5.628
 4949SOL    HW115746   5.981   4.939   5.662
 4949SOL    HW215747   5.848   4.952   5.569
 4950SOL     OW15748   2.168   5.335   4.320
 4950SOL    HW115749   2.155   5.250   4.369
 4950SOL    HW215750   2.083   5.388   4.323
 4951SOL     OW15751   5.829   0.726   4.934
 4951SOL    HW115752   5.849   0.693   4.841
 4951SOL    HW215753   5.746   0.781   4.933
 4952SOL     OW15754   0.372   0.861   5.824
 4952SOL    HW115755   0.367   0.886   5.728
 4952SOL    HW215756   0.341   0.766   5.835
 4953SOL     OW15757   1.845   6.768   3.014
 4953SOL    HW115758   1.822   6.727   3.102
 4953SOL    HW215759   1.900   6.850   3.028
 4954SOL     OW15760   3.583   3.102   0.250
 4954SOL    HW115761   3.648   3.174   0.274
 4954SOL    HW215762   3.629   3.014   0.254
 4955SOL     OW15763   3.332   6.686   7.005
 4955SOL    HW115764   3.329   6.587   6.989
 4955SOL    HW215765   3.427   6.715   7.017
 4956SOL     OW15766   2.075   6.673   5.114
 4956SOL    HW115767   2.117   6.636   5.197
 4956SOL    HW215768   2.146   6.686   5.044
 4957SOL     OW15769   5.553   2.234   1.798
 4957SOL    HW115770   5.470   2.226   1.854
 4957SOL    HW215771   5.553   2.162   1.729
 4958SOL     OW15772   0.375   5.097   5.674
 4958SOL    HW115773   0.355   5.025   5.608
 4958SOL    HW215774   0.431   5.060   5.748
 4959SOL     OW15775   6.152   1.711   0.111
 4959SOL    HW115776   6.194   1.665   0.033
 4959SOL    HW215777   6.212   1.704   0.190
 4960SOL     OW15778   3.483   5.033   3.312
 4960SOL    HW115779   3.456   4.991   3.226
 4960SOL    HW215780   3.409   5.024   3.379
 4961SOL     OW15781   4.228   1.063   5.779
 4961SOL    HW115782   4.244   0.966   5.794
 4961SOL    HW215783   4.301   1.116   5.822
 4962SOL     OW15784   6.030   2.363   0.133
 4962SOL    HW115785   5.997   2.323   0.219
 4962SOL    HW215786   5.977   2.327   0.057
 4963SOL     OW15787   6.922   6.121   0.676
 4963SOL    HW115788   6.831   6.131   0.635
 4963SOL    HW215789   6.927   6.033   0.723
 4964SOL     OW15790   2.832   0.707   4.010
 4964SOL    HW115791   2.901   0.650   4.054
 4964SOL    HW215792   2.816   0.675   3.917
 4965SOL     OW15793   0.368   1.290   1.971
 4965SOL    HW115794   0.420   1.375   1.964
 4965SOL    HW215795   0.419   1.215   1.930
 4966SOL     OW15796   2.186   6.607   5.353
 4966SOL    HW115797   2.119   6.669   5.394
 4966SOL    HW215798   2.216   6.540   5.421
 4967SOL     OW15799   4.092   5.040   5.454
 4967SOL    HW115800   4.082   5.064   5.357
 4967SOL    HW215801   4.140   5.113   5.502
 4968SOL     OW15802   6.577   1.911   4.067
 4968SOL    HW115803   6.621   1.822   4.081
 4968SOL    HW215804   6.564   1.926   3.969
 4969SOL     OW15805   2.616   5.773   3.112
 4969SOL    HW115806   2.636   5.711   3.036
 4969SOL    HW215807   2.520   5.799   3.109
 4970SOL     OW15808   2.411   2.667   2.644
 4970SOL    HW115809   2.472   2.624   2.578
 4970SOL    HW215810   2.429   2.631   2.735
 4971SOL     OW15811   6.125   5.796   3.357
 4971SOL    HW115812   6.081   5.878   3.395
 4971SOL    HW215813   6.151   5.734   3.431
 4972SOL     OW15814   1.263   3.707   0.740
 4972SOL    HW115815   1.346   3.735   0.789
 4972SOL    HW215816   1.255   3.759   0.655
 4973SOL     OW15817   1.668   6.516   2.571
 4973SOL    HW115818   1.576   6.539   2.541
 4973SOL    HW215819   1.705   6.443   2.513
 4974SOL     OW15820   6.337   4.462   1.039
 4974SOL    HW115821   6.284   4.476   0.956
 4974SOL    HW215822   6.326   4.541   1.100
 4975SOL     OW15823   5.956   4.042   5.445
 4975SOL    HW115824   5.908   4.096   5.376
 4975SOL    HW215825   5.953   3.945   5.421
 4976SOL     OW15826   1.730   1.142   3.786
 4976SOL    HW115827   1.793   1.206   3.742
 4976SOL    HW215828   1.679   1.091   3.716
 4977SOL     OW15829   3.978   4.985   0.260
 4977SOL    HW115830   4.015   5.060   0.315
 4977SOL    HW215831   3.954   5.020   0.169
 4978SOL     OW15832   6.720   3.878   4.794
 4978SOL    HW115833   6.717   3.954   4.729
 4978SOL    HW215834   6.640   3.819   4.780
 4979SOL     OW15835   6.910   0.248   6.760
 4979SOL    HW115836   6.883   0.153   6.774
 4979SOL    HW215837   6.908   0.270   6.663
 4980SOL     OW15838   5.434   6.109   3.387
 4980SOL    HW115839   5.416   6.160   3.303
 4980SOL    HW215840   5.351   6.060   3.414
 4981SOL     OW15841   4.981   5.754   0.243
 4981SOL    HW115842   4.938   5.793   0.161
 4981SOL    HW215843   5.070   5.715   0.218
 4982SOL     OW15844   2.861   1.119   5.461
 4982SOL    HW115845   2.825   1.202   5.504
 4982SOL    HW215846   2.958   1.134   5.438
 4983SOL     OW15847   5.969   3.486   4.802
 4983SOL    HW115848   5.895   3.510   4.740
 4983SOL    HW215849   5.957   3.535   4.889
 4984SOL     OW15850   5.523   3.946   3.147
 4984SOL    HW115851   5.504   3.899   3.233
 4984SOL    HW215852   5.437   3.959   3.097
 4985SOL     OW15853   5.938   6.896   3.304
 4985SOL    HW115854   5.838   6.891   3.302
 4985SOL    HW215855   5.972   6.851   3.387
 4986SOL     OW15856   0.054   4.217   1.783
 4986SOL    HW115857   0.007   4.134   1.753
 4986SOL    HW215858   7.019   4.294   1.781
 4987SOL     OW15859   1.233   0.979   2.241
 4987SOL    HW115860   1.246   0.886   2.275
 4987SOL    HW215861   1.283   0.991   2.156
 4988SOL     OW15862   5.360   0.732   2.522
 4988SOL    HW115863   5.390   0.812   2.574
 4988SOL    HW215864   5.303   0.674   2.581
 4989SOL     OW15865   5.154   0.392   1.452
 4989SOL    HW115866   5.205   0.313   1.417
 4989SOL    HW215867   5.213   0.447   1.510
 4990SOL     OW15868   2.425   1.833   5.790
 4990SOL    HW115869   2.514   1.878   5.797
 4990SOL    HW215870   2.374   1.872   5.713
 4991SOL     OW15871   6.149   5.249   4.105
 4991SOL    HW115872   6.204   5.256   4.189
 4991SOL    HW215873   6.205   5.276   4.027
 4992SOL     OW15874   5.116   0.977   3.464
 4992SOL    HW115875   5.159   0.976   3.374
 4992SOL    HW215876   5.106   1.072   3.494
 4993SOL     OW15877   2.435   5.654   4.153
 4993SOL    HW115878   2.471   5.610   4.071
 4993SOL    HW215879   2.507   5.655   4.224
 4994SOL     OW15880   1.516   0.642   3.723
 4994SOL    HW115881   1.503   0.557   3.672
 4994SOL    HW215882   1.428   0.670   3.762
 4995SOL     OW15883   0.265   1.900   5.543
 4995SOL    HW115884   0.298   1.934   5.455
 4995SOL    HW215885   0.190   1.835   5.527
 4996SOL     OW15886   0.907   1.672   2.655
 4996SOL    HW115887   0.906   1.688   2.753
 4996SOL    HW215888   0.977   1.730   2.612
 4997SOL     OW15889   5.519   2.747   2.840
 4997SOL    HW115890   5.468   2.712   2.919
 4997SOL    HW215891   5.456   2.793   2.778
 4998SOL     OW15892   2.207   4.339   5.051
 4998SOL    HW115893   2.238   4.246   5.031
 4998SOL    HW215894   2.187   4.386   4.966
 4999SOL     OW15895   6.424   3.674   0.198
 4999SOL    HW115896   6.506   3.647   0.250
 4999SOL    HW215897   6.428   3.631   0.107
 5000SOL     OW15898   2.702   0.007   3.341
 5000SOL    HW115899   2.668   0.051   3.258
 5000SOL    HW215900   2.779   6.976   3.318
 5001SOL     OW15901   0.235   3.912   0.866
 5001SOL    HW115902   0.271   3.881   0.955
 5001SOL    HW215903   0.304   3.897   0.796
 5002SOL     OW15904   0.749   3.645   3.326
 5002SOL    HW115905   0.676   3.690   3.276
 5002SOL    HW215906   0.838   3.675   3.290
 5003SOL     OW15907   2.790   6.288   2.579
 5003SOL    HW115908   2.790   6.311   2.482
 5003SOL    HW215909   2.696   6.269   2.608
 5004SOL     OW15910   3.450   5.427   6.334
 5004SOL    HW115911   3.386   5.492   6.292
 5004SOL    HW215912   3.454   5.344   6.279
 5005SOL     OW15913   3.264   2.732   0.794
 5005SOL    HW115914   3.320   2.665   0.843
 5005SOL    HW215915   3.195   2.684   0.740
 5006SOL     OW15916   5.420   0.480   0.512
 5006SOL    HW115917   5.505   0.476   0.564
 5006SOL    HW215918   5.408   0.571   0.474
 5007SOL     OW15919   1.261   6.920   0.467
 5007SOL    HW115920   1.193   6.991   0.447
 5007SOL    HW215921   1.349   6.963   0.484
 5008SOL     OW15922   6.318   6.841   2.507
 5008SOL    HW115923   6.276   6.765   2.458
 5008SOL    HW215924   6.370   6.805   2.585
 5009SOL     OW15925   0.777   0.100   1.019
 5009SOL    HW115926   0.744   0.017   1.065
 5009SOL    HW215927   0.793   0.172   1.086
 5010SOL     OW15928   4.012   3.718   2.600
 5010SOL    HW115929   4.058   3.674   2.678
 5010SOL    HW215930   4.072   3.715   2.520
 5011SOL     OW15931   1.923   3.944   2.031
 5011SOL    HW115932   2.015   3.931   2.069
 5011SOL    HW215933   1.873   3.858   2.036
 5012SOL     OW15934   5.874   4.301   5.882
 5012SOL    HW115935   5.783   4.296   5.923
 5012SOL    HW215936   5.944   4.282   5.951
 5013SOL     OW15937   5.141   1.658   6.425
 5013SOL    HW115938   5.202   1.630   6.499
 5013SOL    HW215939   5.094   1.577   6.388
 5014SOL     OW15940   5.485   4.224   0.417
 5014SOL    HW115941   5.440   4.254   0.333
 5014SOL    HW215942   5.583   4.215   0.401
 5015SOL     OW15943   4.778   1.767   4.327
 5015SOL    HW115944   4.822   1.735   4.411
 5015SOL    HW215945   4.707   1.703   4.299
 5016SOL     OW15946   2.030   2.037   0.265
 5016SOL    HW115947   1.973   2.038   0.183
 5016SOL    HW215948   2.067   1.945   0.279
 5017SOL     OW15949   2.005   2.442   0.001
 5017SOL    HW115950   2.076   2.384   6.988
 5017SOL    HW215951   2.022   2.537   7.005
 5018SOL     OW15952   0.017   4.097   2.060
 5018SOL    HW115953   6.973   4.165   2.046
 5018SOL    HW215954   0.040   4.093   2.158
 5019SOL     OW15955   1.443   4.788   6.664
 5019SOL    HW115956   1.444   4.779   6.564
 5019SOL    HW215957   1.442   4.697   6.705
 5020SOL     OW15958   5.235   0.319   6.631
 5020SOL    HW115959   5.286   0.331   6.546
 5020SOL    HW215960   5.174   0.397   6.645
 5021SOL     OW15961   1.002   1.578   6.065
 5021SOL    HW115962   1.037   1.543   6.152
 5021SOL    HW215963   1.035   1.520   5.990
 5022SOL     OW15964   0.796   1.726   6.718
 5022SOL    HW115965   0.700   1.743   6.697
 5022SOL    HW215966   0.807   1.711   6.816
 5023SOL     OW15967   6.483   2.710   1.509
 5023SOL    HW115968   6.485   2.799   1.556
 5023SOL    HW215969   6.528   2.719   1.420
 5024SOL     OW15970   5.626   5.515   1.947
 5024SOL    HW115971   5.561   5.507   1.871
 5024SOL    HW215972   5.705   5.568   1.918
 5025SOL     OW15973   3.094   1.747   2.028
 5025SOL    HW115974   3.038   1.732   2.109
 5025SOL    HW215975   3.055   1.696   1.951
 5026SOL     OW15976   6.314   5.581   5.721
 5026SOL    HW115977   6.304   5.658   5.658
 5026SOL    HW215978   6.336   5.615   5.812
 5027SOL     OW15979   0.165   6.046   2.413
 5027SOL    HW115980   0.143   6.141   2.435
 5027SOL    HW215981   0.170   5.993   2.497
 5028SOL     OW15982   0.564   1.493   3.140
 5028SOL    HW115983   0.508   1.568   3.173
 5028SOL    HW215984   0.659   1.523   3.131
 5029SOL     OW15985   0.009   2.729   2.768
 5029SOL    HW115986   0.016   2.816   2.719
 5029SOL    HW215987   6.950   2.726   2.817
 5030SOL     OW15988   0.217   6.876   7.017
 5030SOL    HW115989   0.177   6.849   6.929
 5030SOL    HW215990   0.257   6.796   0.032
 5031SOL     OW15991   5.891   0.220   5.210
 5031SOL    HW115992   5.889   0.296   5.275
 5031SOL    HW215993   5.825   0.150   5.238
 5032SOL     OW15994   1.712   2.768   1.152
 5032SOL    HW115995   1.772   2.700   1.194
 5032SOL    HW215996   1.766   2.826   1.091
 5033SOL     OW15997   2.704   6.267   5.816
 5033SOL    HW115998   2.768   6.210   5.765
 5033SOL    HW215999   2.657   6.330   5.754
 5034SOL     OW16000   4.841   0.555   2.954
 5034SOL    HW116001   4.875   0.606   2.875
 5034SOL    HW216002   4.750   0.588   2.979
 5035SOL     OW16003   0.523   4.493   0.350
 5035SOL    HW116004   0.530   4.395   0.365
 5035SOL    HW216005   0.610   4.537   0.373
 5036SOL     OW16006   0.130   4.852   0.209
 5036SOL    HW116007   0.060   4.896   0.153
 5036SOL    HW216008   0.151   4.762   0.172
 5037SOL     OW16009   5.414   2.809   3.217
 5037SOL    HW116010   5.319   2.828   3.240
 5037SOL    HW216011   5.462   2.773   3.297
 5038SOL     OW16012   1.974   3.984   6.364
 5038SOL    HW116013   1.945   4.018   6.274
 5038SOL    HW216014   2.058   4.032   6.391
 5039SOL     OW16015   3.040   4.274   5.267
 5039SOL    HW116016   3.015   4.364   5.234
 5039SOL    HW216017   2.959   4.216   5.271
 5040SOL     OW16018   2.287   5.247   6.174
 5040SOL    HW116019   2.238   5.160   6.173
 5040SOL    HW216020   2.376   5.235   6.217
 5041SOL     OW16021   1.619   1.580   1.626
 5041SOL    HW116022   1.557   1.637   1.680
 5041SOL    HW216023   1.591   1.582   1.530
 5042SOL     OW16024   6.481   3.296   0.662
 5042SOL    HW116025   6.385   3.299   0.690
 5042SOL    HW216026   6.488   3.258   0.570
 5043SOL     OW16027   3.608   0.503   6.078
 5043SOL    HW116028   3.694   0.464   6.110
 5043SOL    HW216029   3.561   0.437   6.020
 5044SOL     OW16030   0.498   6.780   0.755
 5044SOL    HW116031   0.420   6.816   0.705
 5044SOL    HW216032   0.567   6.852   0.766
 5045SOL     OW16033   5.509   1.770   6.590
 5045SOL    HW116034   5.558   1.704   6.648
 5045SOL    HW216035   5.418   1.787   6.629
 5046SOL     OW16036   3.434   4.144   2.989
 5046SOL    HW116037   3.347   4.101   3.012
 5046SOL    HW216038   3.461   4.206   3.061
 5047SOL     OW16039   6.828   3.484   2.617
 5047SOL    HW116040   6.846   3.571   2.571
 5047SOL    HW216041   6.830   3.410   2.549
 5048SOL     OW16042   0.457   0.993   2.248
 5048SOL    HW116043   0.438   0.937   2.168
 5048SOL    HW216044   0.460   1.090   2.222
 5049SOL     OW16045   6.109   1.613   5.429
 5049SOL    HW116046   6.024   1.651   5.467
 5049SOL    HW216047   6.183   1.625   5.496
 5050SOL     OW16048   1.411   0.555   1.077
 5050SOL    HW116049   1.401   0.518   1.169
 5050SOL    HW216050   1.481   0.626   1.076
 5051SOL     OW16051   4.800   4.818   1.132
 5051SOL    HW116052   4.755   4.734   1.161
 5051SOL    HW216053   4.740   4.896   1.148
 5052SOL     OW16054   2.338   6.912   6.427
 5052SOL    HW116055   2.281   6.894   6.507
 5052SOL    HW216056   2.299   6.988   6.374
 5053SOL     OW16057   2.197   3.832   2.781
 5053SOL    HW116058   2.169   3.736   2.773
 5053SOL    HW216059   2.236   3.847   2.872
 5054SOL     OW16060   3.426   6.297   4.760
 5054SOL    HW116061   3.464   6.208   4.785
 5054SOL    HW216062   3.333   6.285   4.725
 5055SOL     OW16063   1.547   0.642   5.573
 5055SOL    HW116064   1.549   0.544   5.556
 5055SOL    HW216065   1.624   0.685   5.526
 5056SOL     OW16066   6.552   4.612   0.720
 5056SOL    HW116067   6.524   4.660   0.804
 5056SOL    HW216068   6.502   4.526   0.714
 5057SOL     OW16069   6.414   6.252   5.247
 5057SOL    HW116070   6.347   6.268   5.319
 5057SOL    HW216071   6.407   6.157   5.215
 5058SOL     OW16072   2.611   3.076   5.376
 5058SOL    HW116073   2.536   3.039   5.321
 5058SOL    HW216074   2.576   3.108   5.464
 5059SOL     OW16075   5.998   1.864   3.370
 5059SOL    HW116076   5.978   1.959   3.344
 5059SOL    HW216077   6.058   1.864   3.450
 5060SOL     OW16078   1.027   1.669   5.228
 5060SOL    HW116079   1.067   1.693   5.140
 5060SOL    HW216080   1.088   1.607   5.277
 5061SOL     OW16081   3.797   3.415   3.146
 5061SOL    HW116082   3.886   3.429   3.103
 5061SOL    HW216083   3.781   3.317   3.158
 5062SOL     OW16084   5.381   0.815   3.350
 5062SOL    HW116085   5.475   0.782   3.335
 5062SOL    HW216086   5.345   0.773   3.433
 5063SOL     OW16087   1.131   0.039   2.311
 5063SOL    HW116088   1.059   0.077   2.253
 5063SOL    HW216089   1.185   7.002   2.258
 5064SOL     OW16090   4.868   4.097   1.810
 5064SOL    HW116091   4.813   4.180   1.797
 5064SOL    HW216092   4.951   4.121   1.860
 5065SOL     OW16093   1.687   2.074   3.855
 5065SOL    HW116094   1.684   1.975   3.844
 5065SOL    HW216095   1.597   2.108   3.883
 5066SOL     OW16096   4.025   4.575   0.966
 5066SOL    HW116097   3.949   4.528   0.920
 5066SOL    HW216098   4.009   4.575   1.064
 5067SOL     OW16099   3.237   1.192   2.758
 5067SOL    HW116100   3.232   1.200   2.658
 5067SOL    HW216101   3.190   1.109   2.787
 5068SOL     OW16102   2.884   5.199   6.591
 5068SOL    HW116103   2.821   5.276   6.583
 5068SOL    HW216104   2.966   5.228   6.641
 5069SOL     OW16105   2.006   3.073   5.374
 5069SOL    HW116106   2.010   3.029   5.464
 5069SOL    HW216107   2.098   3.084   5.338
 5070SOL     OW16108   4.679   4.302   4.075
 5070SOL    HW116109   4.674   4.396   4.110
 5070SOL    HW216110   4.722   4.243   4.143
 5071SOL     OW16111   4.282   1.287   3.226
 5071SOL    HW116112   4.196   1.331   3.252
 5071SOL    HW216113   4.264   1.211   3.164
 5072SOL     OW16114   1.216   0.898   1.640
 5072SOL    HW116115   1.167   0.986   1.630
 5072SOL    HW216116   1.207   0.866   1.734
 5073SOL     OW16117   1.125   4.845   1.352
 5073SOL    HW116118   1.027   4.823   1.354
 5073SOL    HW216119   1.176   4.769   1.393
 5074SOL     OW16120   3.250   2.350   1.073
 5074SOL    HW116121   3.151   2.351   1.088
 5074SOL    HW216122   3.297   2.375   1.157
 5075SOL     OW16123   1.111   2.410   6.213
 5075SOL    HW116124   1.015   2.430   6.194
 5075SOL    HW216125   1.136   2.325   6.166
 5076SOL     OW16126   5.255   0.567   0.962
 5076SOL    HW116127   5.170   0.536   1.003
 5076SOL    HW216128   5.332   0.540   1.020
 5077SOL     OW16129   2.415   4.273   5.541
 5077SOL    HW116130   2.466   4.346   5.585
 5077SOL    HW216131   2.465   4.240   5.461
 5078SOL     OW16132   0.324   1.168   4.259
 5078SOL    HW116133   0.329   1.245   4.196
 5078SOL    HW216134   0.365   1.087   4.217
 5079SOL     OW16135   2.164   3.381   4.873
 5079SOL    HW116136   2.199   3.305   4.818
 5079SOL    HW216137   2.078   3.354   4.916
 5080SOL     OW16138   5.898   6.560   6.416
 5080SOL    HW116139   5.809   6.601   6.431
 5080SOL    HW216140   5.888   6.475   6.363
 5081SOL     OW16141   3.533   3.046   5.309
 5081SOL    HW116142   3.610   3.015   5.365
 5081SOL    HW216143   3.448   3.040   5.363
 5082SOL     OW16144   5.129   5.459   1.680
 5082SOL    HW116145   5.186   5.535   1.650
 5082SOL    HW216146   5.185   5.376   1.685
 5083SOL     OW16147   2.634   0.382   2.857
 5083SOL    HW116148   2.559   0.319   2.839
 5083SOL    HW216149   2.627   0.415   2.951
 5084SOL     OW16150   0.321   4.258   4.203
 5084SOL    HW116151   0.379   4.314   4.143
 5084SOL    HW216152   0.379   4.211   4.270
 5085SOL     OW16153   5.994   2.503   6.327
 5085SOL    HW116154   6.027   2.574   6.390
 5085SOL    HW216155   6.037   2.516   6.237
 5086SOL     OW16156   1.159   5.430   3.283
 5086SOL    HW116157   1.139   5.395   3.375
 5086SOL    HW216158   1.220   5.367   3.236
 5087SOL     OW16159   1.733   5.516   3.209
 5087SOL    HW116160   1.775   5.602   3.240
 5087SOL    HW216161   1.701   5.464   3.289
 5088SOL     OW16162   5.891   0.218   4.056
 5088SOL    HW116163   5.883   0.125   4.093
 5088SOL    HW216164   5.972   0.224   3.998
 5089SOL     OW16165   5.812   3.869   4.010
 5089SOL    HW116166   5.815   3.936   4.084
 5089SOL    HW216167   5.850   3.782   4.042
 5090SOL     OW16168   2.100   3.773   2.306
 5090SOL    HW116169   2.087   3.857   2.358
 5090SOL    HW216170   2.155   3.792   2.224
 5091SOL     OW16171   0.068   1.325   1.318
 5091SOL    HW116172   0.105   1.233   1.331
 5091SOL    HW216173   7.029   1.344   1.389
 5092SOL     OW16174   3.626   3.818   3.228
 5092SOL    HW116175   3.675   3.882   3.168
 5092SOL    HW216176   3.643   3.842   3.323
 5093SOL     OW16177   2.935   1.396   0.509
 5093SOL    HW116178   2.978   1.467   0.455
 5093SOL    HW216179   2.990   1.312   0.505
 5094SOL     OW16180   2.390   5.641   6.077
 5094SOL    HW116181   2.410   5.731   6.115
 5094SOL    HW216182   2.356   5.581   6.149
 5095SOL     OW16183   6.365   2.080   3.826
 5095SOL    HW116184   6.455   2.043   3.806
 5095SOL    HW216185   6.325   2.030   3.904
 5096SOL     OW16186   3.818   5.178   6.783
 5096SOL    HW116187   3.783   5.218   6.699
 5096SOL    HW216188   3.746   5.176   6.852
 5097SOL     OW16189   1.323   6.977   6.484
 5097SOL    HW116190   1.245   6.917   6.505
 5097SOL    HW216191   1.294   0.018   6.419
 5098SOL     OW16192   2.702   0.341   1.857
 5098SOL    HW116193   2.671   0.384   1.942
 5098SOL    HW216194   2.634   0.275   1.826
 5099SOL     OW16195   0.950   0.315   0.303
 5099SOL    HW116196   0.913   0.397   0.347
 5099SOL    HW216197   0.876   0.268   0.254
 5100SOL     OW16198   3.395   5.536   4.888
 5100SOL    HW116199   3.423   5.440   4.889
 5100SOL    HW216200   3.342   5.554   4.805
 5101SOL     OW16201   5.047   0.186   0.406
 5101SOL    HW116202   5.136   0.161   0.369
 5101SOL    HW216203   5.022   0.277   0.374
 5102SOL     OW16204   5.542   6.925   4.481
 5102SOL    HW116205   5.496   6.852   4.430
 5102SOL    HW216206   5.521   7.013   4.440
 5103SOL     OW16207   0.597   0.506   3.979
 5103SOL    HW116208   0.620   0.444   4.053
 5103SOL    HW216209   0.501   0.534   3.987
 5104SOL     OW16210   1.844   6.290   2.177
 5104SOL    HW116211   1.801   6.264   2.091
 5104SOL    HW216212   1.913   6.361   2.160
 5105SOL     OW16213   2.498   2.846   0.926
 5105SOL    HW116214   2.460   2.757   0.949
 5105SOL    HW216215   2.423   2.909   0.903
 5106SOL     OW16216   4.287   2.274   0.410
 5106SOL    HW116217   4.338   2.203   0.458
 5106SOL    HW216218   4.350   2.330   0.356
 5107SOL     OW16219   3.516   1.676   0.747
 5107SOL    HW116220   3.460   1.612   0.694
 5107SOL    HW216221   3.592   1.708   0.690
 5108SOL     OW16222   3.928   4.074   4.955
 5108SOL    HW116223   3.923   4.054   5.053
 5108SOL    HW216224   3.853   4.135   4.930
 5109SOL     OW16225   0.926   1.739   0.248
 5109SOL    HW116226   0.914   1.707   0.342
 5109SOL    HW216227   0.958   1.663   0.191
 5110SOL     OW16228   1.038   0.808   5.659
 5110SOL    HW116229   1.051   0.791   5.757
 5110SOL    HW216230   1.107   0.873   5.627
 5111SOL     OW16231   1.530   0.421   4.935
 5111SOL    HW116232   1.458   0.353   4.940
 5111SOL    HW216233   1.492   0.509   4.906
 5112SOL     OW16234   1.786   1.241   3.292
 5112SOL    HW116235   1.711   1.179   3.265
 5112SOL    HW216236   1.862   1.188   3.329
 5113SOL     OW16237   1.839   6.825   1.161
 5113SOL    HW116238   1.790   6.845   1.246
 5113SOL    HW216239   1.885   6.908   1.128
 5114SOL     OW16240   3.364   1.127   6.396
 5114SOL    HW116241   3.359   1.155   6.491
 5114SOL    HW216242   3.345   1.029   6.388
 5115SOL     OW16243   1.875   5.038   4.143
 5115SOL    HW116244   1.968   5.000   4.142
 5115SOL    HW216245   1.815   4.974   4.192
 5116SOL     OW16246   0.389   6.874   5.987
 5116SOL    HW116247   0.368   6.831   5.899
 5116SOL    HW216248   0.481   6.912   5.985
 5117SOL     OW16249   2.318   4.376   4.626
 5117SOL    HW116250   2.315   4.293   4.683
 5117SOL    HW216251   2.275   4.357   4.538
 5118SOL     OW16252   5.126   0.099   6.979
 5118SOL    HW116253   5.144   0.144   6.891
 5118SOL    HW216254   5.028   0.103   6.999
 5119SOL     OW16255   5.125   1.003   2.119
 5119SOL    HW116256   5.049   0.939   2.104
 5119SOL    HW216257   5.179   1.010   2.035
 5120SOL     OW16258   3.697   0.254   3.937
 5120SOL    HW116259   3.705   0.189   4.013
 5120SOL    HW216260   3.656   0.339   3.970
 5121SOL     OW16261   2.599   2.254   6.487
 5121SOL    HW116262   2.509   2.230   6.450
 5121SOL    HW216263   2.667   2.248   6.414
 5122SOL     OW16264   3.403   6.754   3.186
 5122SOL    HW116265   3.357   6.836   3.218
 5122SOL    HW216266   3.419   6.761   3.087
 5123SOL     OW16267   4.121   2.255   4.730
 5123SOL    HW116268   4.180   2.265   4.650
 5123SOL    HW216269   4.041   2.200   4.705
 5124SOL     OW16270   2.537   5.537   4.850
 5124SOL    HW116271   2.567   5.460   4.905
 5124SOL    HW216272   2.552   5.622   4.901
 5125SOL     OW16273   5.677   3.567   4.320
 5125SOL    HW116274   5.634   3.537   4.235
 5125SOL    HW216275   5.753   3.628   4.299
 5126SOL     OW16276   6.297   4.809   5.252
 5126SOL    HW116277   6.384   4.827   5.299
 5126SOL    HW216278   6.289   4.712   5.233
 5127SOL     OW16279   1.131   4.156   6.869
 5127SOL    HW116280   1.186   4.094   6.812
 5127SOL    HW216281   1.101   4.234   6.813
 5128SOL     OW16282   6.792   0.367   6.414
 5128SOL    HW116283   6.847   0.360   6.331
 5128SOL    HW216284   6.769   0.462   6.432
 5129SOL     OW16285   5.714   0.047   2.735
 5129SOL    HW116286   5.739   7.023   2.654
 5129SOL    HW216287   5.653   7.021   2.792
 5130SOL     OW16288   0.784   5.826   3.615
 5130SOL    HW116289   0.777   5.851   3.712
 5130SOL    HW216290   0.875   5.789   3.597
 5131SOL     OW16291   2.751   5.009   3.761
 5131SOL    HW116292   2.816   5.072   3.803
 5131SOL    HW216293   2.685   5.060   3.706
 5132SOL     OW16294   3.214   2.471   6.234
 5132SOL    HW116295   3.212   2.569   6.256
 5132SOL    HW216296   3.306   2.446   6.206
 5133SOL     OW16297   1.535   5.281   6.953
 5133SOL    HW116298   1.440   5.312   6.944
 5133SOL    HW216299   1.576   5.277   6.862
 5134SOL     OW16300   6.925   2.140   2.262
 5134SOL    HW116301   6.934   2.240   2.257
 5134SOL    HW216302   7.017   2.099   2.260
 5135SOL     OW16303   5.908   3.594   4.048
 5135SOL    HW116304   5.818   3.567   4.014
 5135SOL    HW216305   5.948   3.519   4.100
 5136SOL     OW16306   5.375   0.392   0.150
 5136SOL    HW116307   5.408   0.298   0.162
 5136SOL    HW216308   5.341   0.403   0.057
 5137SOL     OW16309   5.131   4.072   5.775
 5137SOL    HW116310   5.039   4.094   5.743
 5137SOL    HW216311   5.191   4.150   5.762
 5138SOL     OW16312   3.951   2.851   5.633
 5138SOL    HW116313   3.874   2.888   5.581
 5138SOL    HW216314   4.022   2.820   5.570
 5139SOL     OW16315   1.247   1.322   3.447
 5139SOL    HW116316   1.197   1.385   3.506
 5139SOL    HW216317   1.185   1.284   3.379
 5140SOL     OW16318   4.016   2.568   6.197
 5140SOL    HW116319   3.975   2.520   6.119
 5140SOL    HW216320   4.109   2.597   6.173
 5141SOL     OW16321   6.080   3.931   0.972
 5141SOL    HW116322   6.167   3.945   0.925
 5141SOL    HW216323   6.087   3.851   1.031
 5142SOL     OW16324   6.059   6.758   2.245
 5142SOL    HW116325   5.995   6.684   2.266
 5142SOL    HW216326   6.132   6.723   2.187
 5143SOL     OW16327   6.565   4.803   4.194
 5143SOL    HW116328   6.647   4.833   4.145
 5143SOL    HW216329   6.512   4.741   4.136
 5144SOL     OW16330   0.734   5.071   5.731
 5144SOL    HW116331   0.806   5.015   5.773
 5144SOL    HW216332   0.650   5.062   5.785
 5145SOL     OW16333   3.635   5.722   5.686
 5145SOL    HW116334   3.640   5.678   5.596
 5145SOL    HW216335   3.543   5.757   5.700
 5146SOL     OW16336   3.056   4.093   5.664
 5146SOL    HW116337   3.079   4.101   5.761
 5146SOL    HW216338   3.099   4.011   5.627
 5147SOL     OW16339   6.494   5.391   2.895
 5147SOL    HW116340   6.586   5.427   2.912
 5147SOL    HW216341   6.497   5.328   2.818
 5148SOL     OW16342   6.492   7.014   1.958
 5148SOL    HW116343   6.491   7.027   1.859
 5148SOL    HW216344   6.398   7.014   1.992
 5149SOL     OW16345   6.335   5.969   3.052
 5149SOL    HW116346   6.282   6.023   3.117
 5149SOL    HW216347   6.359   5.881   3.093
 5150SOL     OW16348   2.202   5.766   3.327
 5150SOL    HW116349   2.289   5.745   3.369
 5150SOL    HW216350   2.215   5.785   3.230
 5151SOL     OW16351   6.687   3.317   2.031
 5151SOL    HW116352   6.618   3.352   2.094
 5151SOL    HW216353   6.646   3.305   1.940
 5152SOL     OW16354   1.955   4.819   0.040
 5152SOL    HW116355   2.036   4.874   0.061
 5152SOL    HW216356   1.899   4.868   7.002
 5153SOL     OW16357   1.327   1.428   6.900
 5153SOL    HW116358   1.246   1.371   6.889
 5153SOL    HW216359   1.390   1.385   6.964
 5154SOL     OW16360   1.333   2.645   5.762
 5154SOL    HW116361   1.234   2.636   5.756
 5154SOL    HW216362   1.375   2.555   5.751
 5155SOL     OW16363   4.325   0.431   2.367
 5155SOL    HW116364   4.408   0.412   2.314
 5155SOL    HW216365   4.277   0.509   2.327
 5156SOL     OW16366   5.294   4.061   6.232
 5156SOL    HW116367   5.328   4.062   6.138
 5156SOL    HW216368   5.372   4.070   6.295
 5157SOL     OW16369   3.735   1.914   3.362
 5157SOL    HW116370   3.669   1.849   3.326
 5157SOL    HW216371   3.810   1.926   3.297
 5158SOL     OW16372   3.399   1.964   1.532
 5158SOL    HW116373   3.488   1.920   1.532
 5158SOL    HW216374   3.365   1.972   1.626
 5159SOL     OW16375   5.936   3.909   5.106
 5159SOL    HW116376   6.032   3.936   5.105
 5159SOL    HW216377   5.925   3.826   5.161
 5160SOL     OW16378   0.154   4.471   3.219
 5160SOL    HW116379   0.107   4.512   3.297
 5160SOL    HW216380   0.110   4.384   3.195
 5161SOL     OW16381   1.771   3.646   5.948
 5161SOL    HW116382   1.777   3.638   6.048
 5161SOL    HW216383   1.856   3.614   5.907
 5162SOL     OW16384   0.794   4.774   2.501
 5162SOL    HW116385   0.791   4.826   2.415
 5162SOL    HW216386   0.826   4.834   2.575
 5163SOL     OW16387   3.234   6.395   0.087
 5163SOL    HW116388   3.237   6.324   0.157
 5163SOL    HW216389   3.323   6.401   0.041
 5164SOL     OW16390   4.524   2.084   6.535
 5164SOL    HW116391   4.494   1.989   6.530
 5164SOL    HW216392   4.446   2.142   6.556
 5165SOL     OW16393   6.715   3.908   5.656
 5165SOL    HW116394   6.706   3.925   5.558
 5165SOL    HW216395   6.719   3.810   5.673
 5166SOL     OW16396   0.551   5.592   2.195
 5166SOL    HW116397   0.503   5.561   2.113
 5166SOL    HW216398   0.634   5.537   2.208
 5167SOL     OW16399   6.908   5.784   5.839
 5167SOL    HW116400   6.916   5.870   5.889
 5167SOL    HW216401   6.817   5.779   5.797
 5168SOL     OW16402   4.879   3.490   1.904
 5168SOL    HW116403   4.871   3.572   1.848
 5168SOL    HW216404   4.830   3.415   1.861
 5169SOL     OW16405   4.126   2.096   4.150
 5169SOL    HW116406   4.034   2.082   4.114
 5169SOL    HW216407   4.145   2.026   4.219
 5170SOL     OW16408   0.278   4.287   5.222
 5170SOL    HW116409   0.372   4.294   5.188
 5170SOL    HW216410   0.279   4.247   5.313
 5171SOL     OW16411   0.929   5.128   5.175
 5171SOL    HW116412   1.024   5.156   5.163
 5171SOL    HW216413   0.875   5.207   5.204
 5172SOL     OW16414   1.458   2.979   2.469
 5172SOL    HW116415   1.448   2.893   2.518
 5172SOL    HW216416   1.405   2.975   2.384
 5173SOL     OW16417   5.205   5.234   4.913
 5173SOL    HW116418   5.282   5.177   4.885
 5173SOL    HW216419   5.119   5.192   4.884
 5174SOL     OW16420   2.203   4.847   3.105
 5174SOL    HW116421   2.108   4.846   3.073
 5174SOL    HW216422   2.204   4.844   3.205
 5175SOL     OW16423   2.333   3.530   6.932
 5175SOL    HW116424   2.389   3.522   6.849
 5175SOL    HW216425   2.383   3.489   7.009
 5176SOL     OW16426   5.297   3.390   6.652
 5176SOL    HW116427   5.202   3.385   6.682
 5176SOL    HW216428   5.357   3.394   6.731
 5177SOL     OW16429   5.789   0.594   0.453
 5177SOL    HW116430   5.794   0.689   0.485
 5177SOL    HW216431   5.799   0.533   0.531
 5178SOL     OW16432   1.100   3.390   2.136
 5178SOL    HW116433   1.168   3.450   2.093
 5178SOL    HW216434   1.024   3.375   2.073
 5179SOL     OW16435   4.271   5.290   4.116
 5179SOL    HW116436   4.190   5.257   4.068
 5179SOL    HW216437   4.260   5.273   4.215
 5180SOL     OW16438   2.579   2.139   0.986
 5180SOL    HW116439   2.599   2.154   1.082
 5180SOL    HW216440   2.534   2.051   0.974
 5181SOL     OW16441   5.654   0.879   2.759
 5181SOL    HW116442   5.568   0.882   2.707
 5181SOL    HW216443   5.646   0.936   2.841
 5182SOL     OW16444   3.831   3.975   1.596
 5182SOL    HW116445   3.869   4.000   1.685
 5182SOL    HW216446   3.904   3.972   1.528
 5183SOL     OW16447   3.657   1.625   2.337
 5183SOL    HW116448   3.750   1.644   2.306
 5183SOL    HW216449   3.636   1.683   2.416
 5184SOL     OW16450   0.517   1.592   4.799
 5184SOL    HW116451   0.534   1.628   4.708
 5184SOL    HW216452   0.425   1.617   4.828
 5185SOL     OW16453   5.999   0.623   2.807
 5185SOL    HW116454   5.937   0.640   2.883
 5185SOL    HW216455   6.094   0.625   2.840
 5186SOL     OW16456   6.441   2.628   0.547
 5186SOL    HW116457   6.439   2.534   0.513
 5186SOL    HW216458   6.347   2.663   0.552
 5187SOL     OW16459   1.160   6.671   4.071
 5187SOL    HW116460   1.223   6.598   4.096
 5187SOL    HW216461   1.177   6.751   4.129
 5188SOL     OW16462   0.674   5.752   1.202
 5188SOL    HW116463   0.624   5.834   1.230
 5188SOL    HW216464   0.767   5.776   1.177
 5189SOL     OW16465   3.724   5.323   1.102
 5189SOL    HW116466   3.670   5.394   1.056
 5189SOL    HW216467   3.663   5.249   1.131
 5190SOL     OW16468   0.901   1.765   4.452
 5190SOL    HW116469   0.868   1.844   4.504
 5190SOL    HW216470   0.881   1.681   4.504
 5191SOL     OW16471   4.238   6.784   1.985
 5191SOL    HW116472   4.170   6.785   1.912
 5191SOL    HW216473   4.267   6.877   2.005
 5192SOL     OW16474   2.415   5.674   2.211
 5192SOL    HW116475   2.393   5.685   2.308
 5192SOL    HW216476   2.515   5.666   2.201
 5193SOL     OW16477   4.858   4.676   4.459
 5193SOL    HW116478   4.827   4.659   4.553
 5193SOL    HW216479   4.887   4.771   4.450
 5194SOL     OW16480   4.722   1.742   0.077
 5194SOL    HW116481   4.708   1.744   7.007
 5194SOL    HW216482   4.807   1.694   0.098
 5195SOL     OW16483   6.981   6.112   4.048
 5195SOL    HW116484   7.020   6.184   4.105
 5195SOL    HW216485   7.026   6.025   4.069
 5196SOL     OW16486   3.569   6.337   0.972
 5196SOL    HW116487   3.605   6.397   0.900
 5196SOL    HW216488   3.537   6.252   0.931
 5197SOL     OW16489   2.041   4.949   5.933
 5197SOL    HW116490   2.077   4.864   5.972
 5197SOL    HW216491   2.015   5.011   6.008
 5198SOL     OW16492   4.430   6.804   3.288
 5198SOL    HW116493   4.392   6.891   3.256
 5198SOL    HW216494   4.403   6.731   3.226
 5199SOL     OW16495   1.784   5.721   0.724
 5199SOL    HW116496   1.815   5.805   0.768
 5199SOL    HW216497   1.723   5.744   0.648
 5200SOL     OW16498   1.096   2.832   5.425
 5200SOL    HW116499   1.178   2.881   5.395
 5200SOL    HW216500   1.015   2.887   5.403
 5201SOL     OW16501   0.193   0.115   2.778
 5201SOL    HW116502   0.253   0.106   2.698
 5201SOL    HW216503   0.234   0.178   2.844
 5202SOL     OW16504   5.876   3.497   5.776
 5202SOL    HW116505   5.928   3.500   5.862
 5202SOL    HW216506   5.848   3.404   5.758
 5203SOL     OW16507   2.317   1.768   0.101
 5203SOL    HW116508   2.349   1.686   0.054
 5203SOL    HW216509   2.307   1.843   0.035
 5204SOL     OW16510   4.265   5.710   6.879
 5204SOL    HW116511   4.236   5.733   6.786
 5204SOL    HW216512   4.259   5.791   6.937
 5205SOL     OW16513   1.005   6.107   0.884
 5205SOL    HW116514   1.104   6.116   0.869
 5205SOL    HW216515   0.980   6.152   0.969
 5206SOL     OW16516   0.772   4.945   6.275
 5206SOL    HW116517   0.830   4.881   6.325
 5206SOL    HW216518   0.814   5.036   6.274
 5207SOL     OW16519   0.950   6.178   3.618
 5207SOL    HW116520   1.008   6.153   3.540
 5207SOL    HW216521   0.873   6.115   3.623
 5208SOL     OW16522   4.667   2.521   6.130
 5208SOL    HW116523   4.684   2.443   6.070
 5208SOL    HW216524   4.577   2.512   6.171
 5209SOL     OW16525   5.575   6.434   2.374
 5209SOL    HW116526   5.491   6.432   2.319
 5209SOL    HW216527   5.653   6.409   2.316
 5210SOL     OW16528   4.397   3.017   6.607
 5210SOL    HW116529   4.429   3.031   6.513
 5210SOL    HW216530   4.472   2.981   6.662
 5211SOL     OW16531   3.617   2.610   5.344
 5211SOL    HW116532   3.598   2.656   5.257
 5211SOL    HW216533   3.576   2.663   5.418
 5212SOL     OW16534   0.209   3.290   0.745
 5212SOL    HW116535   0.255   3.378   0.733
 5212SOL    HW216536   0.163   3.289   0.834
 5213SOL     OW16537   4.895   4.236   6.260
 5213SOL    HW116538   4.899   4.287   6.174
 5213SOL    HW216539   4.810   4.184   6.265
 5214SOL     OW16540   5.463   1.503   6.146
 5214SOL    HW116541   5.484   1.585   6.199
 5214SOL    HW216542   5.366   1.503   6.122
 5215SOL     OW16543   0.025   4.857   3.773
 5215SOL    HW116544   6.992   4.793   3.820
 5215SOL    HW216545   0.005   4.950   3.804
 5216SOL     OW16546   4.873   5.022   2.382
 5216SOL    HW116547   4.906   4.929   2.369
 5216SOL    HW216548   4.935   5.086   2.337
 5217SOL     OW16549   4.303   5.291   4.444
 5217SOL    HW116550   4.207   5.295   4.473
 5217SOL    HW216551   4.360   5.343   4.507
 5218SOL     OW16552   1.110   0.518   2.923
 5218SOL    HW116553   1.027   0.563   2.954
 5218SOL    HW216554   1.155   0.575   2.855
 5219SOL     OW16555   4.420   1.499   4.938
 5219SOL    HW116556   4.346   1.432   4.925
 5219SOL    HW216557   4.381   1.590   4.951
 5220SOL     OW16558   0.622   5.919   2.476
 5220SOL    HW116559   0.665   5.900   2.564
 5220SOL    HW216560   0.684   5.892   2.402
 5221SOL     OW16561   5.577   2.290   3.867
 5221SOL    HW116562   5.669   2.312   3.900
 5221SOL    HW216563   5.574   2.195   3.836
 5222SOL     OW16564   3.582   6.352   3.122
 5222SOL    HW116565   3.615   6.269   3.077
 5222SOL    HW216566   3.548   6.329   3.213
 5223SOL     OW16567   6.014   2.521   0.553
 5223SOL    HW116568   6.102   2.566   0.563
 5223SOL    HW216569   5.971   2.548   0.467
 5224SOL     OW16570   6.641   2.379   4.517
 5224SOL    HW116571   6.604   2.294   4.478
 5224SOL    HW216572   6.583   2.410   4.592
 5225SOL     OW16573   0.087   0.855   3.558
 5225SOL    HW116574   0.086   0.889   3.652
 5225SOL    HW216575   0.055   0.760   3.556
 5226SOL     OW16576   6.921   6.061   4.823
 5226SOL    HW116577   6.875   6.073   4.912
 5226SOL    HW216578   6.894   6.135   4.762
 5227SOL     OW16579   0.582   3.400   4.971
 5227SOL    HW116580   0.614   3.441   5.055
 5227SOL    HW216581   0.490   3.363   4.985
 5228SOL     OW16582   6.095   2.153   1.166
 5228SOL    HW116583   6.084   2.058   1.196
 5228SOL    HW216584   6.051   2.165   1.077
 5229SOL     OW16585   1.703   5.866   0.053
 5229SOL    HW116586   1.750   5.951   0.030
 5229SOL    HW216587   1.619   5.887   0.104
 5230SOL     OW16588   0.680   5.525   1.828
 5230SOL    HW116589   0.721   5.541   1.738
 5230SOL    HW216590   0.741   5.467   1.882
 5231SOL     OW16591   4.538   2.573   4.388
 5231SOL    HW116592   4.573   2.518   4.464
 5231SOL    HW216593   4.607   2.640   4.361
 5232SOL     OW16594   2.545   3.268   5.907
 5232SOL    HW116595   2.498   3.210   5.974
 5232SOL    HW216596   2.629   3.223   5.876
 5233SOL     OW16597   5.090   1.231   2.440
 5233SOL    HW116598   5.028   1.154   2.426
 5233SOL    HW216599   5.135   1.222   2.529
 5234SOL     OW16600   2.826   1.207   5.968
 5234SOL    HW116601   2.732   1.205   6.002
 5234SOL    HW216602   2.865   1.115   5.971
 5235SOL     OW16603   2.136   2.093   0.523
 5235SOL    HW116604   2.095   2.095   0.432
 5235SOL    HW216605   2.184   2.007   0.536
 5236SOL     OW16606   5.093   4.800   2.471
 5236SOL    HW116607   5.094   4.747   2.386
 5236SOL    HW216608   5.182   4.844   2.484
 5237SOL     OW16609   1.991   1.071   5.062
 5237SOL    HW116610   2.074   1.074   5.005
 5237SOL    HW216611   1.959   1.164   5.080
 5238SOL     OW16612   0.793   4.558   0.170
 5238SOL    HW116613   0.833   4.467   0.155
 5238SOL    HW216614   0.862   4.618   0.211
 5239SOL     OW16615   3.613   2.981   4.490
 5239SOL    HW116616   3.611   3.080   4.509
 5239SOL    HW216617   3.675   2.963   4.414
 5240SOL     OW16618   3.143   1.738   5.941
 5240SOL    HW116619   3.096   1.789   5.869
 5240SOL    HW216620   3.196   1.801   5.998
 5241SOL     OW16621   0.512   5.314   4.925
 5241SOL    HW116622   0.466   5.403   4.924
 5241SOL    HW216623   0.476   5.257   4.850
 5242SOL     OW16624   0.223   6.383   6.390
 5242SOL    HW116625   0.228   6.477   6.355
 5242SOL    HW216626   0.312   6.357   6.426
 5243SOL     OW16627   0.862   4.921   1.392
 5243SOL    HW116628   0.794   4.975   1.442
 5243SOL    HW216629   0.868   4.955   1.298
 5244SOL     OW16630   3.603   5.413   6.951
 5244SOL    HW116631   3.547   5.369   6.880
 5244SOL    HW216632   3.569   5.384   0.012
 5245SOL     OW16633   3.910   4.723   0.261
 5245SOL    HW116634   3.923   4.822   0.254
 5245SOL    HW216635   3.819   4.699   0.229
 5246SOL     OW16636   5.872   3.791   2.168
 5246SOL    HW116637   5.799   3.839   2.119
 5246SOL    HW216638   5.959   3.837   2.152
 5247SOL     OW16639   1.662   1.111   0.334
 5247SOL    HW116640   1.729   1.036   0.332
 5247SOL    HW216641   1.623   1.124   0.243
 5248SOL     OW16642   5.468   1.227   3.379
 5248SOL    HW116643   5.486   1.320   3.348
 5248SOL    HW216644   5.454   1.227   3.479
 5249SOL     OW16645   0.039   4.856   5.571
 5249SOL    HW116646   0.038   4.876   5.669
 5249SOL    HW216647   6.975   4.836   5.540
 5250SOL     OW16648   1.970   6.473   5.746
 5250SOL    HW116649   2.067   6.471   5.772
 5250SOL    HW216650   1.916   6.430   5.818
 5251SOL     OW16651   0.736   3.754   7.026
 5251SOL    HW116652   0.660   3.819   0.004
 5251SOL    HW216653   0.776   3.741   0.088
 5252SOL     OW16654   1.838   6.631   0.307
 5252SOL    HW116655   1.927   6.637   0.352
 5252SOL    HW216656   1.819   6.715   0.258
 5253SOL     OW16657   5.436   4.589   4.318
 5253SOL    HW116658   5.450   4.685   4.343
 5253SOL    HW216659   5.384   4.543   4.391
 5254SOL     OW16660   4.584   1.098   3.008
 5254SOL    HW116661   4.603   1.195   3.023
 5254SOL    HW216662   4.488   1.087   2.980
 5255SOL     OW16663   6.099   0.964   5.905
 5255SOL    HW116664   6.046   0.935   5.826
 5255SOL    HW216665   6.060   0.925   5.988
 5256SOL     OW16666   4.304   1.201   3.507
 5256SOL    HW116667   4.292   1.245   3.417
 5256SOL    HW216668   4.374   1.130   3.500
 5257SOL     OW16669   5.616   6.567   2.045
 5257SOL    HW116670   5.611   6.652   1.993
 5257SOL    HW216671   5.563   6.496   1.999
 5258SOL     OW16672   6.105   3.941   2.149
 5258SOL    HW116673   6.159   3.963   2.068
 5258SOL    HW216674   6.142   3.991   2.228
 5259SOL     OW16675   5.706   6.058   1.348
 5259SOL    HW116676   5.802   6.031   1.353
 5259SOL    HW216677   5.698   6.157   1.360
 5260SOL     OW16678   5.059   3.667   1.237
 5260SOL    HW116679   5.035   3.720   1.157
 5260SOL    HW216680   4.990   3.596   1.252
 5261SOL     OW16681   1.045   3.872   0.184
 5261SOL    HW116682   1.077   3.963   0.213
 5261SOL    HW216683   0.945   3.870   0.184
 5262SOL     OW16684   2.611   1.139   2.829
 5262SOL    HW116685   2.648   1.122   2.920
 5262SOL    HW216686   2.655   1.219   2.788
 5263SOL     OW16687   1.879   1.800   4.296
 5263SOL    HW116688   1.879   1.805   4.396
 5263SOL    HW216689   1.823   1.722   4.267
 5264SOL     OW16690   6.010   2.347   2.965
 5264SOL    HW116691   5.978   2.377   3.055
 5264SOL    HW216692   5.939   2.366   2.897
 5265SOL     OW16693   6.333   4.146   4.288
 5265SOL    HW116694   6.373   4.165   4.377
 5265SOL    HW216695   6.250   4.200   4.276
 5266SOL     OW16696   2.441   5.799   0.790
 5266SOL    HW116697   2.470   5.894   0.803
 5266SOL    HW216698   2.482   5.742   0.861
 5267SOL     OW16699   4.901   3.869   4.926
 5267SOL    HW116700   4.869   3.787   4.974
 5267SOL    HW216701   4.882   3.950   4.982
 5268SOL     OW16702   5.744   0.118   6.774
 5268SOL    HW116703   5.649   0.131   6.800
 5268SOL    HW216704   5.778   0.032   6.812
 5269SOL     OW16705   1.038   6.603   3.409
 5269SOL    HW116706   1.137   6.594   3.404
 5269SOL    HW216707   1.012   6.637   3.500
 5270SOL     OW16708   5.858   1.475   1.165
 5270SOL    HW116709   5.832   1.380   1.184
 5270SOL    HW216710   5.942   1.476   1.111
 5271SOL     OW16711   5.964   5.688   4.492
 5271SOL    HW116712   6.017   5.610   4.460
 5271SOL    HW216713   5.899   5.715   4.422
 5272SOL     OW16714   2.811   5.327   1.978
 5272SOL    HW116715   2.832   5.232   1.953
 5272SOL    HW216716   2.746   5.328   2.054
 5273SOL     OW16717   0.180   3.185   3.738
 5273SOL    HW116718   0.269   3.172   3.694
 5273SOL    HW216719   0.152   3.100   3.783
 5274SOL     OW16720   6.209   7.028   2.684
 5274SOL    HW116721   6.271   7.012   2.761
 5274SOL    HW216722   6.248   6.987   2.602
 5275SOL     OW16723   3.585   2.042   0.372
 5275SOL    HW116724   3.594   2.006   0.465
 5275SOL    HW216725   3.490   2.037   0.344
 5276SOL     OW16726   1.566   0.341   0.669
 5276SOL    HW116727   1.497   0.370   0.735
 5276SOL    HW216728   1.524   0.281   0.600
 5277SOL     OW16729   1.307   1.525   3.091
 5277SOL    HW116730   1.218   1.506   3.133
 5277SOL    HW216731   1.377   1.532   3.162
 5278SOL     OW16732   5.556   0.323   3.575
 5278SOL    HW116733   5.464   0.340   3.610
 5278SOL    HW216734   5.551   0.259   3.498
 5279SOL     OW16735   2.027   5.083   6.177
 5279SOL    HW116736   1.990   5.172   6.202
 5279SOL    HW216737   2.037   5.027   6.260
 5280SOL     OW16738   2.789   6.187   4.718
 5280SOL    HW116739   2.734   6.175   4.636
 5280SOL    HW216740   2.729   6.216   4.793
 5281SOL     OW16741   0.455   1.373   2.257
 5281SOL    HW116742   0.537   1.319   2.278
 5281SOL    HW216743   0.474   1.470   2.272
 5282SOL     OW16744   2.399   2.054   2.859
 5282SOL    HW116745   2.455   2.123   2.903
 5282SOL    HW216746   2.417   1.965   2.900
 5283SOL     OW16747   4.586   6.509   1.652
 5283SOL    HW116748   4.634   6.455   1.722
 5283SOL    HW216749   4.592   6.606   1.675
 5284SOL     OW16750   5.162   3.393   3.573
 5284SOL    HW116751   5.134   3.415   3.479
 5284SOL    HW216752   5.084   3.357   3.624
 5285SOL     OW16753   2.296   4.716   3.633
 5285SOL    HW116754   2.268   4.649   3.564
 5285SOL    HW216755   2.376   4.765   3.601
 5286SOL     OW16756   1.511   4.006   0.653
 5286SOL    HW116757   1.580   3.961   0.598
 5286SOL    HW216758   1.459   3.938   0.705
 5287SOL     OW16759   2.389   6.441   1.362
 5287SOL    HW116760   2.394   6.541   1.372
 5287SOL    HW216761   2.433   6.414   1.277
 5288SOL     OW16762   3.969   0.227   1.766
 5288SOL    HW116763   3.917   0.177   1.696
 5288SOL    HW216764   3.938   0.199   1.856
 5289SOL     OW16765   1.649   4.321   6.315
 5289SOL    HW116766   1.552   4.338   6.299
 5289SOL    HW216767   1.700   4.337   6.230
 5290SOL     OW16768   1.478   4.717   5.046
 5290SOL    HW116769   1.471   4.617   5.041
 5290SOL    HW216770   1.554   4.742   5.105
 5291SOL     OW16771   2.524   5.670   5.500
 5291SOL    HW116772   2.438   5.651   5.546
 5291SOL    HW216773   2.512   5.658   5.401
 5292SOL     OW16774   6.955   3.943   0.043
 5292SOL    HW116775   6.925   3.942   6.977
 5292SOL    HW216776   6.890   3.892   0.099
 5293SOL     OW16777   1.223   0.559   4.082
 5293SOL    HW116778   1.131   0.539   4.117
 5293SOL    HW216779   1.290   0.541   4.155
 5294SOL     OW16780   4.791   3.519   5.638
 5294SOL    HW116781   4.813   3.428   5.674
 5294SOL    HW216782   4.724   3.563   5.698
 5295SOL     OW16783   5.220   0.142   2.663
 5295SOL    HW116784   5.246   0.073   2.595
 5295SOL    HW216785   5.248   0.232   2.631
 5296SOL     OW16786   2.263   4.993   0.343
 5296SOL    HW116787   2.245   5.076   0.396
 5296SOL    HW216788   2.337   4.942   0.385
 5297SOL     OW16789   3.316   2.060   1.033
 5297SOL    HW116790   3.275   2.149   1.053
 5297SOL    HW216791   3.332   2.011   1.119
 5298SOL     OW16792   1.064   5.713   6.776
 5298SOL    HW116793   0.993   5.645   6.798
 5298SOL    HW216794   1.146   5.666   6.743
 5299SOL     OW16795   2.250   2.649   1.551
 5299SOL    HW116796   2.219   2.608   1.637
 5299SOL    HW216797   2.328   2.597   1.516
 5300SOL     OW16798   0.423   6.018   1.860
 5300SOL    HW116799   0.332   6.051   1.835
 5300SOL    HW216800   0.422   5.918   1.865
 5301SOL     OW16801   4.899   2.908   0.765
 5301SOL    HW116802   4.935   2.819   0.735
 5301SOL    HW216803   4.869   2.960   0.685
 5302SOL     OW16804   6.389   4.332   2.856
 5302SOL    HW116805   6.305   4.279   2.844
 5302SOL    HW216806   6.455   4.278   2.907
 5303SOL     OW16807   6.634   6.076   2.969
 5303SOL    HW116808   6.609   6.168   3.000
 5303SOL    HW216809   6.552   6.019   2.963
 5304SOL     OW16810   6.654   1.544   5.803
 5304SOL    HW116811   6.720   1.615   5.826
 5304SOL    HW216812   6.589   1.535   5.878
 5305SOL     OW16813   1.330   5.799   4.344
 5305SOL    HW116814   1.427   5.818   4.360
 5305SOL    HW216815   1.301   5.846   4.260
 5306SOL     OW16816   0.408   5.762   5.107
 5306SOL    HW116817   0.374   5.857   5.107
 5306SOL    HW216818   0.404   5.725   5.199
 5307SOL     OW16819   4.687   0.295   6.930
 5307SOL    HW116820   4.720   0.358   6.861
 5307SOL    HW216821   4.634   0.345   6.998
 5308SOL     OW16822   1.057   5.963   4.273
 5308SOL    HW116823   0.967   5.965   4.228
 5308SOL    HW216824   1.129   5.964   4.203
 5309SOL     OW16825   3.433   4.029   1.969
 5309SOL    HW116826   3.363   4.043   2.039
 5309SOL    HW216827   3.400   3.964   1.901
 5310SOL     OW16828   5.682   2.459   1.939
 5310SOL    HW116829   5.630   2.379   1.910
 5310SOL    HW216830   5.626   2.541   1.927
 5311SOL     OW16831   0.040   6.033   1.470
 5311SOL    HW116832   0.049   5.974   1.391
 5311SOL    HW216833   0.032   5.978   1.553
 5312SOL     OW16834   0.451   3.694   2.135
 5312SOL    HW116835   0.405   3.755   2.200
 5312SOL    HW216836   0.527   3.648   2.181
 5313SOL     OW16837   1.242   4.098   0.065
 5313SOL    HW116838   1.191   4.111   7.008
 5313SOL    HW216839   1.226   4.175   0.126
 5314SOL     OW16840   2.914   5.463   0.451
 5314SOL    HW116841   2.936   5.408   0.370
 5314SOL    HW216842   2.977   5.540   0.458
 5315SOL     OW16843   3.981   3.761   1.410
 5315SOL    HW116844   3.917   3.797   1.479
 5315SOL    HW216845   4.006   3.835   1.347
 5316SOL     OW16846   6.700   4.830   4.591
 5316SOL    HW116847   6.747   4.902   4.642
 5316SOL    HW216848   6.633   4.872   4.529
 5317SOL     OW16849   0.085   0.326   5.022
 5317SOL    HW116850   0.140   0.292   4.946
 5317SOL    HW216851   0.108   0.423   5.038
 5318SOL     OW16852   0.448   1.735   5.926
 5318SOL    HW116853   0.532   1.681   5.925
 5318SOL    HW216854   0.442   1.790   5.843
 5319SOL     OW16855   4.533   6.379   6.551
 5319SOL    HW116856   4.576   6.469   6.541
 5319SOL    HW216857   4.602   6.308   6.543
 5320SOL     OW16858   5.653   5.114   6.548
 5320SOL    HW116859   5.633   5.141   6.643
 5320SOL    HW216860   5.729   5.049   6.547
 5321SOL     OW16861   0.707   4.088   2.742
 5321SOL    HW116862   0.731   4.177   2.780
 5321SOL    HW216863   0.636   4.099   2.673
 5322SOL     OW16864   3.834   5.996   5.898
 5322SOL    HW116865   3.780   5.983   5.815
 5322SOL    HW216866   3.799   5.935   5.970
 5323SOL     OW16867   4.468   3.306   0.704
 5323SOL    HW116868   4.484   3.352   0.616
 5323SOL    HW216869   4.556   3.282   0.745
 5324SOL     OW16870   3.855   2.496   1.717
 5324SOL    HW116871   3.952   2.475   1.729
 5324SOL    HW216872   3.799   2.422   1.754
 5325SOL     OW16873   5.278   6.895   3.754
 5325SOL    HW116874   5.293   6.796   3.762
 5325SOL    HW216875   5.180   6.914   3.761
 5326SOL     OW16876   6.981   5.433   3.323
 5326SOL    HW116877   6.920   5.512   3.319
 5326SOL    HW216878   6.988   5.392   3.232
 5327SOL     OW16879   6.524   5.226   5.333
 5327SOL    HW116880   6.544   5.256   5.427
 5327SOL    HW216881   6.430   5.194   5.327
 5328SOL     OW16882   4.725   2.650   5.263
 5328SOL    HW116883   4.820   2.648   5.295
 5328SOL    HW216884   4.681   2.733   5.297
 5329SOL     OW16885   0.613   3.589   6.838
 5329SOL    HW116886   0.644   3.638   6.919
 5329SOL    HW216887   0.636   3.492   6.846
 5330SOL     OW16888   3.749   4.339   6.808
 5330SOL    HW116889   3.660   4.324   6.764
 5330SOL    HW216890   3.753   4.431   6.846
 5331SOL     OW16891   5.560   1.230   1.484
 5331SOL    HW116892   5.587   1.191   1.572
 5331SOL    HW216893   5.472   1.190   1.455
 5332SOL     OW16894   6.897   4.735   0.317
 5332SOL    HW116895   6.964   4.686   0.261
 5332SOL    HW216896   6.809   4.737   0.270
 5333SOL     OW16897   1.127   0.949   3.883
 5333SOL    HW116898   1.148   1.020   3.950
 5333SOL    HW216899   1.055   0.983   3.821
 5334SOL     OW16900   3.378   5.226   5.473
 5334SOL    HW116901   3.309   5.201   5.406
 5334SOL    HW216902   3.350   5.194   5.564
 5335SOL     OW16903   0.296   4.885   2.027
 5335SOL    HW116904   0.216   4.939   2.053
 5335SOL    HW216905   0.266   4.797   1.989
 5336SOL     OW16906   2.194   1.943   3.292
 5336SOL    HW116907   2.112   1.886   3.285
 5336SOL    HW216908   2.185   2.022   3.232
 5337SOL     OW16909   5.300   4.453   1.832
 5337SOL    HW116910   5.362   4.477   1.758
 5337SOL    HW216911   5.332   4.370   1.877
 5338SOL     OW16912   5.751   1.111   6.239
 5338SOL    HW116913   5.710   1.201   6.252
 5338SOL    HW216914   5.679   1.042   6.238
 5339SOL     OW16915   5.465   1.220   3.097
 5339SOL    HW116916   5.451   1.202   3.194
 5339SOL    HW216917   5.549   1.273   3.085
 5340SOL     OW16918   5.859   3.947   1.145
 5340SOL    HW116919   5.943   3.910   1.185
 5340SOL    HW216920   5.779   3.903   1.187
 5341SOL     OW16921   3.129   4.912   5.331
 5341SOL    HW116922   3.036   4.906   5.297
 5341SOL    HW216923   3.168   5.001   5.307
 5342SOL     OW16924   5.368   6.575   4.839
 5342SOL    HW116925   5.433   6.526   4.782
 5342SOL    HW216926   5.417   6.623   4.912
 5343SOL     OW16927   4.241   3.530   5.306
 5343SOL    HW116928   4.190   3.477   5.238
 5343SOL    HW216929   4.231   3.628   5.287
 5344SOL     OW16930   0.796   1.816   0.706
 5344SOL    HW116931   0.708   1.805   0.751
 5344SOL    HW216932   0.826   1.911   0.715
 5345SOL     OW16933   5.551   6.648   0.061
 5345SOL    HW116934   5.569   6.741   0.094
 5345SOL    HW216935   5.628   6.589   0.085
 5346SOL     OW16936   3.022   6.078   3.725
 5346SOL    HW116937   3.001   5.995   3.673
 5346SOL    HW216938   3.114   6.110   3.700
 5347SOL     OW16939   0.468   3.839   2.765
 5347SOL    HW116940   0.486   3.772   2.694
 5347SOL    HW216941   0.555   3.875   2.800
 5348SOL     OW16942   0.034   1.288   6.681
 5348SOL    HW116943   7.027   1.222   6.614
 5348SOL    HW216944   0.117   1.252   6.722
 5349SOL     OW16945   2.424   3.726   0.390
 5349SOL    HW116946   2.403   3.648   0.331
 5349SOL    HW216947   2.521   3.725   0.414
 5350SOL     OW16948   2.095   0.173   5.273
 5350SOL    HW116949   2.149   0.117   5.210
 5350SOL    HW216950   2.059   0.253   5.224
 5351SOL     OW16951   0.176   5.555   2.001
 5351SOL    HW116952   0.125   5.518   1.923
 5351SOL    HW216953   0.271   5.525   1.997
 5352SOL     OW16954   2.167   4.874   2.578
 5352SOL    HW116955   2.178   4.972   2.557
 5352SOL    HW216956   2.211   4.854   2.665
 5353SOL     OW16957   3.737   5.897   4.462
 5353SOL    HW116958   3.823   5.881   4.511
 5353SOL    HW216959   3.745   5.981   4.408
 5354SOL     OW16960   1.844   4.415   0.579
 5354SOL    HW116961   1.811   4.509   0.589
 5354SOL    HW216962   1.769   4.351   0.592
 5355SOL     OW16963   6.018   4.935   3.714
 5355SOL    HW116964   6.074   4.900   3.790
 5355SOL    HW216965   6.074   4.939   3.631
 5356SOL     OW16966   6.995   3.436   2.826
 5356SOL    HW116967   6.951   3.501   2.887
 5356SOL    HW216968   6.936   3.420   2.747
 5357SOL     OW16969   3.530   5.166   0.745
 5357SOL    HW116970   3.482   5.185   0.831
 5357SOL    HW216971   3.628   5.185   0.757
 5358SOL     OW16972   4.357   2.107   0.986
 5358SOL    HW116973   4.399   2.124   1.074
 5358SOL    HW216974   4.336   2.194   0.941
 5359SOL     OW16975   2.524   1.900   6.594
 5359SOL    HW116976   2.457   1.881   6.666
 5359SOL    HW216977   2.515   1.832   6.521
 5360SOL     OW16978   4.546   5.907   3.851
 5360SOL    HW116979   4.570   5.812   3.828
 5360SOL    HW216980   4.490   5.946   3.778
 5361SOL     OW16981   2.654   6.866   4.164
 5361SOL    HW116982   2.708   6.788   4.196
 5361SOL    HW216983   2.578   6.834   4.108
 5362SOL     OW16984   6.622   5.983   2.536
 5362SOL    HW116985   6.591   5.894   2.568
 5362SOL    HW216986   6.672   6.029   2.610
 5363SOL     OW16987   6.021   5.743   5.924
 5363SOL    HW116988   5.993   5.658   5.879
 5363SOL    HW216989   6.117   5.735   5.952
 5364SOL     OW16990   6.061   6.725   1.637
 5364SOL    HW116991   6.069   6.711   1.538
 5364SOL    HW216992   6.005   6.652   1.676
 5365SOL     OW16993   3.164   3.089   2.404
 5365SOL    HW116994   3.077   3.109   2.359
 5365SOL    HW216995   3.224   3.038   2.341
 5366SOL     OW16996   6.656   6.482   1.345
 5366SOL    HW116997   6.696   6.540   1.416
 5366SOL    HW216998   6.559   6.468   1.364
 5367SOL     OW16999   0.317   0.209   1.938
 5367SOL    HW117000   0.322   0.151   1.857
 5367SOL    HW217001   0.341   0.303   1.913
 5368SOL     OW17002   6.009   6.835   2.767
 5368SOL    HW117003   6.045   6.910   2.712
 5368SOL    HW217004   5.969   6.871   2.851
 5369SOL     OW17005   2.366   6.665   1.052
 5369SOL    HW117006   2.334   6.574   1.027
 5369SOL    HW217007   2.319   6.695   1.136
 5370SOL     OW17008   4.441   3.539   0.950
 5370SOL    HW117009   4.483   3.554   0.860
 5370SOL    HW217010   4.506   3.495   1.011
 5371SOL     OW17011   0.653   4.846   5.165
 5371SOL    HW117012   0.616   4.931   5.128
 5371SOL    HW217013   0.734   4.866   5.220
 5372SOL     OW17014   0.826   6.437   2.963
 5372SOL    HW117015   0.890   6.496   3.011
 5372SOL    HW217016   0.853   6.342   2.974
 5373SOL     OW17017   4.134   6.529   5.413
 5373SOL    HW117018   4.132   6.609   5.473
 5373SOL    HW217019   4.051   6.528   5.357
 5374SOL     OW17020   2.774   5.069   0.602
 5374SOL    HW117021   2.751   4.976   0.573
 5374SOL    HW217022   2.834   5.065   0.682
 5375SOL     OW17023   0.495   5.736   5.728
 5375SOL    HW117024   0.412   5.683   5.744
 5375SOL    HW217025   0.549   5.740   5.812
 5376SOL     OW17026   0.941   2.779   1.650
 5376SOL    HW117027   0.985   2.854   1.699
 5376SOL    HW217028   0.985   2.693   1.675
 5377SOL     OW17029   0.772   0.030   2.821
 5377SOL    HW117030   0.810   6.992   2.757
 5377SOL    HW217031   0.672   0.025   2.818
 5378SOL     OW17032   6.753   6.954   2.466
 5378SOL    HW117033   6.672   6.949   2.408
 5378SOL    HW217034   6.764   0.019   2.500
 5379SOL     OW17035   1.042   3.483   5.108
 5379SOL    HW117036   1.018   3.389   5.131
 5379SOL    HW217037   1.080   3.487   5.015
 5380SOL     OW17038   3.388   6.771   1.466
 5380SOL    HW117039   3.467   6.832   1.472
 5380SOL    HW217040   3.309   6.814   1.508
 5381SOL     OW17041   6.716   6.005   1.724
 5381SOL    HW117042   6.676   6.079   1.779
 5381SOL    HW217043   6.798   6.039   1.678
 5382SOL     OW17044   2.991   2.181   2.296
 5382SOL    HW117045   2.942   2.215   2.216
 5382SOL    HW217046   3.080   2.145   2.267
 5383SOL     OW17047   1.547   2.902   4.535
 5383SOL    HW117048   1.482   2.856   4.473
 5383SOL    HW217049   1.510   2.902   4.628
 5384SOL     OW17050   5.080   6.365   4.746
 5384SOL    HW117051   5.177   6.345   4.763
 5384SOL    HW217052   5.072   6.433   4.674
 5385SOL     OW17053   4.525   3.171   5.391
 5385SOL    HW117054   4.506   3.270   5.392
 5385SOL    HW217055   4.535   3.138   5.485
 5386SOL     OW17056   5.287   2.032   3.945
 5386SOL    HW117057   5.190   2.011   3.928
 5386SOL    HW217058   5.303   2.035   4.043
 5387SOL     OW17059   2.594   6.414   2.957
 5387SOL    HW117060   2.660   6.485   2.933
 5387SOL    HW217061   2.634   6.354   3.026
 5388SOL     OW17062   1.238   0.666   2.737
 5388SOL    HW117063   1.264   0.761   2.755
 5388SOL    HW217064   1.257   0.644   2.641
 5389SOL     OW17065   3.819   1.171   4.043
 5389SOL    HW117066   3.787   1.247   3.987
 5389SOL    HW217067   3.802   1.190   4.140
 5390SOL     OW17068   5.954   4.067   3.219
 5390SOL    HW117069   6.044   4.088   3.256
 5390SOL    HW217070   5.963   4.011   3.137
 5391SOL     OW17071   2.517   1.860   0.890
 5391SOL    HW117072   2.466   1.810   0.960
 5391SOL    HW217073   2.615   1.850   0.906
 5392SOL     OW17074   5.676   3.711   0.548
 5392SOL    HW117075   5.751   3.654   0.583
 5392SOL    HW217076   5.713   3.799   0.519
 5393SOL     OW17077   4.853   0.852   4.853
 5393SOL    HW117078   4.823   0.758   4.869
 5393SOL    HW217079   4.784   0.915   4.889
 5394SOL     OW17080   1.043   5.419   0.893
 5394SOL    HW117081   1.024   5.490   0.825
 5394SOL    HW217082   0.970   5.419   0.961
 5395SOL     OW17083   5.109   0.682   1.295
 5395SOL    HW117084   5.087   0.663   1.199
 5395SOL    HW217085   5.135   0.597   1.340
 5396SOL     OW17086   5.665   4.495   1.909
 5396SOL    HW117087   5.636   4.543   1.826
 5396SOL    HW217088   5.688   4.400   1.886
 5397SOL     OW17089   6.936   1.878   1.912
 5397SOL    HW117090   6.940   1.780   1.891
 5397SOL    HW217091   7.017   1.903   1.966
 5398SOL     OW17092   3.219   2.012   4.191
 5398SOL    HW117093   3.210   2.052   4.283
 5398SOL    HW217094   3.221   2.086   4.123
 5399SOL     OW17095   2.548   6.760   6.197
 5399SOL    HW117096   2.621   6.829   6.186
 5399SOL    HW217097   2.588   6.669   6.189
 5400SOL     OW17098   3.465   3.472   0.122
 5400SOL    HW117099   3.525   3.469   0.201
 5400SOL    HW217100   3.444   3.379   0.091
 5401SOL     OW17101   5.906   4.121   2.233
 5401SOL    HW117102   5.952   4.033   2.222
 5401SOL    HW217103   5.935   4.183   2.160
 5402SOL     OW17104   3.143   6.386   1.091
 5402SOL    HW117105   3.068   6.417   1.149
 5402SOL    HW217106   3.227   6.381   1.145
 5403SOL     OW17107   5.184   3.263   6.237
 5403SOL    HW117108   5.258   3.243   6.302
 5403SOL    HW217109   5.166   3.361   6.236
 5404SOL     OW17110   0.849   0.303   1.770
 5404SOL    HW117111   0.818   0.375   1.709
 5404SOL    HW217112   0.771   0.268   1.822
 5405SOL     OW17113   5.231   4.850   6.473
 5405SOL    HW117114   5.246   4.833   6.570
 5405SOL    HW217115   5.284   4.931   6.445
 5406SOL     OW17116   1.988   0.772   5.260
 5406SOL    HW117117   1.982   0.871   5.265
 5406SOL    HW217118   1.934   0.739   5.182
 5407SOL     OW17119   3.122   1.760   1.091
 5407SOL    HW117120   3.055   1.779   1.019
 5407SOL    HW217121   3.154   1.846   1.130
 5408SOL     OW17122   4.368   0.739   4.880
 5408SOL    HW117123   4.364   0.691   4.793
 5408SOL    HW217124   4.409   0.680   4.949
 5409SOL     OW17125   6.348   1.831   2.842
 5409SOL    HW117126   6.265   1.881   2.869
 5409SOL    HW217127   6.421   1.851   2.906
 5410SOL     OW17128   0.920   2.139   6.370
 5410SOL    HW117129   0.895   2.054   6.323
 5410SOL    HW217130   0.996   2.120   6.432
 5411SOL     OW17131   5.598   5.556   6.163
 5411SOL    HW117132   5.592   5.475   6.222
 5411SOL    HW217133   5.547   5.631   6.205
 5412SOL     OW17134   2.942   1.354   6.526
 5412SOL    HW117135   2.859   1.298   6.526
 5412SOL    HW217136   2.924   1.440   6.477
 5413SOL     OW17137   0.879   0.053   6.528
 5413SOL    HW117138   0.897   0.099   6.615
 5413SOL    HW217139   0.799   0.094   6.484
 5414SOL     OW17140   6.343   4.898   4.866
 5414SOL    HW117141   6.419   4.962   4.857
 5414SOL    HW217142   6.340   4.864   4.960
 5415SOL     OW17143   2.303   6.747   1.340
 5415SOL    HW117144   2.304   6.826   1.401
 5415SOL    HW217145   2.215   6.742   1.293
 5416SOL     OW17146   2.884   4.865   5.181
 5416SOL    HW117147   2.876   4.777   5.134
 5416SOL    HW217148   2.816   4.929   5.144
 5417SOL     OW17149   4.278   6.742   4.956
 5417SOL    HW117150   4.224   6.719   4.876
 5417SOL    HW217151   4.249   6.684   5.033
 5418SOL     OW17152   5.540   6.398   4.699
 5418SOL    HW117153   5.513   6.303   4.684
 5418SOL    HW217154   5.640   6.404   4.698
 5419SOL     OW17155   3.286   6.149   1.004
 5419SOL    HW117156   3.229   6.222   1.040
 5419SOL    HW217157   3.327   6.098   1.079
 5420SOL     OW17158   1.713   1.789   1.388
 5420SOL    HW117159   1.719   1.825   1.482
 5420SOL    HW217160   1.782   1.833   1.331
 5421SOL     OW17161   3.279   5.070   1.845
 5421SOL    HW117162   3.372   5.035   1.837
 5421SOL    HW217163   3.218   4.998   1.878
 5422SOL     OW17164   0.554   4.354   4.404
 5422SOL    HW117165   0.517   4.268   4.440
 5422SOL    HW217166   0.568   4.418   4.479
 5423SOL     OW17167   5.512   5.265   6.762
 5423SOL    HW117168   5.493   5.187   6.823
 5423SOL    HW217169   5.429   5.290   6.713
 5424SOL     OW17170   5.685   3.908   4.504
 5424SOL    HW117171   5.701   4.006   4.490
 5424SOL    HW217172   5.587   3.889   4.497
 5425SOL     OW17173   5.619   1.747   5.206
 5425SOL    HW117174   5.523   1.753   5.178
 5425SOL    HW217175   5.631   1.672   5.271
 5426SOL     OW17176   5.883   5.908   2.635
 5426SOL    HW117177   5.966   5.891   2.584
 5426SOL    HW217178   5.902   5.973   2.709
 5427SOL     OW17179   5.101   3.262   0.155
 5427SOL    HW117180   5.137   3.173   0.126
 5427SOL    HW217181   5.132   3.332   0.091
 5428SOL     OW17182   5.675   6.653   1.630
 5428SOL    HW117183   5.579   6.641   1.655
 5428SOL    HW217184   5.707   6.742   1.661
 5429SOL     OW17185   1.915   0.357   5.663
 5429SOL    HW117186   1.904   0.452   5.633
 5429SOL    HW217187   1.873   0.296   5.596
 5430SOL     OW17188   1.634   2.859   5.567
 5430SOL    HW117189   1.718   2.809   5.546
 5430SOL    HW217190   1.656   2.953   5.591
 5431SOL     OW17191   2.983   3.743   6.199
 5431SOL    HW117192   2.956   3.698   6.285
 5431SOL    HW217193   2.953   3.839   6.202
 5432SOL     OW17194   3.725   5.377   6.604
 5432SOL    HW117195   3.769   5.399   6.517
 5432SOL    HW217196   3.645   5.435   6.616
 5433SOL     OW17197   0.839   0.955   2.095
 5433SOL    HW117198   0.756   0.973   2.149
 5433SOL    HW217199   0.821   0.977   1.999
 5434SOL     OW17200   4.039   1.044   4.764
 5434SOL    HW117201   4.011   1.116   4.828
 5434SOL    HW217202   4.117   1.075   4.710
 5435SOL     OW17203   6.593   3.517   0.759
 5435SOL    HW117204   6.561   3.580   0.688
 5435SOL    HW217205   6.581   3.423   0.728
 5436SOL     OW17206   5.795   4.562   3.883
 5436SOL    HW117207   5.713   4.505   3.877
 5436SOL    HW217208   5.819   4.596   3.793
 5437SOL     OW17209   3.191   4.961   4.538
 5437SOL    HW117210   3.135   5.010   4.471
 5437SOL    HW217211   3.162   4.987   4.630
 5438SOL     OW17212   5.845   4.137   2.494
 5438SOL    HW117213   5.832   4.131   2.395
 5438SOL    HW217214   5.932   4.180   2.514
 5439SOL     OW17215   0.501   3.318   0.135
 5439SOL    HW117216   0.536   3.229   0.107
 5439SOL    HW217217   0.576   3.374   0.170
 5440SOL     OW17218   6.418   6.483   3.392
 5440SOL    HW117219   6.443   6.576   3.362
 5440SOL    HW217220   6.492   6.444   3.446
 5441SOL     OW17221   4.862   3.384   3.678
 5441SOL    HW117222   4.847   3.385   3.777
 5441SOL    HW217223   4.860   3.290   3.645
 5442SOL     OW17224   3.498   0.594   3.163
 5442SOL    HW117225   3.577   0.598   3.224
 5442SOL    HW217226   3.458   0.686   3.153
 5443SOL     OW17227   3.545   6.092   3.998
 5443SOL    HW117228   3.504   6.005   3.971
 5443SOL    HW217229   3.633   6.074   4.043
 5444SOL     OW17230   0.208   0.410   3.690
 5444SOL    HW117231   0.212   0.314   3.718
 5444SOL    HW217232   0.261   0.466   3.755
 5445SOL     OW17233   5.722   4.272   3.814
 5445SOL    HW117234   5.742   4.192   3.870
 5445SOL    HW217235   5.643   4.320   3.852
 5446SOL     OW17236   5.966   5.510   3.964
 5446SOL    HW117237   6.026   5.514   4.043
 5446SOL    HW217238   5.933   5.416   3.952
 5447SOL     OW17239   1.409   1.394   0.574
 5447SOL    HW117240   1.329   1.365   0.626
 5447SOL    HW217241   1.403   1.493   0.557
 5448SOL     OW17242   4.336   4.607   3.990
 5448SOL    HW117243   4.291   4.658   3.916
 5448SOL    HW217244   4.275   4.535   4.022
 5449SOL     OW17245   2.297   2.012   0.760
 5449SOL    HW117246   2.344   2.079   0.703
 5449SOL    HW217247   2.363   1.944   0.794
 5450SOL     OW17248   3.240   0.108   1.368
 5450SOL    HW117249   3.216   0.085   1.462
 5450SOL    HW217250   3.281   0.199   1.365
 5451SOL     OW17251   1.881   6.227   3.514
 5451SOL    HW117252   1.966   6.268   3.481
 5451SOL    HW217253   1.814   6.225   3.441
 5452SOL     OW17254   2.703   4.489   1.131
 5452SOL    HW117255   2.640   4.507   1.056
 5452SOL    HW217256   2.651   4.478   1.216
 5453SOL     OW17257   5.163   4.115   2.211
 5453SOL    HW117258   5.184   4.059   2.291
 5453SOL    HW217259   5.083   4.172   2.231
 5454SOL     OW17260   5.769   5.781   0.650
 5454SOL    HW117261   5.718   5.866   0.634
 5454SOL    HW217262   5.710   5.702   0.633
 5455SOL     OW17263   0.142   2.318   3.566
 5455SOL    HW117264   0.171   2.414   3.570
 5455SOL    HW217265   0.059   2.311   3.512
 5456SOL     OW17266   3.398   1.879   6.684
 5456SOL    HW117267   3.436   1.788   6.668
 5456SOL    HW217268   3.456   1.928   6.750
 5457SOL     OW17269   6.531   2.123   0.934
 5457SOL    HW117270   6.480   2.206   0.909
 5457SOL    HW217271   6.478   2.043   0.908
 5458SOL     OW17272   6.700   5.413   0.086
 5458SOL    HW117273   6.694   5.431   7.017
 5458SOL    HW217274   6.762   5.336   0.102
 5459SOL     OW17275   2.312   4.560   5.740
 5459SOL    HW117276   2.387   4.525   5.796
 5459SOL    HW217277   2.307   4.509   5.655
 5460SOL     OW17278   2.835   0.188   2.848
 5460SOL    HW117279   2.788   0.264   2.803
 5460SOL    HW217280   2.931   0.212   2.863
 5461SOL     OW17281   0.370   6.804   4.341
 5461SOL    HW117282   0.424   6.826   4.422
 5461SOL    HW217283   0.419   6.736   4.286
 5462SOL     OW17284   5.529   6.005   0.259
 5462SOL    HW117285   5.595   6.010   0.185
 5462SOL    HW217286   5.524   5.911   0.293
 5463SOL     OW17287   0.351   1.929   0.187
 5463SOL    HW117288   0.307   1.854   0.236
 5463SOL    HW217289   0.354   2.010   0.245
 5464SOL     OW17290   6.109   6.718   4.899
 5464SOL    HW117291   6.048   6.686   4.971
 5464SOL    HW217292   6.126   6.816   4.910
 5465SOL     OW17293   5.991   0.814   3.865
 5465SOL    HW117294   6.032   0.737   3.817
 5465SOL    HW217295   5.911   0.783   3.917
 5466SOL     OW17296   5.015   2.779   5.881
 5466SOL    HW117297   5.025   2.828   5.794
 5466SOL    HW217298   5.088   2.711   5.890
 5467SOL     OW17299   6.226   3.612   3.115
 5467SOL    HW117300   6.280   3.544   3.164
 5467SOL    HW217301   6.159   3.652   3.177
 5468SOL     OW17302   6.425   1.776   5.259
 5468SOL    HW117303   6.341   1.740   5.299
 5468SOL    HW217304   6.432   1.746   5.164
 5469SOL     OW17305   3.212   6.209   5.370
 5469SOL    HW117306   3.233   6.170   5.280
 5469SOL    HW217307   3.260   6.159   5.441
 5470SOL     OW17308   3.493   5.395   3.933
 5470SOL    HW117309   3.586   5.361   3.943
 5470SOL    HW217310   3.482   5.478   3.987
 5471SOL     OW17311   6.588   0.758   2.999
 5471SOL    HW117312   6.666   0.775   3.060
 5471SOL    HW217313   6.535   0.842   2.988
 5472SOL     OW17314   2.891   3.582   6.408
 5472SOL    HW117315   2.950   3.576   6.488
 5472SOL    HW217316   2.839   3.497   6.398
 5473SOL     OW17317   1.951   3.319   0.680
 5473SOL    HW117318   1.967   3.378   0.600
 5473SOL    HW217319   1.957   3.374   0.763
 5474SOL     OW17320   1.063   4.263   4.838
 5474SOL    HW117321   1.063   4.185   4.901
 5474SOL    HW217322   0.976   4.312   4.845
 5475SOL     OW17323   1.397   1.939   0.461
 5475SOL    HW117324   1.398   1.874   0.536
 5475SOL    HW217325   1.315   1.997   0.467
 5476SOL     OW17326   2.041   4.647   5.168
 5476SOL    HW117327   2.140   4.636   5.181
 5476SOL    HW217328   1.993   4.597   5.239
 5477SOL     OW17329   1.839   4.103   2.611
 5477SOL    HW117330   1.846   4.018   2.664
 5477SOL    HW217331   1.838   4.181   2.674
 5478SOL     OW17332   4.025   0.144   5.789
 5478SOL    HW117333   4.100   0.079   5.777
 5478SOL    HW217334   3.960   0.108   5.855
 5479SOL     OW17335   5.083   2.136   4.725
 5479SOL    HW117336   5.012   2.073   4.695
 5479SOL    HW217337   5.168   2.117   4.676
 5480SOL     OW17338   5.496   5.598   4.054
 5480SOL    HW117339   5.497   5.627   4.150
 5480SOL    HW217340   5.588   5.610   4.015
 5481SOL     OW17341   4.610   1.491   4.498
 5481SOL    HW117342   4.706   1.464   4.498
 5481SOL    HW217343   4.576   1.492   4.403
 5482SOL     OW17344   3.785   3.506   2.372
 5482SOL    HW117345   3.807   3.543   2.282
 5482SOL    HW217346   3.856   3.441   2.400
 5483SOL     OW17347   0.692   2.270   5.164
 5483SOL    HW117348   0.690   2.221   5.251
 5483SOL    HW217349   0.651   2.213   5.092
 5484SOL     OW17350   4.709   0.381   3.716
 5484SOL    HW117351   4.796   0.427   3.699
 5484SOL    HW217352   4.645   0.402   3.641
 5485SOL     OW17353   3.435   6.996   5.334
 5485SOL    HW117354   3.403   6.905   5.360
 5485SOL    HW217355   3.415   7.013   5.237
 5486SOL     OW17356   1.914   5.448   5.345
 5486SOL    HW117357   1.994   5.448   5.405
 5486SOL    HW217358   1.911   5.362   5.294
 5487SOL     OW17359   5.005   3.173   6.411
 5487SOL    HW117360   5.059   3.158   6.494
 5487SOL    HW217361   5.062   3.215   6.341
 5488SOL     OW17362   5.741   0.665   1.426
 5488SOL    HW117363   5.667   0.614   1.470
 5488SOL    HW217364   5.786   0.722   1.495
 5489SOL     OW17365   1.632   4.815   1.189
 5489SOL    HW117366   1.676   4.899   1.158
 5489SOL    HW217367   1.533   4.822   1.175
 5490SOL     OW17368   3.912   7.015   0.060
 5490SOL    HW117369   3.921   6.930   0.008
 5490SOL    HW217370   3.832   7.011   0.119
 5491SOL     OW17371   2.023   3.534   0.844
 5491SOL    HW117372   2.051   3.468   0.913
 5491SOL    HW217373   2.104   3.581   0.808
 5492SOL     OW17374   0.601   2.110   6.203
 5492SOL    HW117375   0.645   2.045   6.140
 5492SOL    HW217376   0.638   2.098   6.295
 5493SOL     OW17377   3.858   4.061   4.461
 5493SOL    HW117378   3.826   4.089   4.370
 5493SOL    HW217379   3.925   3.988   4.451
 5494SOL     OW17380   6.466   2.436   6.223
 5494SOL    HW117381   6.445   2.459   6.128
 5494SOL    HW217382   6.545   2.375   6.227
 5495SOL     OW17383   3.996   1.979   1.398
 5495SOL    HW117384   3.904   1.980   1.359
 5495SOL    HW217385   4.023   1.885   1.416
 5496SOL     OW17386   2.530   0.212   3.172
 5496SOL    HW117387   2.505   0.120   3.139
 5496SOL    HW217388   2.616   0.240   3.130
 5497SOL     OW17389   0.226   1.838   3.770
 5497SOL    HW117390   0.308   1.830   3.714
 5497SOL    HW217391   0.242   1.907   3.841
 5498SOL     OW17392   6.097   6.370   0.953
 5498SOL    HW117393   6.129   6.451   1.003
 5498SOL    HW217394   6.073   6.298   1.018
 5499SOL     OW17395   0.148   0.687   4.822
 5499SOL    HW117396   0.232   0.734   4.795
 5499SOL    HW217397   0.109   0.640   4.742
 5500SOL     OW17398   1.612   0.509   0.352
 5500SOL    HW117399   1.675   0.436   0.379
 5500SOL    HW217400   1.536   0.512   0.417
 5501SOL     OW17401   3.989   6.488   0.352
 5501SOL    HW117402   3.911   6.517   0.296
 5501SOL    HW217403   3.963   6.490   0.449
 5502SOL     OW17404   5.699   3.874   7.024
 5502SOL    HW117405   5.655   3.903   0.081
 5502SOL    HW217406   5.676   3.778   7.006
 5503SOL     OW17407   6.914   5.649   2.615
 5503SOL    HW117408   7.013   5.636   2.622
 5503SOL    HW217409   6.892   5.745   2.632
 5504SOL     OW17410   4.026   0.971   5.256
 5504SOL    HW117411   4.118   0.982   5.220
 5504SOL    HW217412   4.022   0.889   5.313
 5505SOL     OW17413   1.916   5.321   4.208
 5505SOL    HW117414   1.893   5.225   4.189
 5505SOL    HW217415   1.892   5.377   4.129
 5506SOL     OW17416   1.250   2.243   6.045
 5506SOL    HW117417   1.345   2.267   6.025
 5506SOL    HW217418   1.245   2.152   6.084
 5507SOL     OW17419   2.663   0.351   3.814
 5507SOL    HW117420   2.756   0.348   3.778
 5507SOL    HW217421   2.661   0.310   3.905
 5508SOL     OW17422   0.977   0.559   5.995
 5508SOL    HW117423   1.009   0.495   5.925
 5508SOL    HW217424   0.994   0.653   5.964
 5509SOL     OW17425   0.791   6.432   0.150
 5509SOL    HW117426   0.796   6.394   0.242
 5509SOL    HW217427   0.793   6.532   0.155
 5510SOL     OW17428   5.139   5.643   0.988
 5510SOL    HW117429   5.227   5.683   0.962
 5510SOL    HW217430   5.068   5.714   0.984
 5511SOL     OW17431   2.015   1.380   4.135
 5511SOL    HW117432   2.045   1.366   4.041
 5511SOL    HW217433   2.061   1.460   4.174
 5512SOL     OW17434   5.916   1.964   1.450
 5512SOL    HW117435   5.924   1.873   1.409
 5512SOL    HW217436   6.004   1.988   1.493
 5513SOL     OW17437   4.440   5.230   0.038
 5513SOL    HW117438   4.391   5.316   0.047
 5513SOL    HW217439   4.375   5.155   0.030
 5514SOL     OW17440   3.902   6.880   3.493
 5514SOL    HW117441   3.976   6.947   3.502
 5514SOL    HW217442   3.934   6.790   3.524
 5515SOL     OW17443   0.450   5.000   1.194
 5515SOL    HW117444   0.360   4.958   1.180
 5515SOL    HW217445   0.459   5.079   1.134
 5516SOL     OW17446   1.957   4.069   6.718
 5516SOL    HW117447   2.011   4.135   6.666
 5516SOL    HW217448   2.004   3.980   6.716
 5517SOL     OW17449   1.785   3.499   1.733
 5517SOL    HW117450   1.864   3.437   1.733
 5517SOL    HW217451   1.816   3.591   1.757
 5518SOL     OW17452   6.445   6.111   6.497
 5518SOL    HW117453   6.345   6.116   6.492
 5518SOL    HW217454   6.480   6.188   6.551
 5519SOL     OW17455   5.352   3.064   2.766
 5519SOL    HW117456   5.322   3.016   2.849
 5519SOL    HW217457   5.330   3.161   2.775
 5520SOL     OW17458   6.227   5.873   1.789
 5520SOL    HW117459   6.159   5.891   1.860
 5520SOL    HW217460   6.262   5.960   1.755
 5521SOL     OW17461   5.147   0.096   1.643
 5521SOL    HW117462   5.068   0.138   1.688
 5521SOL    HW217463   5.127   7.029   1.624
 5522SOL     OW17464   0.138   5.421   0.272
 5522SOL    HW117465   0.074   5.460   0.205
 5522SOL    HW217466   0.231   5.426   0.236
 5523SOL     OW17467   3.457   0.073   2.417
 5523SOL    HW117468   3.536   0.134   2.431
 5523SOL    HW217469   3.476   0.012   2.341
 5524SOL     OW17470   5.146   5.449   5.135
 5524SOL    HW117471   5.152   5.394   5.052
 5524SOL    HW217472   5.053   5.484   5.145
 5525SOL     OW17473   0.344   2.452   0.726
 5525SOL    HW117474   0.250   2.452   0.692
 5525SOL    HW217475   0.344   2.454   0.826
 5526SOL     OW17476   4.881   4.965   4.315
 5526SOL    HW117477   4.889   5.036   4.245
 5526SOL    HW217478   4.789   4.925   4.313
 5527SOL     OW17479   5.648   3.873   3.787
 5527SOL    HW117480   5.653   3.782   3.746
 5527SOL    HW217481   5.710   3.879   3.865
 5528SOL     OW17482   0.866   1.426   6.764
 5528SOL    HW117483   0.910   1.516   6.772
 5528SOL    HW217484   0.862   1.383   6.854
 5529SOL     OW17485   2.260   0.445   2.861
 5529SOL    HW117486   2.228   0.493   2.779
 5529SOL    HW217487   2.268   0.510   2.937
 5530SOL     OW17488   6.141   2.453   2.109
 5530SOL    HW117489   6.092   2.366   2.104
 5530SOL    HW217490   6.234   2.437   2.142
 5531SOL     OW17491   3.217   3.191   1.983
 5531SOL    HW117492   3.304   3.163   1.941
 5531SOL    HW217493   3.228   3.281   2.025
 5532SOL     OW17494   1.005   2.636   0.594
 5532SOL    HW117495   0.923   2.633   0.537
 5532SOL    HW217496   1.021   2.546   0.634
 5533SOL     OW17497   3.616   1.328   3.238
 5533SOL    HW117498   3.554   1.287   3.305
 5533SOL    HW217499   3.567   1.341   3.152
 5534SOL     OW17500   1.024   2.138   5.916
 5534SOL    HW117501   1.031   2.038   5.913
 5534SOL    HW217502   1.109   2.175   5.953
 5535SOL     OW17503   0.246   2.894   3.567
 5535SOL    HW117504   0.312   2.819   3.576
 5535SOL    HW217505   0.157   2.857   3.542
 5536SOL     OW17506   2.805   1.653   4.271
 5536SOL    HW117507   2.711   1.679   4.293
 5536SOL    HW217508   2.815   1.646   4.171
 5537SOL     OW17509   2.619   0.970   2.557
 5537SOL    HW117510   2.674   0.893   2.526
 5537SOL    HW217511   2.647   0.996   2.650
 5538SOL     OW17512   2.512   6.403   5.587
 5538SOL    HW117513   2.459   6.320   5.601
 5538SOL    HW217514   2.458   6.482   5.613
 5539SOL     OW17515   1.247   3.192   1.129
 5539SOL    HW117516   1.203   3.104   1.113
 5539SOL    HW217517   1.293   3.222   1.045
 5540SOL     OW17518   5.727   3.940   3.371
 5540SOL    HW117519   5.783   3.977   3.297
 5540SOL    HW217520   5.763   3.973   3.459
 5541SOL     OW17521   6.041   0.437   6.266
 5541SOL    HW117522   6.132   0.402   6.286
 5541SOL    HW217523   5.974   0.363   6.275
 5542SOL     OW17524   5.519   4.516   5.826
 5542SOL    HW117525   5.518   4.615   5.840
 5542SOL    HW217526   5.432   4.487   5.787
 5543SOL     OW17527   3.501   5.244   5.867
 5543SOL    HW117528   3.420   5.243   5.809
 5543SOL    HW217529   3.475   5.229   5.962
 5544SOL     OW17530   5.886   5.983   5.886
 5544SOL    HW117531   5.856   6.017   5.975
 5544SOL    HW217532   5.940   5.900   5.897
 5545SOL     OW17533   3.706   1.634   1.840
 5545SOL    HW117534   3.648   1.625   1.921
 5545SOL    HW217535   3.661   1.693   1.773
 5546SOL     OW17536   1.346   5.860   4.638
 5546SOL    HW117537   1.328   5.872   4.541
 5546SOL    HW217538   1.386   5.769   4.653
 5547SOL     OW17539   2.823   0.177   4.477
 5547SOL    HW117540   2.801   0.208   4.569
 5547SOL    HW217541   2.815   0.077   4.472
 5548SOL     OW17542   5.343   3.737   6.031
 5548SOL    HW117543   5.331   3.836   6.023
 5548SOL    HW217544   5.417   3.718   6.095
 5549SOL     OW17545   4.198   3.767   6.883
 5549SOL    HW117546   4.152   3.679   6.879
 5549SOL    HW217547   4.130   3.841   6.883
 5550SOL     OW17548   2.378   4.413   1.963
 5550SOL    HW117549   2.405   4.390   1.869
 5550SOL    HW217550   2.432   4.490   1.995
 5551SOL     OW17551   2.108   0.172   2.968
 5551SOL    HW117552   2.149   0.244   2.912
 5551SOL    HW217553   2.011   0.191   2.982
 5552SOL     OW17554   0.102   0.350   0.062
 5552SOL    HW117555   0.039   0.317   0.132
 5552SOL    HW217556   0.050   0.393   7.016
 5553SOL     OW17557   5.338   5.957   6.959
 5553SOL    HW117558   5.259   5.984   6.904
 5553SOL    HW217559   5.345   5.858   6.961
 5554SOL     OW17560   4.189   1.789   5.579
 5554SOL    HW117561   4.195   1.802   5.480
 5554SOL    HW217562   4.101   1.823   5.612
 5555SOL     OW17563   2.179   4.500   3.811
 5555SOL    HW117564   2.261   4.444   3.822
 5555SOL    HW217565   2.199   4.578   3.752
 5556SOL     OW17566   6.416   1.788   3.474
 5556SOL    HW117567   6.389   1.874   3.430
 5556SOL    HW217568   6.334   1.734   3.494
 5557SOL     OW17569   3.475   6.778   2.927
 5557SOL    HW117570   3.419   6.717   2.871
 5557SOL    HW217571   3.571   6.768   2.902
 5558SOL     OW17572   4.775   3.315   6.395
 5558SOL    HW117573   4.709   3.317   6.321
 5558SOL    HW217574   4.845   3.245   6.377
 5559SOL     OW17575   2.811   0.784   2.471
 5559SOL    HW117576   2.767   0.795   2.383
 5559SOL    HW217577   2.827   0.687   2.489
 5560SOL     OW17578   1.006   6.942   3.259
 5560SOL    HW117579   1.002   7.002   3.179
 5560SOL    HW217580   1.101   6.922   3.280
 5561SOL     OW17581   1.547   2.381   4.067
 5561SOL    HW117582   1.537   2.301   4.007
 5561SOL    HW217583   1.459   2.429   4.073
 5562SOL     OW17584   3.299   2.153   0.392
 5562SOL    HW117585   3.301   2.068   0.446
 5562SOL    HW217586   3.210   2.198   0.405
 5563SOL     OW17587   4.117   5.400   2.296
 5563SOL    HW117588   4.140   5.385   2.200
 5563SOL    HW217589   4.170   5.478   2.331
 5564SOL     OW17590   4.821   1.005   1.913
 5564SOL    HW117591   4.794   0.914   1.944
 5564SOL    HW217592   4.740   1.061   1.899
 5565SOL     OW17593   5.001   1.388   6.325
 5565SOL    HW117594   4.969   1.475   6.288
 5565SOL    HW217595   4.941   1.315   6.294
 5566SOL     OW17596   2.106   5.496   6.967
 5566SOL    HW117597   2.023   5.543   6.997
 5566SOL    HW217598   2.174   5.564   6.939
 5567SOL     OW17599   0.433   4.085   1.539
 5567SOL    HW117600   0.342   4.122   1.555
 5567SOL    HW217601   0.434   3.987   1.561
 5568SOL     OW17602   4.109   2.141   3.425
 5568SOL    HW117603   4.205   2.115   3.418
 5568SOL    HW217604   4.094   2.229   3.380
 5569SOL     OW17605   1.911   1.341   2.570
 5569SOL    HW117606   1.954   1.252   2.580
 5569SOL    HW217607   1.814   1.334   2.593
 5570SOL     OW17608   5.667   4.466   5.218
 5570SOL    HW117609   5.653   4.428   5.126
 5570SOL    HW217610   5.681   4.565   5.211
 5571SOL     OW17611   0.178   5.980   0.671
 5571SOL    HW117612   0.225   6.068   0.676
 5571SOL    HW217613   0.085   5.991   0.708
 5572SOL     OW17614   1.183   2.674   4.999
 5572SOL    HW117615   1.121   2.695   5.074
 5572SOL    HW217616   1.131   2.656   4.916
 5573SOL     OW17617   1.756   3.528   6.509
 5573SOL    HW117618   1.718   3.437   6.524
 5573SOL    HW217619   1.852   3.529   6.535
 5574SOL     OW17620   5.929   1.841   3.766
 5574SOL    HW117621   5.959   1.934   3.744
 5574SOL    HW217622   6.007   1.789   3.802
 5575SOL     OW17623   6.788   1.229   0.800
 5575SOL    HW117624   6.701   1.180   0.809
 5575SOL    HW217625   6.839   1.222   0.886
 5576SOL     OW17626   1.159   5.985   2.253
 5576SOL    HW117627   1.154   5.916   2.182
 5576SOL    HW217628   1.073   6.035   2.258
 5577SOL     OW17629   2.644   2.819   5.495
 5577SOL    HW117630   2.556   2.776   5.475
 5577SOL    HW217631   2.642   2.915   5.467
 5578SOL     OW17632   4.181   4.332   0.278
 5578SOL    HW117633   4.134   4.408   0.322
 5578SOL    HW217634   4.166   4.248   0.330
 5579SOL     OW17635   0.348   3.770   6.307
 5579SOL    HW117636   0.422   3.837   6.311
 5579SOL    HW217637   0.358   3.713   6.226
 5580SOL     OW17638   4.781   3.055   5.806
 5580SOL    HW117639   4.734   3.062   5.718
 5580SOL    HW217640   4.880   3.055   5.792
 5581SOL     OW17641   2.936   6.585   1.858
 5581SOL    HW117642   2.888   6.647   1.796
 5581SOL    HW217643   3.018   6.549   1.813
 5582SOL     OW17644   3.860   3.217   4.064
 5582SOL    HW117645   3.904   3.205   4.153
 5582SOL    HW217646   3.799   3.140   4.047
 5583SOL     OW17647   4.321   0.524   3.056
 5583SOL    HW117648   4.285   0.561   3.142
 5583SOL    HW217649   4.254   0.537   2.983
 5584SOL     OW17650   5.341   4.259   3.768
 5584SOL    HW117651   5.321   4.240   3.671
 5584SOL    HW217652   5.255   4.255   3.820
 5585SOL     OW17653   4.425   6.587   4.114
 5585SOL    HW117654   4.331   6.561   4.137
 5585SOL    HW217655   4.447   6.674   4.157
 5586SOL     OW17656   0.100   2.298   6.887
 5586SOL    HW117657   0.176   2.364   6.888
 5586SOL    HW217658   0.111   2.234   6.963
 5587SOL     OW17659   3.976   6.364   2.396
 5587SOL    HW117660   3.989   6.459   2.424
 5587SOL    HW217661   3.884   6.352   2.359
 5588SOL     OW17662   1.548   6.875   3.063
 5588SOL    HW117663   1.637   6.860   3.019
 5588SOL    HW217664   1.528   6.973   3.064
 5589SOL     OW17665   5.857   2.244   6.322
 5589SOL    HW117666   5.931   2.187   6.355
 5589SOL    HW217667   5.882   2.341   6.332
 5590SOL     OW17668   6.369   6.093   2.806
 5590SOL    HW117669   6.466   6.119   2.809
 5590SOL    HW217670   6.346   6.042   2.889
 5591SOL     OW17671   6.047   0.638   6.434
 5591SOL    HW117672   6.014   0.593   6.517
 5591SOL    HW217673   6.049   0.572   6.359
 5592SOL     OW17674   0.691   4.238   2.386
 5592SOL    HW117675   0.679   4.318   2.327
 5592SOL    HW217676   0.707   4.157   2.329
 5593SOL     OW17677   6.906   2.238   6.102
 5593SOL    HW117678   6.827   2.222   6.043
 5593SOL    HW217679   6.989   2.209   6.055
 5594SOL     OW17680   2.784   1.095   0.166
 5594SOL    HW117681   2.814   1.190   0.181
 5594SOL    HW217682   2.815   1.038   0.243
 5595SOL     OW17683   5.880   0.366   5.444
 5595SOL    HW117684   5.825   0.414   5.512
 5595SOL    HW217685   5.960   0.421   5.421
 5596SOL     OW17686   5.307   0.091   2.929
 5596SOL    HW117687   5.290   0.109   2.832
 5596SOL    HW217688   5.404   0.103   2.948
 5597SOL     OW17689   6.550   1.481   5.347
 5597SOL    HW117690   6.573   1.555   5.410
 5597SOL    HW217691   6.561   1.514   5.253
 5598SOL     OW17692   6.037   2.678   4.416
 5598SOL    HW117693   6.032   2.623   4.499
 5598SOL    HW217694   6.006   2.624   4.338
 5599SOL     OW17695   0.220   3.042   2.106
 5599SOL    HW117696   0.223   3.040   2.006
 5599SOL    HW217697   0.179   3.127   2.137
 5600SOL     OW17698   2.127   0.293   1.968
 5600SOL    HW117699   2.052   0.290   2.034
 5600SOL    HW217700   2.136   0.385   1.931
 5601SOL     OW17701   3.291   1.526   6.469
 5601SOL    HW117702   3.373   1.471   6.453
 5601SOL    HW217703   3.277   1.587   6.390
 5602SOL     OW17704   0.544   0.314   2.499
 5602SOL    HW117705   0.562   0.311   2.597
 5602SOL    HW217706   0.476   0.383   2.478
 5603SOL     OW17707   5.615   2.118   6.294
 5603SOL    HW117708   5.649   2.042   6.350
 5603SOL    HW217709   5.691   2.177   6.269
 5604SOL     OW17710   7.004   2.194   5.426
 5604SOL    HW117711   6.941   2.179   5.349
 5604SOL    HW217712   0.069   2.184   5.395
 5605SOL     OW17713   1.654   0.100   4.621
 5605SOL    HW117714   1.664   0.002   4.609
 5605SOL    HW217715   1.622   0.119   4.714
 5606SOL     OW17716   5.801   0.898   0.943
 5606SOL    HW117717   5.790   0.835   1.020
 5606SOL    HW217718   5.771   0.990   0.970
 5607SOL     OW17719   5.738   1.794   4.045
 5607SOL    HW117720   5.763   1.700   4.067
 5607SOL    HW217721   5.808   1.834   3.986
 5608SOL     OW17722   6.243   1.577   2.878
 5608SOL    HW117723   6.177   1.533   2.817
 5608SOL    HW217724   6.242   1.676   2.862
 5609SOL     OW17725   4.755   6.248   1.263
 5609SOL    HW117726   4.699   6.209   1.189
 5609SOL    HW217727   4.696   6.299   1.326
 5610SOL     OW17728   5.317   4.080   1.554
 5610SOL    HW117729   5.292   4.008   1.490
 5610SOL    HW217730   5.285   4.168   1.520
 5611SOL     OW17731   1.165   4.923   2.614
 5611SOL    HW117732   1.133   4.889   2.525
 5611SOL    HW217733   1.185   5.021   2.607
 5612SOL     OW17734   3.961   3.508   0.289
 5612SOL    HW117735   3.923   3.577   0.351
 5612SOL    HW217736   4.061   3.508   0.297
 5613SOL     OW17737   6.065   5.150   4.957
 5613SOL    HW117738   6.133   5.124   5.025
 5613SOL    HW217739   6.052   5.076   4.892
 5614SOL     OW17740   5.232   3.630   4.936
 5614SOL    HW117741   5.273   3.587   5.017
 5614SOL    HW217742   5.247   3.729   4.939
 5615SOL     OW17743   6.467   1.533   4.073
 5615SOL    HW117744   6.549   1.586   4.052
 5615SOL    HW217745   6.387   1.592   4.067
 5616SOL     OW17746   2.048   3.017   4.395
 5616SOL    HW117747   2.010   3.013   4.488
 5616SOL    HW217748   1.979   2.984   4.330
 5617SOL     OW17749   1.418   3.959   5.182
 5617SOL    HW117750   1.382   3.895   5.250
 5617SOL    HW217751   1.451   3.908   5.102
 5618SOL     OW17752   6.713   4.763   3.536
 5618SOL    HW117753   6.701   4.851   3.490
 5618SOL    HW217754   6.780   4.708   3.485
 5619SOL     OW17755   3.296   4.007   3.590
 5619SOL    HW117756   3.357   4.075   3.630
 5619SOL    HW217757   3.300   3.923   3.644
 5620SOL     OW17758   4.700   3.716   6.557
 5620SOL    HW117759   4.685   3.806   6.598
 5620SOL    HW217760   4.657   3.646   6.614
 5621SOL     OW17761   1.377   3.051   6.424
 5621SOL    HW117762   1.390   3.097   6.512
 5621SOL    HW217763   1.382   3.119   6.350
 5622SOL     OW17764   5.283   6.668   5.632
 5622SOL    HW117765   5.292   6.764   5.607
 5622SOL    HW217766   5.200   6.654   5.686
 5623SOL     OW17767   4.426   6.366   5.238
 5623SOL    HW117768   4.397   6.299   5.307
 5623SOL    HW217769   4.500   6.327   5.183
 5624SOL     OW17770   0.374   4.885   3.790
 5624SOL    HW117771   0.282   4.912   3.764
 5624SOL    HW217772   0.370   4.812   3.858
 5625SOL     OW17773   6.806   6.027   5.404
 5625SOL    HW117774   6.881   6.048   5.467
 5625SOL    HW217775   6.825   5.940   5.358
 5626SOL     OW17776   2.635   5.344   4.047
 5626SOL    HW117777   2.609   5.306   3.958
 5626SOL    HW217778   2.561   5.327   4.112
 5627SOL     OW17779   6.815   4.950   6.174
 5627SOL    HW117780   6.825   4.997   6.262
 5627SOL    HW217781   6.759   5.005   6.113
 5628SOL     OW17782   1.662   2.554   1.391
 5628SOL    HW117783   1.582   2.608   1.365
 5628SOL    HW217784   1.684   2.571   1.487
 5629SOL     OW17785   5.150   2.829   2.170
 5629SOL    HW117786   5.058   2.868   2.164
 5629SOL    HW217787   5.217   2.899   2.147
 5630SOL     OW17788   1.809   4.293   6.677
 5630SOL    HW117789   1.852   4.205   6.698
 5630SOL    HW217790   1.829   4.358   6.750
 5631SOL     OW17791   5.040   1.290   1.341
 5631SOL    HW117792   5.003   1.224   1.406
 5631SOL    HW217793   4.986   1.374   1.345
 5632SOL     OW17794   3.088   2.045   5.432
 5632SOL    HW117795   3.112   2.028   5.527
 5632SOL    HW217796   3.157   2.106   5.391
 5633SOL     OW17797   6.205   4.751   4.640
 5633SOL    HW117798   6.260   4.772   4.721
 5633SOL    HW217799   6.156   4.833   4.611
 5634SOL     OW17800   2.079   4.666   4.672
 5634SOL    HW117801   2.049   4.592   4.611
 5634SOL    HW217802   2.087   4.750   4.619
 5635SOL     OW17803   1.863   6.050   6.964
 5635SOL    HW117804   1.949   6.005   6.988
 5635SOL    HW217805   1.882   6.139   6.924
 5636SOL     OW17806   6.087   0.040   5.175
 5636SOL    HW117807   6.023   0.117   5.179
 5636SOL    HW217808   6.155   0.058   5.104
 5637SOL     OW17809   3.164   0.459   3.667
 5637SOL    HW117810   3.135   0.540   3.717
 5637SOL    HW217811   3.180   0.483   3.571
 5638SOL     OW17812   6.415   4.365   0.783
 5638SOL    HW117813   6.382   4.286   0.836
 5638SOL    HW217814   6.338   4.410   0.739
 5639SOL     OW17815   2.342   0.531   2.142
 5639SOL    HW117816   2.253   0.497   2.112
 5639SOL    HW217817   2.381   0.466   2.207
 5640SOL     OW17818   2.960   0.897   2.672
 5640SOL    HW117819   2.911   0.867   2.590
 5640SOL    HW217820   3.020   0.973   2.648
 5641SOL     OW17821   0.964   4.953   5.829
 5641SOL    HW117822   1.001   4.881   5.888
 5641SOL    HW217823   1.006   5.040   5.854
 5642SOL     OW17824   0.769   5.309   5.011
 5642SOL    HW117825   0.824   5.257   4.944
 5642SOL    HW217826   0.677   5.324   4.974
 5643SOL     OW17827   3.380   0.982   4.436
 5643SOL    HW117828   3.384   1.006   4.533
 5643SOL    HW217829   3.439   0.903   4.419
 5644SOL     OW17830   3.557   0.272   4.791
 5644SOL    HW117831   3.489   0.252   4.861
 5644SOL    HW217832   3.519   0.338   4.725
 5645SOL     OW17833   5.787   4.670   2.997
 5645SOL    HW117834   5.786   4.599   2.927
 5645SOL    HW217835   5.704   4.664   3.052
 5646SOL     OW17836   0.756   5.481   3.587
 5646SOL    HW117837   0.760   5.572   3.628
 5646SOL    HW217838   0.756   5.412   3.659
 5647SOL     OW17839   5.911   6.814   0.810
 5647SOL    HW117840   5.982   6.884   0.797
 5647SOL    HW217841   5.835   6.853   0.861
 5648SOL     OW17842   1.550   1.011   3.591
 5648SOL    HW117843   1.460   1.049   3.610
 5648SOL    HW217844   1.567   1.011   3.493
 5649SOL     OW17845   6.807   0.151   5.374
 5649SOL    HW117846   6.773   0.243   5.353
 5649SOL    HW217847   6.891   0.134   5.321
 5650SOL     OW17848   1.434   5.161   0.940
 5650SOL    HW117849   1.504   5.133   1.005
 5650SOL    HW217850   1.463   5.246   0.895
 5651SOL     OW17851   0.356   1.179   1.675
 5651SOL    HW117852   0.400   1.268   1.692
 5651SOL    HW217853   0.266   1.178   1.718
 5652SOL     OW17854   6.287   0.142   2.305
 5652SOL    HW117855   6.315   0.155   2.401
 5652SOL    HW217856   6.367   0.112   2.252
 5653SOL     OW17857   0.689   6.066   6.530
 5653SOL    HW117858   0.701   5.969   6.551
 5653SOL    HW217859   0.775   6.104   6.495
 5654SOL     OW17860   6.485   6.658   5.703
 5654SOL    HW117861   6.568   6.613   5.735
 5654SOL    HW217862   6.511   6.738   5.649
 5655SOL     OW17863   2.066   3.882   5.008
 5655SOL    HW117864   2.115   3.795   5.016
 5655SOL    HW217865   2.105   3.948   5.072
 5656SOL     OW17866   0.117   3.579   0.427
 5656SOL    HW117867   0.025   3.539   0.428
 5656SOL    HW217868   0.184   3.509   0.402
 5657SOL     OW17869   5.676   1.123   0.110
 5657SOL    HW117870   5.582   1.113   0.143
 5657SOL    HW217871   5.739   1.117   0.187
 5658SOL     OW17872   3.739   5.066   5.791
 5658SOL    HW117873   3.666   5.101   5.850
 5658SOL    HW217874   3.727   5.101   5.698
 5659SOL     OW17875   4.038   3.726   3.895
 5659SOL    HW117876   4.033   3.660   3.970
 5659SOL    HW217877   4.090   3.686   3.819
 5660SOL     OW17878   5.867   0.193   6.259
 5660SOL    HW117879   5.947   0.137   6.237
 5660SOL    HW217880   5.800   0.184   6.186
 5661SOL     OW17881   1.471   4.819   4.790
 5661SOL    HW117882   1.383   4.855   4.759
 5661SOL    HW217883   1.465   4.796   4.887
 5662SOL     OW17884   3.510   5.711   3.405
 5662SOL    HW117885   3.538   5.632   3.351
 5662SOL    HW217886   3.431   5.755   3.362
 5663SOL     OW17887   2.181   3.250   6.825
 5663SOL    HW117888   2.159   3.224   6.920
 5663SOL    HW217889   2.277   3.231   6.807
 5664SOL     OW17890   6.354   3.885   4.563
 5664SOL    HW117891   6.383   3.831   4.642
 5664SOL    HW217892   6.384   3.980   4.574
 5665SOL     OW17893   1.574   2.196   0.071
 5665SOL    HW117894   1.531   2.132   0.007
 5665SOL    HW217895   1.575   2.157   0.163
 5666SOL     OW17896   5.954   5.743   1.433
 5666SOL    HW117897   5.943   5.842   1.445
 5666SOL    HW217898   6.039   5.714   1.478
 5667SOL     OW17899   1.034   4.926   4.012
 5667SOL    HW117900   1.007   4.949   4.106
 5667SOL    HW217901   1.101   4.852   4.014
 5668SOL     OW17902   5.325   1.762   5.111
 5668SOL    HW117903   5.281   1.836   5.060
 5668SOL    HW217904   5.261   1.724   5.177
 5669SOL     OW17905   0.604   3.082   0.015
 5669SOL    HW117906   0.695   3.044   0.001
 5669SOL    HW217907   0.537   3.023   6.999
 5670SOL     OW17908   6.522   2.661   3.936
 5670SOL    HW117909   6.504   2.755   3.964
 5670SOL    HW217910   6.552   2.660   3.841
 5671SOL     OW17911   0.528   5.832   0.058
 5671SOL    HW117912   0.500   5.756   0.117
 5671SOL    HW217913   0.529   5.802   6.992
 5672SOL     OW17914   4.188   4.857   6.635
 5672SOL    HW117915   4.234   4.903   6.711
 5672SOL    HW217916   4.219   4.896   6.548
 5673SOL     OW17917   0.739   6.620   2.068
 5673SOL    HW117918   0.758   6.580   1.979
 5673SOL    HW217919   0.685   6.703   2.056
 5674SOL     OW17920   7.024   4.967   5.124
 5674SOL    HW117921   6.928   4.978   5.149
 5674SOL    HW217922   0.052   5.018   5.189
 5675SOL     OW17923   4.273   1.960   5.859
 5675SOL    HW117924   4.336   1.988   5.932
 5675SOL    HW217925   4.323   1.955   5.773
 5676SOL     OW17926   2.261   2.852   2.488
 5676SOL    HW117927   2.263   2.949   2.513
 5676SOL    HW217928   2.317   2.800   2.552
 5677SOL     OW17929   0.063   1.182   1.720
 5677SOL    HW117930   7.005   1.181   1.770
 5677SOL    HW217931   0.060   1.111   1.649
 5678SOL     OW17932   3.796   6.488   2.915
 5678SOL    HW117933   3.715   6.476   2.973
 5678SOL    HW217934   3.767   6.510   2.822
 5679SOL     OW17935   1.100   1.223   4.303
 5679SOL    HW117936   1.006   1.221   4.269
 5679SOL    HW217937   1.161   1.180   4.237
 5680SOL     OW17938   1.587   4.910   0.023
 5680SOL    HW117939   1.509   4.918   6.990
 5680SOL    HW217940   1.558   4.864   0.107
 5681SOL     OW17941   0.242   4.544   0.373
 5681SOL    HW117942   0.221   4.600   0.453
 5681SOL    HW217943   0.341   4.543   0.359
 5682SOL     OW17944   2.598   4.462   5.701
 5682SOL    HW117945   2.622   4.558   5.690
 5682SOL    HW217946   2.671   4.414   5.748
 5683SOL     OW17947   3.761   0.486   0.054
 5683SOL    HW117948   3.732   0.548   0.126
 5683SOL    HW217949   3.780   0.396   0.094
 5684SOL     OW17950   2.929   3.763   5.465
 5684SOL    HW117951   2.927   3.762   5.365
 5684SOL    HW217952   2.846   3.807   5.499
 5685SOL     OW17953   1.733   3.041   2.411
 5685SOL    HW117954   1.759   3.098   2.333
 5685SOL    HW217955   1.633   3.035   2.416
 5686SOL     OW17956   3.056   0.863   6.555
 5686SOL    HW117957   3.021   0.771   6.574
 5686SOL    HW217958   3.031   0.924   6.631
 5687SOL     OW17959   0.173   4.696   6.153
 5687SOL    HW117960   0.245   4.719   6.087
 5687SOL    HW217961   0.195   4.737   6.242
 5688SOL     OW17962   0.331   2.154   0.314
 5688SOL    HW117963   0.253   2.148   0.376
 5688SOL    HW217964   0.399   2.217   0.353
 5689SOL     OW17965   4.380   1.098   0.844
 5689SOL    HW117966   4.402   1.151   0.763
 5689SOL    HW217967   4.438   1.017   0.848
 5690SOL     OW17968   2.524   6.044   0.824
 5690SOL    HW117969   2.589   6.090   0.884
 5690SOL    HW217970   2.543   6.069   0.729
 5691SOL     OW17971   3.029   6.879   2.138
 5691SOL    HW117972   2.936   6.887   2.101
 5691SOL    HW217973   3.026   6.832   2.226
 5692SOL     OW17974   6.061   3.009   0.637
 5692SOL    HW117975   5.967   3.045   0.644
 5692SOL    HW217976   6.097   2.993   0.729
 5693SOL     OW17977   5.832   2.358   2.756
 5693SOL    HW117978   5.900   2.373   2.684
 5693SOL    HW217979   5.756   2.421   2.743
 5694SOL     OW17980   0.635   1.862   3.999
 5694SOL    HW117981   0.701   1.928   4.034
 5694SOL    HW217982   0.680   1.774   3.986
 5695SOL     OW17983   1.053   2.573   2.727
 5695SOL    HW117984   0.974   2.519   2.696
 5695SOL    HW217985   1.032   2.670   2.722
 5696SOL     OW17986   1.400   1.153   2.821
 5696SOL    HW117987   1.428   1.248   2.805
 5696SOL    HW217988   1.300   1.149   2.829
 5697SOL     OW17989   5.974   2.287   1.550
 5697SOL    HW117990   5.899   2.240   1.503
 5697SOL    HW217991   6.012   2.357   1.490
 5698SOL     OW17992   0.978   3.742   3.228
 5698SOL    HW117993   1.012   3.772   3.317
 5698SOL    HW217994   1.028   3.661   3.199
 5699SOL     OW17995   6.857   2.725   3.381
 5699SOL    HW117996   6.888   2.789   3.311
 5699SOL    HW217997   6.820   2.643   3.338
 5700SOL     OW17998   0.195   6.551   4.083
 5700SOL    HW117999   0.241   6.630   4.042
 5700SOL    HW218000   0.096   6.563   4.075
 5701SOL     OW18001   1.396   0.879   2.665
 5701SOL    HW118002   1.407   0.967   2.711
 5701SOL    HW218003   1.486   0.843   2.640
 5702SOL     OW18004   2.459   6.048   5.105
 5702SOL    HW118005   2.549   6.016   5.133
 5702SOL    HW218006   2.444   6.141   5.140
 5703SOL     OW18007   6.297   4.602   1.475
 5703SOL    HW118008   6.297   4.506   1.448
 5703SOL    HW218009   6.360   4.615   1.552
 5704SOL     OW18010   4.431   4.902   2.422
 5704SOL    HW118011   4.384   4.820   2.388
 5704SOL    HW218012   4.417   4.909   2.521
 5705SOL     OW18013   4.940   0.901   1.322
 5705SOL    HW118014   5.025   0.849   1.321
 5705SOL    HW218015   4.937   0.959   1.403
 5706SOL     OW18016   6.277   3.625   0.607
 5706SOL    HW118017   6.282   3.543   0.551
 5706SOL    HW218018   6.365   3.672   0.607
 5707SOL     OW18019   0.033   6.851   0.501
 5707SOL    HW118020   0.002   6.819   0.412
 5707SOL    HW218021   6.984   6.854   0.564
 5708SOL     OW18022   5.231   6.170   1.074
 5708SOL    HW118023   5.143   6.136   1.039
 5708SOL    HW218024   5.292   6.093   1.091
 5709SOL     OW18025   1.414   0.049   2.470
 5709SOL    HW118026   1.445   6.983   2.481
 5709SOL    HW218027   1.450   0.086   2.384
 5710SOL     OW18028   2.527   3.150   0.068
 5710SOL    HW118029   2.622   3.182   0.067
 5710SOL    HW218030   2.506   3.109   0.156
 5711SOL     OW18031   5.250   1.176   2.644
 5711SOL    HW118032   5.207   1.111   2.707
 5711SOL    HW218033   5.299   1.246   2.697
 5712SOL     OW18034   0.967   6.225   6.463
 5712SOL    HW118035   1.008   6.289   6.528
 5712SOL    HW218036   1.038   6.164   6.428
 5713SOL     OW18037   2.396   2.898   1.652
 5713SOL    HW118038   2.346   2.982   1.629
 5713SOL    HW218039   2.378   2.828   1.583
 5714SOL     OW18040   0.725   5.575   6.745
 5714SOL    HW118041   0.669   5.492   6.746
 5714SOL    HW218042   0.806   5.562   6.803
 5715SOL     OW18043   0.799   6.486   3.355
 5715SOL    HW118044   0.888   6.529   3.370
 5715SOL    HW218045   0.812   6.390   3.331
 5716SOL     OW18046   1.407   3.845   6.820
 5716SOL    HW118047   1.356   3.923   6.783
 5716SOL    HW218048   1.503   3.852   6.793
 5717SOL     OW18049   1.892   5.965   0.868
 5717SOL    HW118050   1.979   6.012   0.856
 5717SOL    HW218051   1.828   6.026   0.915
 5718SOL     OW18052   0.721   2.387   5.599
 5718SOL    HW118053   0.808   2.346   5.625
 5718SOL    HW218054   0.693   2.452   5.670
 5719SOL     OW18055   3.504   1.600   6.693
 5719SOL    HW118056   3.441   1.529   6.662
 5719SOL    HW218057   3.549   1.571   6.778
 5720SOL     OW18058   1.487   5.156   4.524
 5720SOL    HW118059   1.455   5.146   4.618
 5720SOL    HW218060   1.510   5.066   4.487
 5721SOL     OW18061   0.455   4.366   1.109
 5721SOL    HW118062   0.437   4.300   1.035
 5721SOL    HW218063   0.497   4.318   1.186
 5722SOL     OW18064   6.349   1.182   5.763
 5722SOL    HW118065   6.362   1.086   5.740
 5722SOL    HW218066   6.371   1.239   5.684
 5723SOL     OW18067   4.800   3.442   7.005
 5723SOL    HW118068   4.805   3.540   7.024
 5723SOL    HW218069   4.812   3.427   6.906
 5724SOL     OW18070   4.730   2.908   4.989
 5724SOL    HW118071   4.640   2.913   4.946
 5724SOL    HW218072   4.763   2.814   4.987
 5725SOL     OW18073   5.463   4.825   3.548
 5725SOL    HW118074   5.490   4.920   3.568
 5725SOL    HW218075   5.441   4.779   3.634
 5726SOL     OW18076   0.090   4.692   5.159
 5726SOL    HW118077   0.047   4.665   5.245
 5726SOL    HW218078   0.084   4.792   5.148
 5727SOL     OW18079   6.704   1.664   4.108
 5727SOL    HW118080   6.730   1.571   4.082
 5727SOL    HW218081   6.768   1.697   4.178
 5728SOL     OW18082   3.902   1.025   6.312
 5728SOL    HW118083   3.806   1.002   6.301
 5728SOL    HW218084   3.934   1.072   6.230
 5729SOL     OW18085   0.978   1.223   0.444
 5729SOL    HW118086   1.032   1.307   0.439
 5729SOL    HW218087   1.024   1.149   0.396
 5730SOL     OW18088   4.588   5.483   6.404
 5730SOL    HW118089   4.631   5.558   6.454
 5730SOL    HW218090   4.639   5.467   6.320
 5731SOL     OW18091   0.759   6.666   3.975
 5731SOL    HW118092   0.683   6.640   3.915
 5731SOL    HW218093   0.841   6.615   3.949
 5732SOL     OW18094   6.286   5.291   4.892
 5732SOL    HW118095   6.246   5.376   4.856
 5732SOL    HW218096   6.213   5.232   4.926
 5733SOL     OW18097   3.695   6.991   5.067
 5733SOL    HW118098   3.716   0.054   5.103
 5733SOL    HW218099   3.770   6.929   5.089
 5734SOL     OW18100   1.134   6.724   6.097
 5734SOL    HW118101   1.157   6.626   6.094
 5734SOL    HW218102   1.098   6.747   6.187
 5735SOL     OW18103   3.933   2.139   2.098
 5735SOL    HW118104   3.968   2.207   2.034
 5735SOL    HW218105   3.834   2.132   2.088
 5736SOL     OW18106   5.954   4.026   0.369
 5736SOL    HW118107   6.007   4.002   0.449
 5736SOL    HW218108   6.004   4.000   0.286
 5737SOL     OW18109   4.950   6.010   0.526
 5737SOL    HW118110   4.870   5.985   0.471
 5737SOL    HW218111   5.032   6.003   0.471
 5738SOL     OW18112   3.072   3.222   6.076
 5738SOL    HW118113   3.129   3.299   6.106
 5738SOL    HW218114   2.985   3.257   6.040
 5739SOL     OW18115   1.039   0.059   5.828
 5739SOL    HW118116   1.002   7.024   5.896
 5739SOL    HW218117   1.109   0.013   5.774
 5740SOL     OW18118   4.477   3.606   1.394
 5740SOL    HW118119   4.401   3.623   1.331
 5740SOL    HW218120   4.485   3.508   1.411
 5741SOL     OW18121   6.743   4.364   4.551
 5741SOL    HW118122   6.653   4.395   4.519
 5741SOL    HW218123   6.781   4.299   4.486
 5742SOL     OW18124   4.431   6.569   3.157
 5742SOL    HW118125   4.512   6.511   3.167
 5742SOL    HW218126   4.349   6.514   3.171
 5743SOL     OW18127   2.904   5.577   5.297
 5743SOL    HW118128   2.854   5.566   5.211
 5743SOL    HW218129   2.988   5.522   5.295
 5744SOL     OW18130   5.083   1.652   2.033
 5744SOL    HW118131   5.168   1.667   1.982
 5744SOL    HW218132   5.099   1.666   2.130
 5745SOL     OW18133   2.072   1.136   4.280
 5745SOL    HW118134   2.013   1.057   4.265
 5745SOL    HW218135   2.041   1.212   4.222
 5746SOL     OW18136   5.395   6.573   1.333
 5746SOL    HW118137   5.444   6.629   1.401
 5746SOL    HW218138   5.306   6.548   1.370
 5747SOL     OW18139   0.460   4.525   2.612
 5747SOL    HW118140   0.433   4.544   2.518
 5747SOL    HW218141   0.385   4.548   2.673
 5748SOL     OW18142   1.618   6.306   0.720
 5748SOL    HW118143   1.541   6.368   0.706
 5748SOL    HW218144   1.634   6.254   0.636
 5749SOL     OW18145   1.180   6.317   4.287
 5749SOL    HW118146   1.162   6.264   4.205
 5749SOL    HW218147   1.094   6.348   4.327
 5750SOL     OW18148   7.016   5.975   4.381
 5750SOL    HW118149   0.053   6.003   4.311
 5750SOL    HW218150   6.934   6.032   4.374
 5751SOL     OW18151   2.735   2.377   4.170
 5751SOL    HW118152   2.672   2.328   4.230
 5751SOL    HW218153   2.726   2.476   4.184
 5752SOL     OW18154   6.419   0.394   0.154
 5752SOL    HW118155   6.473   0.462   0.104
 5752SOL    HW218156   6.474   0.354   0.227
 5753SOL     OW18157   3.943   3.252   4.657
 5753SOL    HW118158   3.942   3.162   4.701
 5753SOL    HW218159   4.010   3.311   4.702
 5754SOL     OW18160   6.450   4.645   1.250
 5754SOL    HW118161   6.415   4.616   1.339
 5754SOL    HW218162   6.524   4.584   1.222
 5755SOL     OW18163   2.043   2.899   6.204
 5755SOL    HW118164   2.009   2.861   6.118
 5755SOL    HW218165   1.968   2.901   6.271
 5756SOL     OW18166   5.853   0.121   3.414
 5756SOL    HW118167   5.848   0.204   3.358
 5756SOL    HW218168   5.932   0.067   3.386
 5757SOL     OW18169   6.409   6.868   3.064
 5757SOL    HW118170   6.361   6.780   3.072
 5757SOL    HW218171   6.508   6.853   3.070
 5758SOL     OW18172   2.544   0.880   4.851
 5758SOL    HW118173   2.582   0.907   4.762
 5758SOL    HW218174   2.613   0.898   4.922
 5759SOL     OW18175   5.395   1.654   6.863
 5759SOL    HW118176   5.418   1.749   6.886
 5759SOL    HW218177   5.473   1.611   6.816
 5760SOL     OW18178   0.180   4.297   0.515
 5760SOL    HW118179   0.143   4.323   0.605
 5760SOL    HW218180   0.207   4.380   0.466
 5761SOL     OW18181   5.906   5.636   6.168
 5761SOL    HW118182   5.814   5.597   6.164
 5761SOL    HW218183   5.924   5.686   6.083
 5762SOL     OW18184   4.654   5.290   0.652
 5762SOL    HW118185   4.612   5.299   0.562
 5762SOL    HW218186   4.588   5.315   0.723
 5763SOL     OW18187   0.461   6.998   0.220
 5763SOL    HW118188   0.498   7.025   0.131
 5763SOL    HW218189   0.515   6.924   0.258
 5764SOL     OW18190   5.294   5.525   5.346
 5764SOL    HW118191   5.237   5.499   5.268
 5764SOL    HW218192   5.374   5.466   5.350
 5765SOL     OW18193   6.186   2.775   0.520
 5765SOL    HW118194   6.211   2.795   0.425
 5765SOL    HW218195   6.153   2.859   0.564
 5766SOL     OW18196   2.098   2.278   6.470
 5766SOL    HW118197   2.059   2.362   6.508
 5766SOL    HW218198   2.032   2.236   6.408
 5767SOL     OW18199   1.562   1.560   0.277
 5767SOL    HW118200   1.584   1.613   0.195
 5767SOL    HW218201   1.646   1.526   0.317
 5768SOL     OW18202   0.843   6.227   3.272
 5768SOL    HW118203   0.864   6.231   3.174
 5768SOL    HW218204   0.922   6.189   3.321
 5769SOL     OW18205   2.443   5.665   4.522
 5769SOL    HW118206   2.533   5.679   4.481
 5769SOL    HW218207   2.422   5.567   4.524
 5770SOL     OW18208   6.001   6.652   0.523
 5770SOL    HW118209   6.009   6.682   0.618
 5770SOL    HW218210   5.958   6.725   0.469
 5771SOL     OW18211   1.273   6.884   3.308
 5771SOL    HW118212   1.299   6.796   3.266
 5771SOL    HW218213   1.355   6.927   3.346
 5772SOL     OW18214   5.908   2.014   0.869
 5772SOL    HW118215   5.995   1.977   0.902
 5772SOL    HW218216   5.854   1.941   0.828
 5773SOL     OW18217   4.637   0.784   3.636
 5773SOL    HW118218   4.662   0.879   3.620
 5773SOL    HW218219   4.710   0.739   3.688
 5774SOL     OW18220   3.017   5.829   3.592
 5774SOL    HW118221   2.936   5.794   3.545
 5774SOL    HW218222   3.069   5.753   3.630
 5775SOL     OW18223   1.238   1.598   2.019
 5775SOL    HW118224   1.280   1.509   2.038
 5775SOL    HW218225   1.246   1.619   1.922
 5776SOL     OW18226   0.230   0.248   5.266
 5776SOL    HW118227   0.205   0.283   5.176
 5776SOL    HW218228   0.198   0.153   5.275
 5777SOL     OW18229   6.615   7.021   5.241
 5777SOL    HW118230   6.574   6.938   5.278
 5777SOL    HW218231   6.681   0.029   5.306
 5778SOL     OW18232   1.394   0.695   1.608
 5778SOL    HW118233   1.351   0.620   1.657
 5778SOL    HW218234   1.328   0.770   1.598
 5779SOL     OW18235   5.200   2.253   0.373
 5779SOL    HW118236   5.261   2.329   0.394
 5779SOL    HW218237   5.230   2.209   0.288
 5780SOL     OW18238   6.157   5.351   3.091
 5780SOL    HW118239   6.121   5.317   3.005
 5780SOL    HW218240   6.255   5.332   3.097
 5781SOL     OW18241   0.277   4.466   4.403
 5781SOL    HW118242   0.340   4.429   4.472
 5781SOL    HW218243   0.260   4.397   4.333
 5782SOL     OW18244   0.822   1.052   0.661
 5782SOL    HW118245   0.901   1.099   0.621
 5782SOL    HW218246   0.765   1.015   0.587
 5783SOL     OW18247   1.838   0.826   1.665
 5783SOL    HW118248   1.889   0.897   1.713
 5783SOL    HW218249   1.850   0.839   1.566
 5784SOL     OW18250   6.876   5.955   0.185
 5784SOL    HW118251   6.789   5.981   0.142
 5784SOL    HW218252   6.934   5.911   0.117
 5785SOL     OW18253   1.708   1.819   0.585
 5785SOL    HW118254   1.696   1.909   0.626
 5785SOL    HW218255   1.690   1.824   0.487
 5786SOL     OW18256   0.596   4.589   1.121
 5786SOL    HW118257   0.598   4.628   1.029
 5786SOL    HW218258   0.534   4.511   1.123
 5787SOL     OW18259   4.145   2.211   5.590
 5787SOL    HW118260   4.216   2.207   5.519
 5787SOL    HW218261   4.089   2.293   5.577
 5788SOL     OW18262   3.116   1.128   1.241
 5788SOL    HW118263   3.052   1.152   1.168
 5788SOL    HW218264   3.173   1.207   1.262
 5789SOL     OW18265   2.662   4.327   0.647
 5789SOL    HW118266   2.672   4.286   0.738
 5789SOL    HW218267   2.644   4.256   0.580
 5790SOL     OW18268   0.107   4.943   4.769
 5790SOL    HW118269   0.159   4.990   4.841
 5790SOL    HW218270   0.168   4.918   4.694
 5791SOL     OW18271   2.928   1.731   2.260
 5791SOL    HW118272   2.852   1.793   2.240
 5791SOL    HW218273   2.963   1.750   2.351
 5792SOL     OW18274   5.284   2.625   2.249
 5792SOL    HW118275   5.225   2.697   2.211
 5792SOL    HW218276   5.378   2.640   2.218
 5793SOL     OW18277   6.082   0.650   4.288
 5793SOL    HW118278   6.059   0.553   4.300
 5793SOL    HW218279   6.088   0.694   4.378
 5794SOL     OW18280   2.520   0.630   6.154
 5794SOL    HW118281   2.527   0.716   6.104
 5794SOL    HW218282   2.429   0.590   6.138
 5795SOL     OW18283   0.194   6.504   0.312
 5795SOL    HW118284   0.210   6.565   0.235
 5795SOL    HW218285   0.272   6.442   0.324
 5796SOL     OW18286   4.831   0.827   6.446
 5796SOL    HW118287   4.818   0.744   6.500
 5796SOL    HW218288   4.789   0.816   6.356
 5797SOL     OW18289   4.969   2.296   0.206
 5797SOL    HW118290   5.020   2.279   0.290
 5797SOL    HW218291   4.993   2.386   0.170
 5798SOL     OW18292   6.783   5.373   3.998
 5798SOL    HW118293   6.756   5.302   4.062
 5798SOL    HW218294   6.882   5.387   4.005
 5799SOL     OW18295   0.155   0.479   4.243
 5799SOL    HW118296   0.091   0.402   4.235
 5799SOL    HW218297   0.167   0.523   4.154
 5800SOL     OW18298   0.101   6.972   2.117
 5800SOL    HW118299   0.189   6.970   2.069
 5800SOL    HW218300   0.117   6.971   2.216
 5801SOL     OW18301   1.748   2.232   3.506
 5801SOL    HW118302   1.658   2.267   3.481
 5801SOL    HW218303   1.808   2.234   3.426
 5802SOL     OW18304   6.823   3.018   2.812
 5802SOL    HW118305   6.868   3.098   2.853
 5802SOL    HW218306   6.734   3.003   2.856
 5803SOL     OW18307   2.200   5.880   2.851
 5803SOL    HW118308   2.238   5.797   2.809
 5803SOL    HW218309   2.156   5.936   2.780
 5804SOL     OW18310   0.511   5.072   3.098
 5804SOL    HW118311   0.531   5.161   3.139
 5804SOL    HW218312   0.490   5.006   3.170
 5805SOL     OW18313   1.891   2.779   0.608
 5805SOL    HW118314   1.798   2.772   0.646
 5805SOL    HW218315   1.947   2.705   0.644
 5806SOL     OW18316   6.595   5.743   4.380
 5806SOL    HW118317   6.548   5.658   4.357
 5806SOL    HW218318   6.693   5.731   4.366
 5807SOL     OW18319   0.883   4.705   0.515
 5807SOL    HW118320   0.908   4.620   0.560
 5807SOL    HW218321   0.868   4.776   0.584
 5808SOL     OW18322   6.863   5.739   4.326
 5808SOL    HW118323   6.935   5.806   4.344
 5808SOL    HW218324   6.872   5.705   4.233
 5809SOL     OW18325   6.329   1.336   5.206
 5809SOL    HW118326   6.409   1.362   5.260
 5809SOL    HW218327   6.355   1.267   5.139
 5810SOL     OW18328   5.053   1.004   5.919
 5810SOL    HW118329   4.989   0.934   5.953
 5810SOL    HW218330   5.126   0.959   5.867
 5811SOL     OW18331   3.740   0.935   4.954
 5811SOL    HW118332   3.690   1.005   5.005
 5811SOL    HW218333   3.824   0.912   5.002
 5812SOL     OW18334   5.384   3.137   5.763
 5812SOL    HW118335   5.380   3.202   5.839
 5812SOL    HW218336   5.372   3.044   5.798
 5813SOL     OW18337   2.112   1.398   0.618
 5813SOL    HW118338   2.094   1.346   0.702
 5813SOL    HW218339   2.208   1.386   0.592
 5814SOL     OW18340   6.562   3.381   2.263
 5814SOL    HW118341   6.617   3.455   2.302
 5814SOL    HW218342   6.475   3.418   2.231
 5815SOL     OW18343   4.077   1.771   3.648
 5815SOL    HW118344   4.006   1.700   3.641
 5815SOL    HW218345   4.035   1.860   3.632
 5816SOL     OW18346   4.920   4.509   0.692
 5816SOL    HW118347   4.865   4.535   0.613
 5816SOL    HW218348   4.991   4.577   0.708
 5817SOL     OW18349   6.323   4.638   5.716
 5817SOL    HW118350   6.286   4.546   5.729
 5817SOL    HW218351   6.258   4.694   5.666
 5818SOL     OW18352   6.619   5.278   5.591
 5818SOL    HW118353   6.700   5.258   5.537
 5818SOL    HW218354   6.645   5.325   5.675
 5819SOL     OW18355   3.933   0.135   6.831
 5819SOL    HW118356   3.924   0.065   6.902
 5819SOL    HW218357   4.027   0.135   6.796
 5820SOL     OW18358   4.162   4.820   3.533
 5820SOL    HW118359   4.212   4.736   3.516
 5820SOL    HW218360   4.096   4.834   3.459
 5821SOL     OW18361   7.023   0.853   1.927
 5821SOL    HW118362   0.046   0.886   2.006
 5821SOL    HW218363   0.054   0.798   1.868
 5822SOL     OW18364   1.566   2.747   1.670
 5822SOL    HW118365   1.636   2.688   1.710
 5822SOL    HW218366   1.494   2.764   1.737
 5823SOL     OW18367   2.879   0.819   4.601
 5823SOL    HW118368   2.814   0.833   4.526
 5823SOL    HW218369   2.915   0.908   4.631
 5824SOL     OW18370   6.994   5.999   2.934
 5824SOL    HW118371   6.919   6.016   2.871
 5824SOL    HW218372   6.973   6.040   3.023
 5825SOL     OW18373   0.124   6.766   4.445
 5825SOL    HW118374   0.127   6.830   4.521
 5825SOL    HW218375   0.199   6.786   4.381
 5826SOL     OW18376   0.004   5.359   6.328
 5826SOL    HW118377   6.973   5.372   6.407
 5826SOL    HW218378   7.015   5.431   6.260
 5827SOL     OW18379   1.783   3.879   5.067
 5827SOL    HW118380   1.878   3.894   5.037
 5827SOL    HW218381   1.753   3.956   5.122
 5828SOL     OW18382   5.315   1.916   2.202
 5828SOL    HW118383   5.266   1.829   2.207
 5828SOL    HW218384   5.412   1.899   2.187
 5829SOL     OW18385   1.835   0.283   4.496
 5829SOL    HW118386   1.775   0.208   4.523
 5829SOL    HW218387   1.867   0.268   4.403
 5830SOL     OW18388   5.636   6.805   5.972
 5830SOL    HW118389   5.633   6.814   5.873
 5830SOL    HW218390   5.700   6.732   5.998
 5831SOL     OW18391   1.140   0.738   5.887
 5831SOL    HW118392   1.164   0.815   5.945
 5831SOL    HW218393   1.224   0.700   5.846
 5832SOL     OW18394   3.021   4.935   6.840
 5832SOL    HW118395   2.989   5.016   6.888
 5832SOL    HW218396   3.116   4.947   6.813
 5833SOL     OW18397   4.215   3.789   5.214
 5833SOL    HW118398   4.141   3.798   5.148
 5833SOL    HW218399   4.235   3.878   5.255
 5834SOL     OW18400   0.270   3.306   7.016
 5834SOL    HW118401   0.217   3.253   0.054
 5834SOL    HW218402   0.363   3.321   0.023
 5835SOL     OW18403   5.493   2.596   3.067
 5835SOL    HW118404   5.445   2.509   3.056
 5835SOL    HW218405   5.441   2.655   3.130
 5836SOL     OW18406   3.183   0.023   1.635
 5836SOL    HW118407   3.178   0.120   1.655
 5836SOL    HW218408   3.270   7.015   1.669
 5837SOL     OW18409   3.505   3.819   6.952
 5837SOL    HW118410   3.410   3.821   6.985
 5837SOL    HW218411   3.519   3.735   6.898
 5838SOL     OW18412   3.022   2.040   1.140
 5838SOL    HW118413   3.034   2.072   1.046
 5838SOL    HW218414   3.085   2.090   1.200
 5839SOL     OW18415   0.685   2.298   1.882
 5839SOL    HW118416   0.743   2.333   1.955
 5839SOL    HW218417   0.666   2.371   1.817
 5840SOL     OW18418   1.640   4.720   6.253
 5840SOL    HW118419   1.656   4.696   6.157
 5840SOL    HW218420   1.674   4.647   6.312
 5841SOL     OW18421   4.889   1.033   2.435
 5841SOL    HW118422   4.887   1.050   2.533
 5841SOL    HW218423   4.819   1.089   2.390
 5842SOL     OW18424   4.605   3.055   1.561
 5842SOL    HW118425   4.619   3.019   1.654
 5842SOL    HW218426   4.529   3.006   1.518
 5843SOL     OW18427   1.460   4.390   2.499
 5843SOL    HW118428   1.435   4.487   2.506
 5843SOL    HW218429   1.475   4.353   2.591
 5844SOL     OW18430   1.343   6.017   5.316
 5844SOL    HW118431   1.368   6.114   5.320
 5844SOL    HW218432   1.416   5.962   5.355
 5845SOL     OW18433   0.754   0.580   2.320
 5845SOL    HW118434   0.666   0.627   2.320
 5845SOL    HW218435   0.812   0.619   2.391
 5846SOL     OW18436   6.229   3.551   6.367
 5846SOL    HW118437   6.311   3.584   6.414
 5846SOL    HW218438   6.162   3.624   6.362
 5847SOL     OW18439   2.698   2.369   2.284
 5847SOL    HW118440   2.785   2.373   2.235
 5847SOL    HW218441   2.657   2.278   2.270
 5848SOL     OW18442   1.444   5.724   3.305
 5848SOL    HW118443   1.519   5.764   3.252
 5848SOL    HW218444   1.467   5.630   3.328
 5849SOL     OW18445   1.895   0.160   5.471
 5849SOL    HW118446   1.829   0.156   5.396
 5849SOL    HW218447   1.987   0.146   5.436
 5850SOL     OW18448   6.767   3.529   1.638
 5850SOL    HW118449   6.853   3.525   1.688
 5850SOL    HW218450   6.726   3.438   1.634
 5851SOL     OW18451   5.203   3.008   3.025
 5851SOL    HW118452   5.171   2.917   3.001
 5851SOL    HW218453   5.257   3.005   3.109
 5852SOL     OW18454   5.842   6.093   3.247
 5852SOL    HW118455   5.810   6.040   3.169
 5852SOL    HW218456   5.843   6.035   3.328
 5853SOL     OW18457   3.790   5.232   5.135
 5853SOL    HW118458   3.788   5.332   5.128
 5853SOL    HW218459   3.743   5.203   5.219
 5854SOL     OW18460   4.477   4.783   6.135
 5854SOL    HW118461   4.411   4.732   6.080
 5854SOL    HW218462   4.569   4.771   6.096
 5855SOL     OW18463   1.568   0.959   4.707
 5855SOL    HW118464   1.663   0.949   4.737
 5855SOL    HW218465   1.518   0.874   4.722
 5856SOL     OW18466   2.218   5.952   3.568
 5856SOL    HW118467   2.198   5.889   3.493
 5856SOL    HW218468   2.299   6.007   3.544
 5857SOL     OW18469   6.265   2.525   5.774
 5857SOL    HW118470   6.219   2.609   5.803
 5857SOL    HW218471   6.208   2.476   5.709
 5858SOL     OW18472   3.018   2.129   2.600
 5858SOL    HW118473   3.103   2.078   2.585
 5858SOL    HW218474   3.004   2.193   2.524
 5859SOL     OW18475   6.458   6.076   1.908
 5859SOL    HW118476   6.411   6.116   1.987
 5859SOL    HW218477   6.553   6.057   1.932
 5860SOL     OW18478   0.041   4.192   3.227
 5860SOL    HW118479   0.075   4.105   3.194
 5860SOL    HW218480   6.981   4.212   3.185
 5861SOL     OW18481   5.182   1.572   4.160
 5861SOL    HW118482   5.142   1.664   4.161
 5861SOL    HW218483   5.228   1.555   4.247
 5862SOL     OW18484   6.014   5.649   0.857
 5862SOL    HW118485   6.085   5.641   0.928
 5862SOL    HW218486   5.928   5.613   0.892
 5863SOL     OW18487   2.944   2.334   5.246
 5863SOL    HW118488   3.041   2.335   5.220
 5863SOL    HW218489   2.903   2.248   5.215
 5864SOL     OW18490   3.414   4.076   2.734
 5864SOL    HW118491   3.370   3.987   2.746
 5864SOL    HW218492   3.422   4.122   2.822
 5865SOL     OW18493   6.068   6.969   5.850
 5865SOL    HW118494   5.976   6.929   5.849
 5865SOL    HW218495   6.134   6.899   5.823
 5866SOL     OW18496   3.510   4.427   0.661
 5866SOL    HW118497   3.594   4.373   0.666
 5866SOL    HW218498   3.465   4.428   0.750
 5867SOL     OW18499   2.401   3.452   1.209
 5867SOL    HW118500   2.321   3.509   1.191
 5867SOL    HW218501   2.391   3.364   1.164
 5868SOL     OW18502   1.668   1.730   5.283
 5868SOL    HW118503   1.602   1.802   5.304
 5868SOL    HW218504   1.620   1.643   5.274
 5869SOL     OW18505   2.154   6.619   3.196
 5869SOL    HW118506   2.180   6.674   3.275
 5869SOL    HW218507   2.128   6.679   3.121
 5870SOL     OW18508   4.552   6.795   5.023
 5870SOL    HW118509   4.455   6.782   5.003
 5870SOL    HW218510   4.565   6.884   5.066
 5871SOL     OW18511   3.383   3.252   1.279
 5871SOL    HW118512   3.335   3.187   1.338
 5871SOL    HW218513   3.316   3.301   1.224
 5872SOL     OW18514   4.633   6.551   1.063
 5872SOL    HW118515   4.724   6.512   1.052
 5872SOL    HW218516   4.630   6.643   1.024
 5873SOL     OW18517   3.602   1.080   2.085
 5873SOL    HW118518   3.609   1.173   2.049
 5873SOL    HW218519   3.598   1.082   2.185
 5874SOL     OW18520   3.001   4.650   5.949
 5874SOL    HW118521   3.095   4.622   5.931
 5874SOL    HW218522   2.979   4.731   5.895
 5875SOL     OW18523   4.158   1.417   0.268
 5875SOL    HW118524   4.116   1.500   0.231
 5875SOL    HW218525   4.115   1.337   0.227
 5876SOL     OW18526   3.842   3.182   1.153
 5876SOL    HW118527   3.756   3.203   1.105
 5876SOL    HW218528   3.919   3.211   1.097
 5877SOL     OW18529   0.578   0.066   1.635
 5877SOL    HW118530   0.653   0.003   1.651
 5877SOL    HW218531   0.493   0.015   1.621
 5878SOL     OW18532   6.525   5.484   4.256
 5878SOL    HW118533   6.559   5.505   4.164
 5878SOL    HW218534   6.561   5.395   4.285
 5879SOL     OW18535   1.325   4.088   6.674
 5879SOL    HW118536   1.409   4.133   6.643
 5879SOL    HW218537   1.261   4.079   6.598
 5880SOL     OW18538   4.527   4.466   6.269
 5880SOL    HW118539   4.550   4.456   6.172
 5880SOL    HW218540   4.576   4.544   6.307
 5881SOL     OW18541   0.921   6.819   2.642
 5881SOL    HW118542   0.859   6.752   2.684
 5881SOL    HW218543   1.015   6.797   2.667
 5882SOL     OW18544   0.124   5.472   0.926
 5882SOL    HW118545   0.151   5.427   1.011
 5882SOL    HW218546   0.205   5.499   0.875
 5883SOL     OW18547   0.866   1.277   6.355
 5883SOL    HW118548   0.856   1.239   6.263
 5883SOL    HW218549   0.805   1.228   6.417
 5884SOL     OW18550   3.609   1.344   4.483
 5884SOL    HW118551   3.637   1.313   4.573
 5884SOL    HW218552   3.676   1.315   4.415
 5885SOL     OW18553   0.504   0.065   2.812
 5885SOL    HW118554   0.429   0.009   2.775
 5885SOL    HW218555   0.488   0.081   2.909
 5886SOL     OW18556   0.325   2.008   4.488
 5886SOL    HW118557   0.251   2.069   4.517
 5886SOL    HW218558   0.362   2.040   4.401
 5887SOL     OW18559   2.572   2.135   2.230
 5887SOL    HW118560   2.533   2.095   2.146
 5887SOL    HW218561   2.526   2.096   2.309
 5888SOL     OW18562   3.056   0.672   1.425
 5888SOL    HW118563   3.119   0.738   1.383
 5888SOL    HW218564   3.082   0.657   1.521
 5889SOL     OW18565   0.932   0.129   0.804
 5889SOL    HW118566   0.881   0.127   0.891
 5889SOL    HW218567   0.919   0.042   0.757
 5890SOL     OW18568   1.978   1.102   3.373
 5890SOL    HW118569   1.931   1.018   3.344
 5890SOL    HW218570   2.045   1.080   3.444
 5891SOL     OW18571   3.479   2.980   6.736
 5891SOL    HW118572   3.387   3.001   6.767
 5891SOL    HW218573   3.475   2.945   6.642
 5892SOL     OW18574   0.809   5.577   1.594
 5892SOL    HW118575   0.887   5.537   1.545
 5892SOL    HW218576   0.750   5.624   1.529
 5893SOL     OW18577   2.377   4.277   3.961
 5893SOL    HW118578   2.301   4.219   3.930
 5893SOL    HW218579   2.463   4.230   3.944
 5894SOL     OW18580   6.404   5.625   4.016
 5894SOL    HW118581   6.475   5.693   4.034
 5894SOL    HW218582   6.406   5.600   3.919
 5895SOL     OW18583   5.562   3.999   4.189
 5895SOL    HW118584   5.523   4.024   4.101
 5895SOL    HW218585   5.529   3.907   4.214
 5896SOL     OW18586   3.385   0.809   0.366
 5896SOL    HW118587   3.318   0.833   0.436
 5896SOL    HW218588   3.341   0.756   0.294
 5897SOL     OW18589   4.274   0.713   1.428
 5897SOL    HW118590   4.329   0.630   1.418
 5897SOL    HW218591   4.306   0.782   1.362
 5898SOL     OW18592   2.256   6.920   3.622
 5898SOL    HW118593   2.185   6.887   3.684
 5898SOL    HW218594   2.341   6.869   3.638
 5899SOL     OW18595   5.906   5.763   6.850
 5899SOL    HW118596   5.947   5.822   6.920
 5899SOL    HW218597   5.916   5.667   6.877
 5900SOL     OW18598   6.180   5.343   3.799
 5900SOL    HW118599   6.140   5.345   3.708
 5900SOL    HW218600   6.244   5.419   3.809
 5901SOL     OW18601   2.311   0.942   6.979
 5901SOL    HW118602   2.253   0.883   0.007
 5901SOL    HW218603   2.272   0.949   6.887
 5902SOL     OW18604   6.166   1.917   5.662
 5902SOL    HW118605   6.111   1.945   5.584
 5902SOL    HW218606   6.205   1.998   5.706
 5903SOL     OW18607   4.911   4.835   7.029
 5903SOL    HW118608   4.940   4.821   6.934
 5903SOL    HW218609   4.914   4.748   0.049
 5904SOL     OW18610   1.125   4.093   1.534
 5904SOL    HW118611   1.052   4.026   1.523
 5904SOL    HW218612   1.087   4.180   1.566
 5905SOL     OW18613   6.159   6.577   3.387
 5905SOL    HW118614   6.249   6.535   3.382
 5905SOL    HW218615   6.108   6.556   3.303
 5906SOL     OW18616   3.839   2.214   4.268
 5906SOL    HW118617   3.783   2.146   4.315
 5906SOL    HW218618   3.792   2.303   4.271
 5907SOL     OW18619   1.650   4.689   0.956
 5907SOL    HW118620   1.646   4.732   1.046
 5907SOL    HW218621   1.744   4.664   0.935
 5908SOL     OW18622   0.215   3.088   6.846
 5908SOL    HW118623   0.118   3.066   6.858
 5908SOL    HW218624   0.244   3.151   6.918
 5909SOL     OW18625   6.634   5.449   0.766
 5909SOL    HW118626   6.639   5.451   0.866
 5909SOL    HW218627   6.650   5.356   0.733
 5910SOL     OW18628   0.219   4.214   3.818
 5910SOL    HW118629   0.167   4.293   3.785
 5910SOL    HW218630   0.286   4.188   3.749
 5911SOL     OW18631   0.083   5.912   6.760
 5911SOL    HW118632   0.176   5.901   6.795
 5911SOL    HW218633   0.068   5.847   6.686
 5912SOL     OW18634   6.088   1.301   6.450
 5912SOL    HW118635   6.046   1.229   6.396
 5912SOL    HW218636   6.023   1.375   6.466
 5913SOL     OW18637   5.176   3.102   6.621
 5913SOL    HW118638   5.219   3.191   6.638
 5913SOL    HW218639   5.245   3.030   6.626
 5914SOL     OW18640   1.247   4.784   5.791
 5914SOL    HW118641   1.279   4.870   5.751
 5914SOL    HW218642   1.224   4.720   5.718
 5915SOL     OW18643   4.709   5.616   1.037
 5915SOL    HW118644   4.708   5.716   1.032
 5915SOL    HW218645   4.798   5.582   1.005
 5916SOL     OW18646   4.869   7.016   4.048
 5916SOL    HW118647   4.930   6.999   3.970
 5916SOL    HW218648   4.911   0.055   4.108
 5917SOL     OW18649   3.016   3.873   4.028
 5917SOL    HW118650   2.975   3.793   3.984
 5917SOL    HW218651   2.990   3.875   4.125
 5918SOL     OW18652   1.841   3.546   6.219
 5918SOL    HW118653   1.913   3.480   6.200
 5918SOL    HW218654   1.829   3.554   6.318
 5919SOL     OW18655   3.480   3.316   3.105
 5919SOL    HW118656   3.575   3.343   3.122
 5919SOL    HW218657   3.422   3.397   3.100
 5920SOL     OW18658   4.617   0.517   0.048
 5920SOL    HW118659   4.584   0.568   6.997
 5920SOL    HW218660   4.556   0.533   0.125
 5921SOL     OW18661   3.861   5.490   6.864
 5921SOL    HW118662   3.786   5.455   6.919
 5921SOL    HW218663   3.852   5.457   6.770
 5922SOL     OW18664   5.350   5.162   2.962
 5922SOL    HW118665   5.373   5.257   2.942
 5922SOL    HW218666   5.255   5.155   2.992
 5923SOL     OW18667   6.349   1.342   1.320
 5923SOL    HW118668   6.444   1.319   1.338
 5923SOL    HW218669   6.320   1.301   1.234
 5924SOL     OW18670   6.283   0.542   2.982
 5924SOL    HW118671   6.353   0.583   2.923
 5924SOL    HW218672   6.255   0.608   3.051
 5925SOL     OW18673   4.074   6.890   2.341
 5925SOL    HW118674   4.051   6.928   2.252
 5925SOL    HW218675   4.173   6.885   2.350
 5926SOL     OW18676   4.123   5.448   0.958
 5926SOL    HW118677   4.124   5.522   1.025
 5926SOL    HW218678   4.057   5.468   0.887
 5927SOL     OW18679   1.426   3.703   2.233
 5927SOL    HW118680   1.526   3.707   2.240
 5927SOL    HW218681   1.386   3.701   2.324
 5928SOL     OW18682   4.298   0.464   0.874
 5928SOL    HW118683   4.292   0.378   0.823
 5928SOL    HW218684   4.384   0.510   0.852
 5929SOL     OW18685   0.232   6.825   6.742
 5929SOL    HW118686   0.255   6.906   6.688
 5929SOL    HW218687   0.159   6.775   6.696
 5930SOL     OW18688   0.108   3.451   3.224
 5930SOL    HW118689   0.147   3.409   3.306
 5930SOL    HW218690   0.176   3.452   3.151
 5931SOL     OW18691   0.151   5.563   2.609
 5931SOL    HW118692   0.251   5.556   2.614
 5931SOL    HW218693   0.112   5.476   2.581
 5932SOL     OW18694   3.423   0.173   0.593
 5932SOL    HW118695   3.471   0.101   0.643
 5932SOL    HW218696   3.325   0.153   0.592
 5933SOL     OW18697   6.788   6.135   2.757
 5933SOL    HW118698   6.769   6.232   2.736
 5933SOL    HW218699   6.740   6.110   2.841
 5934SOL     OW18700   3.728   2.878   4.707
 5934SOL    HW118701   3.682   2.907   4.624
 5934SOL    HW218702   3.801   2.944   4.729
 5935SOL     OW18703   5.321   5.263   6.252
 5935SOL    HW118704   5.334   5.203   6.173
 5935SOL    HW218705   5.328   5.209   6.336
 5936SOL     OW18706   3.651   2.741   1.487
 5936SOL    HW118707   3.714   2.817   1.468
 5936SOL    HW218708   3.688   2.657   1.447
 5937SOL     OW18709   6.822   4.321   2.574
 5937SOL    HW118710   6.723   4.315   2.579
 5937SOL    HW218711   6.848   4.389   2.506
 5938SOL     OW18712   0.044   5.699   2.971
 5938SOL    HW118713   0.045   5.717   3.069
 5938SOL    HW218714   0.025   5.785   2.922
 5939SOL     OW18715   2.445   6.730   3.210
 5939SOL    HW118716   2.513   6.674   3.258
 5939SOL    HW218717   2.443   6.703   3.113
 5940SOL     OW18718   4.984   5.352   1.414
 5940SOL    HW118719   5.012   5.398   1.499
 5940SOL    HW218720   5.001   5.412   1.336
 5941SOL     OW18721   5.942   3.121   2.459
 5941SOL    HW118722   5.961   3.172   2.375
 5941SOL    HW218723   5.853   3.076   2.451
 5942SOL     OW18724   4.895   4.168   0.075
 5942SOL    HW118725   4.881   4.248   0.016
 5942SOL    HW218726   4.897   4.086   0.019
 5943SOL     OW18727   3.060   4.829   6.305
 5943SOL    HW118728   3.126   4.783   6.363
 5943SOL    HW218729   3.104   4.906   6.258
 5944SOL     OW18730   6.656   2.917   0.698
 5944SOL    HW118731   6.700   2.858   0.765
 5944SOL    HW218732   6.557   2.901   0.699
 5945SOL     OW18733   6.329   5.193   4.610
 5945SOL    HW118734   6.411   5.140   4.631
 5945SOL    HW218735   6.309   5.256   4.685
 5946SOL     OW18736   4.069   3.418   6.265
 5946SOL    HW118737   3.981   3.454   6.295
 5946SOL    HW218738   4.138   3.434   6.335
 5947SOL     OW18739   2.951   3.402   2.373
 5947SOL    HW118740   3.048   3.386   2.393
 5947SOL    HW218741   2.928   3.359   2.285
 5948SOL     OW18742   3.994   5.026   3.692
 5948SOL    HW118743   4.036   4.941   3.659
 5948SOL    HW218744   3.900   5.008   3.721
 5949SOL     OW18745   5.201   3.399   1.892
 5949SOL    HW118746   5.246   3.443   1.814
 5949SOL    HW218747   5.102   3.399   1.878
 5950SOL     OW18748   4.680   1.296   5.706
 5950SOL    HW118749   4.752   1.242   5.663
 5950SOL    HW218750   4.592   1.274   5.662
 5951SOL     OW18751   1.684   5.951   4.047
 5951SOL    HW118752   1.662   6.020   3.978
 5951SOL    HW218753   1.763   5.897   4.017
 5952SOL     OW18754   5.681   4.717   3.422
 5952SOL    HW118755   5.584   4.727   3.445
 5952SOL    HW218756   5.717   4.803   3.387
 5953SOL     OW18757   6.807   2.840   5.889
 5953SOL    HW118758   6.864   2.758   5.880
 5953SOL    HW218759   6.744   2.828   5.966
 5954SOL     OW18760   6.749   4.454   5.575
 5954SOL    HW118761   6.796   4.504   5.648
 5954SOL    HW218762   6.800   4.371   5.554
 5955SOL     OW18763   4.409   5.714   2.691
 5955SOL    HW118764   4.329   5.658   2.669
 5955SOL    HW218765   4.379   5.802   2.726
 5956SOL     OW18766   4.320   1.805   4.910
 5956SOL    HW118767   4.413   1.842   4.919
 5956SOL    HW218768   4.273   1.851   4.834
 5957SOL     OW18769   4.312   0.622   5.701
 5957SOL    HW118770   4.288   0.688   5.772
 5957SOL    HW218771   4.247   0.547   5.702
 5958SOL     OW18772   5.361   6.478   2.958
 5958SOL    HW118773   5.331   6.530   2.878
 5958SOL    HW218774   5.367   6.381   2.933
 5959SOL     OW18775   4.127   2.824   5.403
 5959SOL    HW118776   4.204   2.884   5.382
 5959SOL    HW218777   4.091   2.783   5.319
 5960SOL     OW18778   3.995   5.541   4.842
 5960SOL    HW118779   4.074   5.482   4.823
 5960SOL    HW218780   3.950   5.565   4.756
 5961SOL     OW18781   5.096   1.561   2.657
 5961SOL    HW118782   5.056   1.653   2.650
 5961SOL    HW218783   5.025   1.496   2.682
 5962SOL     OW18784   5.730   6.481   0.528
 5962SOL    HW118785   5.746   6.448   0.434
 5962SOL    HW218786   5.775   6.569   0.541
 5963SOL     OW18787   4.364   3.820   5.912
 5963SOL    HW118788   4.351   3.829   6.011
 5963SOL    HW218789   4.448   3.770   5.893
 5964SOL     OW18790   0.506   5.468   5.453
 5964SOL    HW118791   0.502   5.416   5.538
 5964SOL    HW218792   0.545   5.558   5.471
 5965SOL     OW18793   1.985   1.721   6.640
 5965SOL    HW118794   1.896   1.699   6.679
 5965SOL    HW218795   1.973   1.769   6.553
 5966SOL     OW18796   2.240   5.712   5.378
 5966SOL    HW118797   2.147   5.746   5.364
 5966SOL    HW218798   2.296   5.732   5.298
 5967SOL     OW18799   3.942   6.970   6.413
 5967SOL    HW118800   3.990   6.907   6.474
 5967SOL    HW218801   3.846   6.942   6.405
 5968SOL     OW18802   4.943   2.236   0.605
 5968SOL    HW118803   4.878   2.174   0.561
 5968SOL    HW218804   4.982   2.298   0.538
 5969SOL     OW18805   6.799   6.992   6.469
 5969SOL    HW118806   6.896   7.009   6.451
 5969SOL    HW218807   6.744   0.009   6.400
 5970SOL     OW18808   0.214   4.327   2.455
 5970SOL    HW118809   0.162   4.260   2.507
 5970SOL    HW218810   0.278   4.281   2.394
 5971SOL     OW18811   0.668   1.230   2.341
 5971SOL    HW118812   0.745   1.283   2.374
 5971SOL    HW218813   0.679   1.211   2.244
 5972SOL     OW18814   5.961   5.342   5.949
 5972SOL    HW118815   5.987   5.367   5.856
 5972SOL    HW218816   5.866   5.367   5.965
 5973SOL     OW18817   1.708   3.681   2.841
 5973SOL    HW118818   1.618   3.723   2.846
 5973SOL    HW218819   1.720   3.619   2.919
 5974SOL     OW18820   6.032   5.785   6.397
 5974SOL    HW118821   6.019   5.750   6.304
 5974SOL    HW218822   5.965   5.743   6.458
 5975SOL     OW18823   4.891   0.151   0.656
 5975SOL    HW118824   4.898   0.242   0.697
 5975SOL    HW218825   4.959   0.142   0.584
 5976SOL     OW18826   3.666   2.385   5.783
 5976SOL    HW118827   3.695   2.295   5.752
 5976SOL    HW218828   3.566   2.388   5.787
 5977SOL     OW18829   1.632   5.536   6.697
 5977SOL    HW118830   1.678   5.578   6.776
 5977SOL    HW218831   1.653   5.438   6.694
 5978SOL     OW18832   4.440   5.384   1.749
 5978SOL    HW118833   4.488   5.311   1.700
 5978SOL    HW218834   4.471   5.473   1.715
 5979SOL     OW18835   5.814   0.903   3.130
 5979SOL    HW118836   5.864   0.971   3.184
 5979SOL    HW218837   5.740   0.948   3.081
 5980SOL     OW18838   3.719   3.914   1.136
 5980SOL    HW118839   3.669   3.955   1.060
 5980SOL    HW218840   3.794   3.974   1.162
 5981SOL     OW18841   5.038   2.434   1.324
 5981SOL    HW118842   5.023   2.348   1.373
 5981SOL    HW218843   5.124   2.429   1.274
 5982SOL     OW18844   6.331   3.249   2.483
 5982SOL    HW118845   6.277   3.308   2.423
 5982SOL    HW218846   6.376   3.305   2.552
 5983SOL     OW18847   1.322   1.520   4.185
 5983SOL    HW118848   1.292   1.431   4.218
 5983SOL    HW218849   1.279   1.592   4.239
 5984SOL     OW18850   6.575   5.706   3.493
 5984SOL    HW118851   6.504   5.725   3.425
 5984SOL    HW218852   6.599   5.791   3.540
 5985SOL     OW18853   6.874   2.862   4.225
 5985SOL    HW118854   6.876   2.855   4.325
 5985SOL    HW218855   6.826   2.783   4.187
 5986SOL     OW18856   3.131   3.665   4.370
 5986SOL    HW118857   3.142   3.670   4.469
 5986SOL    HW218858   3.073   3.740   4.339
 5987SOL     OW18859   5.184   0.100   3.988
 5987SOL    HW118860   5.113   0.094   3.918
 5987SOL    HW218861   5.251   0.027   3.974
 5988SOL     OW18862   4.744   0.037   6.047
 5988SOL    HW118863   4.761   6.978   6.003
 5988SOL    HW218864   4.820   0.100   6.027
 5989SOL     OW18865   2.027   6.200   6.692
 5989SOL    HW118866   2.024   6.279   6.752
 5989SOL    HW218867   2.023   6.229   6.597
 5990SOL     OW18868   3.690   3.933   0.519
 5990SOL    HW118869   3.652   3.851   0.477
 5990SOL    HW218870   3.703   4.003   0.448
 5991SOL     OW18871   3.370   5.158   7.007
 5991SOL    HW118872   3.376   5.213   6.924
 5991SOL    HW218873   3.378   5.218   0.058
 5992SOL     OW18874   3.535   0.301   1.977
 5992SOL    HW118875   3.435   0.308   1.973
 5992SOL    HW218876   3.576   0.390   1.959
 5993SOL     OW18877   3.502   5.213   6.184
 5993SOL    HW118878   3.439   5.161   6.127
 5993SOL    HW218879   3.572   5.151   6.221
 5994SOL     OW18880   5.801   2.826   2.214
 5994SOL    HW118881   5.815   2.883   2.134
 5994SOL    HW218882   5.807   2.881   2.297
 5995SOL     OW18883   4.849   3.774   2.396
 5995SOL    HW118884   4.848   3.873   2.404
 5995SOL    HW218885   4.820   3.748   2.304
 5996SOL     OW18886   1.180   6.515   1.104
 5996SOL    HW118887   1.199   6.609   1.075
 5996SOL    HW218888   1.101   6.515   1.165
 5997SOL     OW18889   0.154   5.865   2.641
 5997SOL    HW118890   0.066   5.912   2.643
 5997SOL    HW218891   0.138   5.766   2.649
 5998SOL     OW18892   5.590   0.992   3.665
 5998SOL    HW118893   5.560   1.086   3.679
 5998SOL    HW218894   5.624   0.981   3.571
 5999SOL     OW18895   1.717   1.582   2.011
 5999SOL    HW118896   1.719   1.508   2.079
 5999SOL    HW218897   1.782   1.561   1.937
 6000SOL     OW18898   3.805   7.014   0.699
 6000SOL    HW118899   3.845   6.954   0.630
 6000SOL    HW218900   3.856   7.005   0.785
 6001SOL     OW18901   0.764   4.055   0.050
 6001SOL    HW118902   0.810   4.049   6.990
 6001SOL    HW218903   0.667   4.077   0.035
 6002SOL     OW18904   5.606   0.951   0.708
 6002SOL    HW118905   5.565   1.041   0.719
 6002SOL    HW218906   5.668   0.933   0.785
 6003SOL     OW18907   5.775   1.977   4.989
 6003SOL    HW118908   5.686   2.021   5.004
 6003SOL    HW218909   5.819   1.961   5.077
 6004SOL     OW18910   6.840   3.756   2.556
 6004SOL    HW118911   6.832   3.837   2.498
 6004SOL    HW218912   6.909   3.772   2.626
 6005SOL     OW18913   4.567   5.912   4.395
 6005SOL    HW118914   4.666   5.907   4.398
 6005SOL    HW218915   4.539   5.969   4.317
 6006SOL     OW18916   2.712   1.380   5.449
 6006SOL    HW118917   2.726   1.364   5.546
 6006SOL    HW218918   2.637   1.446   5.436
 6007SOL     OW18919   5.007   4.182   5.502
 6007SOL    HW118920   4.941   4.115   5.536
 6007SOL    HW218921   5.074   4.137   5.444
 6008SOL     OW18922   2.593   4.570   5.383
 6008SOL    HW118923   2.648   4.591   5.464
 6008SOL    HW218924   2.618   4.479   5.349
 6009SOL     OW18925   2.055   0.688   3.090
 6009SOL    HW118926   2.056   0.740   3.004
 6009SOL    HW218927   2.144   0.643   3.102
 6010SOL     OW18928   1.307   5.086   4.230
 6010SOL    HW118929   1.382   5.146   4.201
 6010SOL    HW218930   1.342   4.992   4.239
 6011SOL     OW18931   4.792   2.708   3.090
 6011SOL    HW118932   4.772   2.770   3.014
 6011SOL    HW218933   4.843   2.629   3.056
 6012SOL     OW18934   5.588   0.809   0.277
 6012SOL    HW118935   5.564   0.714   0.299
 6012SOL    HW218936   5.648   0.846   0.348
 6013SOL     OW18937   4.913   1.995   2.431
 6013SOL    HW118938   4.815   2.012   2.442
 6013SOL    HW218939   4.942   2.022   2.339
 6014SOL     OW18940   3.953   3.288   2.421
 6014SOL    HW118941   3.914   3.214   2.365
 6014SOL    HW218942   3.925   3.275   2.516
 6015SOL     OW18943   6.064   4.196   3.747
 6015SOL    HW118944   6.149   4.188   3.696
 6015SOL    HW218945   6.028   4.105   3.769
 6016SOL     OW18946   6.743   1.847   4.987
 6016SOL    HW118947   6.761   1.822   5.083
 6016SOL    HW218948   6.679   1.923   4.984
 6017SOL     OW18949   6.599   4.145   3.348
 6017SOL    HW118950   6.543   4.196   3.283
 6017SOL    HW218951   6.649   4.209   3.407
 6018SOL     OW18952   4.007   0.615   6.589
 6018SOL    HW118953   4.087   0.668   6.617
 6018SOL    HW218954   3.956   0.587   6.671
 6019SOL     OW18955   6.773   1.307   4.323
 6019SOL    HW118956   6.783   1.228   4.383
 6019SOL    HW218957   6.830   1.382   4.357
 6020SOL     OW18958   1.358   4.705   0.594
 6020SOL    HW118959   1.261   4.730   0.595
 6020SOL    HW218960   1.412   4.783   0.623
 6021SOL     OW18961   4.955   0.419   3.312
 6021SOL    HW118962   5.003   0.359   3.377
 6021SOL    HW218963   4.858   0.395   3.310
 6022SOL     OW18964   5.439   2.540   4.056
 6022SOL    HW118965   5.481   2.568   4.142
 6022SOL    HW218966   5.512   2.516   3.991
 6023SOL     OW18967   5.890   0.869   2.211
 6023SOL    HW118968   5.800   0.885   2.170
 6023SOL    HW218969   5.879   0.849   2.308
 6024SOL     OW18970   1.408   5.030   3.004
 6024SOL    HW118971   1.435   5.075   2.919
 6024SOL    HW218972   1.311   5.004   2.999
 6025SOL     OW18973   3.906   1.715   2.936
 6025SOL    HW118974   3.818   1.682   2.970
 6025SOL    HW218975   3.980   1.670   2.987
 6026SOL     OW18976   0.368   4.173   5.458
 6026SOL    HW118977   0.276   4.187   5.496
 6026SOL    HW218978   0.432   4.234   5.504
 6027SOL     OW18979   0.880   3.219   5.925
 6027SOL    HW118980   0.972   3.253   5.909
 6027SOL    HW218981   0.859   3.146   5.860
 6028SOL     OW18982   6.520   5.206   0.022
 6028SOL    HW118983   6.522   5.211   6.951
 6028SOL    HW218984   6.503   5.297   0.059
 6029SOL     OW18985   2.284   6.706   4.927
 6029SOL    HW118986   2.320   6.798   4.913
 6029SOL    HW218987   2.354   6.649   4.972
 6030SOL     OW18988   3.861   5.428   2.157
 6030SOL    HW118989   3.790   5.361   2.137
 6030SOL    HW218990   3.948   5.382   2.171
 6031SOL     OW18991   2.837   5.488   3.895
 6031SOL    HW118992   2.820   5.454   3.988
 6031SOL    HW218993   2.935   5.491   3.879
 6032SOL     OW18994   2.061   4.578   2.787
 6032SOL    HW118995   2.142   4.555   2.734
 6032SOL    HW218996   1.988   4.608   2.725
 6033SOL     OW18997   3.050   1.924   3.262
 6033SOL    HW118998   2.966   1.900   3.215
 6033SOL    HW218999   3.050   2.021   3.285
 6034SOL     OW19000   1.444   6.092   4.771
 6034SOL    HW119001   1.405   6.006   4.739
 6034SOL    HW219002   1.507   6.128   4.701
 6035SOL     OW19003   0.276   0.909   2.444
 6035SOL    HW119004   0.209   0.977   2.475
 6035SOL    HW219005   0.346   0.955   2.389
 6036SOL     OW19006   5.271   4.860   3.363
 6036SOL    HW119007   5.200   4.795   3.392
 6036SOL    HW219008   5.344   4.861   3.432
 6037SOL     OW19009   3.993   5.994   6.877
 6037SOL    HW119010   4.081   5.985   6.923
 6037SOL    HW219011   3.950   5.904   6.867
 6038SOL     OW19012   1.991   2.058   5.495
 6038SOL    HW119013   1.943   2.114   5.562
 6038SOL    HW219014   2.035   2.117   5.427
 6039SOL     OW19015   3.143   3.647   2.295
 6039SOL    HW119016   3.198   3.701   2.359
 6039SOL    HW219017   3.069   3.601   2.344
 6040SOL     OW19018   1.136   1.639   6.876
 6040SOL    HW119019   1.083   1.691   6.807
 6040SOL    HW219020   1.214   1.595   6.831
 6041SOL     OW19021   3.190   0.890   5.022
 6041SOL    HW119022   3.278   0.936   5.030
 6041SOL    HW219023   3.138   0.903   5.106
 6042SOL     OW19024   4.652   5.973   2.311
 6042SOL    HW119025   4.568   5.961   2.364
 6042SOL    HW219026   4.732   5.962   2.372
 6043SOL     OW19027   0.515   4.616   5.114
 6043SOL    HW119028   0.575   4.693   5.140
 6043SOL    HW219029   0.449   4.648   5.046
 6044SOL     OW19030   1.198   2.597   1.399
 6044SOL    HW119031   1.235   2.574   1.489
 6044SOL    HW219032   1.146   2.520   1.363
 6045SOL     OW19033   5.593   4.426   2.682
 6045SOL    HW119034   5.534   4.348   2.702
 6045SOL    HW219035   5.616   4.426   2.584
 6046SOL     OW19036   3.467   2.390   0.430
 6046SOL    HW119037   3.431   2.299   0.413
 6046SOL    HW219038   3.548   2.406   0.373
 6047SOL     OW19039   4.621   2.088   2.068
 6047SOL    HW119040   4.568   2.015   2.024
 6047SOL    HW219041   4.582   2.177   2.043
 6048SOL     OW19042   4.764   5.268   4.904
 6048SOL    HW119043   4.848   5.227   4.941
 6048SOL    HW219044   4.685   5.217   4.938
 6049SOL     OW19045   5.034   3.328   6.745
 6049SOL    HW119046   4.944   3.285   6.732
 6049SOL    HW219047   5.035   3.417   6.698
 6050SOL     OW19048   3.859   5.621   5.305
 6050SOL    HW119049   3.848   5.532   5.348
 6050SOL    HW219050   3.910   5.682   5.365
 6051SOL     OW19051   2.383   0.341   4.048
 6051SOL    HW119052   2.375   0.423   3.992
 6051SOL    HW219053   2.314   0.274   4.021
 6052SOL     OW19054   6.861   0.616   0.283
 6052SOL    HW119055   6.936   0.589   0.342
 6052SOL    HW219056   6.832   0.709   0.306
 6053SOL     OW19057   4.475   1.833   6.521
 6053SOL    HW119058   4.509   1.768   6.453
 6053SOL    HW219059   4.398   1.793   6.570
 6054SOL     OW19060   2.114   3.196   0.057
 6054SOL    HW119061   2.136   3.228   0.149
 6054SOL    HW219062   2.019   3.166   0.053
 6055SOL     OW19063   4.918   0.703   5.163
 6055SOL    HW119064   4.904   0.752   5.249
 6055SOL    HW219065   4.946   0.767   5.092
 6056SOL     OW19066   4.777   2.708   4.366
 6056SOL    HW119067   4.846   2.701   4.294
 6056SOL    HW219068   4.822   2.716   4.455
 6057SOL     OW19069   5.883   2.795   3.824
 6057SOL    HW119070   5.793   2.818   3.859
 6057SOL    HW219071   5.909   2.860   3.752
 6058SOL     OW19072   5.009   2.830   1.566
 6058SOL    HW119073   4.966   2.909   1.522
 6058SOL    HW219074   5.049   2.858   1.653
 6059SOL     OW19075   5.483   4.686   4.845
 6059SOL    HW119076   5.437   4.619   4.903
 6059SOL    HW219077   5.436   4.692   4.757
 6060SOL     OW19078   3.251   3.887   0.117
 6060SOL    HW119079   3.163   3.922   0.149
 6060SOL    HW219080   3.250   3.881   0.017
 6061SOL     OW19081   4.011   2.598   1.086
 6061SOL    HW119082   4.067   2.517   1.103
 6061SOL    HW219083   3.936   2.576   1.024
 6062SOL     OW19084   2.266   1.088   5.249
 6062SOL    HW119085   2.201   1.155   5.213
 6062SOL    HW219086   2.345   1.082   5.188
 6063SOL     OW19087   4.098   2.125   6.241
 6063SOL    HW119088   4.163   2.176   6.184
 6063SOL    HW219089   4.005   2.146   6.213
 6064SOL     OW19090   2.014   6.235   0.661
 6064SOL    HW119091   1.924   6.198   0.638
 6064SOL    HW219092   2.084   6.164   0.650
 6065SOL     OW19093   0.063   6.618   1.911
 6065SOL    HW119094   0.097   6.712   1.905
 6065SOL    HW219095   0.133   6.556   1.876
 6066SOL     OW19096   4.610   1.082   6.122
 6066SOL    HW119097   4.512   1.069   6.136
 6066SOL    HW219098   4.632   1.179   6.129
 6067SOL     OW19099   5.665   1.008   5.513
 6067SOL    HW119100   5.671   0.996   5.414
 6067SOL    HW219101   5.753   1.035   5.550
 6068SOL     OW19102   5.607   3.734   4.798
 6068SOL    HW119103   5.592   3.635   4.793
 6068SOL    HW219104   5.693   3.757   4.752
 6069SOL     OW19105   6.281   2.421   5.454
 6069SOL    HW119106   6.288   2.329   5.492
 6069SOL    HW219107   6.365   2.471   5.472
 6070SOL     OW19108   2.712   2.544   0.740
 6070SOL    HW119109   2.664   2.517   0.657
 6070SOL    HW219110   2.675   2.492   0.817
 6071SOL     OW19111   5.387   5.493   3.463
 6071SOL    HW119112   5.446   5.520   3.386
 6071SOL    HW219113   5.400   5.396   3.482
 6072SOL     OW19114   6.988   0.347   1.823
 6072SOL    HW119115   6.899   0.306   1.845
 6072SOL    HW219116   6.974   0.434   1.776
 6073SOL     OW19117   6.035   3.330   6.980
 6073SOL    HW119118   5.947   3.286   6.962
 6073SOL    HW219119   6.019   3.421   7.019
 6074SOL     OW19120   1.331   6.526   3.599
 6074SOL    HW119121   1.381   6.601   3.643
 6074SOL    HW219122   1.284   6.472   3.668
 6075SOL     OW19123   6.626   1.442   6.098
 6075SOL    HW119124   6.555   1.487   6.152
 6075SOL    HW219125   6.603   1.345   6.088
 6076SOL     OW19126   2.973   5.541   4.617
 6076SOL    HW119127   2.875   5.538   4.637
 6076SOL    HW219128   2.991   5.610   4.547
 6077SOL     OW19129   6.050   5.960   1.085
 6077SOL    HW119130   5.984   5.893   1.051
 6077SOL    HW219131   6.142   5.933   1.057
 6078SOL     OW19132   4.293   5.123   0.361
 6078SOL    HW119133   4.369   5.188   0.376
 6078SOL    HW219134   4.268   5.123   0.265
 6079SOL     OW19135   4.672   4.079   6.227
 6079SOL    HW119136   4.638   3.988   6.250
 6079SOL    HW219137   4.602   4.130   6.178
 6080SOL     OW19138   0.044   0.440   1.283
 6080SOL    HW119139   7.027   0.431   1.194
 6080SOL    HW219140   7.009   0.414   1.355
 6081SOL     OW19141   6.395   3.607   5.537
 6081SOL    HW119142   6.407   3.561   5.625
 6081SOL    HW219143   6.417   3.704   5.547
 6082SOL     OW19144   2.099   2.222   4.018
 6082SOL    HW119145   2.037   2.144   4.023
 6082SOL    HW219146   2.122   2.241   3.922
 6083SOL     OW19147   6.783   5.281   6.742
 6083SOL    HW119148   6.864   5.227   6.762
 6083SOL    HW219149   6.701   5.227   6.763
 6084SOL     OW19150   0.907   0.130   3.681
 6084SOL    HW119151   0.877   0.035   3.691
 6084SOL    HW219152   0.851   0.175   3.612
 6085SOL     OW19153   0.660   4.851   0.442
 6085SOL    HW119154   0.582   4.847   0.504
 6085SOL    HW219155   0.732   4.790   0.476
 6086SOL     OW19156   4.106   0.252   6.129
 6086SOL    HW119157   4.087   0.301   6.044
 6086SOL    HW219158   4.034   0.272   6.196
 6087SOL     OW19159   3.655   5.500   0.831
 6087SOL    HW119160   3.583   5.477   0.765
 6087SOL    HW219161   3.662   5.600   0.839
 6088SOL     OW19162   5.889   5.469   3.702
 6088SOL    HW119163   5.935   5.502   3.784
 6088SOL    HW219164   5.906   5.371   3.691
 6089SOL     OW19165   5.302   3.536   1.339
 6089SOL    HW119166   5.373   3.481   1.296
 6089SOL    HW219167   5.230   3.556   1.272
 6090SOL     OW19168   2.281   5.637   5.630
 6090SOL    HW119169   2.254   5.658   5.536
 6090SOL    HW219170   2.240   5.705   5.692
 6091SOL     OW19171   1.661   1.319   0.519
 6091SOL    HW119172   1.660   1.242   0.455
 6091SOL    HW219173   1.567   1.347   0.538
 6092SOL     OW19174   3.901   0.067   2.880
 6092SOL    HW119175   3.864   0.037   2.968
 6092SOL    HW219176   3.910   0.166   2.880
 6093SOL     OW19177   1.786   3.495   2.117
 6093SOL    HW119178   1.734   3.580   2.114
 6093SOL    HW219179   1.859   3.501   2.184
 6094SOL     OW19180   2.782   6.614   1.429
 6094SOL    HW119181   2.734   6.658   1.354
 6094SOL    HW219182   2.760   6.661   1.515
 6095SOL     OW19183   5.232   3.766   0.572
 6095SOL    HW119184   5.142   3.808   0.556
 6095SOL    HW219185   5.300   3.838   0.586
 6096SOL     OW19186   0.019   0.159   3.203
 6096SOL    HW119187   0.049   0.072   3.164
 6096SOL    HW219188   0.094   0.199   3.255
 6097SOL     OW19189   2.688   6.612   2.609
 6097SOL    HW119190   2.697   6.633   2.706
 6097SOL    HW219191   2.776   6.622   2.564
 6098SOL     OW19192   1.856   2.246   5.104
 6098SOL    HW119193   1.825   2.331   5.062
 6098SOL    HW219194   1.787   2.213   5.168
 6099SOL     OW19195   6.374   6.066   6.808
 6099SOL    HW119196   6.275   6.054   6.819
 6099SOL    HW219197   6.394   6.162   6.792
 6100SOL     OW19198   4.965   5.254   0.244
 6100SOL    HW119199   4.937   5.338   0.290
 6100SOL    HW219200   4.899   5.232   0.173
 6101SOL     OW19201   6.286   2.822   4.654
 6101SOL    HW119202   6.297   2.775   4.567
 6101SOL    HW219203   6.279   2.756   4.728
 6102SOL     OW19204   3.275   6.905   3.756
 6102SOL    HW119205   3.342   6.977   3.773
 6102SOL    HW219206   3.183   6.940   3.773
 6103SOL     OW19207   6.745   2.303   2.527
 6103SOL    HW119208   6.797   2.239   2.583
 6103SOL    HW219209   6.708   2.375   2.585
 6104SOL     OW19210   6.073   0.522   5.362
 6104SOL    HW119211   6.016   0.592   5.320
 6104SOL    HW219212   6.112   0.557   5.447
 6105SOL     OW19213   2.881   6.542   6.216
 6105SOL    HW119214   2.944   6.489   6.159
 6105SOL    HW219215   2.929   6.618   6.259
 6106SOL     OW19216   2.603   3.920   6.177
 6106SOL    HW119217   2.533   3.938   6.108
 6106SOL    HW219218   2.642   4.007   6.208
 6107SOL     OW19219   3.069   5.102   4.338
 6107SOL    HW119220   2.969   5.101   4.336
 6107SOL    HW219221   3.102   5.196   4.350
 6108SOL     OW19222   1.455   2.878   1.922
 6108SOL    HW119223   1.456   2.943   1.998
 6108SOL    HW219224   1.478   2.925   1.837
 6109SOL     OW19225   5.247   2.701   5.184
 6109SOL    HW119226   5.267   2.668   5.092
 6109SOL    HW219227   5.156   2.743   5.185
 6110SOL     OW19228   4.137   4.094   0.418
 6110SOL    HW119229   4.088   4.008   0.408
 6110SOL    HW219230   4.230   4.076   0.451
 6111SOL     OW19231   2.252   4.098   2.293
 6111SOL    HW119232   2.302   4.064   2.373
 6111SOL    HW219233   2.158   4.119   2.320
 6112SOL     OW19234   4.157   0.325   2.741
 6112SOL    HW119235   4.095   0.248   2.730
 6112SOL    HW219236   4.228   0.321   2.670
 6113SOL     OW19237   2.511   1.229   6.311
 6113SOL    HW119238   2.431   1.263   6.261
 6113SOL    HW219239   2.539   1.141   6.272
 6114SOL     OW19240   5.325   5.985   1.292
 6114SOL    HW119241   5.317   6.026   1.383
 6114SOL    HW219242   5.344   5.887   1.301
 6115SOL     OW19243   5.161   7.015   4.318
 6115SOL    HW119244   5.088   0.046   4.286
 6115SOL    HW219245   5.203   6.968   4.240
 6116SOL     OW19246   3.525   0.956   6.788
 6116SOL    HW119247   3.559   1.021   6.856
 6116SOL    HW219248   3.596   0.890   6.766
 6117SOL     OW19249   1.538   1.249   4.737
 6117SOL    HW119250   1.554   1.151   4.749
 6117SOL    HW219251   1.588   1.300   4.807
 6118SOL     OW19252   6.725   1.082   2.125
 6118SOL    HW119253   6.642   1.055   2.173
 6118SOL    HW219254   6.758   1.169   2.162
 6119SOL     OW19255   1.456   3.449   6.375
 6119SOL    HW119256   1.537   3.500   6.349
 6119SOL    HW219257   1.421   3.482   6.462
 6120SOL     OW19258   3.678   6.493   4.705
 6120SOL    HW119259   3.714   6.578   4.743
 6120SOL    HW219260   3.601   6.461   4.761
 6121SOL     OW19261   1.033   3.416   5.617
 6121SOL    HW119262   1.082   3.458   5.541
 6121SOL    HW219263   1.072   3.446   5.703
 6122SOL     OW19264   4.167   5.823   0.752
 6122SOL    HW119265   4.076   5.864   0.753
 6122SOL    HW219266   4.195   5.805   0.658
 6123SOL     OW19267   6.089   6.905   6.923
 6123SOL    HW119268   6.133   6.918   7.012
 6123SOL    HW219269   6.157   6.908   6.850
 6124SOL     OW19270   2.374   7.026   6.132
 6124SOL    HW119271   2.420   6.957   6.187
 6124SOL    HW219272   2.306   6.983   6.073
 6125SOL     OW19273   1.173   5.178   0.837
 6125SOL    HW119274   1.149   5.270   0.867
 6125SOL    HW219275   1.266   5.156   0.868
 6126SOL     OW19276   1.223   0.186   4.236
 6126SOL    HW119277   1.212   0.089   4.215
 6126SOL    HW219278   1.133   0.231   4.231
 6127SOL     OW19279   4.197   6.851   1.151
 6127SOL    HW119280   4.097   6.848   1.153
 6127SOL    HW219281   4.227   6.946   1.154
 6128SOL     OW19282   6.047   3.404   0.471
 6128SOL    HW119283   6.056   3.489   0.419
 6128SOL    HW219284   6.019   3.330   0.410
 6129SOL     OW19285   6.772   3.254   3.415
 6129SOL    HW119286   6.803   3.337   3.462
 6129SOL    HW219287   6.843   3.184   3.421
 6130SOL     OW19288   6.025   2.368   4.129
 6130SOL    HW119289   6.054   2.301   4.198
 6130SOL    HW219290   6.106   2.414   4.091
 6131SOL     OW19291   0.190   1.359   5.271
 6131SOL    HW119292   0.174   1.421   5.195
 6131SOL    HW219293   0.225   1.410   5.349
 6132SOL     OW19294   4.725   2.328   0.093
 6132SOL    HW119295   4.664   2.250   0.103
 6132SOL    HW219296   4.815   2.306   0.130
 6133SOL     OW19297   1.380   2.723   2.185
 6133SOL    HW119298   1.463   2.707   2.238
 6133SOL    HW219299   1.405   2.757   2.094
 6134SOL     OW19300   3.615   4.592   6.512
 6134SOL    HW119301   3.528   4.544   6.521
 6134SOL    HW219302   3.655   4.572   6.423
 6135SOL     OW19303   0.683   0.491   1.991
 6135SOL    HW119304   0.746   0.548   2.045
 6135SOL    HW219305   0.702   0.395   2.010
 6136SOL     OW19306   0.944   2.412   2.378
 6136SOL    HW119307   1.034   2.446   2.406
 6136SOL    HW219308   0.952   2.317   2.348
 6137SOL     OW19309   6.601   2.649   3.691
 6137SOL    HW119310   6.686   2.688   3.657
 6137SOL    HW219311   6.543   2.622   3.613
 6138SOL     OW19312   3.817   6.864   3.214
 6138SOL    HW119313   3.812   6.963   3.204
 6138SOL    HW219314   3.872   6.841   3.295
 6139SOL     OW19315   0.981   0.313   6.285
 6139SOL    HW119316   1.012   0.382   6.350
 6139SOL    HW219317   0.984   0.222   6.328
 6140SOL     OW19318   0.526   6.459   1.426
 6140SOL    HW119319   0.531   6.386   1.493
 6140SOL    HW219320   0.598   6.527   1.444
 6141SOL     OW19321   7.002   6.615   6.253
 6141SOL    HW119322   0.007   6.709   6.253
 6141SOL    HW219323   0.027   6.561   6.189
 6142SOL     OW19324   1.320   5.883   0.279
 6142SOL    HW119325   1.398   5.886   0.343
 6142SOL    HW219326   1.306   5.789   0.249
 6143SOL     OW19327   6.921   4.023   1.242
 6143SOL    HW119328   6.832   3.993   1.209
 6143SOL    HW219329   6.993   3.988   1.182
 6144SOL     OW19330   5.270   4.117   3.102
 6144SOL    HW119331   5.222   4.184   3.046
 6144SOL    HW219332   5.297   4.159   3.189
 6145SOL     OW19333   4.982   5.427   3.227
 6145SOL    HW119334   4.957   5.461   3.318
 6145SOL    HW219335   5.081   5.416   3.222
 6146SOL     OW19336   2.740   5.863   3.369
 6146SOL    HW119337   2.718   5.949   3.415
 6146SOL    HW219338   2.741   5.877   3.270
 6147SOL     OW19339   1.739   2.723   4.516
 6147SOL    HW119340   1.676   2.801   4.517
 6147SOL    HW219341   1.716   2.662   4.441
 6148SOL     OW19342   5.869   7.026   4.187
 6148SOL    HW119343   5.850   6.948   4.127
 6148SOL    HW219344   5.795   0.007   4.254
 6149SOL     OW19345   2.946   5.849   1.148
 6149SOL    HW119346   2.899   5.916   1.205
 6149SOL    HW219347   2.926   5.757   1.182
 6150SOL     OW19348   4.512   5.299   0.386
 6150SOL    HW119349   4.486   5.395   0.402
 6150SOL    HW219350   4.570   5.294   0.305
 6151SOL     OW19351   6.040   4.564   6.431
 6151SOL    HW119352   5.972   4.633   6.457
 6151SOL    HW219353   5.997   4.495   6.373
 6152SOL     OW19354   5.992   5.254   4.434
 6152SOL    HW119355   5.911   5.219   4.388
 6152SOL    HW219356   6.063   5.183   4.435
 6153SOL     OW19357   5.542   4.593   1.032
 6153SOL    HW119358   5.483   4.644   1.095
 6153SOL    HW219359   5.587   4.657   0.970
 6154SOL     OW19360   6.200   2.316   2.410
 6154SOL    HW119361   6.244   2.298   2.498
 6154SOL    HW219362   6.265   2.362   2.349
 6155SOL     OW19363   1.690   2.006   4.289
 6155SOL    HW119364   1.700   2.103   4.267
 6155SOL    HW219365   1.774   1.958   4.265
 6156SOL     OW19366   4.015   4.504   1.515
 6156SOL    HW119367   4.043   4.416   1.551
 6156SOL    HW219368   3.926   4.530   1.553
 6157SOL     OW19369   0.780   0.097   4.927
 6157SOL    HW119370   0.874   0.125   4.944
 6157SOL    HW219371   0.722   0.128   5.002
 6158SOL     OW19372   3.904   1.220   6.078
 6158SOL    HW119373   3.935   1.252   5.988
 6158SOL    HW219374   3.863   1.295   6.128
 6159SOL     OW19375   4.726   2.782   2.482
 6159SOL    HW119376   4.670   2.785   2.399
 6159SOL    HW219377   4.820   2.757   2.457
 6160SOL     OW19378   5.286   1.560   6.623
 6160SOL    HW119379   5.210   1.501   6.649
 6160SOL    HW219380   5.316   1.613   6.702
 6161SOL     OW19381   4.660   1.039   4.964
 6161SOL    HW119382   4.654   1.037   5.064
 6161SOL    HW219383   4.568   1.029   4.925
 6162SOL     OW19384   0.778   6.413   3.608
 6162SOL    HW119385   0.789   6.435   3.511
 6162SOL    HW219386   0.840   6.339   3.633
 6163SOL     OW19387   6.407   6.749   0.922
 6163SOL    HW119388   6.486   6.694   0.895
 6163SOL    HW219389   6.417   6.777   1.018
 6164SOL     OW19390   3.915   3.245   1.901
 6164SOL    HW119391   3.879   3.176   1.964
 6164SOL    HW219392   4.014   3.237   1.895
 6165SOL     OW19393   4.486   0.908   0.208
 6165SOL    HW119394   4.562   0.951   0.160
 6165SOL    HW219395   4.484   0.940   0.303
 6166SOL     OW19396   5.400   1.220   6.091
 6166SOL    HW119397   5.419   1.192   5.997
 6166SOL    HW219398   5.381   1.318   6.094
 6167SOL     OW19399   1.039   5.279   3.602
 6167SOL    HW119400   1.097   5.360   3.591
 6167SOL    HW219401   1.082   5.200   3.557
 6168SOL     OW19402   1.162   3.774   1.660
 6168SOL    HW119403   1.186   3.842   1.591
 6168SOL    HW219404   1.063   3.770   1.671
 6169SOL     OW19405   1.532   2.383   0.960
 6169SOL    HW119406   1.553   2.285   0.960
 6169SOL    HW219407   1.613   2.433   0.930
 6170SOL     OW19408   1.021   4.309   5.784
 6170SOL    HW119409   0.936   4.312   5.837
 6170SOL    HW219410   1.037   4.397   5.741
 6171SOL     OW19411   0.756   3.255   0.503
 6171SOL    HW119412   0.735   3.192   0.428
 6171SOL    HW219413   0.721   3.218   0.589
 6172SOL     OW19414   1.860   2.930   2.626
 6172SOL    HW119415   1.822   2.938   2.534
 6172SOL    HW219416   1.943   2.874   2.623
 6173SOL     OW19417   6.843   5.447   1.629
 6173SOL    HW119418   6.763   5.504   1.611
 6173SOL    HW219419   6.825   5.353   1.600
 6174SOL     OW19420   5.166   5.628   3.435
 6174SOL    HW119421   5.230   5.552   3.436
 6174SOL    HW219422   5.202   5.701   3.376
 6175SOL     OW19423   4.077   0.454   3.883
 6175SOL    HW119424   4.102   0.366   3.924
 6175SOL    HW219425   4.133   0.472   3.803
 6176SOL     OW19426   5.356   4.011   5.961
 6176SOL    HW119427   5.312   4.005   5.871
 6176SOL    HW219428   5.455   4.003   5.949
 6177SOL     OW19429   5.688   1.187   1.012
 6177SOL    HW119430   5.597   1.160   0.981
 6177SOL    HW219431   5.684   1.214   1.108
 6178SOL     OW19432   4.663   4.769   2.537
 6178SOL    HW119433   4.638   4.839   2.604
 6178SOL    HW219434   4.595   4.767   2.464
 6179SOL     OW19435   6.294   5.019   3.214
 6179SOL    HW119436   6.390   4.992   3.200
 6179SOL    HW219437   6.239   4.987   3.138
 6180SOL     OW19438   3.129   4.166   1.041
 6180SOL    HW119439   3.041   4.192   1.082
 6180SOL    HW219440   3.126   4.070   1.012
 6181SOL     OW19441   4.470   6.379   0.390
 6181SOL    HW119442   4.413   6.412   0.314
 6181SOL    HW219443   4.487   6.453   0.454
 6182SOL     OW19444   5.163   3.287   5.678
 6182SOL    HW119445   5.187   3.317   5.586
 6182SOL    HW219446   5.246   3.265   5.729
 6183SOL     OW19447   0.877   2.782   3.486
 6183SOL    HW119448   0.968   2.812   3.457
 6183SOL    HW219449   0.875   2.682   3.494
 6184SOL     OW19450   2.694   6.652   6.712
 6184SOL    HW119451   2.641   6.671   6.630
 6184SOL    HW219452   2.696   6.553   6.729
 6185SOL     OW19453   0.340   4.077   5.947
 6185SOL    HW119454   0.417   4.014   5.955
 6185SOL    HW219455   0.265   4.033   5.897
 6186SOL     OW19456   0.596   0.731   0.321
 6186SOL    HW119457   0.506   0.745   0.280
 6186SOL    HW219458   0.657   0.689   0.254
 6187SOL     OW19459   5.114   4.180   3.906
 6187SOL    HW119460   5.126   4.083   3.928
 6187SOL    HW219461   5.088   4.230   3.988
 6188SOL     OW19462   2.771   1.929   6.727
 6188SOL    HW119463   2.815   1.969   6.647
 6188SOL    HW219464   2.679   1.897   6.702
 6189SOL     OW19465   4.332   4.624   2.875
 6189SOL    HW119466   4.257   4.661   2.820
 6189SOL    HW219467   4.397   4.697   2.896
 6190SOL     OW19468   0.934   4.100   5.279
 6190SOL    HW119469   0.978   4.190   5.282
 6190SOL    HW219470   0.885   4.089   5.193
 6191SOL     OW19471   2.797   2.174   6.917
 6191SOL    HW119472   2.788   2.076   6.931
 6191SOL    HW219473   2.706   2.216   6.915
 6192SOL     OW19474   3.123   2.364   5.853
 6192SOL    HW119475   3.101   2.397   5.761
 6192SOL    HW219476   3.059   2.403   5.919
 6193SOL     OW19477   4.841   0.046   1.628
 6193SOL    HW119478   4.868   6.996   1.573
 6193SOL    HW219479   4.835   0.127   1.570
 6194SOL     OW19480   1.054   0.290   1.187
 6194SOL    HW119481   1.090   0.336   1.268
 6194SOL    HW219482   0.963   0.326   1.166
 6195SOL     OW19483   4.181   5.727   5.030
 6195SOL    HW119484   4.210   5.749   4.937
 6195SOL    HW219485   4.087   5.693   5.028
 6196SOL     OW19486   5.983   3.545   2.072
 6196SOL    HW119487   5.963   3.616   2.139
 6196SOL    HW219488   6.073   3.505   2.090
 6197SOL     OW19489   3.913   5.233   0.690
 6197SOL    HW119490   3.865   5.203   0.773
 6197SOL    HW219491   3.961   5.319   0.708
 6198SOL     OW19492   4.323   0.008   1.886
 6198SOL    HW119493   4.262   0.015   1.807
 6198SOL    HW219494   4.337   0.099   1.925
 6199SOL     OW19495   1.035   1.520   0.112
 6199SOL    HW119496   1.047   1.552   0.018
 6199SOL    HW219497   1.078   1.431   0.123
 6200SOL     OW19498   1.157   1.069   5.652
 6200SOL    HW119499   1.152   1.055   5.553
 6200SOL    HW219500   1.244   1.115   5.674
 6201SOL     OW19501   0.597   4.029   5.561
 6201SOL    HW119502   0.576   3.932   5.573
 6201SOL    HW219503   0.522   4.074   5.511
 6202SOL     OW19504   4.527   1.516   1.620
 6202SOL    HW119505   4.568   1.484   1.706
 6202SOL    HW219506   4.552   1.453   1.546
 6203SOL     OW19507   6.526   5.412   1.812
 6203SOL    HW119508   6.576   5.496   1.832
 6203SOL    HW219509   6.576   5.334   1.850
 6204SOL     OW19510   0.013   5.374   4.005
 6204SOL    HW119511   0.030   5.467   4.037
 6204SOL    HW219512   0.084   5.313   4.041
 6205SOL     OW19513   6.472   5.588   0.619
 6205SOL    HW119514   6.540   5.532   0.666
 6205SOL    HW219515   6.455   5.548   0.528
 6206SOL     OW19516   5.503   2.151   3.018
 6206SOL    HW119517   5.563   2.135   3.097
 6206SOL    HW219518   5.454   2.237   3.031
 6207SOL     OW19519   1.651   5.379   5.425
 6207SOL    HW119520   1.739   5.425   5.424
 6207SOL    HW219521   1.665   5.281   5.410
 6208SOL     OW19522   5.326   2.909   5.927
 6208SOL    HW119523   5.274   2.823   5.929
 6208SOL    HW219524   5.274   2.980   5.975
 6209SOL     OW19525   3.527   5.934   6.972
 6209SOL    HW119526   3.556   5.876   0.020
 6209SOL    HW219527   3.430   5.917   6.954
 6210SOL     OW19528   5.286   3.655   4.068
 6210SOL    HW119529   5.188   3.636   4.071
 6210SOL    HW219530   5.324   3.618   3.983
 6211SOL     OW19531   2.883   5.963   6.011
 6211SOL    HW119532   2.946   6.034   5.980
 6211SOL    HW219533   2.800   6.006   6.046
 6212SOL     OW19534   2.818   4.787   4.798
 6212SOL    HW119535   2.810   4.725   4.877
 6212SOL    HW219536   2.726   4.812   4.767
 6213SOL     OW19537   6.230   0.099   0.382
 6213SOL    HW119538   6.282   0.128   0.302
 6213SOL    HW219539   6.146   0.153   0.388
 6214SOL     OW19540   5.191   5.394   4.259
 6214SOL    HW119541   5.261   5.391   4.187
 6214SOL    HW219542   5.224   5.347   4.340
 6215SOL     OW19543   4.275   2.011   6.676
 6215SOL    HW119544   4.210   2.058   6.735
 6215SOL    HW219545   4.237   1.922   6.649
 6216SOL     OW19546   6.549   1.619   2.708
 6216SOL    HW119547   6.481   1.611   2.635
 6216SOL    HW219548   6.511   1.673   2.783
 6217SOL     OW19549   0.828   3.545   2.463
 6217SOL    HW119550   0.878   3.522   2.547
 6217SOL    HW219551   0.839   3.471   2.397
 6218SOL     OW19552   3.863   6.706   6.239
 6218SOL    HW119553   3.767   6.693   6.264
 6218SOL    HW219554   3.914   6.622   6.259
 6219SOL     OW19555   1.539   1.783   4.773
 6219SOL    HW119556   1.452   1.780   4.723
 6219SOL    HW219557   1.606   1.834   4.719
 6220SOL     OW19558   2.695   0.993   5.054
 6220SOL    HW119559   2.736   0.902   5.063
 6220SOL    HW219560   2.752   1.060   5.100
 6221SOL     OW19561   5.914   6.928   0.390
 6221SOL    HW119562   5.897   6.902   0.295
 6221SOL    HW219563   6.003   6.974   0.397
 6222SOL     OW19564   1.590   6.762   1.895
 6222SOL    HW119565   1.620   6.767   1.800
 6222SOL    HW219566   1.598   6.668   1.929
 6223SOL     OW19567   1.554   4.909   4.089
 6223SOL    HW119568   1.546   4.993   4.036
 6223SOL    HW219569   1.472   4.896   4.145
 6224SOL     OW19570   3.515   1.009   5.991
 6224SOL    HW119571   3.440   0.952   6.025
 6224SOL    HW219572   3.602   0.968   6.019
 6225SOL     OW19573   4.245   3.259   6.437
 6225SOL    HW119574   4.240   3.196   6.360
 6225SOL    HW219575   4.182   3.230   6.509
 6226SOL     OW19576   0.720   1.662   4.978
 6226SOL    HW119577   0.660   1.615   4.913
 6226SOL    HW219578   0.751   1.749   4.939
 6227SOL     OW19579   3.487   4.947   5.030
 6227SOL    HW119580   3.388   4.966   5.029
 6227SOL    HW219581   3.524   4.972   5.120
 6228SOL     OW19582   0.578   3.469   1.887
 6228SOL    HW119583   0.554   3.379   1.851
 6228SOL    HW219584   0.499   3.530   1.883
 6229SOL     OW19585   0.940   2.069   4.266
 6229SOL    HW119586   0.935   2.023   4.354
 6229SOL    HW219587   0.901   2.011   4.194
 6230SOL     OW19588   0.569   2.263   4.303
 6230SOL    HW119589   0.520   2.313   4.374
 6230SOL    HW219590   0.667   2.281   4.310
 6231SOL     OW19591   6.273   5.924   0.238
 6231SOL    HW119592   6.250   6.021   0.234
 6231SOL    HW219593   6.356   5.912   0.292
 6232SOL     OW19594   6.289   1.350   0.708
 6232SOL    HW119595   6.293   1.449   0.698
 6232SOL    HW219596   6.364   1.309   0.656
 6233SOL     OW19597   6.601   1.969   1.620
 6233SOL    HW119598   6.663   2.004   1.690
 6233SOL    HW219599   6.631   2.001   1.530
 6234SOL     OW19600   0.035   0.337   5.478
 6234SOL    HW119601   0.064   0.342   5.383
 6234SOL    HW219602   6.989   0.402   5.493
 6235SOL     OW19603   6.913   0.060   1.268
 6235SOL    HW119604   6.820   0.087   1.289
 6235SOL    HW219605   6.925   0.052   1.169
 6236SOL     OW19606   1.047   4.472   1.425
 6236SOL    HW119607   1.102   4.398   1.388
 6236SOL    HW219608   0.965   4.484   1.370
 6237SOL     OW19609   3.962   0.394   6.434
 6237SOL    HW119610   3.988   0.469   6.495
 6237SOL    HW219611   3.864   0.376   6.443
 6238SOL     OW19612   4.586   5.513   2.673
 6238SOL    HW119613   4.535   5.431   2.698
 6238SOL    HW219614   4.529   5.594   2.687
 6239SOL     OW19615   3.702   1.014   1.696
 6239SOL    HW119616   3.644   1.094   1.680
 6239SOL    HW219617   3.750   0.991   1.612
 6240SOL     OW19618   2.412   4.044   5.692
 6240SOL    HW119619   2.407   4.115   5.622
 6240SOL    HW219620   2.370   3.960   5.658
 6241SOL     OW19621   3.116   0.472   2.119
 6241SOL    HW119622   3.181   0.409   2.076
 6241SOL    HW219623   3.145   0.566   2.102
 6242SOL     OW19624   3.898   0.604   4.005
 6242SOL    HW119625   3.851   0.534   4.059
 6242SOL    HW219626   3.977   0.563   3.959
 6243SOL     OW19627   6.815   6.474   5.295
 6243SOL    HW119628   6.738   6.538   5.287
 6243SOL    HW219629   6.782   6.381   5.279
 6244SOL     OW19630   5.605   3.113   2.870
 6244SOL    HW119631   5.579   3.164   2.953
 6244SOL    HW219632   5.523   3.096   2.815
 6245SOL     OW19633   1.594   3.632   0.713
 6245SOL    HW119634   1.567   3.544   0.676
 6245SOL    HW219635   1.537   3.654   0.793
 6246SOL     OW19636   1.196   2.110   5.595
 6246SOL    HW119637   1.108   2.124   5.550
 6246SOL    HW219638   1.250   2.044   5.542
 6247SOL     OW19639   0.136   5.627   3.672
 6247SOL    HW119640   0.044   5.665   3.673
 6247SOL    HW219641   0.201   5.698   3.644
 6248SOL     OW19642   3.856   3.853   6.751
 6248SOL    HW119643   3.899   3.916   6.816
 6248SOL    HW219644   3.898   3.863   6.661
 6249SOL     OW19645   0.013   3.824   0.360
 6249SOL    HW119646   0.051   3.752   0.417
 6249SOL    HW219647   0.005   3.908   0.413
 6250SOL     OW19648   6.343   0.530   1.086
 6250SOL    HW119649   6.433   0.535   1.129
 6250SOL    HW219650   6.287   0.607   1.117
 6251SOL     OW19651   4.211   5.689   5.622
 6251SOL    HW119652   4.241   5.782   5.644
 6251SOL    HW219653   4.222   5.672   5.524
 6252SOL     OW19654   2.675   6.119   6.047
 6252SOL    HW119655   2.707   6.179   5.972
 6252SOL    HW219656   2.600   6.164   6.095
 6253SOL     OW19657   2.618   4.586   4.163
 6253SOL    HW119658   2.668   4.601   4.248
 6253SOL    HW219659   2.540   4.526   4.180
 6254SOL     OW19660   6.127   1.000   1.366
 6254SOL    HW119661   6.222   0.994   1.337
 6254SOL    HW219662   6.103   1.095   1.382
 6255SOL     OW19663   3.102   0.759   1.003
 6255SOL    HW119664   3.004   0.749   0.990
 6255SOL    HW219665   3.148   0.672   0.985
 6256SOL     OW19666   3.282   5.521   2.299
 6256SOL    HW119667   3.225   5.557   2.224
 6256SOL    HW219668   3.378   5.538   2.279
 6257SOL     OW19669   5.002   2.618   0.714
 6257SOL    HW119670   5.087   2.653   0.673
 6257SOL    HW219671   5.017   2.599   0.811
 6258SOL     OW19672   2.561   0.983   3.599
 6258SOL    HW119673   2.488   1.043   3.631
 6258SOL    HW219674   2.545   0.890   3.631
 6259SOL     OW19675   1.730   2.162   6.566
 6259SOL    HW119676   1.690   2.203   6.484
 6259SOL    HW219677   1.660   2.107   6.613
 6260SOL     OW19678   3.255   5.743   0.393
 6260SOL    HW119679   3.182   5.744   0.461
 6260SOL    HW219680   3.305   5.657   0.399
 6261SOL     OW19681   4.339   1.087   0.058
 6261SOL    HW119682   4.251   1.081   0.106
 6261SOL    HW219683   4.392   1.004   0.075
 6262SOL     OW19684   2.495   6.553   1.855
 6262SOL    HW119685   2.578   6.498   1.854
 6262SOL    HW219686   2.432   6.521   1.785
 6263SOL     OW19687   0.041   0.026   4.258
 6263SOL    HW119688   0.137   0.056   4.260
 6263SOL    HW219689   0.035   6.965   4.213
 6264SOL     OW19690   1.973   0.499   1.592
 6264SOL    HW119691   2.062   0.453   1.590
 6264SOL    HW219692   1.974   0.570   1.662
 6265SOL     OW19693   3.912   3.898   0.250
 6265SOL    HW119694   3.969   3.937   0.177
 6265SOL    HW219695   3.842   3.963   0.276
 6266SOL     OW19696   4.340   0.159   3.693
 6266SOL    HW119697   4.286   0.076   3.699
 6266SOL    HW219698   4.399   0.166   3.773
 6267SOL     OW19699   2.487   6.845   5.329
 6267SOL    HW119700   2.389   6.847   5.349
 6267SOL    HW219701   2.505   6.895   5.245
 6268SOL     OW19702   2.858   1.210   2.431
 6268SOL    HW119703   2.869   1.290   2.373
 6268SOL    HW219704   2.771   1.165   2.409
 6269SOL     OW19705   6.791   6.726   1.811
 6269SOL    HW119706   6.879   6.680   1.821
 6269SOL    HW219707   6.738   6.718   1.895
 6270SOL     OW19708   0.562   0.652   6.040
 6270SOL    HW119709   0.623   0.576   6.062
 6270SOL    HW219710   0.616   0.736   6.030
 6271SOL     OW19711   5.821   2.343   6.066
 6271SOL    HW119712   5.854   2.352   6.160
 6271SOL    HW219713   5.743   2.281   6.064
 6272SOL     OW19714   0.608   2.440   0.116
 6272SOL    HW119715   0.636   2.353   0.078
 6272SOL    HW219716   0.551   2.489   0.050
 6273SOL     OW19717   0.403   6.359   2.565
 6273SOL    HW119718   0.460   6.439   2.547
 6273SOL    HW219719   0.430   6.284   2.506
 6274SOL     OW19720   3.124   6.760   5.703
 6274SOL    HW119721   3.079   6.797   5.622
 6274SOL    HW219722   3.099   6.663   5.713
 6275SOL     OW19723   1.961   6.421   6.839
 6275SOL    HW119724   1.921   6.454   6.925
 6275SOL    HW219725   1.978   6.499   6.779
 6276SOL     OW19726   2.150   4.991   4.123
 6276SOL    HW119727   2.206   4.941   4.057
 6276SOL    HW219728   2.174   4.962   4.216
 6277SOL     OW19729   4.939   3.108   0.978
 6277SOL    HW119730   5.030   3.130   1.013
 6277SOL    HW219731   4.945   3.024   0.923
 6278SOL     OW19732   4.551   6.994   4.804
 6278SOL    HW119733   4.631   7.027   4.754
 6278SOL    HW219734   4.569   6.997   4.902
 6279SOL     OW19735   3.577   6.183   0.043
 6279SOL    HW119736   3.545   6.091   0.020
 6279SOL    HW219737   3.586   6.191   0.142
 6280SOL     OW19738   0.029   1.451   6.470
 6280SOL    HW119739   0.040   1.374   6.407
 6280SOL    HW219740   0.026   1.417   6.564
 6281SOL     OW19741   0.148   5.232   4.210
 6281SOL    HW119742   0.228   5.277   4.171
 6281SOL    HW219743   0.117   5.283   4.290
 6282SOL     OW19744   6.554   5.483   5.978
 6282SOL    HW119745   6.476   5.423   5.958
 6282SOL    HW219746   6.591   5.461   6.068
 6283SOL     OW19747   0.073   3.516   4.442
 6283SOL    HW119748   0.092   3.558   4.353
 6283SOL    HW219749   0.031   3.427   4.429
 6284SOL     OW19750   1.592   4.478   4.870
 6284SOL    HW119751   1.556   4.442   4.784
 6284SOL    HW219752   1.665   4.543   4.851
 6285SOL     OW19753   7.019   3.396   4.124
 6285SOL    HW119754   7.006   3.348   4.037
 6285SOL    HW219755   6.933   3.441   4.149
 6286SOL     OW19756   6.464   2.510   4.284
 6286SOL    HW119757   6.402   2.545   4.353
 6286SOL    HW219758   6.517   2.585   4.244
 6287SOL     OW19759   3.457   5.038   4.469
 6287SOL    HW119760   3.418   5.112   4.415
 6287SOL    HW219761   3.384   4.995   4.523
 6288SOL     OW19762   4.981   4.373   2.316
 6288SOL    HW119763   5.004   4.329   2.403
 6288SOL    HW219764   4.889   4.345   2.288
 6289SOL     OW19765   2.276   4.887   6.892
 6289SOL    HW119766   2.346   4.945   6.850
 6289SOL    HW219767   2.236   4.934   6.971
 6290SOL     OW19768   5.709   4.858   6.003
 6290SOL    HW119769   5.625   4.819   5.965
 6290SOL    HW219770   5.753   4.791   6.063
 6291SOL     OW19771   3.927   3.842   4.139
 6291SOL    HW119772   3.981   3.813   4.061
 6291SOL    HW219773   3.985   3.846   4.221
 6292SOL     OW19774   1.776   2.242   4.732
 6292SOL    HW119775   1.856   2.221   4.677
 6292SOL    HW219776   1.696   2.251   4.673
 6293SOL     OW19777   4.318   1.811   1.300
 6293SOL    HW119778   4.227   1.787   1.334
 6293SOL    HW219779   4.387   1.765   1.356
 6294SOL     OW19780   3.449   0.091   3.807
 6294SOL    HW119781   3.400   0.163   3.855
 6294SOL    HW219782   3.517   0.050   3.868
 6295SOL     OW19783   5.117   4.821   4.186
 6295SOL    HW119784   5.091   4.727   4.167
 6295SOL    HW219785   5.035   4.875   4.206
 6296SOL     OW19786   6.985   5.345   5.935
 6296SOL    HW119787   6.981   5.414   5.862
 6296SOL    HW219788   0.034   5.365   5.995
 6297SOL     OW19789   5.600   0.484   5.089
 6297SOL    HW119790   5.584   0.401   5.142
 6297SOL    HW219791   5.561   0.563   5.136
 6298SOL     OW19792   1.738   3.369   6.784
 6298SOL    HW119793   1.731   3.466   6.807
 6298SOL    HW219794   1.695   3.352   6.695
 6299SOL     OW19795   6.386   2.438   2.233
 6299SOL    HW119796   6.394   2.534   2.258
 6299SOL    HW219797   6.478   2.397   2.226
 6300SOL     OW19798   6.899   1.188   6.477
 6300SOL    HW119799   6.807   1.225   6.469
 6300SOL    HW219800   6.908   1.107   6.419
 6301SOL     OW19801   2.931   0.024   6.804
 6301SOL    HW119802   2.853   7.019   6.857
 6301SOL    HW219803   2.926   7.017   6.711
 6302SOL     OW19804   1.721   1.683   4.562
 6302SOL    HW119805   1.687   1.639   4.646
 6302SOL    HW219806   1.810   1.644   4.538
 6303SOL     OW19807   1.022   0.752   5.050
 6303SOL    HW119808   1.011   0.657   5.079
 6303SOL    HW219809   0.939   0.803   5.070
 6304SOL     OW19810   3.440   0.576   1.571
 6304SOL    HW119811   3.415   0.671   1.552
 6304SOL    HW219812   3.536   0.562   1.546
 6305SOL     OW19813   6.116   6.354   0.683
 6305SOL    HW119814   6.184   6.415   0.641
 6305SOL    HW219815   6.103   6.379   0.779
 6306SOL     OW19816   6.940   4.398   4.093
 6306SOL    HW119817   6.984   4.440   4.172
 6306SOL    HW219818   6.995   4.320   4.062
 6307SOL     OW19819   3.294   4.102   4.437
 6307SOL    HW119820   3.344   4.119   4.522
 6307SOL    HW219821   3.350   4.128   4.359
 6308SOL     OW19822   2.086   2.719   4.448
 6308SOL    HW119823   2.021   2.648   4.476
 6308SOL    HW219824   2.037   2.804   4.430
 6309SOL     OW19825   6.182   6.189   4.446
 6309SOL    HW119826   6.244   6.227   4.377
 6309SOL    HW219827   6.181   6.089   4.438
 6310SOL     OW19828   1.764   5.984   2.491
 6310SOL    HW119829   1.842   5.938   2.450
 6310SOL    HW219830   1.734   5.934   2.572
 6311SOL     OW19831   5.206   1.435   6.112
 6311SOL    HW119832   5.175   1.437   6.207
 6311SOL    HW219833   5.132   1.401   6.054
 6312SOL     OW19834   0.041   6.487   5.322
 6312SOL    HW119835   6.970   6.480   5.318
 6312SOL    HW219836   0.080   6.396   5.332
 6313SOL     OW19837   6.918   6.068   3.722
 6313SOL    HW119838   7.011   6.045   3.751
 6313SOL    HW219839   6.865   6.097   3.801
 6314SOL     OW19840   4.070   6.608   1.705
 6314SOL    HW119841   3.986   6.593   1.757
 6314SOL    HW219842   4.147   6.565   1.753
 6315SOL     OW19843   2.994   2.096   5.921
 6315SOL    HW119844   2.949   2.026   5.866
 6315SOL    HW219845   2.971   2.187   5.886
 6316SOL     OW19846   4.992   2.188   6.395
 6316SOL    HW119847   5.006   2.089   6.404
 6316SOL    HW219848   5.064   2.226   6.338
 6317SOL     OW19849   5.482   4.726   2.129
 6317SOL    HW119850   5.451   4.735   2.034
 6317SOL    HW219851   5.437   4.647   2.171
 6318SOL     OW19852   4.502   0.003   5.867
 6318SOL    HW119853   4.492   6.933   5.852
 6318SOL    HW219854   4.577   0.019   5.931
 6319SOL     OW19855   6.492   1.593   5.063
 6319SOL    HW119856   6.573   1.645   5.036
 6319SOL    HW219857   6.456   1.544   4.984
 6320SOL     OW19858   6.764   6.510   4.944
 6320SOL    HW119859   6.715   6.458   4.874
 6320SOL    HW219860   6.747   6.608   4.931
 6321SOL     OW19861   4.671   3.484   1.130
 6321SOL    HW119862   4.620   3.444   1.206
 6321SOL    HW219863   4.762   3.443   1.125
 6322SOL     OW19864   1.794   2.540   0.912
 6322SOL    HW119865   1.844   2.590   0.982
 6322SOL    HW219866   1.858   2.507   0.842
 6323SOL     OW19867   1.945   2.163   1.633
 6323SOL    HW119868   2.023   2.225   1.624
 6323SOL    HW219869   1.873   2.207   1.685
 6324SOL     OW19870   5.025   1.166   1.062
 6324SOL    HW119871   5.017   1.191   0.966
 6324SOL    HW219872   5.024   1.067   1.071
 6325SOL     OW19873   1.863   3.204   2.697
 6325SOL    HW119874   1.882   3.113   2.659
 6325SOL    HW219875   1.796   3.251   2.639
 6326SOL     OW19876   5.236   4.893   1.462
 6326SOL    HW119877   5.212   4.860   1.370
 6326SOL    HW219878   5.174   4.968   1.487
 6327SOL     OW19879   0.543   1.309   4.804
 6327SOL    HW119880   0.459   1.266   4.770
 6327SOL    HW219881   0.547   1.404   4.772
 6328SOL     OW19882   4.176   4.032   0.115
 6328SOL    HW119883   4.223   3.960   0.165
 6328SOL    HW219884   4.217   4.121   0.137
 6329SOL     OW19885   1.699   3.096   3.907
 6329SOL    HW119886   1.777   3.132   3.957
 6329SOL    HW219887   1.689   2.998   3.925
 6330SOL     OW19888   5.740   6.918   1.717
 6330SOL    HW119889   5.709   6.912   1.812
 6330SOL    HW219890   5.833   6.955   1.715
 6331SOL     OW19891   6.210   3.277   5.269
 6331SOL    HW119892   6.171   3.288   5.177
 6331SOL    HW219893   6.310   3.282   5.264
 6332SOL     OW19894   0.665   2.679   0.835
 6332SOL    HW119895   0.626   2.720   0.918
 6332SOL    HW219896   0.595   2.676   0.764
 6333SOL     OW19897   4.465   6.889   5.566
 6333SOL    HW119898   4.414   6.865   5.483
 6333SOL    HW219899   4.544   6.945   5.542
 6334SOL     OW19900   3.339   1.255   2.513
 6334SOL    HW119901   3.321   1.190   2.440
 6334SOL    HW219902   3.435   1.283   2.510
 6335SOL     OW19903   4.605   0.927   0.891
 6335SOL    HW119904   4.626   0.968   0.979
 6335SOL    HW219905   4.673   0.955   0.823
 6336SOL     OW19906   1.356   2.368   6.813
 6336SOL    HW119907   1.269   2.399   6.775
 6336SOL    HW219908   1.352   2.269   6.831
 6337SOL     OW19909   4.688   5.315   5.270
 6337SOL    HW119910   4.646   5.397   5.230
 6337SOL    HW219911   4.720   5.255   5.197
 6338SOL     OW19912   3.314   2.047   3.879
 6338SOL    HW119913   3.322   2.056   3.780
 6338SOL    HW219914   3.221   2.071   3.907
 6339SOL     OW19915   0.992   3.837   3.739
 6339SOL    HW119916   0.957   3.783   3.815
 6339SOL    HW219917   1.052   3.909   3.774
 6340SOL     OW19918   1.413   5.230   1.501
 6340SOL    HW119919   1.485   5.215   1.568
 6340SOL    HW219920   1.405   5.149   1.442
 6341SOL     OW19921   6.594   4.309   4.215
 6341SOL    HW119922   6.620   4.397   4.174
 6341SOL    HW219923   6.621   4.234   4.154
 6342SOL     OW19924   2.785   0.931   1.085
 6342SOL    HW119925   2.804   0.907   1.180
 6342SOL    HW219926   2.687   0.942   1.071
 6343SOL     OW19927   4.516   0.736   6.491
 6343SOL    HW119928   4.446   0.678   6.534
 6343SOL    HW219929   4.605   0.713   6.529
 6344SOL     OW19930   4.880   1.983   4.601
 6344SOL    HW119931   4.964   1.930   4.589
 6344SOL    HW219932   4.801   1.924   4.585
 6345SOL     OW19933   5.951   2.702   2.708
 6345SOL    HW119934   5.932   2.623   2.650
 6345SOL    HW219935   5.869   2.759   2.715
 6346SOL     OW19936   6.112   5.639   3.618
 6346SOL    HW119937   6.022   5.595   3.627
 6346SOL    HW219938   6.110   5.728   3.663
 6347SOL     OW19939   2.048   1.136   0.463
 6347SOL    HW119940   1.980   1.063   0.469
 6347SOL    HW219941   2.021   1.212   0.521
 6348SOL     OW19942   1.544   2.883   5.997
 6348SOL    HW119943   1.447   2.872   6.020
 6348SOL    HW219944   1.555   2.958   5.931
 6349SOL     OW19945   1.788   0.589   0.892
 6349SOL    HW119946   1.780   0.538   0.807
 6349SOL    HW219947   1.767   0.529   0.969
 6350SOL     OW19948   0.786   5.169   4.197
 6350SOL    HW119949   0.747   5.137   4.283
 6350SOL    HW219950   0.717   5.162   4.125
 6351SOL     OW19951   6.059   3.484   3.557
 6351SOL    HW119952   6.030   3.523   3.644
 6351SOL    HW219953   6.157   3.499   3.544
 6352SOL     OW19954   2.897   0.177   5.167
 6352SOL    HW119955   2.914   0.119   5.247
 6352SOL    HW219956   2.839   0.254   5.194
 6353SOL     OW19957   0.721   6.319   6.361
 6353SOL    HW119958   0.812   6.293   6.393
 6353SOL    HW219959   0.692   6.257   6.288
 6354SOL     OW19960   3.140   5.210   3.770
 6354SOL    HW119961   3.076   5.213   3.693
 6354SOL    HW219962   3.102   5.263   3.846
 6355SOL     OW19963   2.285   5.261   6.815
 6355SOL    HW119964   2.319   5.180   6.766
 6355SOL    HW219965   2.187   5.251   6.832
 6356SOL     OW19966   4.847   5.791   1.337
 6356SOL    HW119967   4.895   5.862   1.285
 6356SOL    HW219968   4.749   5.803   1.326
 6357SOL     OW19969   6.471   3.450   2.927
 6357SOL    HW119970   6.471   3.408   2.836
 6357SOL    HW219971   6.491   3.548   2.918
 6358SOL     OW19972   6.883   2.229   6.936
 6358SOL    HW119973   6.973   2.269   6.917
 6358SOL    HW219974   6.886   2.131   6.919
 6359SOL     OW19975   6.479   0.635   0.647
 6359SOL    HW119976   6.426   0.669   0.569
 6359SOL    HW219977   6.576   0.632   0.623
 6360SOL     OW19978   1.191   3.914   5.416
 6360SOL    HW119979   1.102   3.869   5.408
 6360SOL    HW219980   1.177   4.009   5.445
 6361SOL     OW19981   1.329   0.051   0.842
 6361SOL    HW119982   1.310   6.987   0.875
 6361SOL    HW219983   1.252   0.111   0.861
 6362SOL     OW19984   0.711   5.598   0.045
 6362SOL    HW119985   0.771   5.559   0.115
 6362SOL    HW219986   0.742   5.691   0.023
 6363SOL     OW19987   2.204   5.582   3.851
 6363SOL    HW119988   2.200   5.486   3.824
 6363SOL    HW219989   2.297   5.617   3.839
 6364SOL     OW19990   2.621   1.789   5.411
 6364SOL    HW119991   2.642   1.885   5.394
 6364SOL    HW219992   2.697   1.747   5.461
 6365SOL     OW19993   4.995   0.180   4.252
 6365SOL    HW119994   4.918   0.145   4.305
 6365SOL    HW219995   4.977   0.275   4.226
 6366SOL     OW19996   1.162   5.483   5.309
 6366SOL    HW119997   1.101   5.557   5.338
 6366SOL    HW219998   1.134   5.450   5.219
 6367SOL     OW19999   4.312   1.474   4.106
 6367SOL    HW120000   4.242   1.511   4.044
 6367SOL    HW220001   4.313   1.528   4.190
 6368SOL     OW20002   3.623   5.225   3.533
 6368SOL    HW120003   3.596   5.230   3.437
 6368SOL    HW220004   3.541   5.222   3.590
 6369SOL     OW20005   2.714   0.586   4.652
 6369SOL    HW120006   2.765   0.670   4.670
 6369SOL    HW220007   2.683   0.585   4.557
 6370SOL     OW20008   6.768   3.212   3.809
 6370SOL    HW120009   6.765   3.157   3.892
 6370SOL    HW220010   6.846   3.274   3.813
 6371SOL     OW20011   5.568   5.035   3.079
 6371SOL    HW120012   5.536   4.946   3.112
 6371SOL    HW220013   5.489   5.089   3.049
 6372SOL     OW20014   1.721   1.309   1.702
 6372SOL    HW120015   1.685   1.399   1.677
 6372SOL    HW220016   1.687   1.284   1.793
 6373SOL     OW20017   4.556   4.416   2.930
 6373SOL    HW120018   4.608   4.433   3.013
 6373SOL    HW220019   4.474   4.473   2.930
 6374SOL     OW20020   4.088   3.527   2.831
 6374SOL    HW120021   4.166   3.509   2.891
 6374SOL    HW220022   4.044   3.441   2.806
 6375SOL     OW20023   6.809   1.709   2.722
 6375SOL    HW120024   6.878   1.662   2.778
 6375SOL    HW220025   6.724   1.658   2.726
 6376SOL     OW20026   5.296   1.987   5.758
 6376SOL    HW120027   5.336   2.022   5.673
 6376SOL    HW220028   5.197   1.979   5.747
 6377SOL     OW20029   0.368   0.952   5.562
 6377SOL    HW120030   0.406   1.025   5.619
 6377SOL    HW220031   0.301   0.990   5.498
 6378SOL     OW20032   4.719   4.401   3.821
 6378SOL    HW120033   4.664   4.484   3.812
 6378SOL    HW220034   4.687   4.348   3.900
 6379SOL     OW20035   1.321   4.422   5.461
 6379SOL    HW120036   1.399   4.427   5.399
 6379SOL    HW220037   1.313   4.509   5.511
 6380SOL     OW20038   0.769   1.479   5.385
 6380SOL    HW120039   0.710   1.483   5.304
 6380SOL    HW220040   0.859   1.444   5.359
 6381SOL     OW20041   4.137   3.006   1.206
 6381SOL    HW120042   4.215   3.069   1.213
 6381SOL    HW220043   4.150   2.946   1.128
 6382SOL     OW20044   3.043   2.194   0.882
 6382SOL    HW120045   3.005   2.264   0.943
 6382SOL    HW220046   3.108   2.236   0.819
 6383SOL     OW20047   2.367   2.776   3.117
 6383SOL    HW120048   2.391   2.859   3.066
 6383SOL    HW220049   2.294   2.797   3.182
 6384SOL     OW20050   6.628   3.620   2.756
 6384SOL    HW120051   6.683   3.606   2.674
 6384SOL    HW220052   6.686   3.608   2.837
 6385SOL     OW20053   7.018   3.620   3.384
 6385SOL    HW120054   0.042   3.560   3.324
 6385SOL    HW220055   7.016   3.712   3.346
 6386SOL     OW20056   2.402   3.153   6.500
 6386SOL    HW120057   2.337   3.131   6.427
 6386SOL    HW220058   2.459   3.230   6.472
 6387SOL     OW20059   6.849   2.139   6.608
 6387SOL    HW120060   6.771   2.202   6.603
 6387SOL    HW220061   6.827   2.055   6.559
 6388SOL     OW20062   4.695   6.344   1.841
 6388SOL    HW120063   4.637   6.268   1.810
 6388SOL    HW220064   4.748   6.315   1.921
 6389SOL     OW20065   0.202   6.263   1.493
 6389SOL    HW120066   0.166   6.336   1.550
 6389SOL    HW220067   0.139   6.185   1.494
 6390SOL     OW20068   0.603   0.606   5.698
 6390SOL    HW120069   0.599   0.560   5.786
 6390SOL    HW220070   0.576   0.543   5.625
 6391SOL     OW20071   1.511   6.764   6.269
 6391SOL    HW120072   1.587   6.815   6.309
 6391SOL    HW220073   1.453   6.827   6.217
 6392SOL     OW20074   2.917   5.656   2.842
 6392SOL    HW120075   3.016   5.660   2.829
 6392SOL    HW220076   2.892   5.715   2.920
 6393SOL     OW20077   0.702   5.780   1.908
 6393SOL    HW120078   0.629   5.806   1.970
 6393SOL    HW220079   0.675   5.698   1.857
 6394SOL     OW20080   1.952   5.079   0.667
 6394SOL    HW120081   1.875   5.137   0.694
 6394SOL    HW220082   1.922   5.017   0.594
 6395SOL     OW20083   6.877   2.792   1.518
 6395SOL    HW120084   6.801   2.852   1.494
 6395SOL    HW220085   6.844   2.722   1.582
 6396SOL     OW20086   5.403   3.441   6.927
 6396SOL    HW120087   5.443   3.469   7.014
 6396SOL    HW220088   5.362   3.350   6.937
 6397SOL     OW20089   5.927   1.705   1.371
 6397SOL    HW120090   5.844   1.654   1.392
 6397SOL    HW220091   6.004   1.641   1.362
 6398SOL     OW20092   3.264   6.709   1.810
 6398SOL    HW120093   3.236   6.636   1.747
 6398SOL    HW220094   3.246   6.681   1.904
 6399SOL     OW20095   1.759   0.117   6.923
 6399SOL    HW120096   1.816   0.041   6.892
 6399SOL    HW220097   1.696   0.144   6.850
 6400SOL     OW20098   2.176   5.107   2.989
 6400SOL    HW120099   2.195   5.025   3.042
 6400SOL    HW220100   2.119   5.083   2.910
 6401SOL     OW20101   5.109   6.084   3.692
 6401SOL    HW120102   5.118   6.026   3.773
 6401SOL    HW220103   5.158   6.042   3.616
 6402SOL     OW20104   2.500   2.576   3.311
 6402SOL    HW120105   2.473   2.594   3.406
 6402SOL    HW220106   2.447   2.635   3.250
 6403SOL     OW20107   6.722   5.446   6.189
 6403SOL    HW120108   6.685   5.473   6.278
 6403SOL    HW220109   6.808   5.495   6.173
 6404SOL     OW20110   3.763   0.818   2.252
 6404SOL    HW120111   3.665   0.797   2.243
 6404SOL    HW220112   3.798   0.853   2.165
 6405SOL     OW20113   3.575   0.523   3.852
 6405SOL    HW120114   3.633   0.579   3.911
 6405SOL    HW220115   3.623   0.505   3.766
 6406SOL     OW20116   0.689   2.661   2.576
 6406SOL    HW120117   0.775   2.695   2.615
 6406SOL    HW220118   0.635   2.739   2.544
 6407SOL     OW20119   2.204   0.150   3.997
 6407SOL    HW120120   2.203   0.132   4.096
 6407SOL    HW220121   2.110   0.160   3.964
 6408SOL     OW20122   5.377   1.361   0.419
 6408SOL    HW120123   5.396   1.416   0.338
 6408SOL    HW220124   5.409   1.409   0.500
 6409SOL     OW20125   5.885   4.394   4.090
 6409SOL    HW120126   5.800   4.424   4.132
 6409SOL    HW220127   5.886   4.422   3.994
 6410SOL     OW20128   2.259   1.333   6.184
 6410SOL    HW120129   2.197   1.402   6.221
 6410SOL    HW220130   2.263   1.341   6.084
 6411SOL     OW20131   0.664   2.830   2.811
 6411SOL    HW120132   0.654   2.906   2.746
 6411SOL    HW220133   0.705   2.864   2.896
 6412SOL     OW20134   1.595   2.108   4.524
 6412SOL    HW120135   1.644   2.064   4.599
 6412SOL    HW220136   1.610   2.056   4.440
 6413SOL     OW20137   3.736   4.912   3.423
 6413SOL    HW120138   3.734   4.880   3.518
 6413SOL    HW220139   3.659   4.974   3.407
 6414SOL     OW20140   5.519   0.968   6.775
 6414SOL    HW120141   5.427   0.948   6.810
 6414SOL    HW220142   5.535   0.913   6.693
 6415SOL     OW20143   1.791   3.490   3.244
 6415SOL    HW120144   1.822   3.474   3.338
 6415SOL    HW220145   1.821   3.581   3.215
 6416SOL     OW20146   1.540   0.448   6.803
 6416SOL    HW120147   1.451   0.489   6.779
 6416SOL    HW220148   1.547   0.439   6.902
 6417SOL     OW20149   5.620   4.849   0.618
 6417SOL    HW120150   5.562   4.930   0.607
 6417SOL    HW220151   5.570   4.769   0.587
 6418SOL     OW20152   5.125   3.212   2.437
 6418SOL    HW120153   5.123   3.113   2.448
 6418SOL    HW220154   5.068   3.239   2.359
 6419SOL     OW20155   1.149   4.754   3.454
 6419SOL    HW120156   1.196   4.772   3.368
 6419SOL    HW220157   1.204   4.691   3.509
 6420SOL     OW20158   2.375   6.305   3.973
 6420SOL    HW120159   2.383   6.261   3.883
 6420SOL    HW220160   2.431   6.387   3.974
 6421SOL     OW20161   4.643   6.802   2.439
 6421SOL    HW120162   4.730   6.834   2.402
 6421SOL    HW220163   4.622   6.852   2.523
 6422SOL     OW20164   6.817   0.638   5.241
 6422SOL    HW120165   6.895   0.698   5.225
 6422SOL    HW220166   6.824   0.557   5.183
 6423SOL     OW20167   4.776   5.932   3.617
 6423SOL    HW120168   4.813   5.865   3.681
 6423SOL    HW220169   4.781   6.023   3.658
 6424SOL     OW20170   0.185   4.657   4.900
 6424SOL    HW120171   0.138   4.642   4.987
 6424SOL    HW220172   0.179   4.754   4.876
 6425SOL     OW20173   6.576   6.330   3.081
 6425SOL    HW120174   6.596   6.347   3.177
 6425SOL    HW220175   6.512   6.399   3.048
 6426SOL     OW20176   0.814   4.769   3.062
 6426SOL    HW120177   0.855   4.763   2.970
 6426SOL    HW220178   0.772   4.681   3.085
 6427SOL     OW20179   3.687   4.039   4.229
 6427SOL    HW120180   3.679   3.939   4.224
 6427SOL    HW220181   3.756   4.070   4.163
 6428SOL     OW20182   5.807   3.488   6.513
 6428SOL    HW120183   5.719   3.526   6.540
 6428SOL    HW220184   5.876   3.560   6.513
 6429SOL     OW20185   0.797   1.439   5.764
 6429SOL    HW120186   0.768   1.468   5.673
 6429SOL    HW220187   0.853   1.356   5.756
 6430SOL     OW20188   6.012   1.094   3.721
 6430SOL    HW120189   5.937   1.136   3.772
 6430SOL    HW220190   6.049   1.017   3.774
 6431SOL     OW20191   4.284   6.744   3.911
 6431SOL    HW120192   4.257   6.651   3.886
 6431SOL    HW220193   4.374   6.742   3.954
 6432SOL     OW20194   4.439   4.134   6.106
 6432SOL    HW120195   4.365   4.186   6.063
 6432SOL    HW220196   4.414   4.111   6.200
 6433SOL     OW20197   1.863   5.551   5.730
 6433SOL    HW120198   1.902   5.579   5.818
 6433SOL    HW220199   1.894   5.458   5.708
 6434SOL     OW20200   2.460   5.893   6.182
 6434SOL    HW120201   2.480   5.937   6.095
 6434SOL    HW220202   2.545   5.880   6.234
 6435SOL     OW20203   5.179   6.762   0.832
 6435SOL    HW120204   5.218   6.815   0.756
 6435SOL    HW220205   5.216   6.669   0.829
 6436SOL     OW20206   1.224   2.832   2.666
 6436SOL    HW120207   1.269   2.902   2.722
 6436SOL    HW220208   1.126   2.853   2.659
 6437SOL     OW20209   1.790   1.865   0.316
 6437SOL    HW120210   1.888   1.885   0.314
 6437SOL    HW220211   1.770   1.793   0.250
 6438SOL     OW20212   6.966   3.423   5.489
 6438SOL    HW120213   7.004   3.487   5.556
 6438SOL    HW220214   6.985   3.329   5.517
 6439SOL     OW20215   5.632   1.699   1.644
 6439SOL    HW120216   5.680   1.783   1.670
 6439SOL    HW220217   5.698   1.626   1.627
 6440SOL     OW20218   2.633   1.592   6.093
 6440SOL    HW120219   2.691   1.558   6.166
 6440SOL    HW220220   2.550   1.633   6.132
 6441SOL     OW20221   0.248   6.931   1.815
 6441SOL    HW120222   0.241   6.871   1.735
 6441SOL    HW220223   0.207   7.019   1.795
 6442SOL     OW20224   2.508   1.332   4.814
 6442SOL    HW120225   2.516   1.431   4.825
 6442SOL    HW220226   2.448   1.312   4.736
 6443SOL     OW20227   3.761   2.197   5.406
 6443SOL    HW120228   3.829   2.134   5.445
 6443SOL    HW220229   3.797   2.290   5.409
 6444SOL     OW20230   5.613   3.455   4.800
 6444SOL    HW120231   5.600   3.370   4.748
 6444SOL    HW220232   5.619   3.433   4.898
 6445SOL     OW20233   3.927   3.029   4.822
 6445SOL    HW120234   3.887   3.049   4.912
 6445SOL    HW220235   4.019   2.991   4.834
 6446SOL     OW20236   1.142   0.987   6.740
 6446SOL    HW120237   1.224   0.929   6.738
 6446SOL    HW220238   1.101   0.988   6.649
 6447SOL     OW20239   5.815   5.133   3.166
 6447SOL    HW120240   5.730   5.127   3.114
 6447SOL    HW220241   5.891   5.104   3.108
 6448SOL     OW20242   4.671   5.683   1.836
 6448SOL    HW120243   4.750   5.624   1.850
 6448SOL    HW220244   4.685   5.740   1.755
 6449SOL     OW20245   3.978   6.086   1.181
 6449SOL    HW120246   4.015   6.057   1.269
 6449SOL    HW220247   3.878   6.092   1.187
 6450SOL     OW20248   1.427   3.400   0.991
 6450SOL    HW120249   1.502   3.373   1.051
 6450SOL    HW220250   1.428   3.342   0.909
 6451SOL     OW20251   1.948   0.668   5.630
 6451SOL    HW120252   1.914   0.674   5.536
 6451SOL    HW220253   1.902   0.736   5.686
 6452SOL     OW20254   4.338   5.197   3.151
 6452SOL    HW120255   4.359   5.102   3.131
 6452SOL    HW220256   4.280   5.234   3.078
 6453SOL     OW20257   2.463   6.509   2.134
 6453SOL    HW120258   2.506   6.573   2.197
 6453SOL    HW220259   2.467   6.546   2.041
 6454SOL     OW20260   0.640   2.195   3.151
 6454SOL    HW120261   0.605   2.237   3.067
 6454SOL    HW220262   0.727   2.149   3.132
 6455SOL     OW20263   0.251   3.483   4.176
 6455SOL    HW120264   0.162   3.447   4.148
 6455SOL    HW220265   0.275   3.561   4.120
 6456SOL     OW20266   1.436   1.304   3.255
 6456SOL    HW120267   1.465   1.208   3.261
 6456SOL    HW220268   1.369   1.324   3.326
 6457SOL     OW20269   5.241   1.438   1.570
 6457SOL    HW120270   5.185   1.429   1.652
 6457SOL    HW220271   5.251   1.348   1.526
 6458SOL     OW20272   1.059   5.550   4.238
 6458SOL    HW120273   1.159   5.549   4.244
 6458SOL    HW220274   1.027   5.644   4.244
 6459SOL     OW20275   6.277   3.119   1.202
 6459SOL    HW120276   6.179   3.101   1.193
 6459SOL    HW220277   6.303   3.194   1.142
 6460SOL     OW20278   5.630   6.152   6.463
 6460SOL    HW120279   5.549   6.128   6.517
 6460SOL    HW220280   5.653   6.076   6.403
 6461SOL     OW20281   2.218   4.553   6.645
 6461SOL    HW120282   2.170   4.615   6.707
 6461SOL    HW220283   2.163   4.540   6.562
 6462SOL     OW20284   2.147   3.367   4.244
 6462SOL    HW120285   2.165   3.308   4.323
 6462SOL    HW220286   2.180   3.324   4.161
 6463SOL     OW20287   6.204   2.478   7.007
 6463SOL    HW120288   6.116   2.441   0.010
 6463SOL    HW220289   6.223   2.443   6.916
 6464SOL     OW20290   1.294   4.474   4.459
 6464SOL    HW120291   1.229   4.550   4.460
 6464SOL    HW220292   1.264   4.405   4.392
 6465SOL     OW20293   6.886   3.285   2.445
 6465SOL    HW120294   6.836   3.217   2.391
 6465SOL    HW220295   6.974   3.247   2.473
 6466SOL     OW20296   0.107   1.002   6.000
 6466SOL    HW120297   0.188   1.057   6.021
 6466SOL    HW220298   0.131   0.905   6.001
 6467SOL     OW20299   4.069   0.865   0.447
 6467SOL    HW120300   3.976   0.894   0.426
 6467SOL    HW220301   4.080   0.768   0.424
 6468SOL     OW20302   2.822   6.478   1.094
 6468SOL    HW120303   2.843   6.575   1.086
 6468SOL    HW220304   2.866   6.428   1.019
 6469SOL     OW20305   4.334   1.935   3.673
 6469SOL    HW120306   4.381   1.908   3.757
 6469SOL    HW220307   4.245   1.890   3.669
 6470SOL     OW20308   5.755   2.865   0.937
 6470SOL    HW120309   5.744   2.864   1.036
 6470SOL    HW220310   5.720   2.780   0.898
 6471SOL     OW20311   0.104   6.515   5.987
 6471SOL    HW120312   0.125   6.596   5.932
 6471SOL    HW220313   0.040   6.456   5.937
 6472SOL     OW20314   0.021   5.812   1.689
 6472SOL    HW120315   6.974   5.778   1.634
 6472SOL    HW220316   0.086   5.738   1.706
 6473SOL     OW20317   2.747   1.709   4.722
 6473SOL    HW120318   2.843   1.736   4.718
 6473SOL    HW220319   2.699   1.745   4.643
 6474SOL     OW20320   3.246   5.235   6.502
 6474SOL    HW120321   3.225   5.274   6.412
 6474SOL    HW220322   3.281   5.142   6.490
 6475SOL     OW20323   6.318   5.461   3.349
 6475SOL    HW120324   6.271   5.450   3.261
 6475SOL    HW220325   6.414   5.436   3.338
 6476SOL     OW20326   4.721   3.710   1.313
 6476SOL    HW120327   4.677   3.711   1.403
 6476SOL    HW220328   4.764   3.621   1.299
 6477SOL     OW20329   6.049   4.980   0.338
 6477SOL    HW120330   6.087   4.893   0.369
 6477SOL    HW220331   6.036   4.977   0.239
 6478SOL     OW20332   3.214   0.410   2.366
 6478SOL    HW120333   3.169   0.427   2.454
 6478SOL    HW220334   3.173   0.467   2.295
 6479SOL     OW20335   4.063   5.707   3.871
 6479SOL    HW120336   4.041   5.691   3.775
 6479SOL    HW220337   4.151   5.755   3.877
 6480SOL     OW20338   3.121   1.244   6.690
 6480SOL    HW120339   3.066   1.297   6.625
 6480SOL    HW220340   3.064   1.174   6.732
 6481SOL     OW20341   3.593   2.076   2.273
 6481SOL    HW120342   3.652   1.995   2.278
 6481SOL    HW220343   3.621   2.132   2.195
 6482SOL     OW20344   6.649   1.126   5.703
 6482SOL    HW120345   6.742   1.158   5.685
 6482SOL    HW220346   6.635   1.117   5.801
 6483SOL     OW20347   1.029   0.039   2.986
 6483SOL    HW120348   0.932   0.019   2.974
 6483SOL    HW220349   1.057   0.108   2.920
 6484SOL     OW20350   3.862   0.092   1.553
 6484SOL    HW120351   3.795   0.129   1.489
 6484SOL    HW220352   3.883   7.026   1.529
 6485SOL     OW20353   2.119   5.145   3.897
 6485SOL    HW120354   2.136   5.074   3.965
 6485SOL    HW220355   2.097   5.231   3.945
 6486SOL     OW20356   0.903   4.132   2.985
 6486SOL    HW120357   0.913   4.102   3.080
 6486SOL    HW220358   0.837   4.207   2.980
 6487SOL     OW20359   0.682   6.456   5.323
 6487SOL    HW120360   0.668   6.482   5.228
 6487SOL    HW220361   0.672   6.536   5.382
 6488SOL     OW20362   3.493   5.999   4.512
 6488SOL    HW120363   3.484   6.046   4.425
 6488SOL    HW220364   3.588   5.970   4.524
 6489SOL     OW20365   3.200   3.455   6.087
 6489SOL    HW120366   3.164   3.548   6.100
 6489SOL    HW220367   3.233   3.446   5.993
 6490SOL     OW20368   4.081   1.505   6.699
 6490SOL    HW120369   3.985   1.486   6.719
 6490SOL    HW220370   4.139   1.441   6.749
 6491SOL     OW20371   3.896   0.952   1.440
 6491SOL    HW120372   3.950   0.941   1.523
 6491SOL    HW220373   3.956   0.948   1.360
 6492SOL     OW20374   4.283   4.527   6.370
 6492SOL    HW120375   4.370   4.496   6.332
 6492SOL    HW220376   4.298   4.565   6.461
 6493SOL     OW20377   1.758   4.314   5.852
 6493SOL    HW120378   1.659   4.321   5.863
 6493SOL    HW220379   1.782   4.323   5.756
 6494SOL     OW20380   6.679   0.698   3.367
 6494SOL    HW120381   6.592   0.742   3.387
 6494SOL    HW220382   6.665   0.624   3.301
 6495SOL     OW20383   6.228   0.324   4.556
 6495SOL    HW120384   6.233   0.224   4.555
 6495SOL    HW220385   6.281   0.359   4.634
 6496SOL     OW20386   5.969   1.332   3.144
 6496SOL    HW120387   5.996   1.427   3.130
 6496SOL    HW220388   5.871   1.322   3.132
 6497SOL     OW20389   0.909   1.245   0.904
 6497SOL    HW120390   0.915   1.344   0.890
 6497SOL    HW220391   0.869   1.203   0.822
 6498SOL     OW20392   1.696   3.655   3.611
 6498SOL    HW120393   1.688   3.730   3.546
 6498SOL    HW220394   1.751   3.684   3.690
 6499SOL     OW20395   5.602   3.276   5.627
 6499SOL    HW120396   5.519   3.270   5.683
 6499SOL    HW220397   5.682   3.278   5.686
 6500SOL     OW20398   6.669   3.981   4.542
 6500SOL    HW120399   6.570   3.972   4.533
 6500SOL    HW220400   6.706   4.034   4.465
 6501SOL     OW20401   0.064   1.261   6.240
 6501SOL    HW120402   7.027   1.324   6.200
 6501SOL    HW220403   0.018   1.198   6.302
 6502SOL     OW20404   6.927   2.567   2.559
 6502SOL    HW120405   6.954   2.617   2.641
 6502SOL    HW220406   6.835   2.593   2.531
 6503SOL     OW20407   5.216   1.528   3.616
 6503SOL    HW120408   5.204   1.604   3.552
 6503SOL    HW220409   5.187   1.557   3.707
 6504SOL     OW20410   4.493   6.344   5.615
 6504SOL    HW120411   4.580   6.298   5.594
 6504SOL    HW220412   4.472   6.331   5.712
 6505SOL     OW20413   5.708   5.344   6.945
 6505SOL    HW120414   5.637   5.316   6.880
 6505SOL    HW220415   5.664   5.378   7.028
 6506SOL     OW20416   7.013   2.280   3.053
 6506SOL    HW120417   6.918   2.250   3.051
 6506SOL    HW220418   7.028   2.350   2.982
 6507SOL     OW20419   1.557   5.206   6.034
 6507SOL    HW120420   1.610   5.284   6.001
 6507SOL    HW220421   1.618   5.140   6.078
 6508SOL     OW20422   1.625   0.754   2.601
 6508SOL    HW120423   1.676   0.822   2.549
 6508SOL    HW220424   1.666   0.664   2.589
 6509SOL     OW20425   3.647   1.214   4.757
 6509SOL    HW120426   3.596   1.143   4.708
 6509SOL    HW220427   3.646   1.194   4.855
 6510SOL     OW20428   6.349   5.652   0.141
 6510SOL    HW120429   6.374   5.686   0.051
 6510SOL    HW220430   6.295   5.721   0.189
 6511SOL     OW20431   3.909   1.392   5.279
 6511SOL    HW120432   3.885   1.298   5.304
 6511SOL    HW220433   3.913   1.448   5.362
 6512SOL     OW20434   4.305   6.526   1.787
 6512SOL    HW120435   4.342   6.515   1.879
 6512SOL    HW220436   4.376   6.503   1.720
 6513SOL     OW20437   2.911   4.813   3.103
 6513SOL    HW120438   2.945   4.841   3.192
 6513SOL    HW220439   2.827   4.760   3.114
 6514SOL     OW20440   6.155   1.262   4.077
 6514SOL    HW120441   6.239   1.276   4.025
 6514SOL    HW220442   6.118   1.170   4.058
 6515SOL     OW20443   0.503   5.055   4.087
 6515SOL    HW120444   0.519   4.999   4.005
 6515SOL    HW220445   0.511   4.998   4.168
 6516SOL     OW20446   0.266   3.747   1.711
 6516SOL    HW120447   0.293   3.704   1.797
 6516SOL    HW220448   0.211   3.828   1.730
 6517SOL     OW20449   6.551   1.706   1.306
 6517SOL    HW120450   6.473   1.692   1.245
 6517SOL    HW220451   6.519   1.708   1.401
 6518SOL     OW20452   0.352   0.976   0.438
 6518SOL    HW120453   0.339   0.885   0.398
 6518SOL    HW220454   0.323   0.974   0.534
 6519SOL     OW20455   0.741   2.624   3.073
 6519SOL    HW120456   0.745   2.720   3.101
 6519SOL    HW220457   0.692   2.616   2.986
 6520SOL     OW20458   6.096   5.131   1.219
 6520SOL    HW120459   6.019   5.119   1.281
 6520SOL    HW220460   6.153   5.049   1.219
 6521SOL     OW20461   2.227   2.972   4.183
 6521SOL    HW120462   2.244   2.883   4.226
 6521SOL    HW220463   2.159   3.022   4.236
 6522SOL     OW20464   3.271   5.153   5.746
 6522SOL    HW120465   3.201   5.155   5.817
 6522SOL    HW220466   3.287   5.059   5.717
 6523SOL     OW20467   3.305   1.705   0.146
 6523SOL    HW120468   3.364   1.703   0.227
 6523SOL    HW220469   3.283   1.800   0.123
 6524SOL     OW20470   3.683   3.667   1.544
 6524SOL    HW120471   3.657   3.616   1.462
 6524SOL    HW220472   3.764   3.624   1.585
 6525SOL     OW20473   2.386   5.170   3.529
 6525SOL    HW120474   2.362   5.228   3.450
 6525SOL    HW220475   2.304   5.123   3.561
 6526SOL     OW20476   2.217   0.426   0.028
 6526SOL    HW120477   2.193   0.374   6.975
 6526SOL    HW220478   2.287   0.376   0.080
 6527SOL     OW20479   0.859   1.803   5.428
 6527SOL    HW120480   0.904   1.749   5.357
 6527SOL    HW220481   0.760   1.791   5.421
 6528SOL     OW20482   6.495   0.957   5.351
 6528SOL    HW120483   6.550   0.943   5.269
 6528SOL    HW220484   6.537   1.029   5.406
 6529SOL     OW20485   1.966   1.026   2.734
 6529SOL    HW120486   2.050   1.030   2.679
 6529SOL    HW220487   1.990   1.008   2.830
 6530SOL     OW20488   0.035   2.838   0.523
 6530SOL    HW120489   0.045   2.918   0.581
 6530SOL    HW220490   0.120   2.785   0.525
 6531SOL     OW20491   5.033   2.882   5.226
 6531SOL    HW120492   4.993   2.925   5.307
 6531SOL    HW220493   5.042   2.950   5.153
 6532SOL     OW20494   6.883   0.926   1.125
 6532SOL    HW120495   6.815   0.863   1.087
 6532SOL    HW220496   6.860   0.946   1.220
 6533SOL     OW20497   4.878   6.920   0.789
 6533SOL    HW120498   4.893   7.017   0.770
 6533SOL    HW220499   4.785   6.895   0.763
 6534SOL     OW20500   4.471   4.647   1.615
 6534SOL    HW120501   4.411   4.631   1.537
 6534SOL    HW220502   4.532   4.568   1.627
 6535SOL     OW20503   6.567   3.961   4.187
 6535SOL    HW120504   6.498   4.009   4.241
 6535SOL    HW220505   6.657   3.972   4.230
 6536SOL     OW20506   0.685   0.829   5.572
 6536SOL    HW120507   0.658   0.746   5.620
 6536SOL    HW220508   0.605   0.890   5.564
 6537SOL     OW20509   0.193   5.364   6.724
 6537SOL    HW120510   0.193   5.288   6.659
 6537SOL    HW220511   0.166   5.331   6.814
 6538SOL     OW20512   2.134   3.590   6.130
 6538SOL    HW120513   2.067   3.576   6.057
 6538SOL    HW220514   2.096   3.651   6.199
 6539SOL     OW20515   4.556   0.789   6.893
 6539SOL    HW120516   4.592   0.804   6.801
 6539SOL    HW220517   4.603   0.850   6.957
 6540SOL     OW20518   4.649   1.929   5.715
 6540SOL    HW120519   4.562   1.947   5.670
 6540SOL    HW220520   4.724   1.939   5.650
 6541SOL     OW20521   4.209   1.945   4.700
 6541SOL    HW120522   4.117   1.912   4.719
 6541SOL    HW220523   4.205   2.039   4.665
 6542SOL     OW20524   6.474   3.098   4.284
 6542SOL    HW120525   6.440   3.096   4.378
 6542SOL    HW220526   6.402   3.068   4.222
 6543SOL     OW20527   4.938   2.818   6.145
 6543SOL    HW120528   4.999   2.801   6.068
 6543SOL    HW220529   4.914   2.731   6.189
 6544SOL     OW20530   1.037   6.110   2.611
 6544SOL    HW120531   1.076   6.066   2.692
 6544SOL    HW220532   1.106   6.166   2.566
 6545SOL     OW20533   4.118   1.295   0.509
 6545SOL    HW120534   4.146   1.349   0.430
 6545SOL    HW220535   4.024   1.317   0.534
 6546SOL     OW20536   3.333   4.471   0.230
 6546SOL    HW120537   3.344   4.373   0.247
 6546SOL    HW220538   3.344   4.521   0.315
 6547SOL     OW20539   4.896   1.148   6.211
 6547SOL    HW120540   4.960   1.147   6.135
 6547SOL    HW220541   4.803   1.132   6.177
 6548SOL     OW20542   0.392   4.140   0.950
 6548SOL    HW120543   0.346   4.052   0.961
 6548SOL    HW220544   0.484   4.125   0.913
 6549SOL     OW20545   4.775   0.731   1.961
 6549SOL    HW120546   4.705   0.713   1.892
 6549SOL    HW220547   4.740   0.710   2.052
 6550SOL     OW20548   0.096   6.905   3.359
 6550SOL    HW120549   0.177   6.950   3.398
 6550SOL    HW220550   0.072   6.826   3.416
 6551SOL     OW20551   2.077   4.770   2.357
 6551SOL    HW120552   2.125   4.803   2.438
 6551SOL    HW220553   2.018   4.843   2.321
 6552SOL     OW20554   1.814   0.339   0.390
 6552SOL    HW120555   1.804   0.243   0.419
 6552SOL    HW220556   1.892   0.346   0.327
 6553SOL     OW20557   6.752   2.388   3.684
 6553SOL    HW120558   6.815   2.463   3.704
 6553SOL    HW220559   6.752   2.370   3.585
 6554SOL     OW20560   0.613   0.258   5.160
 6554SOL    HW120561   0.642   0.214   5.245
 6554SOL    HW220562   0.593   0.354   5.177
 6555SOL     OW20563   5.684   1.385   3.056
 6555SOL    HW120564   5.671   1.479   3.025
 6555SOL    HW220565   5.730   1.333   2.984
 6556SOL     OW20566   5.009   4.573   4.103
 6556SOL    HW120567   4.935   4.596   4.040
 6556SOL    HW220568   4.997   4.479   4.135
 6557SOL     OW20569   3.409   7.028   3.018
 6557SOL    HW120570   3.442   6.939   2.987
 6557SOL    HW220571   3.350   0.039   2.948
 6558SOL     OW20572   6.984   5.111   6.848
 6558SOL    HW120573   6.934   5.041   6.900
 6558SOL    HW220574   0.027   5.150   6.906
 6559SOL     OW20575   0.351   3.416   6.439
 6559SOL    HW120576   0.326   3.505   6.477
 6559SOL    HW220577   0.447   3.417   6.413
 6560SOL     OW20578   4.616   4.845   1.367
 6560SOL    HW120579   4.632   4.933   1.320
 6560SOL    HW220580   4.562   4.860   1.449
 6561SOL     OW20581   3.452   3.983   1.237
 6561SOL    HW120582   3.548   3.955   1.234
 6561SOL    HW220583   3.407   3.939   1.315
 6562SOL     OW20584   6.215   3.294   0.701
 6562SOL    HW120585   6.175   3.205   0.719
 6562SOL    HW220586   6.148   3.353   0.656
 6563SOL     OW20587   4.861   5.882   0.033
 6563SOL    HW120588   4.884   5.976   0.011
 6563SOL    HW220589   4.764   5.876   0.059
 6564SOL     OW20590   6.782   3.911   2.994
 6564SOL    HW120591   6.832   3.995   3.013
 6564SOL    HW220592   6.703   3.905   3.055
 6565SOL     OW20593   5.227   2.056   2.978
 6565SOL    HW120594   5.319   2.086   2.955
 6565SOL    HW220595   5.200   1.981   2.917
 6566SOL     OW20596   4.074   6.348   1.972
 6566SOL    HW120597   4.107   6.275   2.032
 6566SOL    HW220598   4.067   6.433   2.023
 6567SOL     OW20599   4.440   0.987   2.648
 6567SOL    HW120600   4.465   1.079   2.618
 6567SOL    HW220601   4.521   0.939   2.681
 6568SOL     OW20602   2.951   1.086   3.679
 6568SOL    HW120603   2.960   1.075   3.778
 6568SOL    HW220604   2.984   1.003   3.633
 6569SOL     OW20605   2.740   3.589   0.149
 6569SOL    HW120606   2.718   3.507   0.202
 6569SOL    HW220607   2.665   3.655   0.158
 6570SOL     OW20608   3.518   0.689   2.178
 6570SOL    HW120609   3.458   0.759   2.137
 6570SOL    HW220610   3.562   0.637   2.105
 6571SOL     OW20611   3.073   5.120   1.599
 6571SOL    HW120612   3.082   5.202   1.544
 6571SOL    HW220613   3.100   5.139   1.694
 6572SOL     OW20614   6.866   5.276   5.463
 6572SOL    HW120615   6.867   5.371   5.432
 6572SOL    HW220616   6.944   5.259   5.523
 6573SOL     OW20617   1.427   1.986   1.997
 6573SOL    HW120618   1.509   1.953   1.952
 6573SOL    HW220619   1.353   1.997   1.930
 6574SOL     OW20620   2.911   5.337   2.486
 6574SOL    HW120621   2.812   5.348   2.498
 6574SOL    HW220622   2.959   5.398   2.549
 6575SOL     OW20623   0.820   0.317   2.934
 6575SOL    HW120624   0.838   0.371   2.852
 6575SOL    HW220625   0.804   0.222   2.908
 6576SOL     OW20626   2.336   6.306   0.344
 6576SOL    HW120627   2.364   6.364   0.267
 6576SOL    HW220628   2.279   6.231   0.310
 6577SOL     OW20629   1.115   1.906   3.974
 6577SOL    HW120630   1.172   1.966   3.918
 6577SOL    HW220631   1.164   1.883   4.058
 6578SOL     OW20632   0.717   5.533   3.323
 6578SOL    HW120633   0.724   5.512   3.420
 6578SOL    HW220634   0.638   5.593   3.307
 6579SOL     OW20635   6.745   3.275   4.353
 6579SOL    HW120636   6.834   3.234   4.374
 6579SOL    HW220637   6.683   3.204   4.318
 6580SOL     OW20638   0.840   2.485   1.324
 6580SOL    HW120639   0.858   2.573   1.278
 6580SOL    HW220640   0.920   2.426   1.313
 6581SOL     OW20641   3.140   0.807   0.151
 6581SOL    HW120642   3.058   0.781   0.098
 6581SOL    HW220643   3.117   0.883   0.211
 6582SOL     OW20644   0.584   1.098   2.916
 6582SOL    HW120645   0.542   1.039   2.847
 6582SOL    HW220646   0.514   1.128   2.981
 6583SOL     OW20647   4.435   0.725   5.497
 6583SOL    HW120648   4.392   0.672   5.569
 6583SOL    HW220649   4.481   0.805   5.536
 6584SOL     OW20650   4.473   2.603   0.989
 6584SOL    HW120651   4.438   2.696   0.973
 6584SOL    HW220652   4.552   2.587   0.929
 6585SOL     OW20653   6.160   6.484   6.787
 6585SOL    HW120654   6.184   6.463   6.692
 6585SOL    HW220655   6.103   6.566   6.789
 6586SOL     OW20656   5.925   0.698   5.192
 6586SOL    HW120657   5.983   0.774   5.220
 6586SOL    HW220658   5.900   0.709   5.096
 6587SOL     OW20659   1.981   5.848   5.334
 6587SOL    HW120660   1.906   5.786   5.356
 6587SOL    HW220661   1.969   5.882   5.241
 6588SOL     OW20662   1.048   3.092   1.770
 6588SOL    HW120663   1.143   3.095   1.739
 6588SOL    HW220664   0.989   3.131   1.700
 6589SOL     OW20665   5.076   0.903   0.950
 6589SOL    HW120666   5.003   0.865   0.891
 6589SOL    HW220667   5.165   0.882   0.909
 6590SOL     OW20668   0.545   1.277   5.896
 6590SOL    HW120669   0.504   1.298   5.806
 6590SOL    HW220670   0.601   1.355   5.925
 6591SOL     OW20671   6.032   5.225   2.560
 6591SOL    HW120672   6.069   5.259   2.474
 6591SOL    HW220673   5.944   5.268   2.579
 6592SOL     OW20674   5.366   7.014   3.524
 6592SOL    HW120675   5.343   6.954   3.601
 6592SOL    HW220676   5.464   0.007   3.527
 6593SOL     OW20677   1.741   2.285   2.584
 6593SOL    HW120678   1.837   2.308   2.602
 6593SOL    HW220679   1.736   2.196   2.539
 6594SOL     OW20680   3.889   1.798   0.040
 6594SOL    HW120681   3.820   1.729   0.061
 6594SOL    HW220682   3.904   1.803   6.970
 6595SOL     OW20683   1.072   4.014   6.557
 6595SOL    HW120684   1.069   4.007   6.458
 6595SOL    HW220685   1.058   3.924   6.598
 6596SOL     OW20686   3.074   6.080   4.675
 6596SOL    HW120687   2.982   6.106   4.703
 6596SOL    HW220688   3.129   6.163   4.661
 6597SOL     OW20689   1.564   5.443   2.041
 6597SOL    HW120690   1.575   5.348   2.012
 6597SOL    HW220691   1.582   5.504   1.964
 6598SOL     OW20692   1.326   5.517   4.319
 6598SOL    HW120693   1.306   5.615   4.321
 6598SOL    HW220694   1.425   5.504   4.315
 6599SOL     OW20695   4.536   5.871   6.147
 6599SOL    HW120696   4.471   5.909   6.081
 6599SOL    HW220697   4.494   5.871   6.238
 6600SOL     OW20698   4.941   5.119   5.100
 6600SOL    HW120699   4.932   5.025   5.066
 6600SOL    HW220700   5.022   5.126   5.157
 6601SOL     OW20701   1.276   2.143   4.879
 6601SOL    HW120702   1.368   2.182   4.870
 6601SOL    HW220703   1.208   2.213   4.855
 6602SOL     OW20704   1.115   0.812   1.878
 6602SOL    HW120705   1.026   0.802   1.922
 6602SOL    HW220706   1.181   0.751   1.922
 6603SOL     OW20707   6.880   2.844   3.853
 6603SOL    HW120708   6.843   2.782   3.922
 6603SOL    HW220709   6.804   2.891   3.808
 6604SOL     OW20710   1.836   0.402   0.692
 6604SOL    HW120711   1.740   0.380   0.679
 6604SOL    HW220712   1.885   0.389   0.606
 6605SOL     OW20713   5.368   4.261   2.116
 6605SOL    HW120714   5.292   4.205   2.148
 6605SOL    HW220715   5.452   4.206   2.118
 6606SOL     OW20716   0.315   6.112   2.178
 6606SOL    HW120717   0.313   6.031   2.119
 6606SOL    HW220718   0.283   6.088   2.269
 6607SOL     OW20719   2.055   3.524   2.208
 6607SOL    HW120720   2.125   3.537   2.138
 6607SOL    HW220721   2.052   3.604   2.268
 6608SOL     OW20722   6.226   6.631   0.748
 6608SOL    HW120723   6.284   6.675   0.817
 6608SOL    HW220724   6.279   6.613   0.666
 6609SOL     OW20725   4.697   0.768   6.227
 6609SOL    HW120726   4.621   0.827   6.197
 6609SOL    HW220727   4.660   0.687   6.272
 6610SOL     OW20728   2.422   0.006   6.815
 6610SOL    HW120729   2.501   6.998   6.765
 6610SOL    HW220730   2.416   6.992   6.905
 6611SOL     OW20731   4.996   2.616   3.765
 6611SOL    HW120732   5.011   2.692   3.702
 6611SOL    HW220733   5.068   2.616   3.835
 6612SOL     OW20734   5.923   1.901   5.800
 6612SOL    HW120735   6.010   1.899   5.750
 6612SOL    HW220736   5.942   1.890   5.898
 6613SOL     OW20737   6.237   6.590   5.237
 6613SOL    HW120738   6.269   6.648   5.311
 6613SOL    HW220739   6.177   6.519   5.273
 6614SOL     OW20740   4.747   5.860   0.382
 6614SOL    HW120741   4.838   5.838   0.348
 6614SOL    HW220742   4.699   5.775   0.405
 6615SOL     OW20743   1.716   5.843   1.816
 6615SOL    HW120744   1.635   5.893   1.844
 6615SOL    HW220745   1.798   5.889   1.849
 6616SOL     OW20746   5.038   0.918   6.297
 6616SOL    HW120747   4.982   0.860   6.356
 6616SOL    HW220748   4.992   1.005   6.282
 6617SOL     OW20749   4.598   4.950   3.601
 6617SOL    HW120750   4.634   4.856   3.594
 6617SOL    HW220751   4.673   5.013   3.615
 6618SOL     OW20752   1.400   2.429   2.255
 6618SOL    HW120753   1.484   2.480   2.236
 6618SOL    HW220754   1.351   2.471   2.330
 6619SOL     OW20755   5.650   0.327   4.171
 6619SOL    HW120756   5.745   0.303   4.154
 6619SOL    HW220757   5.602   0.335   4.083
 6620SOL     OW20758   2.070   2.550   5.393
 6620SOL    HW120759   2.160   2.556   5.349
 6620SOL    HW220760   1.999   2.550   5.324
 6621SOL     OW20761   3.553   3.105   6.407
 6621SOL    HW120762   3.454   3.090   6.415
 6621SOL    HW220763   3.579   3.187   6.457
 6622SOL     OW20764   6.094   6.522   1.407
 6622SOL    HW120765   6.173   6.473   1.369
 6622SOL    HW220766   6.010   6.477   1.378
 6623SOL     OW20767   3.023   3.206   5.295
 6623SOL    HW120768   2.979   3.284   5.250
 6623SOL    HW220769   3.115   3.232   5.325
 6624SOL     OW20770   0.280   5.020   6.084
 6624SOL    HW120771   0.194   5.048   6.125
 6624SOL    HW220772   0.345   4.996   6.157
 6625SOL     OW20773   5.165   1.614   5.316
 6625SOL    HW120774   5.254   1.610   5.360
 6625SOL    HW220775   5.115   1.529   5.334
 6626SOL     OW20776   4.371   5.031   5.176
 6626SOL    HW120777   4.295   4.965   5.180
 6626SOL    HW220778   4.345   5.114   5.226
 6627SOL     OW20779   2.067   6.340   5.197
 6627SOL    HW120780   2.036   6.421   5.248
 6627SOL    HW220781   1.996   6.269   5.202
 6628SOL     OW20782   4.713   5.190   4.631
 6628SOL    HW120783   4.629   5.210   4.580
 6628SOL    HW220784   4.716   5.245   4.714
 6629SOL     OW20785   4.521   6.128   6.770
 6629SOL    HW120786   4.610   6.102   6.732
 6629SOL    HW220787   4.449   6.110   6.704
 6630SOL     OW20788   4.084   1.715   1.397
 6630SOL    HW120789   4.042   1.702   1.487
 6630SOL    HW220790   4.066   1.635   1.340
 6631SOL     OW20791   2.180   5.030   3.654
 6631SOL    HW120792   2.200   5.032   3.751
 6631SOL    HW220793   2.083   5.050   3.639
 6632SOL     OW20794   0.160   0.071   1.359
 6632SOL    HW120795   0.070   0.098   1.323
 6632SOL    HW220796   0.201   0.003   1.298
 6633SOL     OW20797   1.558   4.508   6.632
 6633SOL    HW120798   1.539   4.439   6.702
 6633SOL    HW220799   1.644   4.485   6.586
 6634SOL     OW20800   4.811   2.099   4.906
 6634SOL    HW120801   4.774   2.126   4.817
 6634SOL    HW220802   4.829   2.000   4.907
 6635SOL     OW20803   4.757   4.994   2.998
 6635SOL    HW120804   4.777   5.060   3.070
 6635SOL    HW220805   4.790   5.029   2.910
 6636SOL     OW20806   4.926   1.848   6.077
 6636SOL    HW120807   4.973   1.879   6.160
 6636SOL    HW220808   4.961   1.898   5.998
 6637SOL     OW20809   1.225   6.801   6.812
 6637SOL    HW120810   1.223   6.762   6.904
 6637SOL    HW220811   1.286   6.880   6.810
 6638SOL     OW20812   3.015   3.956   3.532
 6638SOL    HW120813   3.113   3.970   3.539
 6638SOL    HW220814   2.994   3.904   3.449
 6639SOL     OW20815   5.312   5.079   6.057
 6639SOL    HW120816   5.215   5.059   6.065
 6639SOL    HW220817   5.332   5.112   5.965
 6640SOL     OW20818   0.841   1.892   4.889
 6640SOL    HW120819   0.815   1.905   4.793
 6640SOL    HW220820   0.932   1.931   4.904
 6641SOL     OW20821   2.252   1.937   6.042
 6641SOL    HW120822   2.303   2.007   5.990
 6641SOL    HW220823   2.269   1.847   6.002
 6642SOL     OW20824   1.758   5.690   6.874
 6642SOL    HW120825   1.749   5.770   6.933
 6642SOL    HW220826   1.847   5.690   6.830
 6643SOL     OW20827   6.309   5.390   0.254
 6643SOL    HW120828   6.368   5.338   0.316
 6643SOL    HW220829   6.356   5.474   0.226
 6644SOL     OW20830   2.764   5.793   1.456
 6644SOL    HW120831   2.764   5.867   1.524
 6644SOL    HW220832   2.727   5.710   1.497
 6645SOL     OW20833   6.349   4.570   0.284
 6645SOL    HW120834   6.408   4.647   0.309
 6645SOL    HW220835   6.387   4.524   0.204
 6646SOL     OW20836   3.817   0.539   5.036
 6646SOL    HW120837   3.837   0.524   4.939
 6646SOL    HW220838   3.886   0.599   5.076
 6647SOL     OW20839   5.323   1.160   1.208
 6647SOL    HW120840   5.348   1.076   1.255
 6647SOL    HW220841   5.226   1.178   1.222
 6648SOL     OW20842   3.774   6.824   3.797
 6648SOL    HW120843   3.789   6.877   3.713
 6648SOL    HW220844   3.708   6.751   3.779
 6649SOL     OW20845   5.290   0.921   6.919
 6649SOL    HW120846   5.251   0.857   6.985
 6649SOL    HW220847   5.297   1.012   6.961
 6650SOL     OW20848   3.975   1.553   5.491
 6650SOL    HW120849   3.964   1.554   5.590
 6650SOL    HW220850   4.072   1.550   5.468
 6651SOL     OW20851   2.807   1.338   5.702
 6651SOL    HW120852   2.882   1.402   5.686
 6651SOL    HW220853   2.829   1.279   5.779
 6652SOL     OW20854   0.743   4.438   0.839
 6652SOL    HW120855   0.769   4.486   0.756
 6652SOL    HW220856   0.803   4.466   0.914
 6653SOL     OW20857   3.670   3.686   2.551
 6653SOL    HW120858   3.724   3.617   2.502
 6653SOL    HW220859   3.640   3.756   2.486
 6654SOL     OW20860   1.313   5.038   1.368
 6654SOL    HW120861   1.295   5.101   1.292
 6654SOL    HW220862   1.254   4.958   1.360
 6655SOL     OW20863   1.025   0.462   3.638
 6655SOL    HW120864   1.095   0.532   3.647
 6655SOL    HW220865   0.941   0.493   3.683
 6656SOL     OW20866   5.538   2.015   3.798
 6656SOL    HW120867   5.577   2.018   3.891
 6656SOL    HW220868   5.438   2.019   3.804
 6657SOL     OW20869   6.392   4.881   6.406
 6657SOL    HW120870   6.472   4.867   6.348
 6657SOL    HW220871   6.336   4.798   6.408
 6658SOL     OW20872   6.875   0.701   4.836
 6658SOL    HW120873   6.939   0.652   4.896
 6658SOL    HW220874   6.909   0.794   4.819
 6659SOL     OW20875   2.001   3.053   0.782
 6659SOL    HW120876   2.031   2.978   0.724
 6659SOL    HW220877   1.987   3.135   0.727
 6660SOL     OW20878   0.899   5.291   1.366
 6660SOL    HW120879   0.801   5.280   1.383
 6660SOL    HW220880   0.926   5.234   1.289
 6661SOL     OW20881   1.455   6.538   5.004
 6661SOL    HW120882   1.548   6.510   4.980
 6661SOL    HW220883   1.457   6.586   5.092
 6662SOL     OW20884   1.476   0.040   0.242
 6662SOL    HW120885   1.436   0.005   0.157
 6662SOL    HW220886   1.573   0.013   0.247
 6663SOL     OW20887   6.445   5.091   4.075
 6663SOL    HW120888   6.439   4.992   4.089
 6663SOL    HW220889   6.388   5.118   3.998
 6664SOL     OW20890   2.183   6.428   0.749
 6664SOL    HW120891   2.141   6.341   0.722
 6664SOL    HW220892   2.206   6.481   0.667
 6665SOL     OW20893   2.252   5.554   4.793
 6665SOL    HW120894   2.196   5.475   4.817
 6665SOL    HW220895   2.348   5.534   4.811
 6666SOL     OW20896   6.220   0.187   5.772
 6666SOL    HW120897   6.162   0.105   5.775
 6666SOL    HW220898   6.307   0.165   5.729
 6667SOL     OW20899   6.836   6.343   6.924
 6667SOL    HW120900   6.829   6.383   6.833
 6667SOL    HW220901   6.931   6.316   6.942
 6668SOL     OW20902   6.639   4.857   1.245
 6668SOL    HW120903   6.570   4.785   1.244
 6668SOL    HW220904   6.611   4.931   1.184
 6669SOL     OW20905   1.779   2.569   2.888
 6669SOL    HW120906   1.705   2.593   2.952
 6669SOL    HW220907   1.858   2.626   2.908
 6670SOL     OW20908   3.849   1.233   5.634
 6670SOL    HW120909   3.774   1.295   5.658
 6670SOL    HW220910   3.814   1.159   5.576
 6671SOL     OW20911   5.305   6.531   0.743
 6671SOL    HW120912   5.395   6.523   0.786
 6671SOL    HW220913   5.260   6.442   0.742
 6672SOL     OW20914   6.566   2.541   6.950
 6672SOL    HW120915   6.639   2.582   7.005
 6672SOL    HW220916   6.572   2.442   6.954
 6673SOL     OW20917   5.030   5.125   4.140
 6673SOL    HW120918   5.026   5.069   4.058
 6673SOL    HW220919   5.108   5.187   4.136
 6674SOL     OW20920   0.344   4.198   6.247
 6674SOL    HW120921   0.341   4.148   6.160
 6674SOL    HW220922   0.367   4.294   6.230
 6675SOL     OW20923   5.142   4.024   1.276
 6675SOL    HW120924   5.061   4.067   1.236
 6675SOL    HW220925   5.119   3.932   1.308
 6676SOL     OW20926   0.805   4.037   5.856
 6676SOL    HW120927   0.859   4.071   5.779
 6676SOL    HW220928   0.821   3.939   5.867
 6677SOL     OW20929   1.260   1.968   6.137
 6677SOL    HW120930   1.320   1.951   6.215
 6677SOL    HW220931   1.310   1.952   6.052
 6678SOL     OW20932   2.799   3.365   6.789
 6678SOL    HW120933   2.767   3.449   6.831
 6678SOL    HW220934   2.721   3.312   6.756
 6679SOL     OW20935   3.366   1.191   3.703
 6679SOL    HW120936   3.348   1.197   3.801
 6679SOL    HW220937   3.316   1.113   3.665
 6680SOL     OW20938   5.118   6.591   6.745
 6680SOL    HW120939   5.142   6.674   6.794
 6680SOL    HW220940   5.152   6.511   6.795
 6681SOL     OW20941   3.490   5.949   1.525
 6681SOL    HW120942   3.402   5.911   1.555
 6681SOL    HW220943   3.557   5.875   1.521
 6682SOL     OW20944   0.411   4.122   2.336
 6682SOL    HW120945   0.393   4.048   2.272
 6682SOL    HW220946   0.403   4.089   2.430
 6683SOL     OW20947   5.908   3.293   5.184
 6683SOL    HW120948   5.831   3.341   5.227
 6683SOL    HW220949   5.877   3.250   5.099
 6684SOL     OW20950   2.845   0.006   1.570
 6684SOL    HW120951   2.852   0.032   1.667
 6684SOL    HW220952   2.753   7.003   1.551
 6685SOL     OW20953   6.223   3.209   5.641
 6685SOL    HW120954   6.179   3.123   5.613
 6685SOL    HW220955   6.218   3.275   5.566
 6686SOL     OW20956   5.276   6.186   4.794
 6686SOL    HW120957   5.258   6.170   4.891
 6686SOL    HW220958   5.339   6.116   4.759
 6687SOL     OW20959   1.442   3.419   0.088
 6687SOL    HW120960   1.347   3.435   0.116
 6687SOL    HW220961   1.502   3.487   0.131
 6688SOL     OW20962   6.331   4.540   2.609
 6688SOL    HW120963   6.295   4.625   2.647
 6688SOL    HW220964   6.309   4.464   2.671
 6689SOL     OW20965   4.356   3.104   0.438
 6689SOL    HW120966   4.410   3.023   0.417
 6689SOL    HW220967   4.274   3.106   0.381
 6690SOL     OW20968   1.198   1.331   0.739
 6690SOL    HW120969   1.127   1.381   0.789
 6690SOL    HW220970   1.211   1.241   0.780
 6691SOL     OW20971   2.803   6.641   2.299
 6691SOL    HW120972   2.854   6.640   2.385
 6691SOL    HW220973   2.853   6.589   2.230
 6692SOL     OW20974   3.817   3.494   5.117
 6692SOL    HW120975   3.852   3.566   5.176
 6692SOL    HW220976   3.748   3.441   5.166
 6693SOL     OW20977   4.349   2.924   5.707
 6693SOL    HW120978   4.289   2.936   5.785
 6693SOL    HW220979   4.391   2.833   5.711
 6694SOL     OW20980   3.618   5.739   1.004
 6694SOL    HW120981   3.704   5.777   1.039
 6694SOL    HW220982   3.573   5.806   0.945
 6695SOL     OW20983   3.173   2.359   0.688
 6695SOL    HW120984   3.129   2.449   0.679
 6695SOL    HW220985   3.174   2.313   0.600
 6696SOL     OW20986   3.207   3.121   5.849
 6696SOL    HW120987   3.154   3.154   5.771
 6696SOL    HW220988   3.166   3.153   5.934
 6697SOL     OW20989   4.855   2.434   2.996
 6697SOL    HW120990   4.796   2.469   2.923
 6697SOL    HW220991   4.892   2.345   2.969
 6698SOL     OW20992   2.419   2.689   1.815
 6698SOL    HW120993   2.415   2.776   1.767
 6698SOL    HW220994   2.506   2.644   1.794
 6699SOL     OW20995   2.708   5.871   5.611
 6699SOL    HW120996   2.751   5.953   5.574
 6699SOL    HW220997   2.667   5.818   5.537
 6700SOL     OW20998   0.758   6.879   1.693
 6700SOL    HW120999   0.772   6.808   1.761
 6700SOL    HW221000   0.845   6.925   1.674
 6701SOL     OW21001   5.577   4.021   2.532
 6701SOL    HW121002   5.536   4.074   2.606
 6701SOL    HW221003   5.652   4.073   2.491
 6702SOL     OW21004   3.291   1.949   1.284
 6702SOL    HW121005   3.342   1.962   1.370
 6702SOL    HW221006   3.209   2.005   1.285
 6703SOL     OW21007   6.594   2.252   6.950
 6703SOL    HW121008   6.595   2.155   6.976
 6703SOL    HW221009   6.683   2.277   6.913
 6704SOL     OW21010   3.599   1.419   2.969
 6704SOL    HW121011   3.644   1.507   2.979
 6704SOL    HW221012   3.500   1.433   2.962
 6705SOL     OW21013   7.014   2.963   1.688
 6705SOL    HW121014   7.013   2.932   1.783
 6705SOL    HW221015   6.962   2.899   1.631
 6706SOL     OW21016   2.032   4.496   2.372
 6706SOL    HW121017   1.939   4.495   2.411
 6706SOL    HW221018   2.060   4.591   2.355
 6707SOL     OW21019   6.651   6.413   3.502
 6707SOL    HW121020   6.698   6.326   3.487
 6707SOL    HW221021   6.706   6.487   3.465
 6708SOL     OW21022   6.958   5.477   1.363
 6708SOL    HW121023   6.958   5.378   1.356
 6708SOL    HW221024   6.972   5.504   1.458
 6709SOL     OW21025   3.198   6.598   3.231
 6709SOL    HW121026   3.135   6.651   3.289
 6709SOL    HW221027   3.282   6.651   3.217
 6710SOL     OW21028   3.696   0.353   6.451
 6710SOL    HW121029   3.604   0.336   6.415
 6710SOL    HW221030   3.705   0.307   6.540
 6711SOL     OW21031   4.799   5.360   5.955
 6711SOL    HW121032   4.741   5.279   5.945
 6711SOL    HW221033   4.807   5.406   5.867
 6712SOL     OW21034   5.161   4.116   0.144
 6712SOL    HW121035   5.186   4.021   0.124
 6712SOL    HW221036   5.062   4.127   0.135
 6713SOL     OW21037   2.030   0.391   2.472
 6713SOL    HW121038   2.123   0.360   2.450
 6713SOL    HW221039   2.008   0.473   2.418
 6714SOL     OW21040   6.383   0.924   5.996
 6714SOL    HW121041   6.368   0.940   6.094
 6714SOL    HW221042   6.295   0.910   5.951
 6715SOL     OW21043   0.611   0.389   0.197
 6715SOL    HW121044   0.661   0.475   0.203
 6715SOL    HW221045   0.525   0.403   0.148
 6716SOL     OW21046   0.381   5.830   1.527
 6716SOL    HW121047   0.404   5.926   1.541
 6716SOL    HW221048   0.302   5.823   1.466
 6717SOL     OW21049   3.956   3.197   6.862
 6717SOL    HW121050   3.859   3.218   6.853
 6717SOL    HW221051   3.967   3.106   6.905
 6718SOL     OW21052   5.554   0.536   1.020
 6718SOL    HW121053   5.526   0.477   1.096
 6718SOL    HW221054   5.636   0.587   1.047
 6719SOL     OW21055   2.233   0.349   6.545
 6719SOL    HW121056   2.145   0.350   6.496
 6719SOL    HW221057   2.299   0.404   6.495
 6720SOL     OW21058   1.205   6.941   4.173
 6720SOL    HW121059   1.299   6.928   4.204
 6720SOL    HW221060   1.206   6.984   4.082
 6721SOL     OW21061   6.937   0.265   0.241
 6721SOL    HW121062   6.882   0.348   0.242
 6721SOL    HW221063   6.887   0.191   0.286
 6722SOL     OW21064   6.681   2.835   1.841
 6722SOL    HW121065   6.690   2.750   1.788
 6722SOL    HW221066   6.762   2.846   1.899
 6723SOL     OW21067   2.180   6.219   3.090
 6723SOL    HW121068   2.224   6.298   3.045
 6723SOL    HW221069   2.251   6.158   3.126
 6724SOL     OW21070   1.741   3.116   5.626
 6724SOL    HW121071   1.827   3.103   5.675
 6724SOL    HW221072   1.757   3.173   5.546
 6725SOL     OW21073   0.348   3.148   1.574
 6725SOL    HW121074   0.438   3.124   1.612
 6725SOL    HW221075   0.338   3.247   1.571
 6726SOL     OW21076   0.650   2.153   5.454
 6726SOL    HW121077   0.742   2.124   5.477
 6726SOL    HW221078   0.624   2.231   5.511
 6727SOL     OW21079   0.113   3.927   5.337
 6727SOL    HW121080   0.076   3.865   5.268
 6727SOL    HW221081   0.045   3.998   5.358
 6728SOL     OW21082   3.587   1.942   2.983
 6728SOL    HW121083   3.564   1.990   3.068
 6728SOL    HW221084   3.521   1.966   2.912
 6729SOL     OW21085   6.840   1.406   2.988
 6729SOL    HW121086   6.790   1.462   3.055
 6729SOL    HW221087   6.918   1.459   2.953
 6730SOL     OW21088   2.528   6.765   0.830
 6730SOL    HW121089   2.489   6.729   0.915
 6730SOL    HW221090   2.607   6.821   0.851
 6731SOL     OW21091   0.761   6.092   1.547
 6731SOL    HW121092   0.859   6.084   1.567
 6731SOL    HW221093   0.721   6.001   1.537
 6732SOL     OW21094   5.405   4.734   4.575
 6732SOL    HW121095   5.344   4.800   4.532
 6732SOL    HW221096   5.365   4.643   4.571
 6733SOL     OW21097   4.262   6.070   0.307
 6733SOL    HW121098   4.360   6.091   0.307
 6733SOL    HW221099   4.211   6.151   0.277
 6734SOL     OW21100   6.300   2.496   4.530
 6734SOL    HW121101   6.332   2.447   4.611
 6734SOL    HW221102   6.207   2.530   4.547
 6735SOL     OW21103   6.711   4.388   4.833
 6735SOL    HW121104   6.721   4.399   4.734
 6735SOL    HW221105   6.704   4.291   4.855
 6736SOL     OW21106   2.943   3.319   0.137
 6736SOL    HW121107   2.902   3.316   0.229
 6736SOL    HW221108   2.881   3.274   0.072
 6737SOL     OW21109   1.806   2.288   0.679
 6737SOL    HW121110   1.877   2.328   0.621
 6737SOL    HW221111   1.719   2.285   0.628
 6738SOL     OW21112   1.582   5.512   2.803
 6738SOL    HW121113   1.675   5.547   2.808
 6738SOL    HW221114   1.521   5.571   2.856
 6739SOL     OW21115   3.606   6.245   5.032
 6739SOL    HW121116   3.594   6.183   4.954
 6739SOL    HW221117   3.637   6.193   5.111
 6740SOL     OW21118   1.584   0.393   4.549
 6740SOL    HW121119   1.649   0.324   4.580
 6740SOL    HW221120   1.501   0.348   4.516
 6741SOL     OW21121   4.359   1.548   5.634
 6741SOL    HW121122   4.306   1.630   5.613
 6741SOL    HW221123   4.457   1.569   5.627
 6742SOL     OW21124   6.489   6.171   2.407
 6742SOL    HW121125   6.559   6.109   2.444
 6742SOL    HW221126   6.401   6.150   2.449
 6743SOL     OW21127   3.260   5.439   0.371
 6743SOL    HW121128   3.284   5.349   0.405
 6743SOL    HW221129   3.187   5.431   0.303
 6744SOL     OW21130   5.636   4.295   6.036
 6744SOL    HW121131   5.590   4.207   6.045
 6744SOL    HW221132   5.577   4.360   5.989
 6745SOL     OW21133   6.961   0.208   2.749
 6745SOL    HW121134   6.959   0.299   2.792
 6745SOL    HW221135   0.022   0.166   2.766
 6746SOL     OW21136   0.489   1.273   3.694
 6746SOL    HW121137   0.482   1.204   3.622
 6746SOL    HW221138   0.573   1.258   3.746
 6747SOL     OW21139   5.739   1.228   5.144
 6747SOL    HW121140   5.779   1.320   5.145
 6747SOL    HW221141   5.800   1.166   5.094
 6748SOL     OW21142   2.154   0.982   3.578
 6748SOL    HW121143   2.108   0.942   3.658
 6748SOL    HW221144   2.247   1.009   3.603
 6749SOL     OW21145   3.108   6.197   0.601
 6749SOL    HW121146   3.142   6.277   0.550
 6749SOL    HW221147   3.162   6.116   0.575
 6750SOL     OW21148   4.076   2.299   5.324
 6750SOL    HW121149   4.038   2.208   5.334
 6750SOL    HW221150   4.004   2.368   5.333
 6751SOL     OW21151   4.045   0.391   3.455
 6751SOL    HW121152   4.028   0.463   3.388
 6751SOL    HW221153   4.117   0.420   3.518
 6752SOL     OW21154   0.564   1.781   2.906
 6752SOL    HW121155   0.517   1.866   2.885
 6752SOL    HW221156   0.515   1.733   2.979
 6753SOL     OW21157   3.718   0.809   6.659
 6753SOL    HW121158   3.801   0.755   6.642
 6753SOL    HW221159   3.695   0.860   6.576
 6754SOL     OW21160   0.452   1.585   0.247
 6754SOL    HW121161   0.536   1.574   0.301
 6754SOL    HW221162   0.373   1.573   0.307
 6755SOL     OW21163   4.145   1.005   3.357
 6755SOL    HW121164   4.213   1.057   3.408
 6755SOL    HW221165   4.148   1.032   3.261
 6756SOL     OW21166   3.864   4.893   5.531
 6756SOL    HW121167   3.948   4.932   5.493
 6756SOL    HW221168   3.885   4.807   5.577
 6757SOL     OW21169   4.417   1.397   1.958
 6757SOL    HW121170   4.404   1.401   2.057
 6757SOL    HW221171   4.340   1.442   1.913
 6758SOL     OW21172   6.342   1.954   1.762
 6758SOL    HW121173   6.351   2.012   1.843
 6758SOL    HW221174   6.426   1.961   1.707
 6759SOL     OW21175   0.576   4.512   4.616
 6759SOL    HW121176   0.635   4.465   4.681
 6759SOL    HW221177   0.496   4.548   4.664
 6760SOL     OW21178   6.282   4.081   2.797
 6760SOL    HW121179   6.328   3.993   2.810
 6760SOL    HW221180   6.224   4.077   2.717
 6761SOL     OW21181   6.500   2.097   6.124
 6761SOL    HW121182   6.429   2.116   6.192
 6761SOL    HW221183   6.570   2.039   6.165
 6762SOL     OW21184   0.774   5.822   3.902
 6762SOL    HW121185   0.865   5.780   3.899
 6762SOL    HW221186   0.706   5.750   3.915
 6763SOL     OW21187   0.426   4.801   2.755
 6763SOL    HW121188   0.328   4.816   2.744
 6763SOL    HW221189   0.457   4.734   2.687
 6764SOL     OW21190   1.875   4.713   0.300
 6764SOL    HW121191   1.867   4.614   0.304
 6764SOL    HW221192   1.887   4.741   0.204
 6765SOL     OW21193   5.367   3.584   3.407
 6765SOL    HW121194   5.310   3.642   3.466
 6765SOL    HW221195   5.308   3.526   3.351
 6766SOL     OW21196   5.122   6.247   6.325
 6766SOL    HW121197   5.132   6.347   6.327
 6766SOL    HW221198   5.201   6.207   6.278
 6767SOL     OW21199   1.226   2.048   0.930
 6767SOL    HW121200   1.317   2.035   0.889
 6767SOL    HW221201   1.195   2.141   0.913
 6768SOL     OW21202   1.141   6.355   3.726
 6768SOL    HW121203   1.079   6.291   3.679
 6768SOL    HW221204   1.090   6.405   3.795
 6769SOL     OW21205   2.413   0.318   5.424
 6769SOL    HW121206   2.465   0.326   5.339
 6769SOL    HW221207   2.476   0.325   5.502
 6770SOL     OW21208   4.545   1.690   3.377
 6770SOL    HW121209   4.585   1.782   3.387
 6770SOL    HW221210   4.613   1.622   3.403
 6771SOL     OW21211   3.910   1.136   2.500
 6771SOL    HW121212   3.928   1.037   2.507
 6771SOL    HW221213   3.965   1.184   2.568
 6772SOL     OW21214   4.407   2.353   2.563
 6772SOL    HW121215   4.339   2.352   2.637
 6772SOL    HW221216   4.494   2.389   2.597
 6773SOL     OW21217   0.691   6.250   2.198
 6773SOL    HW121218   0.640   6.301   2.130
 6773SOL    HW221219   0.788   6.248   2.174
 6774SOL     OW21220   1.814   3.330   4.585
 6774SOL    HW121221   1.913   3.337   4.598
 6774SOL    HW221222   1.771   3.415   4.616
 6775SOL     OW21223   1.742   2.734   3.303
 6775SOL    HW121224   1.669   2.763   3.365
 6775SOL    HW221225   1.819   2.797   3.311
 6776SOL     OW21226   4.385   3.890   0.617
 6776SOL    HW121227   4.409   3.932   0.530
 6776SOL    HW221228   4.323   3.813   0.602
 6777SOL     OW21229   4.992   5.038   1.255
 6777SOL    HW121230   5.005   5.135   1.232
 6777SOL    HW221231   4.932   5.031   1.334
 6778SOL     OW21232   6.664   4.477   1.909
 6778SOL    HW121233   6.656   4.571   1.939
 6778SOL    HW221234   6.716   4.473   1.824
 6779SOL     OW21235   5.433   4.773   6.256
 6779SOL    HW121236   5.479   4.850   6.301
 6779SOL    HW221237   5.340   4.765   6.291
 6780SOL     OW21238   0.944   2.833   2.675
 6780SOL    HW121239   0.900   2.898   2.737
 6780SOL    HW221240   0.960   2.877   2.587
 6781SOL     OW21241   6.637   1.447   4.747
 6781SOL    HW121242   6.541   1.418   4.744
 6781SOL    HW221243   6.642   1.545   4.727
 6782SOL     OW21244   0.806   1.150   3.221
 6782SOL    HW121245   0.821   1.055   3.193
 6782SOL    HW221246   0.851   1.211   3.155
 6783SOL     OW21247   0.922   2.233   5.635
 6783SOL    HW121248   0.976   2.202   5.713
 6783SOL    HW221249   0.930   2.168   5.560
 6784SOL     OW21250   2.724   3.735   0.418
 6784SOL    HW121251   2.724   3.641   0.452
 6784SOL    HW221252   2.810   3.780   0.443
 6785SOL     OW21253   5.823   5.013   4.744
 6785SOL    HW121254   5.798   4.931   4.797
 6785SOL    HW221255   5.922   5.014   4.729
 6786SOL     OW21256   1.195   2.797   0.506
 6786SOL    HW121257   1.159   2.890   0.500
 6786SOL    HW221258   1.133   2.740   0.560
 6787SOL     OW21259   3.620   2.956   0.608
 6787SOL    HW121260   3.609   3.053   0.585
 6787SOL    HW221261   3.564   2.901   0.547
 6788SOL     OW21262   0.872   4.551   1.988
 6788SOL    HW121263   0.795   4.504   2.031
 6788SOL    HW221264   0.910   4.618   2.052
 6789SOL     OW21265   0.214   4.625   3.718
 6789SOL    HW121266   0.165   4.712   3.711
 6789SOL    HW221267   0.246   4.612   3.812
 6790SOL     OW21268   1.048   3.791   6.681
 6790SOL    HW121269   1.039   3.692   6.667
 6790SOL    HW221270   1.084   3.809   6.773
 6791SOL     OW21271   3.792   1.871   2.236
 6791SOL    HW121272   3.829   1.840   2.324
 6791SOL    HW221273   3.850   1.838   2.162
 6792SOL     OW21274   4.875   0.282   5.537
 6792SOL    HW121275   4.834   0.199   5.575
 6792SOL    HW221276   4.950   0.312   5.595
 6793SOL     OW21277   2.983   1.018   6.763
 6793SOL    HW121278   2.892   1.024   6.804
 6793SOL    HW221279   3.052   1.013   6.836
 6794SOL     OW21280   5.307   1.470   5.113
 6794SOL    HW121281   5.294   1.569   5.107
 6794SOL    HW221282   5.218   1.424   5.113
 6795SOL     OW21283   1.125   6.072   1.263
 6795SOL    HW121284   1.159   6.128   1.187
 6795SOL    HW221285   1.176   5.986   1.266
 6796SOL     OW21286   6.419   0.609   2.690
 6796SOL    HW121287   6.340   0.584   2.634
 6796SOL    HW221288   6.416   0.707   2.710
 6797SOL     OW21289   6.935   2.285   2.020
 6797SOL    HW121290   7.024   2.300   2.062
 6797SOL    HW221291   6.888   2.210   2.067
 6798SOL     OW21292   6.777   6.523   1.084
 6798SOL    HW121293   6.801   6.620   1.084
 6798SOL    HW221294   6.741   6.497   1.174
 6799SOL     OW21295   6.156   0.849   2.201
 6799SOL    HW121296   6.186   0.922   2.140
 6799SOL    HW221297   6.056   0.842   2.199
 6800SOL     OW21298   2.515   2.486   2.127
 6800SOL    HW121299   2.595   2.471   2.186
 6800SOL    HW221300   2.471   2.572   2.154
 6801SOL     OW21301   1.456   0.348   3.689
 6801SOL    HW121302   1.390   0.338   3.614
 6801SOL    HW221303   1.410   0.330   3.776
 6802SOL     OW21304   3.198   6.036   1.776
 6802SOL    HW121305   3.284   5.990   1.755
 6802SOL    HW221306   3.154   6.065   1.691
 6803SOL     OW21307   4.394   4.147   6.381
 6803SOL    HW121308   4.413   4.240   6.347
 6803SOL    HW221309   4.310   4.148   6.435
 6804SOL     OW21310   3.761   5.474   3.077
 6804SOL    HW121311   3.737   5.520   2.991
 6804SOL    HW221312   3.856   5.495   3.100
 6805SOL     OW21313   0.528   4.522   6.375
 6805SOL    HW121314   0.498   4.556   6.464
 6805SOL    HW221315   0.598   4.452   6.388
 6806SOL     OW21316   6.517   1.515   3.369
 6806SOL    HW121317   6.450   1.441   3.365
 6806SOL    HW221318   6.470   1.603   3.363
 6807SOL     OW21319   3.734   3.069   2.039
 6807SOL    HW121320   3.684   3.139   2.091
 6807SOL    HW221321   3.684   2.983   2.041
 6808SOL     OW21322   6.969   1.906   5.503
 6808SOL    HW121323   6.967   1.978   5.572
 6808SOL    HW221324   6.877   1.890   5.469
 6809SOL     OW21325   6.578   3.128   1.150
 6809SOL    HW121326   6.528   3.065   1.210
 6809SOL    HW221327   6.516   3.160   1.078
 6810SOL     OW21328   3.245   1.131   1.892
 6810SOL    HW121329   3.223   1.226   1.916
 6810SOL    HW221330   3.161   1.079   1.882
 6811SOL     OW21331   6.401   3.595   1.929
 6811SOL    HW121332   6.455   3.663   1.978
 6811SOL    HW221333   6.354   3.535   1.994
 6812SOL     OW21334   3.472   4.095   5.378
 6812SOL    HW121335   3.470   4.147   5.293
 6812SOL    HW221336   3.415   4.140   5.446
 6813SOL     OW21337   5.722   2.941   2.448
 6813SOL    HW121338   5.727   2.914   2.545
 6813SOL    HW221339   5.627   2.966   2.426
 6814SOL     OW21340   4.665   1.656   6.323
 6814SOL    HW121341   4.591   1.589   6.311
 6814SOL    HW221342   4.747   1.623   6.276
 6815SOL     OW21343   2.081   6.609   6.703
 6815SOL    HW121344   2.078   6.708   6.716
 6815SOL    HW221345   2.164   6.573   6.744
 6816SOL     OW21346   6.934   0.787   5.583
 6816SOL    HW121347   6.980   0.820   5.500
 6816SOL    HW221348   6.889   0.700   5.564
 6817SOL     OW21349   2.353   2.722   3.533
 6817SOL    HW121350   2.351   2.717   3.633
 6817SOL    HW221351   2.293   2.796   3.502
 6818SOL     OW21352   1.844   6.452   0.806
 6818SOL    HW121353   1.918   6.396   0.842
 6818SOL    HW221354   1.771   6.392   0.772
 6819SOL     OW21355   4.334   1.428   2.951
 6819SOL    HW121356   4.416   1.428   3.009
 6819SOL    HW221357   4.256   1.461   3.004
 6820SOL     OW21358   1.759   5.908   1.541
 6820SOL    HW121359   1.740   5.884   1.637
 6820SOL    HW221360   1.813   5.992   1.538
 6821SOL     OW21361   3.843   2.464   5.343
 6821SOL    HW121362   3.901   2.509   5.276
 6821SOL    HW221363   3.756   2.512   5.350
 6822SOL     OW21364   6.082   2.315   5.825
 6822SOL    HW121365   6.023   2.360   5.758
 6822SOL    HW221366   6.026   2.264   5.890
 6823SOL     OW21367   5.863   4.028   6.243
 6823SOL    HW121368   5.775   4.076   6.243
 6823SOL    HW221369   5.851   3.936   6.208
 6824SOL     OW21370   0.906   1.624   0.491
 6824SOL    HW121371   0.905   1.681   0.573
 6824SOL    HW221372   0.980   1.557   0.497
 6825SOL     OW21373   5.830   0.792   6.921
 6825SOL    HW121374   5.810   0.883   6.885
 6825SOL    HW221375   5.745   0.744   6.939
 6826SOL     OW21376   1.922   3.754   3.337
 6826SOL    HW121377   1.973   3.833   3.370
 6826SOL    HW221378   1.984   3.676   3.325
 6827SOL     OW21379   5.638   5.298   6.276
 6827SOL    HW121380   5.621   5.216   6.222
 6827SOL    HW221381   5.582   5.297   6.359
 6828SOL     OW21382   3.480   1.402   1.625
 6828SOL    HW121383   3.487   1.323   1.687
 6828SOL    HW221384   3.422   1.379   1.548
 6829SOL     OW21385   5.196   6.163   5.756
 6829SOL    HW121386   5.157   6.231   5.694
 6829SOL    HW221387   5.137   6.082   5.757
 6830SOL     OW21388   5.307   0.343   3.346
 6830SOL    HW121389   5.251   0.329   3.264
 6830SOL    HW221390   5.395   0.382   3.320
 6831SOL     OW21391   1.849   1.433   6.095
 6831SOL    HW121392   1.898   1.427   6.009
 6831SOL    HW221393   1.894   1.376   6.164
 6832SOL     OW21394   2.420   4.159   0.584
 6832SOL    HW121395   2.451   4.239   0.533
 6832SOL    HW221396   2.406   4.083   0.520
 6833SOL     OW21397   2.427   5.034   6.728
 6833SOL    HW121398   2.517   5.062   6.762
 6833SOL    HW221399   2.432   5.015   6.630
 6834SOL     OW21400   6.621   0.286   0.733
 6834SOL    HW121401   6.625   0.189   0.758
 6834SOL    HW221402   6.527   0.312   0.712
 6835SOL     OW21403   3.625   1.180   5.039
 6835SOL    HW121404   3.531   1.161   5.067
 6835SOL    HW221405   3.685   1.175   5.119
 6836SOL     OW21406   2.652   4.555   6.316
 6836SOL    HW121407   2.638   4.465   6.357
 6836SOL    HW221408   2.750   4.569   6.301
 6837SOL     OW21409   0.351   2.497   3.278
 6837SOL    HW121410   0.445   2.464   3.294
 6837SOL    HW221411   0.308   2.442   3.207
 6838SOL     OW21412   3.251   5.553   6.136
 6838SOL    HW121413   3.283   5.482   6.073
 6838SOL    HW221414   3.165   5.591   6.101
 6839SOL     OW21415   5.440   0.848   5.179
 6839SOL    HW121416   5.532   0.887   5.185
 6839SOL    HW221417   5.396   0.878   5.094
 6840SOL     OW21418   3.248   6.727   5.064
 6840SOL    HW121419   3.185   6.697   5.134
 6840SOL    HW221420   3.273   6.650   5.005
 6841SOL     OW21421   3.957   4.933   0.675
 6841SOL    HW121422   3.943   5.032   0.678
 6841SOL    HW221423   4.028   4.913   0.607
 6842SOL     OW21424   2.250   2.748   0.435
 6842SOL    HW121425   2.297   2.772   0.520
 6842SOL    HW221426   2.256   2.649   0.420
 6843SOL     OW21427   5.850   6.852   2.075
 6843SOL    HW121428   5.860   6.950   2.058
 6843SOL    HW221429   5.927   6.820   2.130
 6844SOL     OW21430   5.490   6.990   3.863
 6844SOL    HW121431   5.400   6.960   3.831
 6844SOL    HW221432   5.550   7.003   3.784
 6845SOL     OW21433   5.420   4.640   2.648
 6845SOL    HW121434   5.424   4.701   2.727
 6845SOL    HW221435   5.503   4.584   2.645
 6846SOL     OW21436   4.487   3.064   1.218
 6846SOL    HW121437   4.581   3.035   1.201
 6846SOL    HW221438   4.431   3.049   1.136
 6847SOL     OW21439   6.775   4.980   2.840
 6847SOL    HW121440   6.708   4.908   2.856
 6847SOL    HW221441   6.797   5.025   2.927
 6848SOL     OW21442   3.573   6.638   3.718
 6848SOL    HW121443   3.493   6.647   3.777
 6848SOL    HW221444   3.570   6.706   3.645
 6849SOL     OW21445   3.595   5.376   4.656
 6849SOL    HW121446   3.550   5.344   4.739
 6849SOL    HW221447   3.598   5.476   4.655
 6850SOL     OW21448   5.588   3.726   2.053
 6850SOL    HW121449   5.573   3.654   2.120
 6850SOL    HW221450   5.654   3.696   1.985
 6851SOL     OW21451   0.981   2.841   3.767
 6851SOL    HW121452   0.912   2.872   3.833
 6851SOL    HW221453   0.940   2.836   3.676
 6852SOL     OW21454   1.921   4.633   0.889
 6852SOL    HW121455   1.915   4.541   0.926
 6852SOL    HW221456   1.984   4.634   0.811
 6853SOL     OW21457   6.548   3.949   6.965
 6853SOL    HW121458   6.540   3.938   0.035
 6853SOL    HW221459   6.549   3.859   6.921
 6854SOL     OW21460   5.076   1.866   5.663
 6854SOL    HW121461   5.067   1.768   5.677
 6854SOL    HW221462   5.113   1.884   5.572
 6855SOL     OW21463   3.352   5.730   3.169
 6855SOL    HW121464   3.383   5.824   3.154
 6855SOL    HW221465   3.384   5.672   3.093
 6856SOL     OW21466   4.839   4.581   5.122
 6856SOL    HW121467   4.861   4.669   5.078
 6856SOL    HW221468   4.918   4.520   5.115
 6857SOL     OW21469   2.791   2.240   0.356
 6857SOL    HW121470   2.826   2.170   0.294
 6857SOL    HW221471   2.691   2.240   0.352
 6858SOL     OW21472   3.764   3.563   4.264
 6858SOL    HW121473   3.733   3.657   4.255
 6858SOL    HW221474   3.685   3.502   4.278
 6859SOL     OW21475   1.060   0.579   0.975
 6859SOL    HW121476   1.065   0.597   1.073
 6859SOL    HW221477   1.113   0.647   0.925
 6860SOL     OW21478   6.170   5.551   1.097
 6860SOL    HW121479   6.248   5.564   1.036
 6860SOL    HW221480   6.202   5.511   1.183
 6861SOL     OW21481   5.593   3.819   0.823
 6861SOL    HW121482   5.552   3.815   0.732
 6861SOL    HW221483   5.693   3.823   0.815
 6862SOL     OW21484   2.043   4.620   5.525
 6862SOL    HW121485   2.137   4.620   5.491
 6862SOL    HW221486   1.983   4.578   5.457
 6863SOL     OW21487   6.006   1.182   6.075
 6863SOL    HW121488   5.947   1.121   6.129
 6863SOL    HW221489   6.053   1.129   6.005
 6864SOL     OW21490   2.803   5.877   4.248
 6864SOL    HW121491   2.864   5.930   4.306
 6864SOL    HW221492   2.856   5.817   4.189
 6865SOL     OW21493   0.200   5.994   3.193
 6865SOL    HW121494   0.278   5.955   3.145
 6865SOL    HW221495   0.127   5.926   3.200
 6866SOL     OW21496   6.585   4.751   2.896
 6866SOL    HW121497   6.612   4.696   2.817
 6866SOL    HW221498   6.513   4.703   2.947
 6867SOL     OW21499   1.872   4.713   1.557
 6867SOL    HW121500   1.938   4.642   1.579
 6867SOL    HW221501   1.896   4.756   1.470
 6868SOL     OW21502   1.181   4.938   6.315
 6868SOL    HW121503   1.114   4.868   6.338
 6868SOL    HW221504   1.273   4.902   6.329
 6869SOL     OW21505   5.260   0.545   4.801
 6869SOL    HW121506   5.238   0.523   4.897
 6869SOL    HW221507   5.243   0.465   4.744
 6870SOL     OW21508   6.908   4.774   2.181
 6870SOL    HW121509   6.960   4.736   2.105
 6870SOL    HW221510   6.956   4.756   2.267
 6871SOL     OW21511   6.351   4.597   2.970
 6871SOL    HW121512   6.264   4.588   3.019
 6871SOL    HW221513   6.385   4.507   2.946
 6872SOL     OW21514   0.623   2.818   1.382
 6872SOL    HW121515   0.589   2.910   1.363
 6872SOL    HW221516   0.622   2.802   1.481
 6873SOL     OW21517   7.023   3.741   5.175
 6873SOL    HW121518   0.032   3.712   5.087
 6873SOL    HW221519   6.968   3.667   5.214
 6874SOL     OW21520   0.817   5.736   2.324
 6874SOL    HW121521   0.852   5.768   2.236
 6874SOL    HW221522   0.828   5.637   2.330
 6875SOL     OW21523   1.562   2.301   3.127
 6875SOL    HW121524   1.560   2.306   3.027
 6875SOL    HW221525   1.650   2.266   3.157
 6876SOL     OW21526   4.036   6.335   4.069
 6876SOL    HW121527   4.040   6.251   4.016
 6876SOL    HW221528   3.950   6.383   4.050
 6877SOL     OW21529   2.844   3.978   0.478
 6877SOL    HW121530   2.803   4.069   0.481
 6877SOL    HW221531   2.939   3.983   0.508
 6878SOL     OW21532   3.108   1.850   5.663
 6878SOL    HW121533   3.124   1.828   5.567
 6878SOL    HW221534   3.176   1.917   5.694
 6879SOL     OW21535   1.029   2.409   0.300
 6879SOL    HW121536   1.038   2.501   0.262
 6879SOL    HW221537   1.099   2.350   0.260
 6880SOL     OW21538   2.144   4.066   5.264
 6880SOL    HW121539   2.233   4.038   5.227
 6880SOL    HW221540   2.151   4.158   5.302
 6881SOL     OW21541   0.916   3.786   1.757
 6881SOL    HW121542   0.830   3.831   1.781
 6881SOL    HW221543   0.909   3.689   1.778
 6882SOL     OW21544   3.322   0.800   6.845
 6882SOL    HW121545   3.400   0.857   6.818
 6882SOL    HW221546   3.260   0.854   6.902
 6883SOL     OW21547   3.861   2.109   0.341
 6883SOL    HW121548   3.761   2.113   0.338
 6883SOL    HW221549   3.897   2.195   0.378
 6884SOL     OW21550   1.871   4.050   4.428
 6884SOL    HW121551   1.846   4.112   4.354
 6884SOL    HW221552   1.907   4.103   4.505
 6885SOL     OW21553   3.728   6.211   4.647
 6885SOL    HW121554   3.749   6.308   4.658
 6885SOL    HW221555   3.738   6.185   4.551
 6886SOL     OW21556   6.716   0.828   4.103
 6886SOL    HW121557   6.692   0.758   4.170
 6886SOL    HW221558   6.772   0.788   4.031
 6887SOL     OW21559   5.122   6.209   5.315
 6887SOL    HW121560   5.126   6.249   5.406
 6887SOL    HW221561   5.073   6.122   5.318
 6888SOL     OW21562   5.357   6.121   6.168
 6888SOL    HW121563   5.450   6.141   6.137
 6888SOL    HW221564   5.328   6.032   6.133
 6889SOL     OW21565   1.972   1.855   4.572
 6889SOL    HW121566   2.015   1.885   4.658
 6889SOL    HW221567   2.041   1.849   4.500
 6890SOL     OW21568   4.189   6.610   1.028
 6890SOL    HW121569   4.094   6.580   1.027
 6890SOL    HW221570   4.196   6.697   1.077
 6891SOL     OW21571   1.789   4.749   3.989
 6891SOL    HW121572   1.851   4.798   3.928
 6891SOL    HW221573   1.712   4.808   4.013
 6892SOL     OW21574   3.642   2.109   3.563
 6892SOL    HW121575   3.681   2.156   3.643
 6892SOL    HW221576   3.715   2.088   3.498
 6893SOL     OW21577   4.517   4.734   6.871
 6893SOL    HW121578   4.614   4.735   6.848
 6893SOL    HW221579   4.504   4.703   6.965
 6894SOL     OW21580   5.853   4.577   0.273
 6894SOL    HW121581   5.864   4.645   0.200
 6894SOL    HW221582   5.940   4.567   0.322
 6895SOL     OW21583   2.720   6.017   6.870
 6895SOL    HW121584   2.641   6.071   6.899
 6895SOL    HW221585   2.689   5.927   6.841
 6896SOL     OW21586   1.556   7.008   3.424
 6896SOL    HW121587   1.621   0.015   3.358
 6896SOL    HW221588   1.579   0.012   3.515
 6897SOL     OW21589   2.829   3.285   6.491
 6897SOL    HW121590   2.841   3.194   6.451
 6897SOL    HW221591   2.811   3.276   6.589
 6898SOL     OW21592   4.270   1.228   2.287
 6898SOL    HW121593   4.234   1.235   2.380
 6898SOL    HW221594   4.282   1.320   2.250
 6899SOL     OW21595   5.528   6.693   0.992
 6899SOL    HW121596   5.438   6.688   1.036
 6899SOL    HW221597   5.531   6.632   0.913
 6900SOL     OW21598   6.802   6.882   5.540
 6900SOL    HW121599   6.773   6.837   5.625
 6900SOL    HW221600   6.802   6.981   5.553
 6901SOL     OW21601   0.345   6.664   6.235
 6901SOL    HW121602   0.378   6.591   6.175
 6901SOL    HW221603   0.331   6.747   6.182
 6902SOL     OW21604   6.025   6.372   0.007
 6902SOL    HW121605   6.052   6.279   0.033
 6902SOL    HW221606   6.035   6.383   6.937
 6903SOL     OW21607   3.607   5.649   4.605
 6903SOL    HW121608   3.621   5.673   4.701
 6903SOL    HW221609   3.671   5.700   4.547
 6904SOL     OW21610   6.024   1.694   4.637
 6904SOL    HW121611   6.124   1.684   4.637
 6904SOL    HW221612   5.986   1.646   4.715
 6905SOL     OW21613   6.350   6.391   6.970
 6905SOL    HW121614   6.275   6.440   6.925
 6905SOL    HW221615   6.437   6.417   6.927
 6906SOL     OW21616   4.790   1.280   4.057
 6906SOL    HW121617   4.841   1.358   4.020
 6906SOL    HW221618   4.693   1.289   4.034
 6907SOL     OW21619   4.807   2.602   1.239
 6907SOL    HW121620   4.861   2.520   1.260
 6907SOL    HW221621   4.775   2.644   1.324
 6908SOL     OW21622   1.105   5.959   6.661
 6908SOL    HW121623   1.165   6.013   6.720
 6908SOL    HW221624   1.077   5.875   6.709
 6909SOL     OW21625   6.279   4.339   1.353
 6909SOL    HW121626   6.219   4.381   1.283
 6909SOL    HW221627   6.277   4.240   1.343
 6910SOL     OW21628   0.088   2.960   3.815
 6910SOL    HW121629   7.024   2.927   3.829
 6910SOL    HW221630   0.128   2.912   3.737
 6911SOL     OW21631   4.400   6.116   3.685
 6911SOL    HW121632   4.319   6.174   3.681
 6911SOL    HW221633   4.450   6.124   3.599
 6912SOL     OW21634   3.321   5.204   0.528
 6912SOL    HW121635   3.224   5.181   0.529
 6912SOL    HW221636   3.367   5.158   0.604
 6913SOL     OW21637   4.660   4.722   4.953
 6913SOL    HW121638   4.729   4.666   4.997
 6913SOL    HW221639   4.700   4.809   4.925
 6914SOL     OW21640   5.626   4.019   5.949
 6914SOL    HW121641   5.676   3.957   5.888
 6914SOL    HW221642   5.631   3.985   6.042
 6915SOL     OW21643   6.138   3.951   1.625
 6915SOL    HW121644   6.086   4.011   1.686
 6915SOL    HW221645   6.147   3.860   1.668
 6916SOL     OW21646   6.546   3.376   0.131
 6916SOL    HW121647   6.610   3.314   0.085
 6916SOL    HW221648   6.489   3.422   0.063
 6917SOL     OW21649   3.059   5.910   1.438
 6917SOL    HW121650   2.970   5.931   1.398
 6917SOL    HW221651   3.126   5.976   1.407
 6918SOL     OW21652   6.962   3.240   4.511
 6918SOL    HW121653   6.928   3.268   4.601
 6918SOL    HW221654   0.006   3.173   4.523
 6919SOL     OW21655   0.017   6.268   2.251
 6919SOL    HW121656   0.062   6.192   2.204
 6919SOL    HW221657   0.063   6.285   2.338
 6920SOL     OW21658   4.763   5.564   5.487
 6920SOL    HW121659   4.804   5.487   5.438
 6920SOL    HW221660   4.748   5.640   5.423
 6921SOL     OW21661   5.592   5.900   3.482
 6921SOL    HW121662   5.522   5.855   3.538
 6921SOL    HW221663   5.552   5.978   3.435
 6922SOL     OW21664   2.010   5.685   6.737
 6922SOL    HW121665   2.102   5.718   6.716
 6922SOL    HW221666   1.984   5.615   6.670
 6923SOL     OW21667   4.930   5.546   3.494
 6923SOL    HW121668   5.014   5.597   3.474
 6923SOL    HW221669   4.851   5.596   3.458
 6924SOL     OW21670   1.697   3.842   6.776
 6924SOL    HW121671   1.733   3.884   6.692
 6924SOL    HW221672   1.772   3.827   6.840
 6925SOL     OW21673   4.112   6.024   4.910
 6925SOL    HW121674   4.016   6.029   4.881
 6925SOL    HW221675   4.153   5.941   4.873
 6926SOL     OW21676   3.151   3.343   1.617
 6926SOL    HW121677   3.124   3.248   1.630
 6926SOL    HW221678   3.188   3.355   1.525
 6927SOL     OW21679   5.575   2.832   6.173
 6927SOL    HW121680   5.480   2.859   6.191
 6927SOL    HW221681   5.620   2.809   6.259
 6928SOL     OW21682   6.228   5.859   0.752
 6928SOL    HW121683   6.231   5.890   0.847
 6928SOL    HW221684   6.265   5.929   0.692
 6929SOL     OW21685   5.162   5.222   0.965
 6929SOL    HW121686   5.239   5.160   0.972
 6929SOL    HW221687   5.186   5.298   0.904
 6930SOL     OW21688   0.377   6.367   2.232
 6930SOL    HW121689   0.362   6.404   2.323
 6930SOL    HW221690   0.342   6.273   2.227
 6931SOL     OW21691   2.052   0.540   1.906
 6931SOL    HW121692   2.104   0.610   1.857
 6931SOL    HW221693   1.954   0.561   1.899
 6932SOL     OW21694   3.755   0.161   0.471
 6932SOL    HW121695   3.837   0.214   0.493
 6932SOL    HW221696   3.736   0.097   0.545
 6933SOL     OW21697   2.907   6.533   5.107
 6933SOL    HW121698   2.854   6.463   5.156
 6933SOL    HW221699   2.854   6.565   5.028
 6934SOL     OW21700   5.163   3.535   6.283
 6934SOL    HW121701   5.069   3.547   6.317
 6934SOL    HW221702   5.204   3.624   6.264
 6935SOL     OW21703   4.043   5.103   2.764
 6935SOL    HW121704   4.014   5.038   2.834
 6935SOL    HW221705   4.042   5.057   2.674
 6936SOL     OW21706   6.234   2.328   3.859
 6936SOL    HW121707   6.282   2.405   3.899
 6936SOL    HW221708   6.293   2.247   3.859
 6937SOL     OW21709   6.974   6.481   0.193
 6937SOL    HW121710   0.002   6.505   0.271
 6937SOL    HW221711   6.999   6.390   0.159
 6938SOL     OW21712   5.048   3.615   5.659
 6938SOL    HW121713   4.964   3.561   5.657
 6938SOL    HW221714   5.111   3.576   5.726
 6939SOL     OW21715   0.641   4.420   2.069
 6939SOL    HW121716   0.541   4.410   2.072
 6939SOL    HW221717   0.682   4.334   2.040
 6940SOL     OW21718   4.422   0.734   0.645
 6940SOL    HW121719   4.418   0.660   0.578
 6940SOL    HW221720   4.447   0.696   0.734
 6941SOL     OW21721   3.131   3.257   2.627
 6941SOL    HW121722   3.137   3.181   2.563
 6941SOL    HW221723   3.220   3.302   2.633
 6942SOL     OW21724   5.747   2.153   1.339
 6942SOL    HW121725   5.722   2.119   1.249
 6942SOL    HW221726   5.809   2.088   1.383
 6943SOL     OW21727   4.320   6.407   6.777
 6943SOL    HW121728   4.251   6.379   6.712
 6943SOL    HW221729   4.410   6.377   6.746
 6944SOL     OW21730   0.983   3.465   6.176
 6944SOL    HW121731   0.990   3.552   6.128
 6944SOL    HW221732   1.046   3.464   6.254
 6945SOL     OW21733   6.843   2.880   6.345
 6945SOL    HW121734   6.882   2.875   6.437
 6945SOL    HW221735   6.790   2.965   6.336
 6946SOL     OW21736   6.313   6.420   1.245
 6946SOL    HW121737   6.316   6.384   1.152
 6946SOL    HW221738   6.310   6.520   1.242
 6947SOL     OW21739   3.708   6.472   6.060
 6947SOL    HW121740   3.665   6.518   5.982
 6947SOL    HW221741   3.802   6.448   6.036
 6948SOL     OW21742   0.290   0.020   6.605
 6948SOL    HW121743   0.201   0.054   6.572
 6948SOL    HW221744   0.359   0.035   6.534
 6949SOL     OW21745   5.295   6.612   3.724
 6949SOL    HW121746   5.323   6.617   3.629
 6949SOL    HW221747   5.327   6.526   3.764
 6950SOL     OW21748   2.726   1.298   4.521
 6950SOL    HW121749   2.755   1.226   4.584
 6950SOL    HW221750   2.628   1.288   4.501
 6951SOL     OW21751   6.603   5.996   5.597
 6951SOL    HW121752   6.661   6.037   5.667
 6951SOL    HW221753   6.660   5.962   5.522
 6952SOL     OW21754   0.365   5.870   3.671
 6952SOL    HW121755   0.412   5.893   3.586
 6952SOL    HW221756   0.432   5.844   3.741
 6953SOL     OW21757   4.787   6.616   0.386
 6953SOL    HW121758   4.820   6.552   0.317
 6953SOL    HW221759   4.848   6.613   0.466
 6954SOL     OW21760   0.477   3.603   3.852
 6954SOL    HW121761   0.513   3.670   3.787
 6954SOL    HW221762   0.387   3.632   3.884
 6955SOL     OW21763   6.366   0.848   1.923
 6955SOL    HW121764   6.369   0.779   1.996
 6955SOL    HW221765   6.439   0.829   1.857
 6956SOL     OW21766   4.561   6.553   3.658
 6956SOL    HW121767   4.588   6.522   3.749
 6956SOL    HW221768   4.511   6.639   3.665
 6957SOL     OW21769   6.167   5.279   0.635
 6957SOL    HW121770   6.199   5.345   0.702
 6957SOL    HW221771   6.244   5.222   0.606
 6958SOL     OW21772   2.907   3.801   4.607
 6958SOL    HW121773   2.927   3.794   4.704
 6958SOL    HW221774   2.954   3.881   4.569
 6959SOL     OW21775   1.958   1.541   4.455
 6959SOL    HW121776   2.008   1.457   4.478
 6959SOL    HW221777   2.016   1.600   4.399
 6960SOL     OW21778   1.993   5.582   1.648
 6960SOL    HW121779   2.038   5.631   1.722
 6960SOL    HW221780   2.058   5.520   1.604
 6961SOL     OW21781   5.855   1.936   4.333
 6961SOL    HW121782   5.880   1.843   4.308
 6961SOL    HW221783   5.803   1.936   4.418
 6962SOL     OW21784   5.603   6.041   1.897
 6962SOL    HW121785   5.580   6.063   1.992
 6962SOL    HW221786   5.640   6.122   1.852
 6963SOL     OW21787   6.171   5.657   1.567
 6963SOL    HW121788   6.181   5.721   1.643
 6963SOL    HW221789   6.179   5.564   1.601
 6964SOL     OW21790   3.704   0.259   5.060
 6964SOL    HW121791   3.737   0.353   5.053
 6964SOL    HW221792   3.608   0.254   5.032
 6965SOL     OW21793   0.578   3.496   0.465
 6965SOL    HW121794   0.627   3.413   0.490
 6965SOL    HW221795   0.494   3.472   0.417
 6966SOL     OW21796   6.903   2.603   3.691
 6966SOL    HW121797   6.912   2.677   3.757
 6966SOL    HW221798   6.908   2.640   3.598
 6967SOL     OW21799   1.502   6.829   4.988
 6967SOL    HW121800   1.527   6.832   5.085
 6967SOL    HW221801   1.416   6.779   4.977
 6968SOL     OW21802   4.361   6.115   2.637
 6968SOL    HW121803   4.295   6.154   2.574
 6968SOL    HW221804   4.339   6.143   2.730
 6969SOL     OW21805   2.493   2.465   1.528
 6969SOL    HW121806   2.533   2.512   1.449
 6969SOL    HW221807   2.558   2.467   1.604
 6970SOL     OW21808   3.345   4.309   6.211
 6970SOL    HW121809   3.423   4.347   6.259
 6970SOL    HW221810   3.320   4.221   6.253
 6971SOL     OW21811   6.179   4.386   1.629
 6971SOL    HW121812   6.200   4.375   1.532
 6971SOL    HW221813   6.241   4.454   1.670
 6972SOL     OW21814   5.374   4.531   3.224
 6972SOL    HW121815   5.471   4.508   3.234
 6972SOL    HW221816   5.330   4.532   3.314
 6973SOL     OW21817   0.329   3.336   5.003
 6973SOL    HW121818   0.243   3.365   4.961
 6973SOL    HW221819   0.310   3.265   5.071
 6974SOL     OW21820   3.231   3.616   2.834
 6974SOL    HW121821   3.327   3.597   2.813
 6974SOL    HW221822   3.204   3.565   2.915
 6975SOL     OW21823   1.754   6.304   6.247
 6975SOL    HW121824   1.846   6.267   6.231
 6975SOL    HW221825   1.753   6.401   6.222
 6976SOL     OW21826   4.433   6.149   4.920
 6976SOL    HW121827   4.491   6.158   5.001
 6976SOL    HW221828   4.349   6.101   4.944
 6977SOL     OW21829   4.527   2.472   1.484
 6977SOL    HW121830   4.481   2.495   1.398
 6977SOL    HW221831   4.583   2.390   1.471
 6978SOL     OW21832   3.872   1.629   2.679
 6978SOL    HW121833   3.889   1.708   2.737
 6978SOL    HW221834   3.821   1.559   2.730
 6979SOL     OW21835   1.492   4.357   1.217
 6979SOL    HW121836   1.584   4.390   1.239
 6979SOL    HW221837   1.450   4.417   1.150
 6980SOL     OW21838   1.217   1.230   3.851
 6980SOL    HW121839   1.313   1.255   3.866
 6980SOL    HW221840   1.207   1.186   3.761
 6981SOL     OW21841   3.877   2.498   5.945
 6981SOL    HW121842   3.930   2.555   5.883
 6981SOL    HW221843   3.792   2.471   5.900
 6982SOL     OW21844   1.660   0.604   4.682
 6982SOL    HW121845   1.579   0.654   4.712
 6982SOL    HW221846   1.635   0.541   4.608
 6983SOL     OW21847   4.158   2.227   3.834
 6983SOL    HW121848   4.168   2.304   3.897
 6983SOL    HW221849   4.185   2.255   3.742
 6984SOL     OW21850   2.368   1.755   3.737
 6984SOL    HW121851   2.418   1.686   3.685
 6984SOL    HW221852   2.383   1.740   3.835
 6985SOL     OW21853   4.255   4.975   1.546
 6985SOL    HW121854   4.183   4.907   1.530
 6985SOL    HW221855   4.255   5.041   1.471
 6986SOL     OW21856   1.797   6.825   6.655
 6986SOL    HW121857   1.744   6.857   6.576
 6986SOL    HW221858   1.777   6.729   6.672
 6987SOL     OW21859   7.013   1.320   5.932
 6987SOL    HW121860   0.032   1.243   5.974
 6987SOL    HW221861   6.961   1.368   6.002
 6988SOL     OW21862   0.498   0.468   5.507
 6988SOL    HW121863   0.460   0.561   5.515
 6988SOL    HW221864   0.439   0.413   5.448
 6989SOL     OW21865   0.536   4.250   2.600
 6989SOL    HW121866   0.521   4.349   2.610
 6989SOL    HW221867   0.584   4.233   2.514
 6990SOL     OW21868   4.869   2.796   1.075
 6990SOL    HW121869   4.831   2.717   1.123
 6990SOL    HW221870   4.839   2.880   1.120
 6991SOL     OW21871   3.464   4.925   3.793
 6991SOL    HW121872   3.370   4.906   3.821
 6991SOL    HW221873   3.466   5.006   3.735
 6992SOL     OW21874   5.218   5.950   5.972
 6992SOL    HW121875   5.259   5.864   6.002
 6992SOL    HW221876   5.156   5.985   6.043
 6993SOL     OW21877   6.398   0.773   3.314
 6993SOL    HW121878   6.378   0.708   3.240
 6993SOL    HW221879   6.339   0.853   3.304
 6994SOL     OW21880   0.142   2.211   4.513
 6994SOL    HW121881   0.070   2.280   4.526
 6994SOL    HW221882   0.230   2.257   4.498
 6995SOL     OW21883   6.767   4.707   5.737
 6995SOL    HW121884   6.699   4.692   5.809
 6995SOL    HW221885   6.859   4.690   5.774
 6996SOL     OW21886   1.580   0.197   6.731
 6996SOL    HW121887   1.552   0.281   6.777
 6996SOL    HW221888   1.576   0.210   6.632
 6997SOL     OW21889   6.249   6.037   5.141
 6997SOL    HW121890   6.179   5.976   5.102
 6997SOL    HW221891   6.238   6.128   5.101
 6998SOL     OW21892   1.383   1.323   1.465
 6998SOL    HW121893   1.470   1.358   1.430
 6998SOL    HW221894   1.400   1.243   1.522
 6999SOL     OW21895   2.401   2.939   5.804
 6999SOL    HW121896   2.364   2.858   5.757
 6999SOL    HW221897   2.454   2.909   5.883
 7000SOL     OW21898   5.999   6.045   1.394
 7000SOL    HW121899   5.961   6.132   1.428
 7000SOL    HW221900   6.064   6.064   1.320
 7001SOL     OW21901   1.902   2.770   5.205
 7001SOL    HW121902   1.993   2.810   5.206
 7001SOL    HW221903   1.855   2.796   5.120
 7002SOL     OW21904   2.185   5.380   3.681
 7002SOL    HW121905   2.142   5.452   3.627
 7002SOL    HW221906   2.115   5.317   3.713
 7003SOL     OW21907   3.815   5.369   0.186
 7003SOL    HW121908   3.912   5.372   0.206
 7003SOL    HW221909   3.777   5.281   0.215
 7004SOL     OW21910   1.222   4.929   2.329
 7004SOL    HW121911   1.312   4.965   2.352
 7004SOL    HW221912   1.227   4.830   2.317
 7005SOL     OW21913   1.437   0.222   0.443
 7005SOL    HW121914   1.352   0.274   0.448
 7005SOL    HW221915   1.442   0.174   0.356
 7006SOL     OW21916   4.652   4.894   4.037
 7006SOL    HW121917   4.623   4.898   4.133
 7006SOL    HW221918   4.584   4.939   3.980
 7007SOL     OW21919   5.022   0.197   3.420
 7007SOL    HW121920   4.940   0.164   3.466
 7007SOL    HW221921   5.066   0.120   3.372
 7008SOL     OW21922   0.844   3.989   4.777
 7008SOL    HW121923   0.913   3.918   4.792
 7008SOL    HW221924   0.820   4.032   4.864
 7009SOL     OW21925   6.025   6.169   1.766
 7009SOL    HW121926   6.118   6.177   1.730
 7009SOL    HW221927   6.023   6.102   1.839
 7010SOL     OW21928   5.215   4.874   4.477
 7010SOL    HW121929   5.173   4.855   4.388
 7010SOL    HW221930   5.183   4.963   4.510
 7011SOL     OW21931   3.648   6.998   6.408
 7011SOL    HW121932   3.675   0.047   6.352
 7011SOL    HW221933   3.659   7.021   6.505
 7012SOL     OW21934   1.733   2.318   1.704
 7012SOL    HW121935   1.763   2.412   1.720
 7012SOL    HW221936   1.688   2.283   1.787
 7013SOL     OW21937   0.720   0.346   0.820
 7013SOL    HW121938   0.776   0.272   0.782
 7013SOL    HW221939   0.634   0.308   0.855
 7014SOL     OW21940   4.603   3.309   1.357
 7014SOL    HW121941   4.593   3.234   1.292
 7014SOL    HW221942   4.599   3.272   1.450
 7015SOL     OW21943   5.880   4.509   2.444
 7015SOL    HW121944   5.906   4.550   2.532
 7015SOL    HW221945   5.787   4.474   2.449
 7016SOL     OW21946   3.507   4.884   1.451
 7016SOL    HW121947   3.577   4.883   1.379
 7016SOL    HW221948   3.417   4.892   1.410
 7017SOL     OW21949   2.660   5.538   2.847
 7017SOL    HW121950   2.649   5.455   2.902
 7017SOL    HW221951   2.757   5.560   2.839
 7018SOL     OW21952   5.872   3.766   4.300
 7018SOL    HW121953   5.954   3.801   4.255
 7018SOL    HW221954   5.833   3.837   4.359
 7019SOL     OW21955   2.977   4.120   6.936
 7019SOL    HW121956   3.028   4.120   7.022
 7019SOL    HW221957   2.980   4.029   6.895
 7020SOL     OW21958   6.159   6.054   6.476
 7020SOL    HW121959   6.135   5.967   6.433
 7020SOL    HW221960   6.136   6.050   6.573
 7021SOL     OW21961   1.530   1.239   6.106
 7021SOL    HW121962   1.494   1.328   6.134
 7021SOL    HW221963   1.612   1.218   6.160
 7022SOL     OW21964   4.710   6.601   6.531
 7022SOL    HW121965   4.764   6.548   6.466
 7022SOL    HW221966   4.708   6.697   6.502
 7023SOL     OW21967   0.444   1.365   4.080
 7023SOL    HW121968   0.433   1.426   4.158
 7023SOL    HW221969   0.458   1.419   3.997
 7024SOL     OW21970   2.362   3.718   5.284
 7024SOL    HW121971   2.386   3.805   5.243
 7024SOL    HW221972   2.445   3.673   5.317
 7025SOL     OW21973   2.398   1.279   0.045
 7025SOL    HW121974   2.403   1.183   0.018
 7025SOL    HW221975   2.402   1.286   0.145
 7026SOL     OW21976   3.458   2.000   1.956
 7026SOL    HW121977   3.530   2.042   2.011
 7026SOL    HW221978   3.439   1.908   1.990
 7027SOL     OW21979   2.582   4.934   4.305
 7027SOL    HW121980   2.557   4.993   4.382
 7027SOL    HW221981   2.614   4.846   4.339
 7028SOL     OW21982   4.197   0.717   4.200
 7028SOL    HW121983   4.106   0.760   4.204
 7028SOL    HW221984   4.259   0.766   4.260
 7029SOL     OW21985   5.148   4.675   5.112
 7029SOL    HW121986   5.109   4.698   5.201
 7029SOL    HW221987   5.240   4.637   5.125
 7030SOL     OW21988   1.525   1.479   5.296
 7030SOL    HW121989   1.545   1.455   5.201
 7030SOL    HW221990   1.536   1.398   5.354
 7031SOL     OW21991   2.536   6.168   5.366
 7031SOL    HW121992   2.452   6.220   5.351
 7031SOL    HW221993   2.552   6.157   5.464
 7032SOL     OW21994   3.616   1.046   2.979
 7032SOL    HW121995   3.633   1.042   3.078
 7032SOL    HW221996   3.670   0.976   2.933
 7033SOL     OW21997   1.691   2.547   3.492
 7033SOL    HW121998   1.738   2.583   3.411
 7033SOL    HW221999   1.618   2.486   3.463
 7034SOL     OW22000   5.816   0.358   3.725
 7034SOL    HW122001   5.726   0.325   3.696
 7034SOL    HW222002   5.847   0.429   3.663
 7035SOL     OW22003   1.907   6.816   1.443
 7035SOL    HW122004   1.913   6.727   1.399
 7035SOL    HW222005   1.983   6.827   1.507
 7036SOL     OW22006   0.594   0.984   2.509
 7036SOL    HW122007   0.573   1.041   2.430
 7036SOL    HW222008   0.684   1.009   2.546
 7037SOL     OW22009   2.057   1.237   6.521
 7037SOL    HW122010   2.095   1.286   6.599
 7037SOL    HW222011   2.131   1.192   6.470
 7038SOL     OW22012   2.179   3.597   5.027
 7038SOL    HW122013   2.266   3.611   5.074
 7038SOL    HW222014   2.191   3.529   4.954
 7039SOL     OW22015   3.003   4.718   1.446
 7039SOL    HW122016   3.039   4.702   1.354
 7039SOL    HW222017   2.922   4.661   1.460
 7040SOL     OW22018   6.369   1.887   4.763
 7040SOL    HW122019   6.403   1.961   4.704
 7040SOL    HW222020   6.317   1.926   4.839
 7041SOL     OW22021   6.835   1.704   2.118
 7041SOL    HW122022   6.764   1.634   2.113
 7041SOL    HW222023   6.924   1.660   2.130
 7042SOL     OW22024   4.969   4.786   4.945
 7042SOL    HW122025   4.975   4.873   4.895
 7042SOL    HW222026   5.061   4.752   4.963
 7043SOL     OW22027   2.052   3.519   2.481
 7043SOL    HW122028   2.086   3.448   2.419
 7043SOL    HW222029   2.096   3.606   2.460
 7044SOL     OW22030   4.165   4.721   3.807
 7044SOL    HW122031   4.151   4.756   3.714
 7044SOL    HW222032   4.112   4.776   3.872
 7045SOL     OW22033   5.520   5.488   3.202
 7045SOL    HW122034   5.528   5.395   3.238
 7045SOL    HW222035   5.523   5.486   3.103
 7046SOL     OW22036   3.129   1.198   3.080
 7046SOL    HW122037   3.130   1.274   3.145
 7046SOL    HW222038   3.199   1.211   3.011
 7047SOL     OW22039   0.153   2.018   2.323
 7047SOL    HW122040   0.168   1.936   2.377
 7047SOL    HW222041   0.240   2.067   2.313
 7048SOL     OW22042   5.585   6.038   2.576
 7048SOL    HW122043   5.587   6.026   2.675
 7048SOL    HW222044   5.612   5.953   2.531
 7049SOL     OW22045   3.815   1.512   1.105
 7049SOL    HW122046   3.814   1.519   1.204
 7049SOL    HW222047   3.729   1.549   1.068
 7050SOL     OW22048   3.944   3.612   1.674
 7050SOL    HW122049   4.007   3.629   1.599
 7050SOL    HW222050   3.994   3.616   1.761
 7051SOL     OW22051   6.897   0.069   2.018
 7051SOL    HW122052   6.862   0.012   1.943
 7051SOL    HW222053   6.994   0.050   2.032
 7052SOL     OW22054   5.655   2.459   3.570
 7052SOL    HW122055   5.677   2.370   3.530
 7052SOL    HW222056   5.729   2.487   3.631
 7053SOL     OW22057   0.754   3.307   5.234
 7053SOL    HW122058   0.846   3.283   5.202
 7053SOL    HW222059   0.736   3.403   5.211
 7054SOL     OW22060   0.728   6.716   0.177
 7054SOL    HW122061   0.664   6.744   0.249
 7054SOL    HW222062   0.690   6.741   0.088
 7055SOL     OW22063   2.845   0.035   5.460
 7055SOL    HW122064   2.867   0.128   5.491
 7055SOL    HW222065   2.799   7.014   5.534
 7056SOL     OW22066   6.740   5.169   1.595
 7056SOL    HW122067   6.760   5.152   1.691
 7056SOL    HW222068   6.756   5.085   1.543
 7057SOL     OW22069   1.678   5.621   3.933
 7057SOL    HW122070   1.754   5.566   3.969
 7057SOL    HW222071   1.705   5.663   3.847
 7058SOL     OW22072   6.039   4.827   5.924
 7058SOL    HW122073   5.987   4.742   5.936
 7058SOL    HW222074   5.992   4.901   5.970
 7059SOL     OW22075   0.133   0.891   4.081
 7059SOL    HW122076   0.221   0.911   4.122
 7059SOL    HW222077   0.060   0.914   4.145
 7060SOL     OW22078   4.375   0.375   1.736
 7060SOL    HW122079   4.354   0.309   1.664
 7060SOL    HW222080   4.362   0.332   1.826
 7061SOL     OW22081   0.597   3.099   3.192
 7061SOL    HW122082   0.503   3.132   3.194
 7061SOL    HW222083   0.627   3.080   3.286
 7062SOL     OW22084   4.264   1.325   5.156
 7062SOL    HW122085   4.246   1.264   5.233
 7062SOL    HW222086   4.362   1.330   5.140
 7063SOL     OW22087   1.454   0.270   1.542
 7063SOL    HW122088   1.551   0.278   1.566
 7063SOL    HW222089   1.444   0.204   1.467
 7064SOL     OW22090   3.783   2.309   1.089
 7064SOL    HW122091   3.809   2.358   1.006
 7064SOL    HW222092   3.862   2.303   1.150
 7065SOL     OW22093   4.145   3.864   5.740
 7065SOL    HW122094   4.207   3.816   5.802
 7065SOL    HW222095   4.050   3.846   5.768
 7066SOL     OW22096   4.946   0.597   0.609
 7066SOL    HW122097   4.855   0.593   0.566
 7066SOL    HW222098   4.959   0.518   0.668
 7067SOL     OW22099   2.157   2.717   4.772
 7067SOL    HW122100   2.146   2.618   4.768
 7067SOL    HW222101   2.198   2.750   4.687
 7068SOL     OW22102   0.011   4.509   4.323
 7068SOL    HW122103   0.104   4.519   4.359
 7068SOL    HW222104   6.978   4.567   4.376
 7069SOL     OW22105   5.225   1.173   4.750
 7069SOL    HW122106   5.275   1.257   4.773
 7069SOL    HW222107   5.256   1.139   4.661
 7070SOL     OW22108   6.857   6.251   4.641
 7070SOL    HW122109   6.861   6.226   4.544
 7070SOL    HW222110   6.895   6.343   4.653
 7071SOL     OW22111   2.678   5.837   6.326
 7071SOL    HW122112   2.773   5.839   6.358
 7071SOL    HW222113   2.639   5.747   6.344
 7072SOL     OW22114   1.537   6.027   0.172
 7072SOL    HW122115   1.523   6.121   0.143
 7072SOL    HW222116   1.450   5.988   0.203
 7073SOL     OW22117   4.479   6.759   4.688
 7073SOL    HW122118   4.381   6.758   4.709
 7073SOL    HW222119   4.524   6.832   4.739
 7074SOL     OW22120   4.582   2.493   2.354
 7074SOL    HW122121   4.501   2.544   2.383
 7074SOL    HW222122   4.586   2.489   2.255
 7075SOL     OW22123   1.669   4.110   5.203
 7075SOL    HW122124   1.626   4.055   5.275
 7075SOL    HW222125   1.598   4.158   5.152
 7076SOL     OW22126   5.956   1.988   6.055
 7076SOL    HW122127   5.889   2.062   6.054
 7076SOL    HW222128   5.928   1.919   6.122
 7077SOL     OW22129   2.232   4.845   3.871
 7077SOL    HW122130   2.226   4.795   3.785
 7077SOL    HW222131   2.310   4.811   3.924
 7078SOL     OW22132   0.196   6.777   1.573
 7078SOL    HW122133   0.164   6.682   1.578
 7078SOL    HW222134   0.153   6.823   1.495
 7079SOL     OW22135   6.746   6.075   3.934
 7079SOL    HW122136   6.675   6.074   4.004
 7079SOL    HW222137   6.834   6.097   3.976
 7080SOL     OW22138   3.355   1.395   4.640
 7080SOL    HW122139   3.263   1.431   4.647
 7080SOL    HW222140   3.390   1.410   4.547
 7081SOL     OW22141   3.142   6.810   6.637
 7081SOL    HW122142   3.234   6.814   6.676
 7081SOL    HW222143   3.126   6.890   6.579
 7082SOL     OW22144   6.563   3.890   6.607
 7082SOL    HW122145   6.536   3.983   6.631
 7082SOL    HW222146   6.632   3.893   6.534
 7083SOL     OW22147   2.961   7.011   0.491
 7083SOL    HW122148   2.954   6.915   0.517
 7083SOL    HW222149   2.917   0.039   0.560
 7084SOL     OW22150   0.314   5.886   5.559
 7084SOL    HW122151   0.362   5.950   5.500
 7084SOL    HW222152   0.379   5.836   5.615
 7085SOL     OW22153   0.850   2.005   2.101
 7085SOL    HW122154   0.803   1.951   2.031
 7085SOL    HW222155   0.946   1.977   2.105
 7086SOL     OW22156   5.146   0.364   5.606
 7086SOL    HW122157   5.131   0.442   5.546
 7086SOL    HW222158   5.242   0.337   5.604
 7087SOL     OW22159   6.237   3.533   4.063
 7087SOL    HW122160   6.313   3.573   4.115
 7087SOL    HW222161   6.257   3.540   3.965
 7088SOL     OW22162   5.536   2.698   3.477
 7088SOL    HW122163   5.455   2.694   3.534
 7088SOL    HW222164   5.595   2.620   3.497
 7089SOL     OW22165   2.673   2.116   4.700
 7089SOL    HW122166   2.739   2.143   4.629
 7089SOL    HW222167   2.720   2.108   4.787
 7090SOL     OW22168   2.254   0.627   6.702
 7090SOL    HW122169   2.276   0.562   6.630
 7090SOL    HW222170   2.156   0.628   6.719
 7091SOL     OW22171   0.583   1.748   0.078
 7091SOL    HW122172   0.544   1.818   0.017
 7091SOL    HW222173   0.511   1.683   0.103
 7092SOL     OW22174   4.060   3.010   5.836
 7092SOL    HW122175   3.997   2.998   5.912
 7092SOL    HW222176   4.029   2.956   5.758
 7093SOL     OW22177   2.922   3.787   3.064
 7093SOL    HW122178   2.929   3.857   2.992
 7093SOL    HW222179   2.895   3.700   3.024
 7094SOL     OW22180   6.760   6.132   5.829
 7094SOL    HW122181   6.799   6.077   5.904
 7094SOL    HW222182   6.664   6.150   5.848
 7095SOL     OW22183   3.878   4.104   5.873
 7095SOL    HW122184   3.959   4.146   5.833
 7095SOL    HW222185   3.877   4.006   5.852
 7096SOL     OW22186   6.431   0.392   3.504
 7096SOL    HW122187   6.406   0.377   3.600
 7096SOL    HW222188   6.475   0.481   3.495
 7097SOL     OW22189   5.706   2.051   1.058
 7097SOL    HW122190   5.745   2.095   0.977
 7097SOL    HW222191   5.760   1.970   1.081
 7098SOL     OW22192   1.512   5.864   5.432
 7098SOL    HW122193   1.502   5.811   5.517
 7098SOL    HW222194   1.553   5.807   5.362
 7099SOL     OW22195   3.559   1.164   5.422
 7099SOL    HW122196   3.625   1.159   5.347
 7099SOL    HW222197   3.511   1.252   5.418
 7100SOL     OW22198   5.512   3.127   0.728
 7100SOL    HW122199   5.508   3.075   0.643
 7100SOL    HW222200   5.432   3.105   0.784
 7101SOL     OW22201   1.905   0.660   4.765
 7101SOL    HW122202   1.962   0.666   4.683
 7101SOL    HW222203   1.811   0.638   4.738
 7102SOL     OW22204   5.581   6.534   0.760
 7102SOL    HW122205   5.591   6.518   0.662
 7102SOL    HW222206   5.671   6.537   0.803
 7103SOL     OW22207   4.571   4.825   2.015
 7103SOL    HW122208   4.580   4.730   2.044
 7103SOL    HW222209   4.636   4.882   2.066
 7104SOL     OW22210   0.359   2.609   4.149
 7104SOL    HW122211   0.313   2.521   4.141
 7104SOL    HW222212   0.291   2.680   4.166
 7105SOL     OW22213   3.060   3.214   5.639
 7105SOL    HW122214   2.969   3.172   5.637
 7105SOL    HW222215   3.085   3.244   5.547
 7106SOL     OW22216   3.814   3.681   2.810
 7106SOL    HW122217   3.736   3.655   2.867
 7106SOL    HW222218   3.881   3.606   2.809
 7107SOL     OW22219   4.784   0.972   0.674
 7107SOL    HW122220   4.844   1.052   0.679
 7107SOL    HW222221   4.729   0.976   0.591
 7108SOL     OW22222   3.839   6.077   2.538
 7108SOL    HW122223   3.921   6.019   2.542
 7108SOL    HW222224   3.825   6.108   2.444
 7109SOL     OW22225   2.899   0.576   6.156
 7109SOL    HW122226   2.816   0.522   6.144
 7109SOL    HW222227   2.926   0.616   6.068
 7110SOL     OW22228   3.000   5.736   4.436
 7110SOL    HW122229   3.023   5.829   4.463
 7110SOL    HW222230   2.984   5.733   4.337
 7111SOL     OW22231   1.435   2.934   4.815
 7111SOL    HW122232   1.447   3.026   4.853
 7111SOL    HW222233   1.434   2.867   4.889
 7112SOL     OW22234   1.475   4.670   4.531
 7112SOL    HW122235   1.400   4.604   4.523
 7112SOL    HW222236   1.487   4.696   4.627
 7113SOL     OW22237   3.961   3.917   4.742
 7113SOL    HW122238   3.952   3.981   4.665
 7113SOL    HW222239   3.975   3.968   4.827
 7114SOL     OW22240   4.951   6.334   1.431
 7114SOL    HW122241   4.907   6.318   1.343
 7114SOL    HW222242   4.925   6.262   1.495
 7115SOL     OW22243   5.452   2.995   1.163
 7115SOL    HW122244   5.464   3.093   1.151
 7115SOL    HW222245   5.410   2.976   1.252
 7116SOL     OW22246   6.183   4.132   3.350
 7116SOL    HW122247   6.245   4.170   3.282
 7116SOL    HW222248   6.216   4.155   3.442
 7117SOL     OW22249   0.157   6.222   5.356
 7117SOL    HW122250   0.122   6.173   5.276
 7117SOL    HW222251   0.247   6.260   5.335
 7118SOL     OW22252   3.057   4.501   0.632
 7118SOL    HW122253   3.069   4.442   0.712
 7118SOL    HW222254   2.960   4.507   0.609
 7119SOL     OW22255   4.644   2.184   3.660
 7119SOL    HW122256   4.729   2.227   3.690
 7119SOL    HW222257   4.576   2.189   3.733
 7120SOL     OW22258   3.282   1.773   2.309
 7120SOL    HW122259   3.256   1.773   2.406
 7120SOL    HW222260   3.268   1.865   2.271
 7121SOL     OW22261   0.775   6.992   3.405
 7121SOL    HW122262   0.770   6.952   3.497
 7121SOL    HW222263   0.855   6.956   3.357
 7122SOL     OW22264   1.271   6.999   5.701
 7122SOL    HW122265   1.280   0.062   5.661
 7122SOL    HW222266   1.357   6.950   5.690
 7123SOL     OW22267   1.631   4.356   3.066
 7123SOL    HW122268   1.615   4.393   3.157
 7123SOL    HW222269   1.558   4.385   3.004
 7124SOL     OW22270   6.513   2.089   1.214
 7124SOL    HW122271   6.527   2.083   1.115
 7124SOL    HW222272   6.598   2.065   1.261
 7125SOL     OW22273   0.308   6.941   1.196
 7125SOL    HW122274   0.358   6.855   1.208
 7125SOL    HW222275   0.372   7.015   1.175
 7126SOL     OW22276   3.511   4.822   0.521
 7126SOL    HW122277   3.595   4.811   0.574
 7126SOL    HW222278   3.518   4.905   0.465
 7127SOL     OW22279   1.614   4.721   5.458
 7127SOL    HW122280   1.639   4.813   5.429
 7127SOL    HW222281   1.678   4.690   5.529
 7128SOL     OW22282   2.707   5.259   6.944
 7128SOL    HW122283   2.643   5.204   6.998
 7128SOL    HW222284   2.733   5.208   6.863
 7129SOL     OW22285   2.764   1.943   0.023
 7129SOL    HW122286   2.798   1.890   6.974
 7129SOL    HW222287   2.724   1.881   0.090
 7130SOL     OW22288   4.127   5.365   5.137
 7130SOL    HW122289   4.128   5.269   5.164
 7130SOL    HW222290   4.157   5.374   5.042
 7131SOL     OW22291   2.874   0.333   1.040
 7131SOL    HW122292   2.913   0.247   1.007
 7131SOL    HW222293   2.919   0.360   1.125
 7132SOL     OW22294   4.200   4.496   6.997
 7132SOL    HW122295   4.157   4.425   6.941
 7132SOL    HW222296   4.212   4.462   0.061
 7133SOL     OW22297   5.340   5.725   6.088
 7133SOL    HW122298   5.374   5.751   6.179
 7133SOL    HW222299   5.297   5.635   6.093
 7134SOL     OW22300   5.193   7.028   2.070
 7134SOL    HW122301   5.275   7.003   2.122
 7134SOL    HW222302   5.196   0.097   2.047
 7135SOL     OW22303   1.613   2.593   3.111
 7135SOL    HW122304   1.685   2.632   3.168
 7135SOL    HW222305   1.592   2.501   3.143
 7136SOL     OW22306   2.326   2.593   1.227
 7136SOL    HW122307   2.420   2.570   1.254
 7136SOL    HW222308   2.326   2.623   1.131
 7137SOL     OW22309   4.144   0.168   6.426
 7137SOL    HW122310   4.074   0.097   6.413
 7137SOL    HW222311   4.099   0.255   6.443
 7138SOL     OW22312   2.497   2.169   0.623
 7138SOL    HW122313   2.491   2.125   0.533
 7138SOL    HW222314   2.589   2.158   0.660
 7139SOL     OW22315   5.812   4.037   1.625
 7139SOL    HW122316   5.756   4.072   1.549
 7139SOL    HW222317   5.846   4.114   1.678
 7140SOL     OW22318   6.795   3.611   2.970
 7140SOL    HW122319   6.821   3.555   3.049
 7140SOL    HW222320   6.829   3.704   2.983
 7141SOL     OW22321   3.747   6.329   1.186
 7141SOL    HW122322   3.718   6.276   1.266
 7141SOL    HW222323   3.678   6.321   1.114
 7142SOL     OW22324   4.353   0.216   3.260
 7142SOL    HW122325   4.377   0.261   3.174
 7142SOL    HW222326   4.256   0.191   3.259
 7143SOL     OW22327   1.516   3.107   5.783
 7143SOL    HW122328   1.591   3.115   5.717
 7143SOL    HW222329   1.440   3.057   5.740
 7144SOL     OW22330   1.911   2.432   2.092
 7144SOL    HW122331   1.958   2.512   2.130
 7144SOL    HW222332   1.862   2.385   2.165
 7145SOL     OW22333   4.630   0.084   0.538
 7145SOL    HW122334   4.642   0.052   0.443
 7145SOL    HW222335   4.718   0.113   0.575
 7146SOL     OW22336   1.804   6.940   0.835
 7146SOL    HW122337   1.810   6.861   0.773
 7146SOL    HW222338   1.876   6.933   0.904
 7147SOL     OW22339   6.719   0.196   2.580
 7147SOL    HW122340   6.731   0.175   2.677
 7147SOL    HW222341   6.788   0.262   2.550
 7148SOL     OW22342   0.326   5.858   1.123
 7148SOL    HW122343   0.234   5.898   1.131
 7148SOL    HW222344   0.391   5.915   1.172
 7149SOL     OW22345   6.019   6.484   3.157
 7149SOL    HW122346   6.041   6.450   3.065
 7149SOL    HW222347   5.922   6.473   3.174
 7150SOL     OW22348   3.163   2.742   1.451
 7150SOL    HW122349   3.133   2.814   1.513
 7150SOL    HW222350   3.174   2.656   1.502
 7151SOL     OW22351   2.843   6.275   0.556
 7151SOL    HW122352   2.926   6.227   0.586
 7151SOL    HW222353   2.827   6.256   0.460
 7152SOL     OW22354   0.808   0.378   5.403
 7152SOL    HW122355   0.874   0.423   5.464
 7152SOL    HW222356   0.736   0.443   5.379
 7153SOL     OW22357   4.134   5.276   1.675
 7153SOL    HW122358   4.163   5.187   1.710
 7153SOL    HW222359   4.213   5.337   1.669
 7154SOL     OW22360   4.200   6.982   3.807
 7154SOL    HW122361   4.232   6.896   3.844
 7154SOL    HW222362   4.111   7.005   3.846
 7155SOL     OW22363   1.733   3.370   1.227
 7155SOL    HW122364   1.729   3.321   1.314
 7155SOL    HW222365   1.666   3.445   1.227
 7156SOL     OW22366   6.836   3.068   4.033
 7156SOL    HW122367   6.824   3.025   4.122
 7156SOL    HW222368   6.913   3.026   3.985
 7157SOL     OW22369   0.362   3.542   1.387
 7157SOL    HW122370   0.343   3.627   1.337
 7157SOL    HW222371   0.437   3.493   1.342
 7158SOL     OW22372   1.315   0.003   3.923
 7158SOL    HW122373   1.286   0.099   3.920
 7158SOL    HW222374   1.414   7.028   3.939
 7159SOL     OW22375   0.505   4.933   2.462
 7159SOL    HW122376   0.493   5.015   2.407
 7159SOL    HW222377   0.601   4.904   2.459
 7160SOL     OW22378   5.548   0.211   3.031
 7160SOL    HW122379   5.531   0.204   3.129
 7160SOL    HW222380   5.604   0.292   3.013
 7161SOL     OW22381   3.328   4.072   4.003
 7161SOL    HW122382   3.250   4.076   3.941
 7161SOL    HW222383   3.308   4.010   4.079
 7162SOL     OW22384   1.145   5.203   6.263
 7162SOL    HW122385   1.154   5.105   6.283
 7162SOL    HW222386   1.236   5.244   6.256
 7163SOL     OW22387   2.954   6.649   2.516
 7163SOL    HW122388   2.992   6.738   2.542
 7163SOL    HW222389   2.983   6.581   2.583
 7164SOL     OW22390   2.647   0.258   4.072
 7164SOL    HW122391   2.552   0.290   4.076
 7164SOL    HW222392   2.698   0.296   4.150
 7165SOL     OW22393   6.164   0.955   2.847
 7165SOL    HW122394   6.157   0.895   2.768
 7165SOL    HW222395   6.082   1.012   2.853
 7166SOL     OW22396   5.308   1.918   0.706
 7166SOL    HW122397   5.259   1.966   0.779
 7166SOL    HW222398   5.247   1.907   0.627
 7167SOL     OW22399   5.389   3.409   4.414
 7167SOL    HW122400   5.357   3.314   4.412
 7167SOL    HW222401   5.417   3.433   4.508
 7168SOL     OW22402   1.443   2.748   2.984
 7168SOL    HW122403   1.514   2.695   3.030
 7168SOL    HW222404   1.477   2.841   2.968
 7169SOL     OW22405   0.594   2.658   5.433
 7169SOL    HW122406   0.533   2.718   5.485
 7169SOL    HW222407   0.660   2.615   5.495
 7170SOL     OW22408   4.508   0.258   3.875
 7170SOL    HW122409   4.568   0.314   3.818
 7170SOL    HW222410   4.452   0.317   3.933
 7171SOL     OW22411   6.042   3.607   0.291
 7171SOL    HW122412   6.011   3.597   0.196
 7171SOL    HW222413   6.101   3.687   0.298
 7172SOL     OW22414   1.148   6.830   4.508
 7172SOL    HW122415   1.194   6.804   4.423
 7172SOL    HW222416   1.204   6.896   4.558
 7173SOL     OW22417   6.593   4.255   6.311
 7173SOL    HW122418   6.510   4.302   6.342
 7173SOL    HW222419   6.648   4.319   6.257
 7174SOL     OW22420   1.614   3.844   0.239
 7174SOL    HW122421   1.600   3.750   0.209
 7174SOL    HW222422   1.570   3.907   0.175
 7175SOL     OW22423   5.789   2.962   6.749
 7175SOL    HW122424   5.789   2.868   6.781
 7175SOL    HW222425   5.702   2.981   6.703
 7176SOL     OW22426   6.889   0.450   2.841
 7176SOL    HW122427   6.793   0.476   2.852
 7176SOL    HW222428   6.931   0.508   2.771
 7177SOL     OW22429   1.736   4.744   4.786
 7177SOL    HW122430   1.763   4.763   4.691
 7177SOL    HW222431   1.639   4.763   4.798
 7178SOL     OW22432   1.305   1.673   5.719
 7178SOL    HW122433   1.350   1.620   5.792
 7178SOL    HW222434   1.221   1.713   5.754
 7179SOL     OW22435   2.268   4.080   4.529
 7179SOL    HW122436   2.245   3.986   4.504
 7179SOL    HW222437   2.266   4.089   4.629
 7180SOL     OW22438   2.170   5.376   0.353
 7180SOL    HW122439   2.205   5.320   0.428
 7180SOL    HW222440   2.247   5.415   0.302
 7181SOL     OW22441   2.094   6.975   0.374
 7181SOL    HW122442   2.026   0.016   0.351
 7181SOL    HW222443   2.168   7.017   0.428
 7182SOL     OW22444   0.288   2.762   4.820
 7182SOL    HW122445   0.366   2.725   4.871
 7182SOL    HW222446   0.269   2.703   4.741
 7183SOL     OW22447   2.165   5.964   0.843
 7183SOL    HW122448   2.210   5.875   0.833
 7183SOL    HW222449   2.206   6.013   0.920
 7184SOL     OW22450   6.635   1.109   3.807
 7184SOL    HW122451   6.592   1.120   3.897
 7184SOL    HW222452   6.687   1.192   3.786
 7185SOL     OW22453   5.699   0.261   4.962
 7185SOL    HW122454   5.700   0.197   5.039
 7185SOL    HW222455   5.659   0.348   4.991
 7186SOL     OW22456   6.821   1.877   0.660
 7186SOL    HW122457   6.816   1.815   0.739
 7186SOL    HW222458   6.886   1.841   0.593
 7187SOL     OW22459   3.951   4.631   6.583
 7187SOL    HW122460   3.981   4.606   6.491
 7187SOL    HW222461   4.012   4.701   6.621
 7188SOL     OW22462   5.852   0.770   0.182
 7188SOL    HW122463   5.876   0.785   0.086
 7188SOL    HW222464   5.756   0.792   0.197
 7189SOL     OW22465   7.015   1.022   5.728
 7189SOL    HW122466   0.036   0.997   5.812
 7189SOL    HW222467   6.986   0.939   5.681
 7190SOL     OW22468   0.451   3.439   2.394
 7190SOL    HW122469   0.439   3.360   2.454
 7190SOL    HW222470   0.513   3.415   2.320
 7191SOL     OW22471   0.979   4.805   2.798
 7191SOL    HW122472   0.939   4.718   2.771
 7191SOL    HW222473   1.057   4.826   2.740
 7192SOL     OW22474   2.822   4.233   5.942
 7192SOL    HW122475   2.772   4.173   5.880
 7192SOL    HW222476   2.919   4.231   5.921
 7193SOL     OW22477   0.679   2.868   2.365
 7193SOL    HW122478   0.652   2.792   2.306
 7193SOL    HW222479   0.619   2.946   2.348
 7194SOL     OW22480   2.710   2.511   0.349
 7194SOL    HW122481   2.750   2.420   0.341
 7194SOL    HW222482   2.670   2.538   0.261
 7195SOL     OW22483   0.585   3.853   6.471
 7195SOL    HW122484   0.653   3.857   6.544
 7195SOL    HW222485   0.609   3.780   6.407
 7196SOL     OW22486   3.016   4.081   1.331
 7196SOL    HW122487   3.094   4.025   1.304
 7196SOL    HW222488   2.932   4.040   1.297
 7197SOL     OW22489   0.366   2.368   6.230
 7197SOL    HW122490   0.342   2.353   6.326
 7197SOL    HW222491   0.410   2.458   6.220
 7198SOL     OW22492   7.003   0.686   0.726
 7198SOL    HW122493   0.046   0.714   0.663
 7198SOL    HW222494   7.026   0.716   0.819
 7199SOL     OW22495   2.035   0.924   2.116
 7199SOL    HW122496   1.957   0.955   2.170
 7199SOL    HW222497   2.119   0.963   2.154
 7200SOL     OW22498   2.562   2.270   6.841
 7200SOL    HW122499   2.489   2.334   6.864
 7200SOL    HW222500   2.568   2.261   6.741
 7201SOL     OW22501   1.030   5.169   4.494
 7201SOL    HW122502   0.951   5.230   4.493
 7201SOL    HW222503   1.113   5.222   4.511
 7202SOL     OW22504   5.367   7.026   0.075
 7202SOL    HW122505   5.310   6.975   0.140
 7202SOL    HW222506   5.310   0.063   0.025
 7203SOL     OW22507   0.347   1.953   0.911
 7203SOL    HW122508   0.313   1.937   0.818
 7203SOL    HW222509   0.393   2.042   0.915
 7204SOL     OW22510   0.416   6.778   5.717
 7204SOL    HW122511   0.404   6.793   5.619
 7204SOL    HW222512   0.513   6.782   5.740
 7205SOL     OW22513   1.048   4.548   3.791
 7205SOL    HW122514   1.114   4.496   3.737
 7205SOL    HW222515   1.010   4.490   3.863
 7206SOL     OW22516   1.265   0.480   1.721
 7206SOL    HW122517   1.184   0.497   1.777
 7206SOL    HW222518   1.320   0.408   1.763
 7207SOL     OW22519   3.696   0.453   2.582
 7207SOL    HW122520   3.704   0.376   2.518
 7207SOL    HW222521   3.625   0.515   2.550
 7208SOL     OW22522   3.835   0.091   3.138
 7208SOL    HW122523   3.924   0.135   3.148
 7208SOL    HW222524   3.779   0.108   3.220
 7209SOL     OW22525   2.843   3.525   1.335
 7209SOL    HW122526   2.858   3.440   1.284
 7209SOL    HW222527   2.749   3.527   1.369
 7210SOL     OW22528   4.516   1.309   4.026
 7210SOL    HW122529   4.466   1.223   4.029
 7210SOL    HW222530   4.451   1.385   4.025
 7211SOL     OW22531   2.937   6.430   4.703
 7211SOL    HW122532   2.886   6.362   4.650
 7211SOL    HW222533   2.873   6.498   4.740
 7212SOL     OW22534   0.534   5.920   4.830
 7212SOL    HW122535   0.459   5.882   4.774
 7212SOL    HW222536   0.608   5.949   4.770
 7213SOL     OW22537   5.446   6.301   0.255
 7213SOL    HW122538   5.470   6.207   0.278
 7213SOL    HW222539   5.431   6.309   0.157
 7214SOL     OW22540   6.373   5.835   5.609
 7214SOL    HW122541   6.455   5.891   5.617
 7214SOL    HW222542   6.334   5.845   5.518
 7215SOL     OW22543   0.070   3.743   4.893
 7215SOL    HW122544   0.020   3.776   4.813
 7215SOL    HW222545   0.167   3.734   4.871
 7216SOL     OW22546   3.225   6.949   0.047
 7216SOL    HW122547   3.258   6.861   0.015
 7216SOL    HW222548   3.297   6.993   0.102
 7217SOL     OW22549   1.914   4.429   3.268
 7217SOL    HW122550   1.989   4.423   3.201
 7217SOL    HW222551   1.846   4.494   3.235
 7218SOL     OW22552   5.649   3.087   5.406
 7218SOL    HW122553   5.572   3.052   5.355
 7218SOL    HW222554   5.617   3.146   5.481
 7219SOL     OW22555   4.522   0.114   3.450
 7219SOL    HW122556   4.476   0.137   3.536
 7219SOL    HW222557   4.464   0.141   3.373
 7220SOL     OW22558   1.266   4.890   5.116
 7220SOL    HW122559   1.184   4.858   5.069
 7220SOL    HW222560   1.343   4.829   5.097
 7221SOL     OW22561   3.510   6.030   4.847
 7221SOL    HW122562   3.428   6.003   4.897
 7221SOL    HW222563   3.494   6.022   4.749
 7222SOL     OW22564   5.561   6.922   2.918
 7222SOL    HW122565   5.639   6.878   2.962
 7222SOL    HW222566   5.487   6.933   2.985
 7223SOL     OW22567   2.936   1.141   1.011
 7223SOL    HW122568   2.891   1.229   0.998
 7223SOL    HW222569   2.869   1.073   1.042
 7224SOL     OW22570   5.543   1.602   3.719
 7224SOL    HW122571   5.606   1.667   3.677
 7224SOL    HW222572   5.450   1.622   3.689
 7225SOL     OW22573   1.118   5.077   0.548
 7225SOL    HW122574   1.113   5.130   0.463
 7225SOL    HW222575   1.130   5.138   0.625
 7226SOL     OW22576   6.836   1.703   1.324
 7226SOL    HW122577   6.740   1.732   1.331
 7226SOL    HW222578   6.862   1.655   1.408
 7227SOL     OW22579   1.702   1.624   0.762
 7227SOL    HW122580   1.742   1.700   0.710
 7227SOL    HW222581   1.706   1.644   0.860
 7228SOL     OW22582   1.264   1.959   2.840
 7228SOL    HW122583   1.302   2.011   2.916
 7228SOL    HW222584   1.194   1.896   2.873
 7229SOL     OW22585   1.605   6.185   5.999
 7229SOL    HW122586   1.562   6.108   6.045
 7229SOL    HW222587   1.573   6.271   6.040
 7230SOL     OW22588   3.768   5.231   4.505
 7230SOL    HW122589   3.768   5.131   4.510
 7230SOL    HW222590   3.712   5.267   4.579
 7231SOL     OW22591   3.988   0.833   6.955
 7231SOL    HW122592   3.992   0.912   7.015
 7231SOL    HW222593   3.957   0.861   6.864
 7232SOL     OW22594   5.246   5.926   3.516
 7232SOL    HW122595   5.247   5.898   3.419
 7232SOL    HW222596   5.293   5.856   3.570
 7233SOL     OW22597   0.681   1.613   4.222
 7233SOL    HW122598   0.658   1.520   4.250
 7233SOL    HW222599   0.758   1.646   4.277
 7234SOL     OW22600   5.458   3.162   3.814
 7234SOL    HW122601   5.548   3.118   3.808
 7234SOL    HW222602   5.455   3.239   3.750
 7235SOL     OW22603   6.829   4.476   2.357
 7235SOL    HW122604   6.898   4.460   2.286
 7235SOL    HW222605   6.738   4.477   2.316
 7236SOL     OW22606   1.977   1.682   1.229
 7236SOL    HW122607   1.930   1.597   1.251
 7236SOL    HW222608   2.062   1.688   1.281
 7237SOL     OW22609   4.299   0.949   5.197
 7237SOL    HW122610   4.356   0.871   5.221
 7237SOL    HW222611   4.320   0.978   5.103
 7238SOL     OW22612   3.688   1.894   1.027
 7238SOL    HW122613   3.683   1.987   0.993
 7238SOL    HW222614   3.775   1.880   1.074
 7239SOL     OW22615   1.321   2.574   2.793
 7239SOL    HW122616   1.223   2.579   2.771
 7239SOL    HW222617   1.346   2.650   2.853
 7240SOL     OW22618   1.843   6.033   6.011
 7240SOL    HW122619   1.917   6.062   5.950
 7240SOL    HW222620   1.757   6.075   5.983
 7241SOL     OW22621   1.694   0.912   0.641
 7241SOL    HW122622   1.692   0.812   0.637
 7241SOL    HW222623   1.756   0.946   0.570
 7242SOL     OW22624   6.761   6.115   0.404
 7242SOL    HW122625   6.750   6.060   0.487
 7242SOL    HW222626   6.820   6.066   0.340
 7243SOL     OW22627   6.434   4.491   6.082
 7243SOL    HW122628   6.415   4.393   6.072
 7243SOL    HW222629   6.347   4.541   6.083
 7244SOL     OW22630   5.859   1.501   1.624
 7244SOL    HW122631   5.853   1.409   1.664
 7244SOL    HW222632   5.952   1.536   1.636
 7245SOL     OW22633   1.261   1.803   4.668
 7245SOL    HW122634   1.221   1.711   4.668
 7245SOL    HW222635   1.245   1.846   4.579
 7246SOL     OW22636   6.793   0.025   4.556
 7246SOL    HW122637   6.715   0.028   4.618
 7246SOL    HW222638   6.775   6.988   4.483
 7247SOL     OW22639   2.616   0.598   4.340
 7247SOL    HW122640   2.588   0.605   4.244
 7247SOL    HW222641   2.547   0.548   4.391
 7248SOL     OW22642   2.280   1.575   3.403
 7248SOL    HW122643   2.364   1.579   3.457
 7248SOL    HW222644   2.303   1.568   3.306
 7249SOL     OW22645   6.612   4.582   2.694
 7249SOL    HW122646   6.654   4.650   2.633
 7249SOL    HW222647   6.527   4.550   2.654
 7250SOL     OW22648   4.731   6.843   6.424
 7250SOL    HW122649   4.673   6.901   6.366
 7250SOL    HW222650   4.813   6.894   6.450
 7251SOL     OW22651   0.508   6.383   5.887
 7251SOL    HW122652   0.472   6.406   5.796
 7251SOL    HW222653   0.435   6.389   5.955
 7252SOL     OW22654   3.627   3.613   3.046
 7252SOL    HW122655   3.626   3.684   3.117
 7252SOL    HW222656   3.670   3.531   3.081
 7253SOL     OW22657   2.357   6.442   6.406
 7253SOL    HW122658   2.328   6.530   6.443
 7253SOL    HW222659   2.417   6.396   6.472
 7254SOL     OW22660   4.472   5.011   3.843
 7254SOL    HW122661   4.375   5.033   3.846
 7254SOL    HW222662   4.504   5.015   3.749
 7255SOL     OW22663   3.575   3.213   0.544
 7255SOL    HW122664   3.500   3.276   0.566
 7255SOL    HW222665   3.640   3.258   0.483
 7256SOL     OW22666   4.053   4.796   4.232
 7256SOL    HW122667   3.972   4.845   4.266
 7256SOL    HW222668   4.126   4.801   4.300
 7257SOL     OW22669   5.744   3.229   3.723
 7257SOL    HW122670   5.837   3.261   3.744
 7257SOL    HW222671   5.744   3.186   3.632
 7258SOL     OW22672   4.069   1.401   3.390
 7258SOL    HW122673   3.973   1.427   3.387
 7258SOL    HW222674   4.126   1.483   3.397
 7259SOL     OW22675   2.637   3.486   1.095
 7259SOL    HW122676   2.557   3.473   1.153
 7259SOL    HW222677   2.617   3.556   1.026
 7260SOL     OW22678   3.380   1.742   1.970
 7260SOL    HW122679   3.287   1.725   2.002
 7260SOL    HW222680   3.382   1.741   1.870
 7261SOL     OW22681   1.519   2.340   1.444
 7261SOL    HW122682   1.591   2.409   1.433
 7261SOL    HW222683   1.443   2.378   1.495
 7262SOL     OW22684   5.067   1.591   5.693
 7262SOL    HW122685   5.000   1.527   5.656
 7262SOL    HW222686   5.120   1.545   5.764
 7263SOL     OW22687   0.843   6.831   0.756
 7263SOL    HW122688   0.793   6.860   0.675
 7263SOL    HW222689   0.918   6.770   0.729
 7264SOL     OW22690   5.775   1.471   6.376
 7264SOL    HW122691   5.684   1.434   6.363
 7264SOL    HW222692   5.820   1.479   6.287
 7265SOL     OW22693   5.734   5.077   5.836
 7265SOL    HW122694   5.787   5.066   5.752
 7265SOL    HW222695   5.752   5.001   5.898
 7266SOL     OW22696   5.986   0.063   1.415
 7266SOL    HW122697   5.933   0.015   1.345
 7266SOL    HW222698   6.042   0.134   1.371
 7267SOL     OW22699   6.448   5.846   5.213
 7267SOL    HW122700   6.441   5.749   5.239
 7267SOL    HW222701   6.356   5.885   5.208
 7268SOL     OW22702   5.124   5.253   3.496
 7268SOL    HW122703   5.212   5.211   3.473
 7268SOL    HW222704   5.105   5.241   3.593
 7269SOL     OW22705   0.236   6.617   0.584
 7269SOL    HW122706   0.200   6.576   0.501
 7269SOL    HW222707   0.311   6.562   0.620
 7270SOL     OW22708   1.142   3.571   5.363
 7270SOL    HW122709   1.111   3.536   5.275
 7270SOL    HW222710   1.240   3.555   5.373
 7271SOL     OW22711   0.214   6.229   3.528
 7271SOL    HW122712   0.186   6.158   3.593
 7271SOL    HW222713   0.292   6.196   3.476
 7272SOL     OW22714   5.456   5.291   2.339
 7272SOL    HW122715   5.474   5.318   2.434
 7272SOL    HW222716   5.520   5.218   2.314
 7273SOL     OW22717   5.652   4.138   2.189
 7273SOL    HW122718   5.618   4.085   2.111
 7273SOL    HW222719   5.751   4.134   2.191
 7274SOL     OW22720   0.862   5.829   0.100
 7274SOL    HW122721   0.879   5.875   0.013
 7274SOL    HW222722   0.931   5.857   0.167
 7275SOL     OW22723   6.413   0.133   2.551
 7275SOL    HW122724   6.505   0.097   2.571
 7275SOL    HW222725   6.357   0.126   2.634
 7276SOL     OW22726   3.662   1.672   3.045
 7276SOL    HW122727   3.644   1.660   3.143
 7276SOL    HW222728   3.628   1.761   3.016
 7277SOL     OW22729   4.618   0.693   3.960
 7277SOL    HW122730   4.572   0.607   3.938
 7277SOL    HW222731   4.555   0.753   4.009
 7278SOL     OW22732   3.235   2.500   1.567
 7278SOL    HW122733   3.327   2.510   1.603
 7278SOL    HW222734   3.178   2.452   1.634
 7279SOL     OW22735   4.122   3.599   6.070
 7279SOL    HW122736   4.083   3.535   6.137
 7279SOL    HW222737   4.083   3.690   6.085
 7280SOL     OW22738   0.291   1.503   4.272
 7280SOL    HW122739   0.218   1.466   4.214
 7280SOL    HW222740   0.327   1.587   4.232
 7281SOL     OW22741   1.677   0.770   0.339
 7281SOL    HW122742   1.587   0.810   0.320
 7281SOL    HW222743   1.667   0.670   0.345
 7282SOL     OW22744   5.916   6.754   1.307
 7282SOL    HW122745   5.960   6.669   1.332
 7282SOL    HW222746   5.981   6.813   1.259
 7283SOL     OW22747   3.631   0.565   1.944
 7283SOL    HW122748   3.721   0.524   1.927
 7283SOL    HW222749   3.619   0.645   1.885
 7284SOL     OW22750   0.009   1.885   4.925
 7284SOL    HW122751   0.022   1.848   4.833
 7284SOL    HW222752   6.941   1.907   4.939
 7285SOL     OW22753   5.850   3.426   1.317
 7285SOL    HW122754   5.847   3.327   1.327
 7285SOL    HW222755   5.771   3.456   1.263
 7286SOL     OW22756   1.140   0.725   1.241
 7286SOL    HW122757   1.193   0.808   1.225
 7286SOL    HW222758   1.202   0.647   1.244
 7287SOL     OW22759   6.252   2.647   4.850
 7287SOL    HW122760   6.341   2.645   4.896
 7287SOL    HW222761   6.233   2.557   4.811
 7288SOL     OW22762   1.435   1.912   1.288
 7288SOL    HW122763   1.473   2.005   1.287
 7288SOL    HW222764   1.510   1.846   1.300
 7289SOL     OW22765   5.931   2.272   3.654
 7289SOL    HW122766   5.928   2.358   3.706
 7289SOL    HW222767   5.959   2.198   3.715
 7290SOL     OW22768   2.130   1.316   5.189
 7290SOL    HW122769   2.158   1.402   5.144
 7290SOL    HW222770   2.040   1.328   5.231
 7291SOL     OW22771   1.829   0.064   0.529
 7291SOL    HW122772   1.771   0.053   0.610
 7291SOL    HW222773   1.922   0.089   0.557
 7292SOL     OW22774   3.344   0.412   3.006
 7292SOL    HW122775   3.416   0.343   3.003
 7292SOL    HW222776   3.378   0.494   3.054
 7293SOL     OW22777   1.039   1.437   5.581
 7293SOL    HW122778   1.118   1.391   5.542
 7293SOL    HW222779   0.960   1.376   5.578
 7294SOL     OW22780   3.179   4.768   0.649
 7294SOL    HW122781   3.279   4.773   0.649
 7294SOL    HW222782   3.151   4.672   0.640
 7295SOL     OW22783   6.689   4.239   0.743
 7295SOL    HW122784   6.668   4.195   0.656
 7295SOL    HW222785   6.608   4.287   0.777
 7296SOL     OW22786   4.252   5.418   1.436
 7296SOL    HW122787   4.189   5.347   1.403
 7296SOL    HW222788   4.200   5.488   1.485
 7297SOL     OW22789   3.027   6.494   1.385
 7297SOL    HW122790   2.945   6.548   1.400
 7297SOL    HW222791   3.097   6.550   1.341
 7298SOL     OW22792   4.617   5.169   5.967
 7298SOL    HW122793   4.561   5.095   5.931
 7298SOL    HW222794   4.652   5.143   6.057
 7299SOL     OW22795   1.103   2.290   0.943
 7299SOL    HW122796   1.022   2.340   0.973
 7299SOL    HW222797   1.179   2.354   0.933
 7300SOL     OW22798   0.804   0.056   2.374
 7300SOL    HW122799   0.718   0.072   2.423
 7300SOL    HW222800   0.875   0.030   2.439
 7301SOL     OW22801   5.460   2.564   5.297
 7301SOL    HW122802   5.542   2.619   5.313
 7301SOL    HW222803   5.384   2.624   5.269
 7302SOL     OW22804   0.131   2.187   6.239
 7302SOL    HW122805   0.126   2.175   6.338
 7302SOL    HW222806   0.151   2.282   6.217
 7303SOL     OW22807   3.696   1.275   6.550
 7303SOL    HW122808   3.649   1.321   6.474
 7303SOL    HW222809   3.629   1.247   6.618
 7304SOL     OW22810   3.098   5.089   1.259
 7304SOL    HW122811   3.023   5.024   1.245
 7304SOL    HW222812   3.106   5.111   1.356
 7305SOL     OW22813   5.307   2.084   1.349
 7305SOL    HW122814   5.283   1.991   1.378
 7305SOL    HW222815   5.293   2.093   1.251
 7306SOL     OW22816   3.658   1.849   1.596
 7306SOL    HW122817   3.713   1.887   1.522
 7306SOL    HW222818   3.699   1.872   1.684
 7307SOL     OW22819   3.567   6.359   2.528
 7307SOL    HW122820   3.527   6.304   2.601
 7307SOL    HW222821   3.545   6.319   2.439
 7308SOL     OW22822   6.333   1.878   4.421
 7308SOL    HW122823   6.236   1.888   4.442
 7308SOL    HW222824   6.358   1.939   4.345
 7309SOL     OW22825   4.057   5.949   1.406
 7309SOL    HW122826   4.149   5.917   1.382
 7309SOL    HW222827   4.062   6.015   1.480
 7310SOL     OW22828   2.190   3.261   0.325
 7310SOL    HW122829   2.092   3.255   0.344
 7310SOL    HW222830   2.236   3.179   0.357
 7311SOL     OW22831   1.588   1.107   0.803
 7311SOL    HW122832   1.585   1.196   0.757
 7311SOL    HW222833   1.627   1.039   0.741
 7312SOL     OW22834   1.191   2.851   4.710
 7312SOL    HW122835   1.258   2.782   4.685
 7312SOL    HW222836   1.226   2.907   4.785
 7313SOL     OW22837   1.971   1.371   0.237
 7313SOL    HW122838   2.004   1.303   0.303
 7313SOL    HW222839   1.930   1.447   0.286
 7314SOL     OW22840   6.817   3.995   5.963
 7314SOL    HW122841   6.903   4.025   6.004
 7314SOL    HW222842   6.758   4.075   5.947
 7315SOL     OW22843   5.060   5.724   1.524
 7315SOL    HW122844   5.112   5.664   1.463
 7315SOL    HW222845   4.977   5.756   1.478
 7316SOL     OW22846   2.861   3.007   6.448
 7316SOL    HW122847   2.791   2.944   6.415
 7316SOL    HW222848   2.933   3.015   6.379
 7317SOL     OW22849   3.756   1.427   1.628
 7317SOL    HW122850   3.773   1.495   1.700
 7317SOL    HW222851   3.661   1.399   1.631
 7318SOL     OW22852   3.265   0.238   1.984
 7318SOL    HW122853   3.252   0.180   2.064
 7318SOL    HW222854   3.191   0.221   1.918
 7319SOL     OW22855   5.802   3.200   6.958
 7319SOL    HW122856   5.735   3.235   7.023
 7319SOL    HW222857   5.774   3.110   6.926
 7320SOL     OW22858   0.351   3.897   1.132
 7320SOL    HW122859   0.427   3.857   1.182
 7320SOL    HW222860   0.288   3.941   1.196
 7321SOL     OW22861   2.383   6.615   5.688
 7321SOL    HW122862   2.339   6.704   5.703
 7321SOL    HW222863   2.327   6.543   5.729
 7322SOL     OW22864   0.260   2.736   2.953
 7322SOL    HW122865   0.178   2.742   2.896
 7322SOL    HW222866   0.295   2.643   2.950
 7323SOL     OW22867   2.063   2.945   1.787
 7323SOL    HW122868   2.083   2.925   1.691
 7323SOL    HW222869   2.090   3.039   1.807
 7324SOL     OW22870   5.733   4.396   2.165
 7324SOL    HW122871   5.718   4.448   2.081
 7324SOL    HW222872   5.693   4.305   2.157
 7325SOL     OW22873   3.069   0.562   5.745
 7325SOL    HW122874   3.048   0.593   5.652
 7325SOL    HW222875   2.986   0.527   5.788
 7326SOL     OW22876   3.739   6.028   5.634
 7326SOL    HW122877   3.720   5.977   5.551
 7326SOL    HW222878   3.797   6.107   5.612
 7327SOL     OW22879   6.137   3.024   5.026
 7327SOL    HW122880   6.111   3.120   5.019
 7327SOL    HW222881   6.060   2.971   5.063
 7328SOL     OW22882   4.727   6.792   5.951
 7328SOL    HW122883   4.646   6.756   5.906
 7328SOL    HW222884   4.732   6.756   6.044
 7329SOL     OW22885   1.004   4.165   0.705
 7329SOL    HW122886   0.930   4.098   0.693
 7329SOL    HW222887   1.024   4.174   0.802
 7330SOL     OW22888   2.359   3.476   0.286
 7330SOL    HW122889   2.453   3.446   0.297
 7330SOL    HW222890   2.298   3.396   0.289
 7331SOL     OW22891   5.570   6.302   1.392
 7331SOL    HW122892   5.492   6.315   1.453
 7331SOL    HW222893   5.552   6.348   1.305
 7332SOL     OW22894   2.957   4.722   6.680
 7332SOL    HW122895   2.894   4.671   6.739
 7332SOL    HW222896   3.002   4.793   6.733
 7333SOL     OW22897   6.214   2.773   3.731
 7333SOL    HW122898   6.229   2.677   3.711
 7333SOL    HW222899   6.137   2.807   3.676
 7334SOL     OW22900   2.104   6.269   6.422
 7334SOL    HW122901   2.048   6.219   6.356
 7334SOL    HW222902   2.200   6.265   6.394
 7335SOL     OW22903   0.454   2.992   2.683
 7335SOL    HW122904   0.525   3.061   2.670
 7335SOL    HW222905   0.422   2.996   2.778
 7336SOL     OW22906   2.220   6.623   2.318
 7336SOL    HW122907   2.237   6.634   2.416
 7336SOL    HW222908   2.302   6.588   2.273
 7337SOL     OW22909   1.823   2.824   1.888
 7337SOL    HW122910   1.921   2.841   1.884
 7337SOL    HW222911   1.791   2.835   1.982
 7338SOL     OW22912   5.860   1.952   1.898
 7338SOL    HW122913   5.847   1.854   1.912
 7338SOL    HW222914   5.821   1.979   1.810
 7339SOL     OW22915   6.120   0.368   5.140
 7339SOL    HW122916   6.101   0.419   5.224
 7339SOL    HW222917   6.042   0.308   5.119
 7340SOL     OW22918   3.803   1.320   0.105
 7340SOL    HW122919   3.871   1.276   0.045
 7340SOL    HW222920   3.765   1.252   0.168
 7341SOL     OW22921   1.144   4.556   4.722
 7341SOL    HW122922   1.127   4.464   4.686
 7341SOL    HW222923   1.185   4.549   4.812
 7342SOL     OW22924   0.004   6.582   6.927
 7342SOL    HW122925   6.973   6.598   7.006
 7342SOL    HW222926   6.976   6.571   6.845
 7343SOL     OW22927   5.485   4.615   1.678
 7343SOL    HW122928   5.556   4.620   1.607
 7343SOL    HW222929   5.451   4.707   1.697
 7344SOL     OW22930   1.367   0.612   5.785
 7344SOL    HW122931   1.431   0.589   5.857
 7344SOL    HW222932   1.417   0.636   5.702
 7345SOL     OW22933   4.724   6.019   5.255
 7345SOL    HW122934   4.716   5.920   5.253
 7345SOL    HW222935   4.748   6.053   5.164
 7346SOL     OW22936   4.173   3.966   1.295
 7346SOL    HW122937   4.117   4.030   1.241
 7346SOL    HW222938   4.256   4.013   1.326
 7347SOL     OW22939   0.703   3.252   0.783
 7347SOL    HW122940   0.778   3.281   0.842
 7347SOL    HW222941   0.616   3.262   0.832
 7348SOL     OW22942   1.283   3.427   3.527
 7348SOL    HW122943   1.380   3.429   3.551
 7348SOL    HW222944   1.228   3.432   3.611
 7349SOL     OW22945   4.621   2.340   0.594
 7349SOL    HW122946   4.601   2.293   0.508
 7349SOL    HW222947   4.616   2.275   0.670
 7350SOL     OW22948   1.735   3.525   5.352
 7350SOL    HW122949   1.767   3.432   5.372
 7350SOL    HW222950   1.731   3.538   5.253
 7351SOL     OW22951   4.813   6.079   4.997
 7351SOL    HW122952   4.773   6.170   4.987
 7351SOL    HW222953   4.869   6.059   4.916
 7352SOL     OW22954   1.727   2.902   2.882
 7352SOL    HW122955   1.651   2.963   2.903
 7352SOL    HW222956   1.749   2.909   2.784
 7353SOL     OW22957   0.156   6.740   5.826
 7353SOL    HW122958   0.090   6.810   5.799
 7353SOL    HW222959   0.232   6.738   5.760
 7354SOL     OW22960   1.050   1.892   7.013
 7354SOL    HW122961   1.030   1.863   0.078
 7354SOL    HW222962   1.147   1.877   6.994
 7355SOL     OW22963   1.283   1.567   0.364
 7355SOL    HW122964   1.233   1.611   0.290
 7355SOL    HW222965   1.380   1.562   0.340
 7356SOL     OW22966   4.250   3.195   5.883
 7356SOL    HW122967   4.326   3.191   5.818
 7356SOL    HW222968   4.174   3.140   5.848
 7357SOL     OW22969   4.687   0.253   1.892
 7357SOL    HW122970   4.636   0.196   1.956
 7357SOL    HW222971   4.780   0.217   1.883
 7358SOL     OW22972   0.297   2.867   2.504
 7358SOL    HW122973   0.370   2.912   2.556
 7358SOL    HW222974   0.210   2.877   2.552
 7359SOL     OW22975   2.683   2.746   6.414
 7359SOL    HW122976   2.662   2.649   6.402
 7359SOL    HW222977   2.679   2.792   6.325
 7360SOL     OW22978   3.510   3.981   6.114
 7360SOL    HW122979   3.479   3.889   6.092
 7360SOL    HW222980   3.482   4.044   6.041
 7361SOL     OW22981   4.143   0.191   2.142
 7361SOL    HW122982   4.163   0.212   2.238
 7361SOL    HW222983   4.070   0.123   2.137
 7362SOL     OW22984   1.084   5.535   4.608
 7362SOL    HW122985   1.127   5.469   4.546
 7362SOL    HW222986   1.092   5.627   4.568
 7363SOL     OW22987   4.076   1.499   1.199
 7363SOL    HW122988   4.156   1.516   1.142
 7363SOL    HW222989   3.993   1.523   1.148
 7364SOL     OW22990   4.655   0.624   1.198
 7364SOL    HW122991   4.625   0.684   1.273
 7364SOL    HW222992   4.726   0.670   1.145
 7365SOL     OW22993   1.644   0.108   1.786
 7365SOL    HW122994   1.682   0.070   1.702
 7365SOL    HW222995   1.714   0.161   1.834
 7366SOL     OW22996   2.105   5.902   0.005
 7366SOL    HW122997   2.201   5.912   7.008
 7366SOL    HW222998   2.098   5.844   0.086
 7367SOL     OW22999   4.711   3.716   1.616
 7367SOL    HW123000   4.671   3.798   1.656
 7367SOL    HW223001   4.668   3.635   1.657
 7368SOL     OW23002   3.826   2.985   3.782
 7368SOL    HW123003   3.773   2.959   3.863
 7368SOL    HW223004   3.893   3.054   3.807
 7369SOL     OW23005   4.336   2.969   6.910
 7369SOL    HW123006   4.277   3.036   6.956
 7369SOL    HW223007   4.284   2.920   6.841
 7370SOL     OW23008   3.046   0.670   4.875
 7370SOL    HW123009   3.099   0.752   4.898
 7370SOL    HW223010   3.040   0.662   4.775
 7371SOL     OW23011   1.944   5.974   3.636
 7371SOL    HW123012   1.902   6.054   3.594
 7371SOL    HW223013   2.033   5.957   3.593
 7372SOL     OW23014   3.674   1.434   5.681
 7372SOL    HW123015   3.660   1.500   5.606
 7372SOL    HW223016   3.754   1.461   5.733
 7373SOL     OW23017   5.610   1.464   4.490
 7373SOL    HW123018   5.586   1.380   4.538
 7373SOL    HW223019   5.624   1.445   4.393
 7374SOL     OW23020   3.023   1.489   5.905
 7374SOL    HW123021   3.064   1.577   5.926
 7374SOL    HW223022   2.975   1.455   5.986
 7375SOL     OW23023   2.181   3.013   2.930
 7375SOL    HW123024   2.177   3.050   3.023
 7375SOL    HW223025   2.192   3.087   2.865
 7376SOL     OW23026   3.714   1.597   0.119
 7376SOL    HW123027   3.634   1.596   0.179
 7376SOL    HW223028   3.744   1.503   0.102
 7377SOL     OW23029   5.381   5.046   1.015
 7377SOL    HW123030   5.367   4.948   0.999
 7377SOL    HW223031   5.439   5.084   0.943
 7378SOL     OW23032   0.896   0.979   5.444
 7378SOL    HW123033   0.859   0.926   5.520
 7378SOL    HW223034   0.993   0.958   5.433
 7379SOL     OW23035   3.087   2.188   2.877
 7379SOL    HW123036   3.028   2.250   2.928
 7379SOL    HW223037   3.070   2.199   2.779
 7380SOL     OW23038   0.333   3.128   5.435
 7380SOL    HW123039   0.425   3.107   5.402
 7380SOL    HW223040   0.336   3.140   5.535
 7381SOL     OW23041   4.896   3.672   2.132
 7381SOL    HW123042   4.921   3.610   2.058
 7381SOL    HW223043   4.885   3.765   2.096
 7382SOL     OW23044   0.295   5.336   6.366
 7382SOL    HW123045   0.320   5.319   6.271
 7382SOL    HW223046   0.198   5.355   6.373
 7383SOL     OW23047   0.865   6.850   1.303
 7383SOL    HW123048   0.936   6.879   1.239
 7383SOL    HW223049   0.777   6.889   1.275
 7384SOL     OW23050   5.651   0.714   3.338
 7384SOL    HW123051   5.637   0.660   3.421
 7384SOL    HW223052   5.740   0.692   3.299
 7385SOL     OW23053   4.387   5.712   1.819
 7385SOL    HW123054   4.356   5.773   1.892
 7385SOL    HW223055   4.485   5.695   1.829
 7386SOL     OW23056   0.945   2.081   5.424
 7386SOL    HW123057   0.968   2.106   5.330
 7386SOL    HW223058   0.911   1.987   5.426
 7387SOL     OW23059   4.575   6.201   3.894
 7387SOL    HW123060   4.590   6.298   3.911
 7387SOL    HW223061   4.499   6.189   3.831
 7388SOL     OW23062   0.149   4.731   2.762
 7388SOL    HW123063   0.095   4.669   2.705
 7388SOL    HW223064   0.132   4.710   2.859
 7389SOL     OW23065   0.493   3.148   6.507
 7389SOL    HW123066   0.535   3.096   6.432
 7389SOL    HW223067   0.465   3.238   6.473
 7390SOL     OW23068   2.138   1.407   0.015
 7390SOL    HW123069   2.237   1.398   0.029
 7390SOL    HW223070   2.091   1.392   0.102
 7391SOL     OW23071   4.574   4.007   5.372
 7391SOL    HW123072   4.617   4.045   5.454
 7391SOL    HW223073   4.495   3.952   5.399
 7392SOL     OW23074   2.401   6.243   6.942
 7392SOL    HW123075   2.302   6.254   6.950
 7392SOL    HW223076   2.444   6.254   0.003
 7393SOL     OW23077   5.165   4.695   1.818
 7393SOL    HW123078   5.237   4.753   1.856
 7393SOL    HW223079   5.181   4.600   1.845
 7394SOL     OW23080   2.877   2.532   5.855
 7394SOL    HW123081   2.844   2.586   5.778
 7394SOL    HW223082   2.887   2.590   5.935
 7395SOL     OW23083   2.082   1.788   0.298
 7395SOL    HW123084   2.060   1.760   0.392
 7395SOL    HW223085   2.107   1.707   0.245
 7396SOL     OW23086   0.895   6.601   0.451
 7396SOL    HW123087   0.964   6.657   0.407
 7396SOL    HW223088   0.804   6.632   0.423
 7397SOL     OW23089   4.265   4.929   4.880
 7397SOL    HW123090   4.267   4.878   4.966
 7397SOL    HW223091   4.196   5.001   4.886
 7398SOL     OW23092   2.494   4.806   4.592
 7398SOL    HW123093   2.457   4.799   4.685
 7398SOL    HW223094   2.522   4.715   4.561
 7399SOL     OW23095   1.428   2.299   5.590
 7399SOL    HW123096   1.394   2.380   5.542
 7399SOL    HW223097   1.352   2.238   5.610
 7400SOL     OW23098   4.261   3.197   6.158
 7400SOL    HW123099   4.253   3.184   6.059
 7400SOL    HW223100   4.191   3.261   6.189
 7401SOL     OW23101   1.731   0.523   4.329
 7401SOL    HW123102   1.774   0.464   4.260
 7401SOL    HW223103   1.703   0.467   4.408
 7402SOL     OW23104   3.381   5.809   6.129
 7402SOL    HW123105   3.461   5.808   6.069
 7402SOL    HW223106   3.334   5.721   6.124
 7403SOL     OW23107   2.136   4.030   2.599
 7403SOL    HW123108   2.038   4.046   2.606
 7403SOL    HW223109   2.162   3.954   2.659
 7404SOL     OW23110   2.395   5.434   1.233
 7404SOL    HW123111   2.362   5.525   1.209
 7404SOL    HW223112   2.358   5.367   1.169
 7405SOL     OW23113   3.683   4.955   3.987
 7405SOL    HW123114   3.609   4.924   3.927
 7405SOL    HW223115   3.658   4.938   4.083
 7406SOL     OW23116   0.750   3.336   3.228
 7406SOL    HW123117   0.683   3.262   3.238
 7406SOL    HW223118   0.779   3.367   3.319
 7407SOL     OW23119   0.131   6.178   4.614
 7407SOL    HW123120   0.056   6.165   4.678
 7407SOL    HW223121   0.173   6.089   4.593
 7408SOL     OW23122   2.153   4.251   6.636
 7408SOL    HW123123   2.147   4.282   6.541
 7408SOL    HW223124   2.220   4.178   6.643
 7409SOL     OW23125   0.561   1.624   6.341
 7409SOL    HW123126   0.524   1.566   6.268
 7409SOL    HW223127   0.657   1.600   6.356
 7410SOL     OW23128   0.068   5.937   1.207
 7410SOL    HW123129   0.059   6.031   1.174
 7410SOL    HW223130   7.014   5.886   1.186
 7411SOL     OW23131   2.998   0.397   4.499
 7411SOL    HW123132   3.059   0.348   4.436
 7411SOL    HW223133   2.911   0.349   4.504
 7412SOL     OW23134   4.755   0.429   2.342
 7412SOL    HW123135   4.836   0.371   2.330
 7412SOL    HW223136   4.730   0.433   2.438
 7413SOL     OW23137   4.975   6.051   4.783
 7413SOL    HW123138   5.056   6.000   4.756
 7413SOL    HW223139   4.975   6.140   4.737
 7414SOL     OW23140   0.605   0.214   3.672
 7414SOL    HW123141   0.603   0.135   3.733
 7414SOL    HW223142   0.519   0.219   3.621
 7415SOL     OW23143   1.829   4.122   4.176
 7415SOL    HW123144   1.897   4.190   4.148
 7415SOL    HW223145   1.840   4.039   4.122
 7416SOL     OW23146   2.441   1.718   3.990
 7416SOL    HW123147   2.451   1.622   4.019
 7416SOL    HW223148   2.531   1.761   3.988
 7417SOL     OW23149   2.001   0.866   6.312
 7417SOL    HW123150   2.086   0.830   6.349
 7417SOL    HW223151   1.932   0.872   6.384
 7418SOL     OW23152   3.126   5.953   0.846
 7418SOL    HW123153   3.040   5.981   0.802
 7418SOL    HW223154   3.161   6.029   0.901
 7419SOL     OW23155   5.757   3.171   4.976
 7419SOL    HW123156   5.693   3.224   5.032
 7419SOL    HW223157   5.717   3.153   4.886
 7420SOL     OW23158   0.797   0.013   2.114
 7420SOL    HW123159   0.857   6.965   2.090
 7420SOL    HW223160   0.797   0.027   2.213
 7421SOL     OW23161   3.389   3.411   0.627
 7421SOL    HW123162   3.301   3.422   0.673
 7421SOL    HW223163   3.440   3.497   0.631
 7422SOL     OW23164   0.355   3.218   2.553
 7422SOL    HW123165   0.382   3.122   2.560
 7422SOL    HW223166   0.386   3.267   2.635
 7423SOL     OW23167   6.516   4.596   5.498
 7423SOL    HW123168   6.596   4.549   5.537
 7423SOL    HW223169   6.453   4.622   5.571
 7424SOL     OW23170   0.085   0.002   5.553
 7424SOL    HW123171   0.108   6.942   5.513
 7424SOL    HW223172   0.124   0.075   5.497
 7425SOL     OW23173   4.622   5.684   6.821
 7425SOL    HW123174   4.558   5.697   6.896
 7425SOL    HW223175   4.669   5.597   6.832
 7426SOL     OW23176   2.215   0.913   5.951
 7426SOL    HW123177   2.219   0.973   6.031
 7426SOL    HW223178   2.124   0.917   5.911
 7427SOL     OW23179   3.311   7.008   4.209
 7427SOL    HW123180   3.362   0.058   4.174
 7427SOL    HW223181   3.216   7.013   4.179
 7428SOL     OW23182   4.353   1.163   6.230
 7428SOL    HW123183   4.310   1.250   6.253
 7428SOL    HW223184   4.299   1.087   6.267
 7429SOL     OW23185   6.512   6.744   3.332
 7429SOL    HW123186   6.574   6.809   3.376
 7429SOL    HW223187   6.429   6.793   3.304
 7430SOL     OW23188   0.991   3.522   6.710
 7430SOL    HW123189   0.962   3.469   6.630
 7430SOL    HW223190   0.980   3.466   6.792
 7431SOL     OW23191   0.879   3.036   2.863
 7431SOL    HW123192   0.894   2.984   2.947
 7431SOL    HW223193   0.907   3.131   2.877
 7432SOL     OW23194   0.442   0.575   3.110
 7432SOL    HW123195   0.503   0.646   3.074
 7432SOL    HW223196   0.493   0.490   3.121
 7433SOL     OW23197   4.936   5.114   6.254
 7433SOL    HW123198   4.842   5.092   6.228
 7433SOL    HW223199   4.980   5.167   6.180
 7434SOL     OW23200   5.624   0.107   5.651
 7434SOL    HW123201   5.607   0.034   5.717
 7434SOL    HW223202   5.699   0.164   5.682
 7435SOL     OW23203   3.577   5.844   0.702
 7435SOL    HW123204   3.494   5.788   0.702
 7435SOL    HW223205   3.593   5.881   0.610
 7436SOL     OW23206   5.685   3.604   6.983
 7436SOL    HW123207   5.609   3.559   0.003
 7436SOL    HW223208   5.679   3.582   6.886
 7437SOL     OW23209   0.966   6.370   0.575
 7437SOL    HW123210   0.894   6.361   0.644
 7437SOL    HW223211   0.953   6.455   0.524
 7438SOL     OW23212   0.744   5.362   0.207
 7438SOL    HW123213   0.718   5.399   0.117
 7438SOL    HW223214   0.827   5.308   0.197
 7439SOL     OW23215   1.804   5.888   5.094
 7439SOL    HW123216   1.720   5.837   5.112
 7439SOL    HW223217   1.876   5.824   5.066
 7440SOL     OW23218   6.875   3.659   4.711
 7440SOL    HW123219   6.893   3.673   4.614
 7440SOL    HW223220   6.845   3.745   4.752
 7441SOL     OW23221   5.496   6.551   4.104
 7441SOL    HW123222   5.405   6.591   4.110
 7441SOL    HW223223   5.500   6.469   4.161
 7442SOL     OW23224   0.109   0.736   6.025
 7442SOL    HW123225   0.035   0.671   6.007
 7442SOL    HW223226   0.169   0.699   6.097
 7443SOL     OW23227   0.313   0.466   2.514
 7443SOL    HW123228   0.311   0.486   2.612
 7443SOL    HW223229   0.305   0.551   2.462
 7444SOL     OW23230   6.203   2.823   5.537
 7444SOL    HW123231   6.187   2.745   5.476
 7444SOL    HW223232   6.240   2.899   5.484
 7445SOL     OW23233   3.745   1.140   1.258
 7445SOL    HW123234   3.780   1.072   1.323
 7445SOL    HW223235   3.786   1.228   1.278
 7446SOL     OW23236   5.538   3.995   1.009
 7446SOL    HW123237   5.613   4.058   1.032
 7446SOL    HW223238   5.565   3.938   0.931
 7447SOL     OW23239   0.520   3.902   6.064
 7447SOL    HW123240   0.615   3.875   6.085
 7447SOL    HW223241   0.463   3.820   6.060
 7448SOL     OW23242   6.262   6.796   5.748
 7448SOL    HW123243   6.192   6.765   5.684
 7448SOL    HW223244   6.339   6.733   5.746
 7449SOL     OW23245   6.389   3.536   1.666
 7449SOL    HW123246   6.404   3.528   1.765
 7449SOL    HW223247   6.355   3.628   1.645
 7450SOL     OW23248   5.402   2.067   4.580
 7450SOL    HW123249   5.451   1.990   4.622
 7450SOL    HW223250   5.336   2.032   4.514
 7451SOL     OW23251   0.297   0.026   3.445
 7451SOL    HW123252   0.383   7.021   3.409
 7451SOL    HW223253   0.275   0.115   3.403
 7452SOL     OW23254   0.760   6.233   4.890
 7452SOL    HW123255   0.837   6.170   4.899
 7452SOL    HW223256   0.680   6.194   4.937
 7453SOL     OW23257   4.606   6.590   5.472
 7453SOL    HW123258   4.546   6.645   5.413
 7453SOL    HW223259   4.550   6.539   5.538
 7454SOL     OW23260   0.470   2.593   2.103
 7454SOL    HW123261   0.413   2.674   2.112
 7454SOL    HW223262   0.549   2.600   2.163
 7455SOL     OW23263   6.681   1.568   2.450
 7455SOL    HW123264   6.777   1.593   2.437
 7455SOL    HW223265   6.673   1.512   2.533
 7456SOL     OW23266   0.436   1.758   4.183
 7456SOL    HW123267   0.475   1.807   4.105
 7456SOL    HW223268   0.509   1.712   4.233
 7457SOL     OW23269   3.827   0.010   5.948
 7457SOL    HW123270   3.811   0.047   6.040
 7457SOL    HW223271   3.847   6.941   5.956
 7458SOL     OW23272   2.104   0.093   5.965
 7458SOL    HW123273   2.012   0.075   5.931
 7458SOL    HW223274   2.162   0.013   5.947
 7459SOL     OW23275   5.235   0.729   1.860
 7459SOL    HW123276   5.136   0.737   1.864
 7459SOL    HW223277   5.267   0.676   1.939
 7460SOL     OW23278   2.058   5.607   1.237
 7460SOL    HW123279   1.970   5.622   1.281
 7460SOL    HW223280   2.049   5.622   1.139
 7461SOL     OW23281   6.249   1.535   5.905
 7461SOL    HW123282   6.270   1.453   5.958
 7461SOL    HW223283   6.325   1.599   5.911
 7462SOL     OW23284   1.662   4.026   2.331
 7462SOL    HW123285   1.592   4.087   2.292
 7462SOL    HW223286   1.635   3.998   2.422
 7463SOL     OW23287   2.843   4.754   0.777
 7463SOL    HW123288   2.912   4.825   0.760
 7463SOL    HW223289   2.876   4.692   0.847
 7464SOL     OW23290   4.802   0.329   6.498
 7464SOL    HW123291   4.885   0.371   6.534
 7464SOL    HW223292   4.792   0.237   6.536
 7465SOL     OW23293   1.065   5.582   0.120
 7465SOL    HW123294   1.156   5.620   0.136
 7465SOL    HW223295   1.017   5.571   0.207
 7466SOL     OW23296   0.582   0.378   5.863
 7466SOL    HW123297   0.661   0.407   5.917
 7466SOL    HW223298   0.585   0.279   5.850
 7467SOL     OW23299   0.068   2.154   0.806
 7467SOL    HW123300   0.122   2.071   0.823
 7467SOL    HW223301   0.083   2.219   0.881
 7468SOL     OW23302   5.807   2.412   3.997
 7468SOL    HW123303   5.868   2.377   4.068
 7468SOL    HW223304   5.856   2.479   3.940
 7469SOL     OW23305   0.307   1.007   0.723
 7469SOL    HW123306   0.261   1.020   0.811
 7469SOL    HW223307   0.398   1.049   0.727
 7470SOL     OW23308   7.024   3.341   3.826
 7470SOL    HW123309   0.007   3.439   3.814
 7470SOL    HW223310   0.076   3.293   3.791
 7471SOL     OW23311   6.895   5.994   6.034
 7471SOL    HW123312   6.847   5.930   6.094
 7471SOL    HW223313   6.956   6.051   6.088
 7472SOL     OW23314   5.627   0.330   4.611
 7472SOL    HW123315   5.714   0.340   4.660
 7472SOL    HW223316   5.632   0.251   4.550
 7473SOL     OW23317   6.761   4.766   3.163
 7473SOL    HW123318   6.729   4.842   3.219
 7473SOL    HW223319   6.849   4.790   3.121
 7474SOL     OW23320   1.955   1.574   5.241
 7474SOL    HW123321   2.007   1.639   5.186
 7474SOL    HW223322   1.881   1.622   5.289
 7475SOL     OW23323   4.460   1.724   2.269
 7475SOL    HW123324   4.386   1.791   2.259
 7475SOL    HW223325   4.547   1.767   2.243
 7476SOL     OW23326   3.198   5.996   3.415
 7476SOL    HW123327   3.181   6.093   3.428
 7476SOL    HW223328   3.129   5.943   3.463
 7477SOL     OW23329   0.145   0.595   5.068
 7477SOL    HW123330   0.071   0.647   5.110
 7477SOL    HW223331   0.160   0.628   4.975
 7478SOL     OW23332   5.128   5.551   6.463
 7478SOL    HW123333   5.048   5.515   6.511
 7478SOL    HW223334   5.101   5.576   6.370
 7479SOL     OW23335   4.120   2.346   1.713
 7479SOL    HW123336   4.204   2.292   1.725
 7479SOL    HW223337   4.137   2.420   1.649
 7480SOL     OW23338   0.073   3.933   1.839
 7480SOL    HW123339   0.011   3.856   1.854
 7480SOL    HW223340   0.066   3.997   1.915
 7481SOL     OW23341   6.142   5.398   1.322
 7481SOL    HW123342   6.113   5.339   1.246
 7481SOL    HW223343   6.090   5.374   1.404
 7482SOL     OW23344   4.084   2.132   3.072
 7482SOL    HW123345   4.151   2.201   3.098
 7482SOL    HW223346   4.035   2.162   2.989
 7483SOL     OW23347   5.046   3.260   4.790
 7483SOL    HW123348   5.023   3.354   4.815
 7483SOL    HW223349   5.130   3.233   4.836
 7484SOL     OW23350   0.959   1.322   3.369
 7484SOL    HW123351   0.888   1.256   3.345
 7484SOL    HW223352   0.918   1.403   3.411
 7485SOL     OW23353   3.383   0.663   4.963
 7485SOL    HW123354   3.326   0.739   4.933
 7485SOL    HW223355   3.350   0.578   4.921
 7486SOL     OW23356   2.120   0.263   6.834
 7486SOL    HW123357   2.207   0.298   6.798
 7486SOL    HW223358   2.066   0.224   6.759
 7487SOL     OW23359   2.494   6.217   2.719
 7487SOL    HW123360   2.474   6.269   2.636
 7487SOL    HW223361   2.495   6.279   2.797
 7488SOL     OW23362   2.148   6.835   4.027
 7488SOL    HW123363   2.117   6.766   4.093
 7488SOL    HW223364   2.119   6.807   3.935
 7489SOL     OW23365   5.098   2.583   4.356
 7489SOL    HW123366   5.156   2.512   4.397
 7489SOL    HW223367   5.153   2.665   4.341
 7490SOL     OW23368   1.294   0.647   1.976
 7490SOL    HW123369   1.304   0.548   1.973
 7490SOL    HW223370   1.382   0.688   2.001
 7491SOL     OW23371   5.964   2.599   6.007
 7491SOL    HW123372   5.963   2.624   5.910
 7491SOL    HW223373   5.940   2.502   6.017
 7492SOL     OW23374   1.778   0.653   3.428
 7492SOL    HW123375   1.747   0.693   3.515
 7492SOL    HW223376   1.714   0.582   3.400
 7493SOL     OW23377   0.227   3.652   6.794
 7493SOL    HW123378   0.187   3.562   6.780
 7493SOL    HW223379   0.289   3.674   6.718
 7494SOL     OW23380   5.162   0.971   2.801
 7494SOL    HW123381   5.229   0.910   2.843
 7494SOL    HW223382   5.123   1.031   2.871
 7495SOL     OW23383   1.453   1.365   0.103
 7495SOL    HW123384   1.462   1.420   0.186
 7495SOL    HW223385   1.544   1.354   0.061
 7496SOL     OW23386   6.608   3.485   6.245
 7496SOL    HW123387   6.574   3.391   6.246
 7496SOL    HW223388   6.706   3.485   6.227
 7497SOL     OW23389   2.187   4.297   0.176
 7497SOL    HW123390   2.169   4.284   0.274
 7497SOL    HW223391   2.103   4.279   0.125
 7498SOL     OW23392   2.694   1.051   5.754
 7498SOL    HW123393   2.756   1.106   5.809
 7498SOL    HW223394   2.613   1.104   5.731
 7499SOL     OW23395   3.536   2.145   3.170
 7499SOL    HW123396   3.542   2.135   3.270
 7499SOL    HW223397   3.440   2.143   3.143
 7500SOL     OW23398   3.225   5.558   3.584
 7500SOL    HW123399   3.278   5.630   3.627
 7500SOL    HW223400   3.256   5.544   3.490
 7501SOL     OW23401   5.663   4.273   4.560
 7501SOL    HW123402   5.569   4.261   4.593
 7501SOL    HW223403   5.683   4.204   4.490
 7502SOL     OW23404   1.702   0.201   3.780
 7502SOL    HW123405   1.734   0.279   3.834
 7502SOL    HW223406   1.620   0.163   3.823
 7503SOL     OW23407   3.178   1.611   0.792
 7503SOL    HW123408   3.212   1.630   0.699
 7503SOL    HW223409   3.175   1.512   0.807
 7504SOL     OW23410   1.422   0.142   2.968
 7504SOL    HW123411   1.363   0.161   3.047
 7504SOL    HW223412   1.366   0.130   2.887
 7505SOL     OW23413   1.720   1.448   5.663
 7505SOL    HW123414   1.709   1.462   5.761
 7505SOL    HW223415   1.630   1.441   5.620
 7506SOL     OW23416   5.513   0.488   3.225
 7506SOL    HW123417   5.539   0.581   3.252
 7506SOL    HW223418   5.557   0.466   3.138
 7507SOL     OW23419   0.922   0.677   2.077
 7507SOL    HW123420   0.869   0.759   2.099
 7507SOL    HW223421   0.980   0.652   2.154
 7508SOL     OW23422   0.818   6.620   1.779
 7508SOL    HW123423   0.746   6.551   1.772
 7508SOL    HW223424   0.886   6.604   1.707
 7509SOL     OW23425   5.101   4.435   0.397
 7509SOL    HW123426   5.076   4.531   0.412
 7509SOL    HW223427   5.020   4.384   0.369
 7510SOL     OW23428   3.730   4.140   5.515
 7510SOL    HW123429   3.717   4.086   5.599
 7510SOL    HW223430   3.650   4.129   5.456
 7511SOL     OW23431   2.837   6.945   3.875
 7511SOL    HW123432   2.827   7.000   3.958
 7511SOL    HW223433   2.749   6.943   3.826
 7512SOL     OW23434   2.804   6.387   6.447
 7512SOL    HW123435   2.879   6.323   6.428
 7512SOL    HW223436   2.813   6.467   6.387
 7513SOL     OW23437   2.632   0.252   1.449
 7513SOL    HW123438   2.637   0.347   1.418
 7513SOL    HW223439   2.558   0.242   1.516
 7514SOL     OW23440   2.498   5.852   1.455
 7514SOL    HW123441   2.590   5.821   1.430
 7514SOL    HW223442   2.448   5.878   1.373
 7515SOL     OW23443   6.925   5.007   2.592
 7515SOL    HW123444   7.015   5.042   2.621
 7515SOL    HW223445   6.864   5.003   2.671
 7516SOL     OW23446   6.327   6.447   5.625
 7516SOL    HW123447   6.370   6.362   5.655
 7516SOL    HW223448   6.398   6.513   5.600
 7517SOL     OW23449   0.220   3.220   0.480
 7517SOL    HW123450   0.294   3.155   0.499
 7517SOL    HW223451   0.195   3.267   0.565
 7518SOL     OW23452   4.317   5.044   3.560
 7518SOL    HW123453   4.261   4.962   3.565
 7518SOL    HW223454   4.412   5.022   3.582
 7519SOL     OW23455   6.847   6.942   3.675
 7519SOL    HW123456   6.833   6.960   3.773
 7519SOL    HW223457   6.893   6.853   3.665
 7520SOL     OW23458   2.824   0.509   2.469
 7520SOL    HW123459   2.745   0.503   2.529
 7520SOL    HW223460   2.809   0.454   2.387
 7521SOL     OW23461   5.145   4.240   6.375
 7521SOL    HW123462   5.213   4.180   6.333
 7521SOL    HW223463   5.060   4.236   6.322
 7522SOL     OW23464   2.237   0.782   6.472
 7522SOL    HW123465   2.264   0.741   6.559
 7522SOL    HW223466   2.316   0.791   6.413
 7523SOL     OW23467   5.947   0.124   5.566
 7523SOL    HW123468   5.981   0.165   5.650
 7523SOL    HW223469   5.910   0.195   5.506
 7524SOL     OW23470   1.802   1.776   5.803
 7524SOL    HW123471   1.845   1.780   5.713
 7524SOL    HW223472   1.708   1.809   5.797
 7525SOL     OW23473   3.731   0.620   6.371
 7525SOL    HW123474   3.725   0.531   6.416
 7525SOL    HW223475   3.678   0.618   6.286
 7526SOL     OW23476   2.867   3.158   1.834
 7526SOL    HW123477   2.958   3.117   1.836
 7526SOL    HW223478   2.852   3.209   1.919
 7527SOL     OW23479   3.610   6.166   3.346
 7527SOL    HW123480   3.599   6.228   3.424
 7527SOL    HW223481   3.706   6.139   3.338
 7528SOL     OW23482   5.181   1.709   0.088
 7528SOL    HW123483   5.139   1.774   0.026
 7528SOL    HW223484   5.240   1.647   0.036
 7529SOL     OW23485   4.776   1.091   4.570
 7529SOL    HW123486   4.752   1.183   4.599
 7529SOL    HW223487   4.819   1.095   4.480
 7530SOL     OW23488   0.564   3.513   3.092
 7530SOL    HW123489   0.553   3.612   3.077
 7530SOL    HW223490   0.642   3.497   3.153
 7531SOL     OW23491   5.317   3.162   4.383
 7531SOL    HW123492   5.230   3.114   4.383
 7531SOL    HW223493   5.385   3.110   4.434
 7532SOL     OW23494   5.580   4.983   6.889
 7532SOL    HW123495   5.622   4.893   6.889
 7532SOL    HW223496   5.488   4.977   6.929
 7533SOL     OW23497   2.361   1.781   2.005
 7533SOL    HW123498   2.410   1.868   1.998
 7533SOL    HW223499   2.372   1.744   2.097
 7534SOL     OW23500   4.194   6.040   5.387
 7534SOL    HW123501   4.201   6.127   5.437
 7534SOL    HW223502   4.124   6.048   5.316
 7535SOL     OW23503   1.724   6.903   4.870
 7535SOL    HW123504   1.697   6.999   4.876
 7535SOL    HW223505   1.655   6.846   4.914
 7536SOL     OW23506   4.645   4.391   4.632
 7536SOL    HW123507   4.567   4.402   4.693
 7536SOL    HW223508   4.643   4.462   4.561
 7537SOL     OW23509   3.179   5.990   2.816
 7537SOL    HW123510   3.102   6.032   2.769
 7537SOL    HW223511   3.227   5.928   2.753
 7538SOL     OW23512   2.130   3.051   1.524
 7538SOL    HW123513   2.112   3.149   1.522
 7538SOL    HW223514   2.049   3.002   1.490
 7539SOL     OW23515   1.005   3.499   4.703
 7539SOL    HW123516   0.994   3.578   4.642
 7539SOL    HW223517   1.069   3.434   4.662
 7540SOL     OW23518   4.294   0.257   4.799
 7540SOL    HW123519   4.329   0.317   4.870
 7540SOL    HW223520   4.236   0.187   4.840
 7541SOL     OW23521   0.302   4.261   4.922
 7541SOL    HW123522   0.275   4.172   4.887
 7541SOL    HW223523   0.246   4.283   5.002
 7542SOL     OW23524   0.984   5.168   6.508
 7542SOL    HW123525   1.056   5.178   6.438
 7542SOL    HW223526   1.025   5.177   6.599
 7543SOL     OW23527   3.373   2.199   6.833
 7543SOL    HW123528   3.300   2.132   6.820
 7543SOL    HW223529   3.387   2.214   6.931
 7544SOL     OW23530   0.354   2.476   2.893
 7544SOL    HW123531   0.357   2.521   2.804
 7544SOL    HW223532   0.416   2.398   2.893
 7545SOL     OW23533   6.449   5.863   0.574
 7545SOL    HW123534   6.478   5.867   0.479
 7545SOL    HW223535   6.431   5.769   0.600
 7546SOL     OW23536   3.121   2.021   2.017
 7546SOL    HW123537   3.120   1.921   2.020
 7546SOL    HW223538   3.160   2.057   2.101
 7547SOL     OW23539   5.389   1.140   0.923
 7547SOL    HW123540   5.348   1.155   1.013
 7547SOL    HW223541   5.319   1.110   0.859
 7548SOL     OW23542   4.100   1.663   0.145
 7548SOL    HW123543   4.018   1.712   0.114
 7548SOL    HW223544   4.156   1.723   0.202
 7549SOL     OW23545   5.179   2.332   0.734
 7549SOL    HW123546   5.105   2.270   0.710
 7549SOL    HW223547   5.152   2.389   0.812
 7550SOL     OW23548   2.660   5.189   2.765
 7550SOL    HW123549   2.661   5.265   2.831
 7550SOL    HW223550   2.623   5.108   2.809
 7551SOL     OW23551   5.441   3.776   6.899
 7551SOL    HW123552   5.348   3.746   6.917
 7551SOL    HW223553   5.473   3.834   6.974
 7552SOL     OW23554   1.386   5.678   2.921
 7552SOL    HW123555   1.343   5.714   2.838
 7552SOL    HW223556   1.320   5.622   2.971
 7553SOL     OW23557   4.381   6.090   5.884
 7553SOL    HW123558   4.437   6.143   5.947
 7553SOL    HW223559   4.426   6.002   5.865
 7554SOL     OW23560   4.647   1.179   0.481
 7554SOL    HW123561   4.571   1.114   0.485
 7554SOL    HW223562   4.706   1.156   0.404
 7555SOL     OW23563   2.487   4.564   5.959
 7555SOL    HW123564   2.582   4.533   5.959
 7555SOL    HW223565   2.484   4.664   5.968
 7556SOL     OW23566   1.695   2.708   0.273
 7556SOL    HW123567   1.644   2.627   0.303
 7556SOL    HW223568   1.792   2.694   0.291
 7557SOL     OW23569   4.879   1.451   5.581
 7557SOL    HW123570   4.888   1.439   5.482
 7557SOL    HW223571   4.804   1.393   5.615
 7558SOL     OW23572   1.205   2.927   4.031
 7558SOL    HW123573   1.222   2.897   3.937
 7558SOL    HW223574   1.253   3.014   4.047
 7559SOL     OW23575   5.072   4.416   6.637
 7559SOL    HW123576   5.071   4.316   6.649
 7559SOL    HW223577   5.145   4.441   6.574
 7560SOL     OW23578   4.879   6.889   1.072
 7560SOL    HW123579   4.791   6.935   1.087
 7560SOL    HW223580   4.896   6.882   0.974
 7561SOL     OW23581   1.345   3.393   6.770
 7561SOL    HW123582   1.415   3.462   6.787
 7561SOL    HW223583   1.272   3.402   6.838
 7562SOL     OW23584   6.989   6.424   3.974
 7562SOL    HW123585   6.893   6.415   4.002
 7562SOL    HW223586   0.003   6.333   3.972
 7563SOL     OW23587   2.983   0.025   1.013
 7563SOL    HW123588   2.895   0.001   1.052
 7563SOL    HW223589   3.056   7.012   1.066
 7564SOL     OW23590   5.054   0.598   3.128
 7564SOL    HW123591   4.978   0.599   3.063
 7564SOL    HW223592   5.029   0.545   3.208
 7565SOL     OW23593   5.373   3.330   1.118
 7565SOL    HW123594   5.381   3.368   1.026
 7565SOL    HW223595   5.293   3.269   1.122
 7566SOL     OW23596   5.798   4.411   2.879
 7566SOL    HW123597   5.729   4.411   2.806
 7566SOL    HW223598   5.784   4.332   2.938
 7567SOL     OW23599   1.710   2.406   4.300
 7567SOL    HW123600   1.651   2.396   4.220
 7567SOL    HW223601   1.773   2.329   4.305
 7568SOL     OW23602   5.416   6.232   2.754
 7568SOL    HW123603   5.485   6.162   2.734
 7568SOL    HW223604   5.442   6.318   2.712
 7569SOL     OW23605   3.770   5.799   6.132
 7569SOL    HW123606   3.841   5.732   6.149
 7569SOL    HW223607   3.732   5.830   6.220
 7570SOL     OW23608   5.723   3.454   5.303
 7570SOL    HW123609   5.653   3.525   5.297
 7570SOL    HW223610   5.794   3.482   5.368
 7571SOL     OW23611   4.204   5.558   3.347
 7571SOL    HW123612   4.156   5.537   3.432
 7571SOL    HW223613   4.254   5.477   3.316
 7572SOL     OW23614   5.074   1.150   1.798
 7572SOL    HW123615   5.000   1.104   1.847
 7572SOL    HW223616   5.054   1.248   1.793
 7573SOL     OW23617   0.603   6.877   5.160
 7573SOL    HW123618   0.699   6.857   5.137
 7573SOL    HW223619   0.598   6.962   5.211
 7574SOL     OW23620   5.930   0.798   5.611
 7574SOL    HW123621   6.026   0.777   5.595
 7574SOL    HW223622   5.921   0.897   5.628
 7575SOL     OW23623   5.164   6.805   6.894
 7575SOL    HW123624   5.212   6.891   6.883
 7575SOL    HW223625   5.107   6.809   6.976
 7576SOL     OW23626   4.771   4.676   6.751
 7576SOL    HW123627   4.770   4.661   6.652
 7576SOL    HW223628   4.860   4.713   6.778
 7577SOL     OW23629   0.613   6.798   6.984
 7577SOL    HW123630   0.548   6.777   6.911
 7577SOL    HW223631   0.643   6.893   6.976
 7578SOL     OW23632   2.144   5.137   2.070
 7578SOL    HW123633   2.109   5.189   1.992
 7578SOL    HW223634   2.243   5.148   2.076
 7579SOL     OW23635   6.584   0.700   1.754
 7579SOL    HW123636   6.578   0.601   1.768
 7579SOL    HW223637   6.636   0.741   1.828
 7580SOL     OW23638   0.766   3.954   4.312
 7580SOL    HW123639   0.711   3.943   4.395
 7580SOL    HW223640   0.718   4.014   4.248
 7581SOL     OW23641   0.016   1.007   0.823
 7581SOL    HW123642   7.003   1.088   0.863
 7581SOL    HW223643   0.031   0.938   0.894
 7582SOL     OW23644   4.103   1.347   1.751
 7582SOL    HW123645   4.048   1.354   1.667
 7582SOL    HW223646   4.161   1.428   1.759
 7583SOL     OW23647   6.439   3.108   1.484
 7583SOL    HW123648   6.361   3.098   1.423
 7583SOL    HW223649   6.480   3.198   1.473
 7584SOL     OW23650   3.191   6.697   1.255
 7584SOL    HW123651   3.271   6.688   1.314
 7584SOL    HW223652   3.190   6.788   1.213
 7585SOL     OW23653   1.185   2.801   6.571
 7585SOL    HW123654   1.241   2.833   6.647
 7585SOL    HW223655   1.243   2.781   6.492
 7586SOL     OW23656   2.454   1.194   3.366
 7586SOL    HW123657   2.481   1.099   3.350
 7586SOL    HW223658   2.375   1.196   3.427
 7587SOL     OW23659   2.515   2.284   0.301
 7587SOL    HW123660   2.536   2.365   0.246
 7587SOL    HW223661   2.424   2.251   0.277
 7588SOL     OW23662   1.783   3.249   3.420
 7588SOL    HW123663   1.802   3.336   3.467
 7588SOL    HW223664   1.845   3.240   3.342
 7589SOL     OW23665   1.208   0.256   2.510
 7589SOL    HW123666   1.154   0.309   2.444
 7589SOL    HW223667   1.269   0.194   2.461
 7590SOL     OW23668   4.175   1.673   6.267
 7590SOL    HW123669   4.184   1.694   6.170
 7590SOL    HW223670   4.107   1.733   6.309
 7591SOL     OW23671   0.326   4.075   0.516
 7591SOL    HW123672   0.264   4.154   0.517
 7591SOL    HW223673   0.287   4.003   0.459
 7592SOL     OW23674   6.682   4.856   5.118
 7592SOL    HW123675   6.702   4.775   5.063
 7592SOL    HW223676   6.636   4.925   5.062
 7593SOL     OW23677   5.941   3.287   0.941
 7593SOL    HW123678   5.881   3.233   0.882
 7593SOL    HW223679   5.892   3.369   0.972
 7594SOL     OW23680   0.783   5.398   2.512
 7594SOL    HW123681   0.757   5.332   2.582
 7594SOL    HW223682   0.867   5.445   2.540
 7595SOL     OW23683   6.729   2.546   5.892
 7595SOL    HW123684   6.635   2.519   5.915
 7595SOL    HW223685   6.785   2.464   5.881
 7596SOL     OW23686   4.336   5.561   4.236
 7596SOL    HW123687   4.434   5.580   4.230
 7596SOL    HW223688   4.313   5.490   4.169
 7597SOL     OW23689   2.934   6.586   3.090
 7597SOL    HW123690   3.023   6.569   3.047
 7597SOL    HW223691   2.892   6.498   3.113
 7598SOL     OW23692   6.928   1.542   3.422
 7598SOL    HW123693   6.997   1.566   3.491
 7598SOL    HW223694   6.878   1.624   3.396
 7599SOL     OW23695   5.292   2.117   2.376
 7599SOL    HW123696   5.240   2.187   2.329
 7599SOL    HW223697   5.305   2.039   2.315
 7600SOL     OW23698   1.612   1.650   2.370
 7600SOL    HW123699   1.557   1.712   2.313
 7600SOL    HW223700   1.709   1.675   2.361
 7601SOL     OW23701   1.580   5.352   3.048
 7601SOL    HW123702   1.588   5.351   2.948
 7601SOL    HW223703   1.643   5.420   3.085
 7602SOL     OW23704   1.975   4.299   6.352
 7602SOL    HW123705   1.996   4.257   6.264
 7602SOL    HW223706   1.887   4.264   6.385
 7603SOL     OW23707   1.620   5.721   6.330
 7603SOL    HW123708   1.630   5.741   6.232
 7603SOL    HW223709   1.595   5.804   6.379
 7604SOL     OW23710   1.848   4.270   4.616
 7604SOL    HW123711   1.757   4.261   4.655
 7604SOL    HW223712   1.914   4.288   4.689
 7605SOL     OW23713   1.028   0.011   1.186
 7605SOL    HW123714   1.012   7.008   1.092
 7605SOL    HW223715   1.045   0.109   1.185
 7606SOL     OW23716   5.680   3.700   5.052
 7606SOL    HW123717   5.639   3.726   4.964
 7606SOL    HW223718   5.613   3.714   5.125
 7607SOL     OW23719   3.275   4.957   6.792
 7607SOL    HW123720   3.314   4.907   6.869
 7607SOL    HW223721   3.348   4.997   6.737
 7608SOL     OW23722   4.132   3.489   2.343
 7608SOL    HW123723   4.224   3.452   2.350
 7608SOL    HW223724   4.065   3.415   2.347
 7609SOL     OW23725   1.243   3.493   4.504
 7609SOL    HW123726   1.170   3.436   4.466
 7609SOL    HW223727   1.222   3.590   4.486
 7610SOL     OW23728   4.349   5.140   6.241
 7610SOL    HW123729   4.345   5.066   6.308
 7610SOL    HW223730   4.290   5.118   6.163
 7611SOL     OW23731   6.421   2.884   1.147
 7611SOL    HW123732   6.374   2.797   1.159
 7611SOL    HW223733   6.358   2.959   1.168
 7612SOL     OW23734   4.479   2.508   3.642
 7612SOL    HW123735   4.570   2.513   3.601
 7612SOL    HW223736   4.437   2.598   3.642
 7613SOL     OW23737   6.834   3.139   1.009
 7613SOL    HW123738   6.783   3.177   0.932
 7613SOL    HW223739   6.771   3.119   1.085
 7614SOL     OW23740   5.145   2.879   1.087
 7614SOL    HW123741   5.050   2.856   1.066
 7614SOL    HW223742   5.182   2.813   1.152
 7615SOL     OW23743   3.713   5.101   0.241
 7615SOL    HW123744   3.793   5.064   0.289
 7615SOL    HW223745   3.630   5.059   0.278
 7616SOL     OW23746   5.817   5.921   4.078
 7616SOL    HW123747   5.813   5.967   3.990
 7616SOL    HW223748   5.912   5.911   4.106
 7617SOL     OW23749   3.907   5.244   2.396
 7617SOL    HW123750   3.914   5.149   2.367
 7617SOL    HW223751   3.983   5.296   2.359
 7618SOL     OW23752   0.395   1.298   5.679
 7618SOL    HW123753   0.296   1.288   5.672
 7618SOL    HW223754   0.424   1.382   5.632
 7619SOL     OW23755   5.665   2.732   5.279
 7619SOL    HW123756   5.643   2.807   5.216
 7619SOL    HW223757   5.705   2.769   5.362
 7620SOL     OW23758   3.835   5.784   0.745
 7620SOL    HW123759   3.744   5.822   0.763
 7620SOL    HW223760   3.873   5.825   0.662
 7621SOL     OW23761   6.753   1.533   0.785
 7621SOL    HW123762   6.810   1.571   0.857
 7621SOL    HW223763   6.783   1.440   0.764
 7622SOL     OW23764   4.483   5.730   0.358
 7622SOL    HW123765   4.468   5.644   0.408
 7622SOL    HW223766   4.444   5.806   0.410
 7623SOL     OW23767   4.452   4.426   0.321
 7623SOL    HW123768   4.353   4.410   0.326
 7623SOL    HW223769   4.487   4.441   0.413
 7624SOL     OW23770   6.639   3.627   5.002
 7624SOL    HW123771   6.720   3.680   4.976
 7624SOL    HW223772   6.636   3.543   4.948
 7625SOL     OW23773   4.813   0.573   1.539
 7625SOL    HW123774   4.774   0.648   1.486
 7625SOL    HW223775   4.891   0.607   1.592
 7626SOL     OW23776   5.894   6.927   4.501
 7626SOL    HW123777   5.916   7.003   4.564
 7626SOL    HW223778   5.795   6.913   4.500
 7627SOL     OW23779   4.655   3.253   0.139
 7627SOL    HW123780   4.704   3.293   0.061
 7627SOL    HW223781   4.621   3.162   0.114
 7628SOL     OW23782   3.921   1.784   1.960
 7628SOL    HW123783   3.865   1.847   1.907
 7628SOL    HW223784   3.879   1.693   1.958
 7629SOL     OW23785   6.986   6.288   3.345
 7629SOL    HW123786   0.052   6.290   3.377
 7629SOL    HW223787   6.959   6.380   3.316
 7630SOL     OW23788   6.920   6.830   0.908
 7630SOL    HW123789   6.916   6.760   0.837
 7630SOL    HW223790   7.012   6.832   0.947
 7631SOL     OW23791   0.801   1.173   6.623
 7631SOL    HW123792   0.840   1.244   6.681
 7631SOL    HW223793   0.701   1.174   6.630
 7632SOL     OW23794   3.605   3.236   1.463
 7632SOL    HW123795   3.640   3.297   1.535
 7632SOL    HW223796   3.535   3.284   1.411
 7633SOL     OW23797   5.721   0.725   1.158
 7633SOL    HW123798   5.719   0.680   1.247
 7633SOL    HW223799   5.646   0.791   1.153
 7634SOL     OW23800   1.051   2.252   2.727
 7634SOL    HW123801   1.068   2.322   2.797
 7634SOL    HW223802   1.130   2.192   2.721
 7635SOL     OW23803   3.724   5.087   4.900
 7635SOL    HW123804   3.756   5.147   4.973
 7635SOL    HW223805   3.675   5.009   4.939
 7636SOL     OW23806   1.727   2.792   3.922
 7636SOL    HW123807   1.708   2.709   3.869
 7636SOL    HW223808   1.740   2.768   4.018
 7637SOL     OW23809   2.172   5.147   2.533
 7637SOL    HW123810   2.119   5.173   2.614
 7637SOL    HW223811   2.239   5.218   2.514
 7638SOL     OW23812   2.573   6.094   1.135
 7638SOL    HW123813   2.627   6.061   1.058
 7638SOL    HW223814   2.564   6.193   1.131
 7639SOL     OW23815   1.032   2.358   0.673
 7639SOL    HW123816   1.077   2.288   0.617
 7639SOL    HW223817   1.068   2.352   0.767
 7640SOL     OW23818   3.288   1.209   5.562
 7640SOL    HW123819   3.291   1.309   5.561
 7640SOL    HW223820   3.376   1.173   5.592
 7641SOL     OW23821   1.080   3.994   2.490
 7641SOL    HW123822   1.037   4.012   2.402
 7641SOL    HW223823   1.015   3.948   2.550
 7642SOL     OW23824   3.642   0.971   3.240
 7642SOL    HW123825   3.555   1.001   3.279
 7642SOL    HW223826   3.718   1.009   3.293
 7643SOL     OW23827   4.765   2.794   3.874
 7643SOL    HW123828   4.839   2.737   3.839
 7643SOL    HW223829   4.694   2.736   3.916
 7644SOL     OW23830   5.995   2.196   2.265
 7644SOL    HW123831   6.064   2.226   2.331
 7644SOL    HW223832   5.913   2.253   2.274
 7645SOL     OW23833   4.404   3.296   5.675
 7645SOL    HW123834   4.418   3.365   5.746
 7645SOL    HW223835   4.352   3.335   5.599
 7646SOL     OW23836   1.215   3.634   2.881
 7646SOL    HW123837   1.296   3.688   2.860
 7646SOL    HW223838   1.204   3.628   2.981
 7647SOL     OW23839   7.003   2.852   3.560
 7647SOL    HW123840   6.971   2.943   3.584
 7647SOL    HW223841   6.939   2.810   3.495
 7648SOL     OW23842   2.771   1.556   2.821
 7648SOL    HW123843   2.717   1.638   2.801
 7648SOL    HW223844   2.742   1.481   2.763
 7649SOL     OW23845   0.921   1.161   2.539
 7649SOL    HW123846   0.936   1.145   2.441
 7649SOL    HW223847   0.952   1.252   2.563
 7650SOL     OW23848   4.527   1.637   0.402
 7650SOL    HW123849   4.486   1.690   0.328
 7650SOL    HW223850   4.471   1.647   0.485
 7651SOL     OW23851   2.133   0.714   4.041
 7651SOL    HW123852   2.132   0.654   4.121
 7651SOL    HW223853   2.134   0.658   3.958
 7652SOL     OW23854   5.758   3.829   5.796
 7652SOL    HW123855   5.711   3.742   5.782
 7652SOL    HW223856   5.829   3.840   5.726
 7653SOL     OW23857   0.835   1.692   6.975
 7653SOL    HW123858   0.750   1.710   7.023
 7653SOL    HW223859   0.888   1.776   6.969
 7654SOL     OW23860   5.011   3.056   4.325
 7654SOL    HW123861   4.937   3.067   4.259
 7654SOL    HW223862   4.979   3.084   4.416
 7655SOL     OW23863   4.348   6.927   2.849
 7655SOL    HW123864   4.352   6.852   2.783
 7655SOL    HW223865   4.282   6.906   2.920
 7656SOL     OW23866   2.731   3.676   6.116
 7656SOL    HW123867   2.692   3.747   6.174
 7656SOL    HW223868   2.831   3.680   6.120
 7657SOL     OW23869   1.247   2.608   3.845
 7657SOL    HW123870   1.259   2.604   3.745
 7657SOL    HW223871   1.323   2.658   3.885
 7658SOL     OW23872   4.256   0.014   6.172
 7658SOL    HW123873   4.192   6.968   6.192
 7658SOL    HW223874   4.207   0.101   6.178
 7659SOL     OW23875   6.285   4.986   5.974
 7659SOL    HW123876   6.382   4.962   5.966
 7659SOL    HW223877   6.229   4.911   5.939
 7660SOL     OW23878   0.785   6.110   3.898
 7660SOL    HW123879   0.773   6.011   3.896
 7660SOL    HW223880   0.702   6.155   3.864
 7661SOL     OW23881   5.847   2.796   4.695
 7661SOL    HW123882   5.904   2.768   4.773
 7661SOL    HW223883   5.898   2.861   4.638
 7662SOL     OW23884   1.337   2.987   3.507
 7662SOL    HW123885   1.279   3.029   3.577
 7662SOL    HW223886   1.390   3.058   3.461
 7663SOL     OW23887   0.148   5.103   5.323
 7663SOL    HW123888   0.083   5.142   5.388
 7663SOL    HW223889   0.211   5.042   5.371
 7664SOL     OW23890   4.011   6.899   1.822
 7664SOL    HW123891   3.947   6.822   1.821
 7664SOL    HW223892   4.015   6.941   1.731
 7665SOL     OW23893   6.153   0.129   4.765
 7665SOL    HW123894   6.086   0.110   4.693
 7665SOL    HW223895   6.224   0.059   4.763
 7666SOL     OW23896   0.430   5.454   1.982
 7666SOL    HW123897   0.400   5.359   1.982
 7666SOL    HW223898   0.512   5.463   1.924
 7667SOL     OW23899   4.857   6.790   2.081
 7667SOL    HW123900   4.888   6.738   2.001
 7667SOL    HW223901   4.916   6.771   2.159
 7668SOL     OW23902   3.265   4.676   0.053
 7668SOL    HW123903   3.302   4.614   0.123
 7668SOL    HW223904   3.338   4.706   7.021
 7669SOL     OW23905   4.532   1.375   5.157
 7669SOL    HW123906   4.528   1.421   5.067
 7669SOL    HW223907   4.558   1.442   5.226
 7670SOL     OW23908   0.747   4.776   7.001
 7670SOL    HW123909   0.794   4.800   6.916
 7670SOL    HW223910   0.813   4.735   0.036
 7671SOL     OW23911   4.671   1.169   2.250
 7671SOL    HW123912   4.639   1.242   2.310
 7671SOL    HW223913   4.604   1.095   2.247
 7672SOL     OW23914   0.498   6.604   2.460
 7672SOL    HW123915   0.589   6.591   2.419
 7672SOL    HW223916   0.438   6.649   2.394
 7673SOL     OW23917   1.431   6.489   0.584
 7673SOL    HW123918   1.426   6.499   0.484
 7673SOL    HW223919   1.385   6.404   0.611
 7674SOL     OW23920   5.591   0.991   3.020
 7674SOL    HW123921   5.535   1.072   3.037
 7674SOL    HW223922   5.533   0.910   3.021
 7675SOL     OW23923   6.241   6.606   2.110
 7675SOL    HW123924   6.301   6.632   2.034
 7675SOL    HW223925   6.294   6.600   2.194
 7676SOL     OW23926   2.756   2.098   0.757
 7676SOL    HW123927   2.687   2.101   0.829
 7676SOL    HW223928   2.829   2.164   0.777
 7677SOL     OW23929   0.449   4.954   1.629
 7677SOL    HW123930   0.517   4.915   1.691
 7677SOL    HW223931   0.461   4.916   1.538
 7678SOL     OW23932   1.769   3.096   4.471
 7678SOL    HW123933   1.775   3.175   4.532
 7678SOL    HW223934   1.681   3.051   4.482
 7679SOL     OW23935   2.947   5.566   5.801
 7679SOL    HW123936   2.877   5.573   5.730
 7679SOL    HW223937   3.034   5.540   5.760
 7680SOL     OW23938   1.150   0.944   0.595
 7680SOL    HW123939   1.086   0.891   0.539
 7680SOL    HW223940   1.216   0.990   0.536
 7681SOL     OW23941   2.614   0.753   0.784
 7681SOL    HW123942   2.577   0.667   0.748
 7681SOL    HW223943   2.614   0.822   0.711
 7682SOL     OW23944   2.944   0.142   2.384
 7682SOL    HW123945   3.043   0.141   2.396
 7682SOL    HW223946   2.922   0.180   2.294
 7683SOL     OW23947   4.915   1.675   4.564
 7683SOL    HW123948   4.868   1.665   4.652
 7683SOL    HW223949   4.993   1.612   4.560
 7684SOL     OW23950   3.150   1.966   1.722
 7684SOL    HW123951   3.156   1.975   1.821
 7684SOL    HW223952   3.136   2.056   1.681
 7685SOL     OW23953   2.975   1.771   6.317
 7685SOL    HW123954   2.948   1.858   6.276
 7685SOL    HW223955   3.071   1.753   6.295
 7686SOL     OW23956   6.631   6.401   2.720
 7686SOL    HW123957   6.537   6.427   2.741
 7686SOL    HW223958   6.652   6.427   2.626
 7687SOL     OW23959   6.126   5.337   3.542
 7687SOL    HW123960   6.057   5.335   3.470
 7687SOL    HW223961   6.194   5.407   3.521
 7688SOL     OW23962   1.008   5.938   5.971
 7688SOL    HW123963   1.014   5.851   5.923
 7688SOL    HW223964   0.950   5.928   6.052
 7689SOL     OW23965   5.816   6.207   2.557
 7689SOL    HW123966   5.721   6.178   2.566
 7689SOL    HW223967   5.875   6.143   2.607
 7690SOL     OW23968   5.392   5.356   0.007
 7690SOL    HW123969   5.460   5.425   0.029
 7690SOL    HW223970   5.363   5.309   0.090
 7691SOL     OW23971   5.277   4.217   4.284
 7691SOL    HW123972   5.362   4.265   4.263
 7691SOL    HW223973   5.295   4.148   4.355
 7692SOL     OW23974   0.665   6.178   1.901
 7692SOL    HW123975   0.738   6.111   1.889
 7692SOL    HW223976   0.577   6.137   1.876
 7693SOL     OW23977   3.819   6.578   1.439
 7693SOL    HW123978   3.823   6.518   1.518
 7693SOL    HW223979   3.874   6.538   1.365
 7694SOL     OW23980   6.465   4.372   4.454
 7694SOL    HW123981   6.437   4.468   4.459
 7694SOL    HW223982   6.503   4.354   4.363
 7695SOL     OW23983   4.825   0.794   1.094
 7695SOL    HW123984   4.875   0.767   1.011
 7695SOL    HW223985   4.889   0.836   1.159
 7696SOL     OW23986   0.508   7.027   5.557
 7696SOL    HW123987   0.511   0.022   5.460
 7696SOL    HW223988   0.436   0.052   5.602
 7697SOL     OW23989   2.425   6.676   2.543
 7697SOL    HW123990   2.361   6.684   2.619
 7697SOL    HW223991   2.516   6.652   2.577
 7698SOL     OW23992   5.854   1.003   4.158
 7698SOL    HW123993   5.937   1.033   4.111
 7698SOL    HW223994   5.843   0.904   4.148
 7699SOL     OW23995   3.337   5.741   6.556
 7699SOL    HW123996   3.245   5.707   6.534
 7699SOL    HW223997   3.334   5.840   6.567
 7700SOL     OW23998   4.434   6.257   3.366
 7700SOL    HW123999   4.382   6.337   3.395
 7700SOL    HW224000   4.458   6.265   3.270
 7701SOL     OW24001   6.639   1.828   0.461
 7701SOL    HW124002   6.714   1.883   0.499
 7701SOL    HW224003   6.558   1.886   0.450
 7702SOL     OW24004   3.352   6.705   5.367
 7702SOL    HW124005   3.372   6.607   5.363
 7702SOL    HW224006   3.264   6.723   5.323
 7703SOL     OW24007   6.594   6.293   6.628
 7703SOL    HW124008   6.668   6.256   6.573
 7703SOL    HW224009   6.630   6.363   6.690
 7704SOL     OW24010   5.499   6.078   4.662
 7704SOL    HW124011   5.458   6.104   4.575
 7704SOL    HW224012   5.554   5.996   4.650
 7705SOL     OW24013   2.974   5.768   6.980
 7705SOL    HW124014   3.006   5.713   6.903
 7705SOL    HW224015   2.997   5.722   0.037
 7706SOL     OW24016   4.563   3.086   5.656
 7706SOL    HW124017   4.493   3.029   5.698
 7706SOL    HW224018   4.531   3.181   5.653
 7707SOL     OW24019   6.623   5.670   5.447
 7707SOL    HW124020   6.524   5.659   5.450
 7707SOL    HW224021   6.652   5.683   5.352
 7708SOL     OW24022   0.673   6.846   6.238
 7708SOL    HW124023   0.671   6.746   6.242
 7708SOL    HW224024   0.653   6.883   6.329
 7709SOL     OW24025   6.409   4.375   1.943
 7709SOL    HW124026   6.505   4.403   1.950
 7709SOL    HW224027   6.388   4.311   2.018
 7710SOL     OW24028   2.938   1.820   0.420
 7710SOL    HW124029   3.011   1.883   0.446
 7710SOL    HW224030   2.869   1.818   0.492
 7711SOL     OW24031   5.959   6.575   5.949
 7711SOL    HW124032   5.872   6.535   5.920
 7711SOL    HW224033   6.027   6.563   5.877
 7712SOL     OW24034   6.016   5.223   1.891
 7712SOL    HW124035   5.956   5.274   1.829
 7712SOL    HW224036   5.961   5.176   1.960
 7713SOL     OW24037   1.965   4.363   1.453
 7713SOL    HW124038   2.006   4.344   1.543
 7713SOL    HW224039   1.990   4.291   1.389
 7714SOL     OW24040   0.042   3.620   5.658
 7714SOL    HW124041   6.996   3.685   5.669
 7714SOL    HW224042   0.125   3.668   5.631
 7715SOL     OW24043   3.475   1.738   0.385
 7715SOL    HW124044   3.452   1.663   0.447
 7715SOL    HW224045   3.566   1.773   0.406
 7716SOL     OW24046   6.570   4.255   2.665
 7716SOL    HW124047   6.618   4.187   2.721
 7716SOL    HW224048   6.496   4.296   2.718
 7717SOL     OW24049   1.900   1.303   5.536
 7717SOL    HW124050   1.855   1.384   5.573
 7717SOL    HW224051   1.868   1.222   5.586
 7718SOL     OW24052   0.651   3.519   4.064
 7718SOL    HW124053   0.570   3.518   4.005
 7718SOL    HW224054   0.706   3.437   4.047
 7719SOL     OW24055   6.469   4.183   5.133
 7719SOL    HW124056   6.402   4.232   5.078
 7719SOL    HW224057   6.451   4.199   5.230
 7720SOL     OW24058   0.267   1.194   6.800
 7720SOL    HW124059   0.230   1.135   6.872
 7720SOL    HW224060   0.288   1.284   6.838
 7721SOL     OW24061   0.370   5.342   2.566
 7721SOL    HW124062   0.438   5.409   2.536
 7721SOL    HW224063   0.356   5.351   2.665
 7722SOL     OW24064   0.848   4.343   3.470
 7722SOL    HW124065   0.947   4.332   3.470
 7722SOL    HW224066   0.825   4.440   3.463
 7723SOL     OW24067   4.982   3.550   6.623
 7723SOL    HW124068   4.955   3.556   6.527
 7723SOL    HW224069   5.040   3.628   6.646
 7724SOL     OW24070   3.107   3.862   1.048
 7724SOL    HW124071   3.049   3.801   1.102
 7724SOL    HW224072   3.203   3.850   1.074
 7725SOL     OW24073   6.407   0.972   2.930
 7725SOL    HW124074   6.426   1.045   2.996
 7725SOL    HW224075   6.310   0.972   2.907
 7726SOL     OW24076   1.374   5.401   5.033
 7726SOL    HW124077   1.285   5.402   5.078
 7726SOL    HW224078   1.362   5.413   4.935
 7727SOL     OW24079   0.216   1.848   2.761
 7727SOL    HW124080   0.200   1.756   2.798
 7727SOL    HW224081   0.293   1.890   2.808
 7728SOL     OW24082   1.485   3.825   4.944
 7728SOL    HW124083   1.583   3.839   4.928
 7728SOL    HW224084   1.433   3.877   4.877
 7729SOL     OW24085   5.779   2.418   1.290
 7729SOL    HW124086   5.860   2.396   1.236
 7729SOL    HW224087   5.734   2.333   1.319
 7730SOL     OW24088   6.060   5.918   7.026
 7730SOL    HW124089   6.143   5.881   0.038
 7730SOL    HW224090   6.016   5.981   0.062
 7731SOL     OW24091   6.984   1.349   0.631
 7731SOL    HW124092   6.951   1.312   0.544
 7731SOL    HW224093   6.942   1.299   0.707
 7732SOL     OW24094   5.171   0.070   0.829
 7732SOL    HW124095   5.086   0.020   0.843
 7732SOL    HW224096   5.232   0.016   0.771
 7733SOL     OW24097   4.714   6.495   3.247
 7733SOL    HW124098   4.699   6.430   3.321
 7733SOL    HW224099   4.722   6.587   3.285
 7734SOL     OW24100   1.982   4.888   2.836
 7734SOL    HW124101   1.976   4.790   2.818
 7734SOL    HW224102   1.952   4.907   2.929
 7735SOL     OW24103   4.443   6.995   7.000
 7735SOL    HW124104   4.471   6.976   0.066
 7735SOL    HW224105   4.464   6.916   6.943
 7736SOL     OW24106   3.768   3.627   6.914
 7736SOL    HW124107   3.817   3.701   6.867
 7736SOL    HW224108   3.691   3.598   6.858
 7737SOL     OW24109   3.036   6.883   2.586
 7737SOL    HW124110   2.984   6.946   2.528
 7737SOL    HW224111   3.131   6.914   2.590
 7738SOL     OW24112   2.960   6.069   6.995
 7738SOL    HW124113   2.934   5.976   7.020
 7738SOL    HW224114   2.886   6.111   6.942
 7739SOL     OW24115   0.096   2.627   0.960
 7739SOL    HW124116   0.014   2.569   0.962
 7739SOL    HW224117   0.083   2.705   1.020
 7740SOL     OW24118   2.345   1.555   2.645
 7740SOL    HW124119   2.353   1.467   2.598
 7740SOL    HW224120   2.347   1.540   2.744
 7741SOL     OW24121   1.059   5.195   5.936
 7741SOL    HW124122   1.107   5.277   5.904
 7741SOL    HW224123   1.088   5.174   6.029
 7742SOL     OW24124   4.211   1.628   3.421
 7742SOL    HW124125   4.240   1.671   3.336
 7742SOL    HW224126   4.185   1.698   3.487
 7743SOL     OW24127   5.885   1.506   6.955
 7743SOL    HW124128   5.925   1.558   6.880
 7743SOL    HW224129   5.956   1.450   6.999
 7744SOL     OW24130   0.796   0.101   4.061
 7744SOL    HW124131   0.824   0.084   4.155
 7744SOL    HW224132   0.863   0.162   4.017
 7745SOL     OW24133   3.958   1.231   6.923
 7745SOL    HW124134   3.980   1.153   6.863
 7745SOL    HW224135   4.036   1.294   6.925
 7746SOL     OW24136   1.621   0.465   0.081
 7746SOL    HW124137   1.619   0.461   0.181
 7746SOL    HW224138   1.714   0.450   0.049
 7747SOL     OW24139   5.497   5.879   1.712
 7747SOL    HW124140   5.436   5.942   1.664
 7747SOL    HW224141   5.551   5.930   1.779
 7748SOL     OW24142   3.021   3.527   4.628
 7748SOL    HW124143   2.946   3.592   4.632
 7748SOL    HW224144   2.985   3.434   4.624
 7749SOL     OW24145   3.014   3.720   5.732
 7749SOL    HW124146   3.056   3.771   5.658
 7749SOL    HW224147   3.027   3.769   5.818
 7750SOL     OW24148   0.326   6.323   1.245
 7750SOL    HW124149   0.284   6.247   1.294
 7750SOL    HW224150   0.405   6.356   1.296
 7751SOL     OW24151   2.050   2.913   2.291
 7751SOL    HW124152   2.136   2.914   2.341
 7751SOL    HW224153   2.021   3.007   2.272
 7752SOL     OW24154   5.710   6.496   5.875
 7752SOL    HW124155   5.679   6.531   5.786
 7752SOL    HW224156   5.631   6.466   5.928
 7753SOL     OW24157   2.360   0.788   4.177
 7753SOL    HW124158   2.435   0.738   4.132
 7753SOL    HW224159   2.282   0.793   4.114
 7754SOL     OW24160   3.746   6.688   2.093
 7754SOL    HW124161   3.721   6.774   2.137
 7754SOL    HW224162   3.667   6.627   2.091
 7755SOL     OW24163   1.664   2.122   5.252
 7755SOL    HW124164   1.601   2.199   5.241
 7755SOL    HW224165   1.619   2.038   5.223
 7756SOL     OW24166   2.572   5.957   2.810
 7756SOL    HW124167   2.531   6.031   2.758
 7756SOL    HW224168   2.649   5.992   2.864
 7757SOL     OW24169   5.888   4.956   6.653
 7757SOL    HW124170   5.975   4.916   6.682
 7757SOL    HW224171   5.868   5.037   6.708
 7758SOL     OW24172   1.825   0.864   5.807
 7758SOL    HW124173   1.866   0.910   5.886
 7758SOL    HW224174   1.726   0.859   5.819
 7759SOL     OW24175   1.310   1.852   5.482
 7759SOL    HW124176   1.317   1.784   5.555
 7759SOL    HW224177   1.349   1.814   5.398
 7760SOL     OW24178   5.995   3.164   3.006
 7760SOL    HW124179   5.953   3.232   2.946
 7760SOL    HW224180   6.027   3.086   2.952
 7761SOL     OW24181   0.300   0.400   4.807
 7761SOL    HW124182   0.242   0.470   4.765
 7761SOL    HW224183   0.320   0.329   4.739
 7762SOL     OW24184   2.905   6.615   3.922
 7762SOL    HW124185   2.923   6.526   3.882
 7762SOL    HW224186   2.986   6.673   3.914
 7763SOL     OW24187   1.800   0.754   6.168
 7763SOL    HW124188   1.848   0.804   6.240
 7763SOL    HW224189   1.861   0.684   6.129
 7764SOL     OW24190   3.575   3.364   4.306
 7764SOL    HW124191   3.549   3.310   4.225
 7764SOL    HW224192   3.594   3.302   4.382
 7765SOL     OW24193   6.199   3.388   5.009
 7765SOL    HW124194   6.144   3.394   4.925
 7765SOL    HW224195   6.205   3.478   5.051
 7766SOL     OW24196   6.601   3.969   0.213
 7766SOL    HW124197   6.680   3.907   0.213
 7766SOL    HW224198   6.545   3.951   0.295
 7767SOL     OW24199   4.768   6.330   2.782
 7767SOL    HW124200   4.744   6.254   2.843
 7767SOL    HW224201   4.765   6.416   2.834
 7768SOL     OW24202   4.133   4.802   2.712
 7768SOL    HW124203   4.073   4.801   2.792
 7768SOL    HW224204   4.086   4.845   2.636
 7769SOL     OW24205   3.914   1.965   3.182
 7769SOL    HW124206   3.879   1.946   3.090
 7769SOL    HW224207   3.985   2.036   3.177
 7770SOL     OW24208   2.062   4.243   3.628
 7770SOL    HW124209   2.031   4.338   3.624
 7770SOL    HW224210   2.022   4.191   3.553
 7771SOL     OW24211   3.788   1.877   5.463
 7771SOL    HW124212   3.706   1.832   5.497
 7771SOL    HW224213   3.847   1.903   5.540
 7772SOL     OW24214   4.352   0.193   2.924
 7772SOL    HW124215   4.376   0.096   2.913
 7772SOL    HW224216   4.300   0.223   2.845
 7773SOL     OW24217   2.705   5.952   5.184
 7773SOL    HW124218   2.711   6.008   5.266
 7773SOL    HW224219   2.789   5.960   5.132
 7774SOL     OW24220   5.051   2.197   4.391
 7774SOL    HW124221   5.005   2.129   4.448
 7774SOL    HW224222   4.983   2.256   4.347
 7775SOL     OW24223   4.646   5.908   0.975
 7775SOL    HW124224   4.708   5.935   0.902
 7775SOL    HW224225   4.556   5.886   0.936
 7776SOL     OW24226   0.682   5.726   5.949
 7776SOL    HW124227   0.774   5.706   5.983
 7776SOL    HW224228   0.640   5.642   5.914
 7777SOL     OW24229   6.318   6.425   4.361
 7777SOL    HW124230   6.371   6.490   4.415
 7777SOL    HW224231   6.226   6.417   4.400
 7778SOL     OW24232   5.307   4.411   0.565
 7778SOL    HW124233   5.369   4.347   0.521
 7778SOL    HW224234   5.235   4.438   0.501
 7779SOL     OW24235   2.603   2.148   1.566
 7779SOL    HW124236   2.553   2.194   1.639
 7779SOL    HW224237   2.540   2.126   1.492
 7780SOL     OW24238   0.870   4.900   5.306
 7780SOL    HW124239   0.893   4.971   5.239
 7780SOL    HW224240   0.882   4.938   5.398
 7781SOL     OW24241   2.559   4.790   0.891
 7781SOL    HW124242   2.649   4.778   0.850
 7781SOL    HW224243   2.567   4.778   0.990
 7782SOL     OW24244   5.264   5.203   3.979
 7782SOL    HW124245   5.341   5.245   4.028
 7782SOL    HW224246   5.260   5.105   4.001
 7783SOL     OW24247   0.977   6.061   4.900
 7783SOL    HW124248   1.006   5.983   4.845
 7783SOL    HW224249   1.027   6.061   4.987
 7784SOL     OW24250   3.536   2.303   1.680
 7784SOL    HW124251   3.608   2.322   1.746
 7784SOL    HW224252   3.516   2.387   1.628
 7785SOL     OW24253   1.865   6.191   4.715
 7785SOL    HW124254   1.783   6.147   4.751
 7785SOL    HW224255   1.909   6.245   4.787
 7786SOL     OW24256   3.329   6.368   0.620
 7786SOL    HW124257   3.246   6.399   0.666
 7786SOL    HW224258   3.358   6.281   0.658
 7787SOL     OW24259   1.995   2.711   6.010
 7787SOL    HW124260   2.025   2.631   6.061
 7787SOL    HW224261   1.896   2.719   6.015
 7788SOL     OW24262   2.404   5.093   1.139
 7788SOL    HW124263   2.346   5.043   1.204
 7788SOL    HW224264   2.346   5.150   1.080
 7789SOL     OW24265   2.528   6.703   6.479
 7789SOL    HW124266   2.517   6.710   6.380
 7789SOL    HW224267   2.480   6.778   6.523
 7790SOL     OW24268   5.412   5.733   3.623
 7790SOL    HW124269   5.402   5.644   3.579
 7790SOL    HW224270   5.440   5.721   3.718
 7791SOL     OW24271   2.883   5.048   2.975
 7791SOL    HW124272   2.828   5.027   2.894
 7791SOL    HW224273   2.891   4.966   3.032
 7792SOL     OW24274   1.750   5.598   4.839
 7792SOL    HW124275   1.762   5.516   4.783
 7792SOL    HW224276   1.772   5.577   4.935
 7793SOL     OW24277   4.105   0.956   1.236
 7793SOL    HW124278   4.099   0.879   1.173
 7793SOL    HW224279   4.137   1.037   1.187
 7794SOL     OW24280   6.443   3.996   2.522
 7794SOL    HW124281   6.440   4.045   2.609
 7794SOL    HW224282   6.529   4.017   2.474
 7795SOL     OW24283   1.796   3.918   5.461
 7795SOL    HW124284   1.890   3.905   5.492
 7795SOL    HW224285   1.751   3.828   5.453
 7796SOL     OW24286   3.821   2.974   4.306
 7796SOL    HW124287   3.885   3.050   4.316
 7796SOL    HW224288   3.869   2.888   4.327
 7797SOL     OW24289   1.744   0.323   1.503
 7797SOL    HW124290   1.801   0.252   1.463
 7797SOL    HW224291   1.801   0.389   1.551
 7798SOL     OW24292   1.702   3.484   4.085
 7798SOL    HW124293   1.630   3.551   4.103
 7798SOL    HW224294   1.692   3.407   4.149
 7799SOL     OW24295   2.059   6.038   2.679
 7799SOL    HW124296   1.962   6.033   2.655
 7799SOL    HW224297   2.101   6.114   2.630
 7800SOL     OW24298   1.096   5.733   1.627
 7800SOL    HW124299   1.021   5.746   1.692
 7800SOL    HW224300   1.078   5.650   1.573
 7801SOL     OW24301   2.080   1.908   1.670
 7801SOL    HW124302   2.128   1.976   1.615
 7801SOL    HW224303   2.006   1.952   1.722
 7802SOL     OW24304   5.779   3.093   0.762
 7802SOL    HW124305   5.799   3.014   0.820
 7802SOL    HW224306   5.681   3.099   0.746
 7803SOL     OW24307   4.297   2.277   5.821
 7803SOL    HW124308   4.256   2.235   5.902
 7803SOL    HW224309   4.233   2.270   5.744
 7804SOL     OW24310   4.285   2.090   5.108
 7804SOL    HW124311   4.377   2.086   5.071
 7804SOL    HW224312   4.233   2.162   5.061
 7805SOL     OW24313   5.626   2.971   1.512
 7805SOL    HW124314   5.559   2.897   1.511
 7805SOL    HW224315   5.717   2.936   1.492
 7806SOL     OW24316   6.545   2.026   6.543
 7806SOL    HW124317   6.549   2.126   6.531
 7806SOL    HW224318   6.463   1.991   6.498
 7807SOL     OW24319   1.428   5.062   5.769
 7807SOL    HW124320   1.486   5.097   5.843
 7807SOL    HW224321   1.379   5.138   5.727
 7808SOL     OW24322   6.036   3.260   4.634
 7808SOL    HW124323   6.046   3.171   4.677
 7808SOL    HW224324   5.984   3.321   4.694
 7809SOL     OW24325   4.050   5.057   4.521
 7809SOL    HW124326   4.026   5.152   4.504
 7809SOL    HW224327   3.990   4.997   4.468
 7810SOL     OW24328   3.270   6.724   4.780
 7810SOL    HW124329   3.220   6.807   4.804
 7810SOL    HW224330   3.215   6.644   4.803
 7811SOL     OW24331   1.407   5.500   2.365
 7811SOL    HW124332   1.462   5.582   2.351
 7811SOL    HW224333   1.343   5.489   2.288
 7812SOL     OW24334   0.202   2.355   4.199
 7812SOL    HW124335   0.108   2.388   4.200
 7812SOL    HW224336   0.223   2.316   4.110
 7813SOL     OW24337   4.194   2.217   0.167
 7813SOL    HW124338   4.149   2.133   0.137
 7813SOL    HW224339   4.187   2.225   0.266
 7814SOL     OW24340   0.367   3.817   3.673
 7814SOL    HW124341   0.400   3.743   3.613
 7814SOL    HW224342   0.270   3.806   3.690
 7815SOL     OW24343   6.080   1.179   4.862
 7815SOL    HW124344   6.138   1.155   4.784
 7815SOL    HW224345   6.005   1.237   4.831
 7816SOL     OW24346   1.535   2.281   6.374
 7816SOL    HW124347   1.537   2.274   6.275
 7816SOL    HW224348   1.441   2.302   6.404
 7817SOL     OW24349   5.035   4.300   4.165
 7817SOL    HW124350   4.966   4.251   4.218
 7817SOL    HW224351   5.126   4.278   4.199
 7818SOL     OW24352   4.933   0.219   2.338
 7818SOL    HW124353   4.921   0.192   2.434
 7818SOL    HW224354   4.913   0.141   2.279
 7819SOL     OW24355   6.925   4.004   3.485
 7819SOL    HW124356   6.998   4.071   3.501
 7819SOL    HW224357   6.842   4.033   3.532
 7820SOL     OW24358   1.613   1.238   5.427
 7820SOL    HW124359   1.707   1.231   5.461
 7820SOL    HW224360   1.556   1.168   5.472
 7821SOL     OW24361   5.514   5.622   6.543
 7821SOL    HW124362   5.578   5.547   6.530
 7821SOL    HW224363   5.460   5.605   6.626
 7822SOL     OW24364   0.764   1.423   0.085
 7822SOL    HW124365   0.750   1.378   0.173
 7822SOL    HW224366   0.819   1.505   0.097
 7823SOL     OW24367   2.882   3.330   5.893
 7823SOL    HW124368   2.800   3.327   5.835
 7823SOL    HW224369   2.956   3.377   5.844
 7824SOL     OW24370   5.865   1.281   3.951
 7824SOL    HW124371   5.792   1.335   3.909
 7824SOL    HW224372   5.953   1.325   3.933
 7825SOL     OW24373   1.191   3.422   0.714
 7825SOL    HW124374   1.258   3.357   0.750
 7825SOL    HW224375   1.216   3.515   0.742
 7826SOL     OW24376   6.093   1.360   0.055
 7826SOL    HW124377   6.139   1.412   0.127
 7826SOL    HW224378   6.108   1.262   0.070
 7827SOL     OW24379   3.222   4.892   1.512
 7827SOL    HW124380   3.178   4.978   1.538
 7827SOL    HW224381   3.152   4.823   1.494
 7828SOL     OW24382   0.694   5.041   0.013
 7828SOL    HW124383   0.675   5.050   0.110
 7828SOL    HW224384   0.702   4.944   7.018
 7829SOL     OW24385   2.080   2.706   0.052
 7829SOL    HW124386   2.029   2.735   0.133
 7829SOL    HW224387   2.137   2.782   0.021
 7830SOL     OW24388   4.049   3.825   6.236
 7830SOL    HW124389   3.986   3.755   6.271
 7830SOL    HW224390   4.015   3.916   6.260
 7831SOL     OW24391   1.140   5.624   1.061
 7831SOL    HW124392   1.208   5.603   0.990
 7831SOL    HW224393   1.087   5.542   1.082
 7832SOL     OW24394   4.159   1.218   4.249
 7832SOL    HW124395   4.135   1.154   4.176
 7832SOL    HW224396   4.179   1.307   4.209
 7833SOL     OW24397   0.521   1.167   6.682
 7833SOL    HW124398   0.437   1.137   6.726
 7833SOL    HW224399   0.499   1.234   6.610
 7834SOL     OW24400   6.504   1.115   3.552
 7834SOL    HW124401   6.563   1.092   3.630
 7834SOL    HW224402   6.551   1.092   3.467
 7835SOL     OW24403   2.331   1.878   5.202
 7835SOL    HW124404   2.431   1.884   5.196
 7835SOL    HW224405   2.290   1.959   5.161
 7836SOL     OW24406   3.064   2.866   5.544
 7836SOL    HW124407   3.080   2.779   5.498
 7836SOL    HW224408   3.022   2.930   5.480
 7837SOL     OW24409   6.289   5.827   1.058
 7837SOL    HW124410   6.283   5.791   1.151
 7837SOL    HW224411   6.335   5.760   0.999
 7838SOL     OW24412   4.481   6.773   6.814
 7838SOL    HW124413   4.446   6.805   6.726
 7838SOL    HW224414   4.442   6.684   6.835
 7839SOL     OW24415   6.232   4.268   4.993
 7839SOL    HW124416   6.171   4.239   4.919
 7839SOL    HW224417   6.256   4.364   4.980
 7840SOL     OW24418   5.678   2.814   4.013
 7840SOL    HW124419   5.699   2.751   4.088
 7840SOL    HW224420   5.680   2.908   4.047
 7841SOL     OW24421   4.702   1.837   6.821
 7841SOL    HW124422   4.677   1.933   6.821
 7841SOL    HW224423   4.640   1.786   6.762
 7842SOL     OW24424   1.774   2.188   2.845
 7842SOL    HW124425   1.759   2.273   2.794
 7842SOL    HW224426   1.776   2.111   2.782
 7843SOL     OW24427   5.608   4.440   2.411
 7843SOL    HW124428   5.515   4.468   2.386
 7843SOL    HW224429   5.656   4.406   2.330
 7844SOL     OW24430   4.173   6.872   3.055
 7844SOL    HW124431   4.172   6.886   3.154
 7844SOL    HW224432   4.090   6.826   3.026
 7845SOL     OW24433   5.636   2.050   4.063
 7845SOL    HW124434   5.708   2.116   4.083
 7845SOL    HW224435   5.670   1.957   4.081
 7846SOL     OW24436   0.901   0.693   2.977
 7846SOL    HW124437   0.809   0.668   2.946
 7846SOL    HW224438   0.918   0.790   2.956
 7847SOL     OW24439   6.701   1.562   3.161
 7847SOL    HW124440   6.652   1.538   3.245
 7847SOL    HW224441   6.783   1.614   3.183
 7848SOL     OW24442   2.741   2.902   0.467
 7848SOL    HW124443   2.841   2.901   0.469
 7848SOL    HW224444   2.705   2.911   0.560
 7849SOL     OW24445   5.243   3.979   2.763
 7849SOL    HW124446   5.319   3.967   2.827
 7849SOL    HW224447   5.249   3.909   2.691
 7850SOL     OW24448   0.961   2.169   4.666
 7850SOL    HW124449   1.005   2.256   4.688
 7850SOL    HW224450   1.005   2.096   4.717
 7851SOL     OW24451   6.222   1.055   2.042
 7851SOL    HW124452   6.282   1.001   1.984
 7851SOL    HW224453   6.276   1.112   2.104
 7852SOL     OW24454   2.575   1.022   6.155
 7852SOL    HW124455   2.549   0.989   6.064
 7852SOL    HW224456   2.651   0.967   6.189
 7853SOL     OW24457   4.418   1.935   1.941
 7853SOL    HW124458   4.322   1.963   1.941
 7853SOL    HW224459   4.462   1.965   1.856
 7854SOL     OW24460   3.450   3.211   7.028
 7854SOL    HW124461   3.380   3.146   6.999
 7854SOL    HW224462   3.484   3.186   0.090
 7855SOL     OW24463   3.488   5.476   5.177
 7855SOL    HW124464   3.525   5.449   5.088
 7855SOL    HW224465   3.560   5.518   5.232
 7856SOL     OW24466   6.083   4.377   5.193
 7856SOL    HW124467   6.019   4.391   5.269
 7856SOL    HW224468   6.054   4.299   5.138
 7857SOL     OW24469   6.269   2.192   5.645
 7857SOL    HW124470   6.344   2.141   5.689
 7857SOL    HW224471   6.203   2.219   5.715
 7858SOL     OW24472   5.314   5.115   3.349
 7858SOL    HW124473   5.259   5.140   3.270
 7858SOL    HW224474   5.311   5.015   3.361
 7859SOL     OW24475   5.568   3.085   6.630
 7859SOL    HW124476   5.528   3.074   6.721
 7859SOL    HW224477   5.532   3.015   6.569
 7860SOL     OW24478   4.568   0.595   2.970
 7860SOL    HW124479   4.563   0.685   2.926
 7860SOL    HW224480   4.475   0.562   2.986
 7861SOL     OW24481   3.709   5.237   1.846
 7861SOL    HW124482   3.628   5.291   1.868
 7861SOL    HW224483   3.769   5.288   1.785
 7862SOL     OW24484   3.250   4.245   1.722
 7862SOL    HW124485   3.345   4.218   1.737
 7862SOL    HW224486   3.189   4.190   1.779
 7863SOL     OW24487   0.362   5.322   4.038
 7863SOL    HW124488   0.384   5.226   4.025
 7863SOL    HW224489   0.436   5.366   4.089
 7864SOL     OW24490   0.715   5.293   5.289
 7864SOL    HW124491   0.735   5.365   5.222
 7864SOL    HW224492   0.669   5.333   5.368
 7865SOL     OW24493   5.525   0.192   4.386
 7865SOL    HW124494   5.572   0.245   4.315
 7865SOL    HW224495   5.427   0.207   4.379
 7866SOL     OW24496   1.867   2.145   6.199
 7866SOL    HW124497   1.962   2.122   6.218
 7866SOL    HW224498   1.830   2.081   6.131
 7867SOL     OW24499   5.115   6.719   2.207
 7867SOL    HW124500   5.072   6.660   2.276
 7867SOL    HW224501   5.169   6.790   2.253
 7868SOL     OW24502   5.786   7.027   2.393
 7868SOL    HW124503   5.749   6.938   2.366
 7868SOL    HW224504   5.877   0.009   2.354
 7869SOL     OW24505   5.636   4.254   0.029
 7869SOL    HW124506   5.711   4.224   6.998
 7869SOL    HW224507   5.549   4.216   7.024
 7870SOL     OW24508   4.010   5.343   4.459
 7870SOL    HW124509   4.018   5.441   4.440
 7870SOL    HW224510   3.915   5.320   4.479
 7871SOL     OW24511   5.150   2.942   2.479
 7871SOL    HW124512   5.096   2.917   2.560
 7871SOL    HW224513   5.119   2.889   2.400
 7872SOL     OW24514   2.037   4.199   3.027
 7872SOL    HW124515   1.948   4.169   2.993
 7872SOL    HW224516   2.077   4.263   2.963
 7873SOL     OW24517   5.873   0.598   6.138
 7873SOL    HW124518   5.950   0.541   6.165
 7873SOL    HW224519   5.815   0.616   6.218
 7874SOL     OW24520   5.300   1.836   0.411
 7874SOL    HW124521   5.319   1.758   0.470
 7874SOL    HW224522   5.379   1.852   0.350
 7875SOL     OW24523   5.197   2.481   6.567
 7875SOL    HW124524   5.154   2.392   6.575
 7875SOL    HW224525   5.130   2.548   6.537
 7876SOL     OW24526   0.230   6.281   4.980
 7876SOL    HW124527   0.230   6.204   4.916
 7876SOL    HW224528   0.138   6.319   4.987
 7877SOL     OW24529   0.823   2.410   2.695
 7877SOL    HW124530   0.756   2.410   2.620
 7877SOL    HW224531   0.887   2.334   2.682
 7878SOL     OW24532   5.551   5.060   3.772
 7878SOL    HW124533   5.647   5.066   3.744
 7878SOL    HW224534   5.507   5.149   3.762
 7879SOL     OW24535   4.466   5.650   3.727
 7879SOL    HW124536   4.504   5.576   3.672
 7879SOL    HW224537   4.427   5.611   3.811
 7880SOL     OW24538   2.024   5.086   1.678
 7880SOL    HW124539   2.082   5.020   1.630
 7880SOL    HW224540   2.082   5.147   1.733
 7881SOL     OW24541   5.696   4.024   5.091
 7881SOL    HW124542   5.651   4.033   5.002
 7881SOL    HW224543   5.777   3.965   5.082
 7882SOL     OW24544   1.048   3.226   3.266
 7882SOL    HW124545   0.974   3.283   3.303
 7882SOL    HW224546   1.116   3.284   3.222
 7883SOL     OW24547   1.367   0.610   0.177
 7883SOL    HW124548   1.445   0.557   0.143
 7883SOL    HW224549   1.341   0.579   0.268
 7884SOL     OW24550   2.266   4.138   3.496
 7884SOL    HW124551   2.197   4.176   3.558
 7884SOL    HW224552   2.265   4.189   3.410
 7885SOL     OW24553   6.260   5.749   1.329
 7885SOL    HW124554   6.218   5.705   1.408
 7885SOL    HW224555   6.257   5.848   1.341
 7886SOL     OW24556   3.455   5.485   0.642
 7886SOL    HW124557   3.488   5.539   0.564
 7886SOL    HW224558   3.408   5.403   0.608
 7887SOL     OW24559   3.331   2.580   5.278
 7887SOL    HW124560   3.295   2.498   5.235
 7887SOL    HW224561   3.387   2.554   5.357
 7888SOL     OW24562   6.603   6.633   5.207
 7888SOL    HW124563   6.522   6.586   5.170
 7888SOL    HW224564   6.662   6.661   5.132
 7889SOL     OW24565   0.990   4.763   0.280
 7889SOL    HW124566   1.087   4.784   0.288
 7889SOL    HW224567   0.951   4.749   0.371
 7890SOL     OW24568   0.371   3.141   3.513
 7890SOL    HW124569   0.325   3.054   3.529
 7890SOL    HW224570   0.386   3.153   3.414
 7891SOL     OW24571   2.014   4.456   4.491
 7891SOL    HW124572   2.071   4.381   4.458
 7891SOL    HW224573   1.919   4.426   4.497
 7892SOL     OW24574   1.907   1.998   3.993
 7892SOL    HW124575   1.833   2.007   3.927
 7892SOL    HW224576   1.945   1.905   3.987
 7893SOL     OW24577   6.269   6.429   1.658
 7893SOL    HW124578   6.173   6.452   1.642
 7893SOL    HW224579   6.323   6.513   1.666
 7894SOL     OW24580   3.952   7.019   0.933
 7894SOL    HW124581   3.961   0.062   1.002
 7894SOL    HW224582   4.039   7.009   0.884
 7895SOL     OW24583   5.546   0.202   5.192
 7895SOL    HW124584   5.543   0.125   5.129
 7895SOL    HW224585   5.516   0.172   5.283
 7896SOL     OW24586   4.318   3.393   1.198
 7896SOL    HW124587   4.327   3.330   1.120
 7896SOL    HW224588   4.356   3.482   1.173
 7897SOL     OW24589   3.603   2.888   1.077
 7897SOL    HW124590   3.648   2.968   1.117
 7897SOL    HW224591   3.550   2.841   1.148
 7898SOL     OW24592   3.675   0.923   3.740
 7898SOL    HW124593   3.634   0.910   3.650
 7898SOL    HW224594   3.725   0.840   3.766
 7899SOL     OW24595   5.966   0.508   1.153
 7899SOL    HW124596   6.033   0.581   1.163
 7899SOL    HW224597   5.930   0.482   1.242
 7900SOL     OW24598   2.001   5.462   2.099
 7900SOL    HW124599   1.934   5.529   2.131
 7900SOL    HW224600   1.955   5.394   2.041
 7901SOL     OW24601   3.934   1.138   6.555
 7901SOL    HW124602   3.923   1.094   6.465
 7901SOL    HW224603   3.849   1.184   6.581
 7902SOL     OW24604   6.546   6.947   1.448
 7902SOL    HW124605   6.582   0.006   1.414
 7902SOL    HW224606   6.522   6.956   1.544
 7903SOL     OW24607   4.536   1.418   2.425
 7903SOL    HW124608   4.584   1.506   2.417
 7903SOL    HW224609   4.455   1.419   2.368
 7904SOL     OW24610   5.588   6.024   2.838
 7904SOL    HW124611   5.649   5.985   2.907
 7904SOL    HW224612   5.509   6.066   2.883
 7905SOL     OW24613   5.885   2.246   0.345
 7905SOL    HW124614   5.926   2.156   0.335
 7905SOL    HW224615   5.871   2.266   0.442
 7906SOL     OW24616   0.676   5.263   0.494
 7906SOL    HW124617   0.578   5.264   0.511
 7906SOL    HW224618   0.702   5.344   0.442
 7907SOL     OW24619   5.251   2.147   3.229
 7907SOL    HW124620   5.248   2.089   3.148
 7907SOL    HW224621   5.277   2.239   3.203
 7908SOL     OW24622   1.794   1.085   5.646
 7908SOL    HW124623   1.807   0.995   5.688
 7908SOL    HW224624   1.735   1.141   5.705
 7909SOL     OW24625   4.706   4.556   4.226
 7909SOL    HW124626   4.614   4.571   4.262
 7909SOL    HW224627   4.767   4.629   4.257
 7910SOL     OW24628   2.767   3.199   6.176
 7910SOL    HW124629   2.777   3.182   6.078
 7910SOL    HW224630   2.853   3.176   6.223
 7911SOL     OW24631   1.053   4.128   0.328
 7911SOL    HW124632   0.961   4.151   0.358
 7911SOL    HW224633   1.117   4.199   0.359
 7912SOL     OW24634   6.551   4.787   0.416
 7912SOL    HW124635   6.605   4.715   0.461
 7912SOL    HW224636   6.514   4.848   0.486
 7913SOL     OW24637   1.204   4.507   2.058
 7913SOL    HW124638   1.148   4.535   1.980
 7913SOL    HW224639   1.240   4.415   2.042
 7914SOL     OW24640   0.520   4.805   0.219
 7914SOL    HW124641   0.576   4.860   0.282
 7914SOL    HW224642   0.437   4.856   0.196
 7915SOL     OW24643   4.979   2.391   1.720
 7915SOL    HW124644   4.880   2.405   1.719
 7915SOL    HW224645   5.006   2.337   1.641
 7916SOL     OW24646   0.268   5.258   5.126
 7916SOL    HW124647   0.352   5.213   5.095
 7916SOL    HW224648   0.233   5.211   5.207
 7917SOL     OW24649   3.289   3.104   4.999
 7917SOL    HW124650   3.190   3.110   4.987
 7917SOL    HW224651   3.316   3.008   5.004
 7918SOL     OW24652   0.543   0.544   4.891
 7918SOL    HW124653   0.562   0.501   4.979
 7918SOL    HW224654   0.448   0.529   4.865
 7919SOL     OW24655   1.500   4.402   3.532
 7919SOL    HW124656   1.454   4.315   3.545
 7919SOL    HW224657   1.581   4.406   3.591
 7920SOL     OW24658   0.402   0.184   0.735
 7920SOL    HW124659   0.342   0.189   0.815
 7920SOL    HW224660   0.356   0.133   0.662
 7921SOL     OW24661   5.186   5.992   2.151
 7921SOL    HW124662   5.196   5.926   2.076
 7921SOL    HW224663   5.173   5.943   2.237
 7922SOL     OW24664   0.223   6.302   0.977
 7922SOL    HW124665   0.259   6.287   1.069
 7922SOL    HW224666   0.286   6.264   0.910
 7923SOL     OW24667   3.515   0.459   6.857
 7923SOL    HW124668   3.566   0.463   6.771
 7923SOL    HW224669   3.551   0.528   6.920
 7924SOL     OW24670   4.920   7.021   2.168
 7924SOL    HW124671   4.869   6.938   2.146
 7924SOL    HW224672   5.018   7.004   2.160
 7925SOL     OW24673   0.814   0.852   6.366
 7925SOL    HW124674   0.904   0.824   6.335
 7925SOL    HW224675   0.766   0.773   6.405
 7926SOL     OW24676   4.633   1.614   5.594
 7926SOL    HW124677   4.656   1.686   5.660
 7926SOL    HW224678   4.702   1.542   5.598
 7927SOL     OW24679   4.160   5.827   3.343
 7927SOL    HW124680   4.234   5.893   3.328
 7927SOL    HW224681   4.192   5.735   3.320
 7928SOL     OW24682   1.606   1.381   5.042
 7928SOL    HW124683   1.509   1.358   5.040
 7928SOL    HW224684   1.623   1.461   4.984
 7929SOL     OW24685   4.777   4.535   5.609
 7929SOL    HW124686   4.755   4.459   5.671
 7929SOL    HW224687   4.869   4.522   5.571
 7930SOL     OW24688   4.470   5.422   4.625
 7930SOL    HW124689   4.475   5.376   4.714
 7930SOL    HW224690   4.550   5.480   4.613
 7931SOL     OW24691   3.326   2.833   0.126
 7931SOL    HW124692   3.226   2.835   0.122
 7931SOL    HW224693   3.357   2.881   0.208
 7932SOL     OW24694   1.279   6.701   0.051
 7932SOL    HW124695   1.239   6.614   0.081
 7932SOL    HW224696   1.340   6.735   0.123
 7933SOL     OW24697   0.396   5.986   6.452
 7933SOL    HW124698   0.311   5.964   6.404
 7933SOL    HW224699   0.384   5.972   6.550
 7934SOL     OW24700   1.712   4.873   6.611
 7934SOL    HW124701   1.761   4.791   6.580
 7934SOL    HW224702   1.621   4.847   6.642
 7935SOL     OW24703   5.633   6.483   1.154
 7935SOL    HW124704   5.641   6.582   1.169
 7935SOL    HW224705   5.544   6.463   1.114
 7936SOL     OW24706   3.837   5.855   2.031
 7936SOL    HW124707   3.927   5.813   2.017
 7936SOL    HW224708   3.839   5.949   1.998
 7937SOL     OW24709   6.504   6.264   3.722
 7937SOL    HW124710   6.437   6.210   3.671
 7937SOL    HW224711   6.573   6.298   3.658
 7938SOL     OW24712   6.842   5.792   4.001
 7938SOL    HW124713   6.790   5.857   4.058
 7938SOL    HW224714   6.779   5.743   3.941
 7939SOL     OW24715   1.446   2.508   4.416
 7939SOL    HW124716   1.521   2.480   4.356
 7939SOL    HW224717   1.390   2.429   4.438
 7940SOL     OW24718   1.939   3.074   1.212
 7940SOL    HW124719   1.854   3.072   1.266
 7940SOL    HW224720   1.990   3.157   1.233
 7941SOL     OW24721   6.082   0.612   1.905
 7941SOL    HW124722   6.129   0.663   1.977
 7941SOL    HW224723   6.121   0.520   1.899
 7942SOL     OW24724   6.652   5.543   2.567
 7942SOL    HW124725   6.744   5.577   2.580
 7942SOL    HW224726   6.655   5.455   2.519
 7943SOL     OW24727   6.808   3.511   6.512
 7943SOL    HW124728   6.895   3.462   6.521
 7943SOL    HW224729   6.733   3.449   6.533
 7944SOL     OW24730   0.456   2.474   1.231
 7944SOL    HW124731   0.389   2.453   1.160
 7944SOL    HW224732   0.537   2.416   1.218
 7945SOL     OW24733   6.016   5.318   1.543
 7945SOL    HW124734   6.091   5.354   1.599
 7945SOL    HW224735   5.933   5.314   1.597
 7946SOL     OW24736   3.324   0.598   6.423
 7946SOL    HW124737   3.228   0.610   6.399
 7946SOL    HW224738   3.372   0.685   6.415
 7947SOL     OW24739   3.606   2.276   6.710
 7947SOL    HW124740   3.689   2.275   6.765
 7947SOL    HW224741   3.528   2.248   6.766
 7948SOL     OW24742   1.015   6.883   0.967
 7948SOL    HW124743   1.107   6.848   0.947
 7948SOL    HW224744   0.954   6.864   0.890
 7949SOL     OW24745   4.469   4.595   4.802
 7949SOL    HW124746   4.395   4.607   4.869
 7949SOL    HW224747   4.555   4.629   4.840
 7950SOL     OW24748   4.643   5.248   3.938
 7950SOL    HW124749   4.592   5.335   3.931
 7950SOL    HW224750   4.584   5.173   3.907
 7951SOL     OW24751   2.305   4.107   1.930
 7951SOL    HW124752   2.386   4.088   1.873
 7951SOL    HW224753   2.224   4.112   1.871
 7952SOL     OW24754   0.243   3.779   0.001
 7952SOL    HW124755   0.239   3.716   6.952
 7952SOL    HW224756   0.150   3.807   0.025
 7953SOL     OW24757   3.000   2.099   3.500
 7953SOL    HW124758   3.099   2.111   3.499
 7953SOL    HW224759   2.971   2.068   3.591
 7954SOL     OW24760   3.228   4.707   6.514
 7954SOL    HW124761   3.143   4.708   6.567
 7954SOL    HW224762   3.289   4.636   6.550
 7955SOL     OW24763   1.796   0.897   6.526
 7955SOL    HW124764   1.746   0.848   6.597
 7955SOL    HW224765   1.768   0.993   6.525
 7956SOL     OW24766   4.078   6.423   2.689
 7956SOL    HW124767   4.092   6.339   2.636
 7956SOL    HW224768   4.035   6.492   2.630
 7957SOL     OW24769   0.891   0.678   1.339
 7957SOL    HW124770   0.982   0.695   1.303
 7957SOL    HW224771   0.894   0.682   1.439
 7958SOL     OW24772   3.717   4.942   5.325
 7958SOL    HW124773   3.669   5.029   5.321
 7958SOL    HW224774   3.758   4.929   5.415
 7959SOL     OW24775   4.554   6.036   0.335
 7959SOL    HW124776   4.599   6.114   0.292
 7959SOL    HW224777   4.618   5.960   0.340
 7960SOL     OW24778   2.769   1.594   5.850
 7960SOL    HW124779   2.799   1.500   5.836
 7960SOL    HW224780   2.732   1.604   5.942
 7961SOL     OW24781   6.513   1.133   0.878
 7961SOL    HW124782   6.526   1.034   0.880
 7961SOL    HW224783   6.482   1.165   0.967
 7962SOL     OW24784   1.170   0.523   6.487
 7962SOL    HW124785   1.188   0.440   6.538
 7962SOL    HW224786   1.256   0.558   6.448
 7963SOL     OW24787   6.443   6.436   4.118
 7963SOL    HW124788   6.405   6.431   4.210
 7963SOL    HW224789   6.416   6.522   4.075
 7964SOL     OW24790   0.328   4.566   2.394
 7964SOL    HW124791   0.266   4.491   2.416
 7964SOL    HW224792   0.275   4.644   2.363
 7965SOL     OW24793   4.511   2.686   5.718
 7965SOL    HW124794   4.449   2.611   5.693
 7965SOL    HW224795   4.598   2.647   5.750
 7966SOL     OW24796   1.844   2.709   5.528
 7966SOL    HW124797   1.878   2.730   5.436
 7966SOL    HW224798   1.922   2.693   5.589
 7967SOL     OW24799   3.079   6.620   2.858
 7967SOL    HW124800   3.167   6.613   2.812
 7967SOL    HW224801   3.017   6.550   2.824
 7968SOL     OW24802   1.874   2.943   3.414
 7968SOL    HW124803   1.885   2.910   3.508
 7968SOL    HW224804   1.854   3.041   3.414
 7969SOL     OW24805   3.921   6.253   6.794
 7969SOL    HW124806   3.948   6.160   6.820
 7969SOL    HW224807   3.827   6.253   6.762
 7970SOL     OW24808   6.383   2.873   2.648
 7970SOL    HW124809   6.319   2.912   2.581
 7970SOL    HW224810   6.473   2.915   2.637
 7971SOL     OW24811   3.279   1.907   0.520
 7971SOL    HW124812   3.296   1.928   0.616
 7971SOL    HW224813   3.332   1.826   0.494
 7972SOL     OW24814   2.264   2.941   0.079
 7972SOL    HW124815   2.227   2.934   0.172
 7972SOL    HW224816   2.252   3.035   0.045
 7973SOL     OW24817   4.239   4.753   4.414
 7973SOL    HW124818   4.295   4.826   4.451
 7973SOL    HW224819   4.178   4.717   4.485
 7974SOL     OW24820   6.206   0.715   5.556
 7974SOL    HW124821   6.240   0.806   5.533
 7974SOL    HW224822   6.243   0.686   5.645
 7975SOL     OW24823   6.466   1.406   2.153
 7975SOL    HW124824   6.468   1.495   2.198
 7975SOL    HW224825   6.405   1.410   2.074
 7976SOL     OW24826   0.308   0.353   5.891
 7976SOL    HW124827   0.406   0.374   5.889
 7976SOL    HW224828   0.293   0.272   5.948
 7977SOL     OW24829   4.610   6.017   2.745
 7977SOL    HW124830   4.517   6.047   2.725
 7977SOL    HW224831   4.617   5.918   2.733
 7978SOL     OW24832   5.601   3.892   6.654
 7978SOL    HW124833   5.698   3.903   6.675
 7978SOL    HW224834   5.564   3.813   6.704
 7979SOL     OW24835   4.023   6.016   5.176
 7979SOL    HW124836   3.940   6.071   5.192
 7979SOL    HW224837   4.052   6.029   5.081
 7980SOL     OW24838   3.069   5.611   0.207
 7980SOL    HW124839   3.144   5.650   0.260
 7980SOL    HW224840   2.982   5.644   0.243
 7981SOL     OW24841   0.509   5.258   1.085
 7981SOL    HW124842   0.485   5.283   1.179
 7981SOL    HW224843   0.578   5.322   1.050
 7982SOL     OW24844   1.435   1.478   6.660
 7982SOL    HW124845   1.383   1.436   6.735
 7982SOL    HW224846   1.459   1.408   6.593
 7983SOL     OW24847   5.758   1.981   1.649
 7983SOL    HW124848   5.683   2.042   1.623
 7983SOL    HW224849   5.810   1.956   1.567
 7984SOL     OW24850   1.106   1.443   0.500
 7984SOL    HW124851   1.134   1.388   0.580
 7984SOL    HW224852   1.188   1.483   0.457
 7985SOL     OW24853   2.776   1.184   4.223
 7985SOL    HW124854   2.811   1.090   4.216
 7985SOL    HW224855   2.815   1.228   4.304
 7986SOL     OW24856   3.204   1.167   6.177
 7986SOL    HW124857   3.269   1.170   6.253
 7986SOL    HW224858   3.248   1.208   6.096
 7987SOL     OW24859   1.332   2.782   6.350
 7987SOL    HW124860   1.352   2.879   6.362
 7987SOL    HW224861   1.310   2.765   6.254
 7988SOL     OW24862   0.734   2.420   3.799
 7988SOL    HW124863   0.808   2.485   3.820
 7988SOL    HW224864   0.721   2.359   3.877
 7989SOL     OW24865   3.167   2.760   6.279
 7989SOL    HW124866   3.246   2.810   6.243
 7989SOL    HW224867   3.177   2.748   6.378
 7990SOL     OW24868   0.633   3.837   4.718
 7990SOL    HW124869   0.706   3.903   4.736
 7990SOL    HW224870   0.652   3.752   4.767
 7991SOL     OW24871   5.754   6.780   3.683
 7991SOL    HW124872   5.849   6.750   3.682
 7991SOL    HW224873   5.698   6.709   3.726
 7992SOL     OW24874   1.317   0.215   1.134
 7992SOL    HW124875   1.347   0.176   1.047
 7992SOL    HW224876   1.249   0.286   1.116
 7993SOL     OW24877   0.733   0.024   0.554
 7993SOL    HW124878   0.670   0.034   0.631
 7993SOL    HW224879   0.734   0.109   0.501
 7994SOL     OW24880   4.011   0.110   3.408
 7994SOL    HW124881   3.911   0.104   3.399
 7994SOL    HW224882   4.037   0.206   3.422
 7995SOL     OW24883   4.808   5.984   3.973
 7995SOL    HW124884   4.860   6.026   3.898
 7995SOL    HW224885   4.720   5.952   3.939
 7996SOL     OW24886   2.534   6.547   4.536
 7996SOL    HW124887   2.622   6.531   4.580
 7996SOL    HW224888   2.539   6.520   4.440
 7997SOL     OW24889   0.045   1.481   1.064
 7997SOL    HW124890   7.013   1.559   1.046
 7997SOL    HW224891   0.031   1.449   1.158
 7998SOL     OW24892   2.877   6.807   0.852
 7998SOL    HW124893   2.922   6.785   0.939
 7998SOL    HW224894   2.876   6.906   0.840
 7999SOL     OW24895   1.168   0.099   6.313
 7999SOL    HW124896   1.127   0.010   6.292
 7999SOL    HW224897   1.146   0.164   6.240
 8000SOL     OW24898   4.969   0.430   6.962
 8000SOL    HW124899   4.999   0.519   6.997
 8000SOL    HW224900   4.950   0.368   0.010
 8001SOL     OW24901   4.398   6.466   1.188
 8001SOL    HW124902   4.318   6.483   1.131
 8001SOL    HW224903   4.477   6.513   1.150
 8002SOL     OW24904   1.116   1.406   5.899
 8002SOL    HW124905   1.084   1.409   5.804
 8002SOL    HW224906   1.215   1.413   5.901
 8003SOL     OW24907   3.290   5.308   2.488
 8003SOL    HW124908   3.369   5.326   2.546
 8003SOL    HW224909   3.268   5.389   2.435
 8004SOL     OW24910   2.124   3.414   2.977
 8004SOL    HW124911   2.028   3.387   2.971
 8004SOL    HW224912   2.173   3.349   3.034
 8005SOL     OW24913   3.378   0.826   1.459
 8005SOL    HW124914   3.375   0.916   1.503
 8005SOL    HW224915   3.312   0.824   1.384
 8006SOL     OW24916   1.868   6.821   6.152
 8006SOL    HW124917   1.935   6.817   6.227
 8006SOL    HW224918   1.884   6.904   6.099
 8007SOL     OW24919   6.509   0.487   4.459
 8007SOL    HW124920   6.419   0.467   4.496
 8007SOL    HW224921   6.557   0.550   4.520
 8008SOL     OW24922   4.043   5.469   6.486
 8008SOL    HW124923   3.995   5.384   6.462
 8008SOL    HW224924   4.008   5.544   6.431
 8009SOL     OW24925   5.833   0.841   2.516
 8009SOL    HW124926   5.787   0.888   2.592
 8009SOL    HW224927   5.843   0.744   2.538
 8010SOL     OW24928   1.381   1.514   5.953
 8010SOL    HW124929   1.479   1.530   5.941
 8010SOL    HW224930   1.351   1.555   6.039
 8011SOL     OW24931   2.994   2.652   1.233
 8011SOL    HW124932   3.007   2.655   1.134
 8011SOL    HW224933   3.077   2.685   1.278
 8012SOL     OW24934   2.011   3.884   1.436
 8012SOL    HW124935   2.065   3.929   1.506
 8012SOL    HW224936   2.011   3.938   1.352
 8013SOL     OW24937   1.461   5.166   3.392
 8013SOL    HW124938   1.404   5.203   3.319
 8013SOL    HW224939   1.508   5.083   3.359
 8014SOL     OW24940   0.917   6.350   5.393
 8014SOL    HW124941   0.826   6.391   5.392
 8014SOL    HW224942   0.930   6.296   5.310
 8015SOL     OW24943   3.056   0.586   6.381
 8015SOL    HW124944   3.003   0.625   6.456
 8015SOL    HW224945   3.002   0.590   6.297
 8016SOL     OW24946   4.993   0.364   5.821
 8016SOL    HW124947   4.993   0.294   5.893
 8016SOL    HW224948   5.057   0.337   5.749
 8017SOL     OW24949   5.778   0.111   0.480
 8017SOL    HW124950   5.731   0.097   0.568
 8017SOL    HW224951   5.831   0.029   0.458
 8018SOL     OW24952   3.224   1.971   6.036
 8018SOL    HW124953   3.169   2.034   5.982
 8018SOL    HW224954   3.230   2.004   6.130
 8019SOL     OW24955   2.455   4.138   0.123
 8019SOL    HW124956   2.401   4.123   0.040
 8019SOL    HW224957   2.439   4.231   0.157
 8020SOL     OW24958   5.844   0.976   1.271
 8020SOL    HW124959   5.904   0.971   1.350
 8020SOL    HW224960   5.798   0.888   1.259
 8021SOL     OW24961   0.982   2.619   1.055
 8021SOL    HW124962   0.941   2.695   1.005
 8021SOL    HW224963   1.074   2.644   1.085
 8022SOL     OW24964   5.313   6.603   3.205
 8022SOL    HW124965   5.330   6.561   3.116
 8022SOL    HW224966   5.224   6.648   3.203
 8023SOL     OW24967   5.644   5.042   2.820
 8023SOL    HW124968   5.637   5.135   2.784
 8023SOL    HW224969   5.591   5.035   2.905
 8024SOL     OW24970   1.914   4.799   6.249
 8024SOL    HW124971   1.815   4.787   6.257
 8024SOL    HW224972   1.948   4.751   6.168
 8025SOL     OW24973   1.776   6.358   6.550
 8025SOL    HW124974   1.836   6.412   6.490
 8025SOL    HW224975   1.725   6.420   6.610
 8026SOL     OW24976   0.683   4.434   6.767
 8026SOL    HW124977   0.773   4.465   6.798
 8026SOL    HW224978   0.692   4.387   6.679
 8027SOL     OW24979   4.391   0.998   4.924
 8027SOL    HW124980   4.347   1.032   4.840
 8027SOL    HW224981   4.387   0.899   4.925
 8028SOL     OW24982   3.635   5.201   5.354
 8028SOL    HW124983   3.702   5.237   5.418
 8028SOL    HW224984   3.544   5.203   5.397
 8029SOL     OW24985   4.880   3.106   1.457
 8029SOL    HW124986   4.788   3.100   1.494
 8029SOL    HW224987   4.930   3.178   1.504
 8030SOL     OW24988   4.466   4.404   1.040
 8030SOL    HW124989   4.532   4.387   0.967
 8030SOL    HW224990   4.495   4.483   1.094
 8031SOL     OW24991   6.324   6.721   1.883
 8031SOL    HW124992   6.355   6.680   1.797
 8031SOL    HW224993   6.233   6.761   1.870
 8032SOL     OW24994   6.643   4.725   1.578
 8032SOL    HW124995   6.587   4.769   1.649
 8032SOL    HW224996   6.661   4.791   1.505
 8033SOL     OW24997   5.162   1.175   5.638
 8033SOL    HW124998   5.094   1.131   5.580
 8033SOL    HW224999   5.119   1.249   5.690
 8034SOL     OW25000   4.784   0.126   4.379
 8034SOL    HW125001   4.686   0.139   4.363
 8034SOL    HW225002   4.821   0.204   4.429
 8035SOL     OW25003   5.028   1.843   4.196
 8035SOL    HW125004   5.096   1.891   4.252
 8035SOL    HW225005   4.939   1.845   4.241
 8036SOL     OW25006   6.724   3.681   3.266
 8036SOL    HW125007   6.792   3.751   3.243
 8036SOL    HW225008   6.769   3.592   3.270
 8037SOL     OW25009   1.842   3.189   0.091
 8037SOL    HW125010   1.793   3.104   0.112
 8037SOL    HW225011   1.778   3.255   0.051
 8038SOL     OW25012   3.905   6.900   2.663
 8038SOL    HW125013   3.965   6.922   2.740
 8038SOL    HW225014   3.830   6.843   2.694
 8039SOL     OW25015   0.763   1.530   4.520
 8039SOL    HW125016   0.691   1.599   4.521
 8039SOL    HW225017   0.735   1.453   4.462
 8040SOL     OW25018   1.667   5.257   6.720
 8040SOL    HW125019   1.689   5.207   6.636
 8040SOL    HW225020   1.752   5.281   6.767
 8041SOL     OW25021   2.157   1.759   2.595
 8041SOL    HW125022   2.240   1.707   2.615
 8041SOL    HW225023   2.080   1.697   2.585
 8042SOL     OW25024   2.994   3.200   4.028
 8042SOL    HW125025   3.070   3.245   3.982
 8042SOL    HW225026   2.967   3.253   4.108
 8043SOL     OW25027   3.849   6.857   1.504
 8043SOL    HW125028   3.808   6.766   1.501
 8043SOL    HW225029   3.948   6.850   1.489
 8044SOL     OW25030   4.015   2.180   1.211
 8044SOL    HW125031   4.081   2.124   1.161
 8044SOL    HW225032   4.000   2.142   1.302
 8045SOL     OW25033   5.136   1.914   2.757
 8045SOL    HW125034   5.132   1.986   2.688
 8045SOL    HW225035   5.045   1.902   2.798
 8046SOL     OW25036   0.200   5.331   1.175
 8046SOL    HW125037   0.277   5.352   1.234
 8046SOL    HW225038   0.123   5.298   1.230
 8047SOL     OW25039   4.264   5.913   4.493
 8047SOL    HW125040   4.357   5.879   4.507
 8047SOL    HW225041   4.223   5.867   4.414
 8048SOL     OW25042   5.303   0.962   5.758
 8048SOL    HW125043   5.272   1.036   5.698
 8048SOL    HW225044   5.386   0.921   5.721
 8049SOL     OW25045   0.788   0.169   0.145
 8049SOL    HW125046   0.768   0.112   0.066
 8049SOL    HW225047   0.715   0.237   0.156
 8050SOL     OW25048   1.367   4.166   3.615
 8050SOL    HW125049   1.421   4.193   3.694
 8050SOL    HW225050   1.367   4.067   3.607
 8051SOL     OW25051   4.516   5.854   3.517
 8051SOL    HW125052   4.470   5.791   3.579
 8051SOL    HW225053   4.598   5.891   3.561
 8052SOL     OW25054   4.244   1.112   1.762
 8052SOL    HW125055   4.218   1.197   1.808
 8052SOL    HW225056   4.226   1.121   1.664
 8053SOL     OW25057   2.962   3.731   3.667
 8053SOL    HW125058   2.980   3.829   3.664
 8053SOL    HW225059   3.018   3.685   3.598
 8054SOL     OW25060   5.674   6.676   4.772
 8054SOL    HW125061   5.629   6.689   4.860
 8054SOL    HW225062   5.652   6.752   4.711
 8055SOL     OW25063   0.858   0.021   5.624
 8055SOL    HW125064   0.787   0.063   5.681
 8055SOL    HW225065   0.947   0.035   5.665
 8056SOL     OW25066   2.400   1.433   4.061
 8056SOL    HW125067   2.381   1.426   4.159
 8056SOL    HW225068   2.485   1.384   4.040
 8057SOL     OW25069   2.885   2.319   3.052
 8057SOL    HW125070   2.878   2.357   3.145
 8057SOL    HW225071   2.793   2.296   3.020
 8058SOL     OW25072   3.679   0.059   2.668
 8058SOL    HW125073   3.766   0.066   2.717
 8058SOL    HW225074   3.693   0.077   2.571
 8059SOL     OW25075   3.142   1.994   5.010
 8059SOL    HW125076   3.133   2.091   5.031
 8059SOL    HW225077   3.226   1.958   5.053
 8060SOL     OW25078   6.116   2.280   4.774
 8060SOL    HW125079   6.189   2.304   4.839
 8060SOL    HW225080   6.150   2.212   4.710
 8061SOL     OW25081   0.368   1.028   2.712
 8061SOL    HW125082   0.275   1.010   2.679
 8061SOL    HW225083   0.433   1.017   2.637
 8062SOL     OW25084   3.730   4.873   3.682
 8062SOL    HW125085   3.774   4.803   3.738
 8062SOL    HW225086   3.640   4.894   3.719
 8063SOL     OW25087   1.285   2.647   1.851
 8063SOL    HW125088   1.310   2.727   1.905
 8063SOL    HW225089   1.186   2.642   1.843
 8064SOL     OW25090   0.020   3.324   1.713
 8064SOL    HW125091   0.103   3.369   1.682
 8064SOL    HW225092   7.021   3.255   1.646
 8065SOL     OW25093   2.438   5.495   3.576
 8065SOL    HW125094   2.373   5.449   3.637
 8065SOL    HW225095   2.530   5.485   3.613
 8066SOL     OW25096   0.646   2.003   5.081
 8066SOL    HW125097   0.564   1.960   5.042
 8066SOL    HW225098   0.727   1.953   5.051
 8067SOL     OW25099   4.702   2.723   1.905
 8067SOL    HW125100   4.706   2.820   1.928
 8067SOL    HW225101   4.708   2.712   1.805
 8068SOL     OW25102   0.144   3.717   1.317
 8068SOL    HW125103   0.166   3.814   1.312
 8068SOL    HW225104   0.111   3.695   1.409
 8069SOL     OW25105   2.712   6.015   1.588
 8069SOL    HW125106   2.620   5.976   1.593
 8069SOL    HW225107   2.739   6.048   1.678
 8070SOL     OW25108   4.206   3.388   0.543
 8070SOL    HW125109   4.132   3.443   0.583
 8070SOL    HW225110   4.225   3.311   0.603
 8071SOL     OW25111   2.765   6.309   4.458
 8071SOL    HW125112   2.760   6.319   4.358
 8071SOL    HW225113   2.694   6.246   4.489
 8072SOL     OW25114   3.775   1.457   0.774
 8072SOL    HW125115   3.686   1.412   0.779
 8072SOL    HW225116   3.816   1.460   0.865
 8073SOL     OW25117   3.198   5.294   4.758
 8073SOL    HW125118   3.260   5.289   4.679
 8073SOL    HW225119   3.195   5.205   4.804
 8074SOL     OW25120   4.000   2.876   0.452
 8074SOL    HW125121   3.952   2.919   0.529
 8074SOL    HW225122   4.045   2.947   0.397
 8075SOL     OW25123   0.246   0.539   0.904
 8075SOL    HW125124   0.283   0.482   0.976
 8075SOL    HW225125   0.284   0.511   0.816
 8076SOL     OW25126   6.483   1.225   5.493
 8076SOL    HW125127   6.544   1.184   5.562
 8076SOL    HW225128   6.531   1.299   5.446
 8077SOL     OW25129   2.804   6.065   2.928
 8077SOL    HW125130   2.842   6.069   2.836
 8077SOL    HW225131   2.878   6.056   2.995
 8078SOL     OW25132   0.139   1.847   0.725
 8078SOL    HW125133   0.179   1.886   0.642
 8078SOL    HW225134   0.113   1.752   0.707
 8079SOL     OW25135   4.629   1.946   3.515
 8079SOL    HW125136   4.631   2.039   3.552
 8079SOL    HW225137   4.715   1.900   3.534
 8080SOL     OW25138   0.819   2.450   0.946
 8080SOL    HW125139   0.764   2.485   0.870
 8080SOL    HW225140   0.869   2.525   0.989
 8081SOL     OW25141   6.132   5.868   5.391
 8081SOL    HW125142   6.141   5.769   5.408
 8081SOL    HW225143   6.098   5.882   5.298
 8082SOL     OW25144   4.403   6.916   2.277
 8082SOL    HW125145   4.428   6.911   2.180
 8082SOL    HW225146   4.477   6.879   2.333
 8083SOL     OW25147   4.970   3.306   3.227
 8083SOL    HW125148   4.948   3.322   3.130
 8083SOL    HW225149   4.943   3.386   3.280
 8084SOL     OW25150   4.175   6.954   0.390
 8084SOL    HW125151   4.199   0.003   0.449
 8084SOL    HW225152   4.257   6.922   0.342
 8085SOL     OW25153   6.847   6.432   1.776
 8085SOL    HW125154   6.883   6.377   1.700
 8085SOL    HW225155   6.877   6.393   1.863
 8086SOL     OW25156   5.710   0.425   2.976
 8086SOL    HW125157   5.762   0.385   2.900
 8086SOL    HW225158   5.744   0.517   2.995
 8087SOL     OW25159   2.838   1.366   0.202
 8087SOL    HW125160   2.845   1.448   0.146
 8087SOL    HW225161   2.912   1.364   0.268
 8088SOL     OW25162   5.345   2.063   1.073
 8088SOL    HW125163   5.405   1.994   1.113
 8088SOL    HW225164   5.398   2.122   1.013
 8089SOL     OW25165   5.647   2.460   0.670
 8089SOL    HW125166   5.576   2.461   0.599
 8089SOL    HW225167   5.711   2.386   0.651
 8090SOL     OW25168   4.435   1.773   0.167
 8090SOL    HW125169   4.376   1.769   0.086
 8090SOL    HW225170   4.530   1.753   0.140
 8091SOL     OW25171   2.104   3.610   5.335
 8091SOL    HW125172   2.191   3.660   5.336
 8091SOL    HW225173   2.090   3.568   5.246
 8092SOL     OW25174   5.727   1.779   4.811
 8092SOL    HW125175   5.802   1.714   4.826
 8092SOL    HW225176   5.738   1.857   4.872
 8093SOL     OW25177   3.736   5.431   2.791
 8093SOL    HW125178   3.828   5.402   2.767
 8093SOL    HW225179   3.685   5.353   2.827
 8094SOL     OW25180   1.561   3.690   4.541
 8094SOL    HW125181   1.621   3.722   4.614
 8094SOL    HW225182   1.610   3.694   4.454
 8095SOL     OW25183   0.200   4.719   4.559
 8095SOL    HW125184   0.145   4.757   4.485
 8095SOL    HW225185   0.214   4.621   4.543
 8096SOL     OW25186   2.347   6.445   3.092
 8096SOL    HW125187   2.266   6.496   3.121
 8096SOL    HW225188   2.404   6.502   3.033
 8097SOL     OW25189   3.915   0.192   3.750
 8097SOL    HW125190   3.974   0.270   3.771
 8097SOL    HW225191   3.819   0.216   3.764
 8098SOL     OW25192   1.823   0.037   3.271
 8098SOL    HW125193   1.825   0.078   3.180
 8098SOL    HW225194   1.852   0.104   3.338
 8099SOL     OW25195   3.646   6.948   4.651
 8099SOL    HW125196   3.614   0.014   4.638
 8099SOL    HW225197   3.569   6.885   4.642
 8100SOL     OW25198   5.918   1.195   0.514
 8100SOL    HW125199   5.822   1.187   0.488
 8100SOL    HW225200   5.935   1.287   0.550
 8101SOL     OW25201   2.216   6.704   2.758
 8101SOL    HW125202   2.193   6.790   2.713
 8101SOL    HW225203   2.140   6.675   2.816
 8102SOL     OW25204   0.535   4.387   4.105
 8102SOL    HW125205   0.580   4.451   4.044
 8102SOL    HW225206   0.550   4.415   4.200
 8103SOL     OW25207   4.024   0.233   1.090
 8103SOL    HW125208   3.926   0.215   1.084
 8103SOL    HW225209   4.039   0.329   1.113
 8104SOL     OW25210   3.861   0.394   6.167
 8104SOL    HW125211   3.909   0.422   6.250
 8104SOL    HW225212   3.890   0.452   6.091
 8105SOL     OW25213   0.737   2.894   3.076
 8105SOL    HW125214   0.673   2.960   3.117
 8105SOL    HW225215   0.831   2.920   3.099
 8106SOL     OW25216   2.349   5.822   3.077
 8106SOL    HW125217   2.326   5.875   2.996
 8106SOL    HW225218   2.325   5.726   3.062
 8107SOL     OW25219   0.423   4.888   4.611
 8107SOL    HW125220   0.497   4.850   4.554
 8107SOL    HW225221   0.345   4.825   4.609
 8108SOL     OW25222   6.271   3.025   5.392
 8108SOL    HW125223   6.354   3.080   5.378
 8108SOL    HW225224   6.207   3.043   5.318
 8109SOL     OW25225   0.890   3.716   5.189
 8109SOL    HW125226   0.946   3.639   5.158
 8109SOL    HW225227   0.928   3.753   5.274
 8110SOL     OW25228   3.002   6.190   1.630
 8110SOL    HW125229   3.077   6.224   1.573
 8110SOL    HW225230   2.916   6.199   1.580
 8111SOL     OW25231   4.997   0.457   5.190
 8111SOL    HW125232   5.085   0.476   5.147
 8111SOL    HW225233   4.939   0.539   5.187
 8112SOL     OW25234   1.980   2.226   4.544
 8112SOL    HW125235   2.053   2.163   4.570
 8112SOL    HW225236   1.970   2.227   4.445
 8113SOL     OW25237   2.806   3.480   0.517
 8113SOL    HW125238   2.901   3.451   0.505
 8113SOL    HW225239   2.771   3.445   0.604
 8114SOL     OW25240   1.689   3.778   2.154
 8114SOL    HW125241   1.629   3.794   2.076
 8114SOL    HW225242   1.690   3.859   2.213
 8115SOL     OW25243   3.423   0.693   0.064
 8115SOL    HW125244   3.522   0.693   0.055
 8115SOL    HW225245   3.382   0.730   7.009
 8116SOL     OW25246   5.100   5.229   5.861
 8116SOL    HW125247   5.071   5.260   5.952
 8116SOL    HW225248   5.101   5.307   5.798
 8117SOL     OW25249   1.110   0.842   3.358
 8117SOL    HW125250   1.197   0.863   3.401
 8117SOL    HW225251   1.035   0.872   3.417
 8118SOL     OW25252   5.808   4.238   5.238
 8118SOL    HW125253   5.777   4.176   5.166
 8118SOL    HW225254   5.752   4.321   5.237
 8119SOL     OW25255   5.494   5.216   5.859
 8119SOL    HW125256   5.568   5.150   5.873
 8119SOL    HW225257   5.497   5.249   5.764
 8120SOL     OW25258   2.666   5.510   0.534
 8120SOL    HW125259   2.611   5.429   0.554
 8120SOL    HW225260   2.758   5.483   0.508
 8121SOL     OW25261   0.669   4.860   1.796
 8121SOL    HW125262   0.730   4.934   1.766
 8121SOL    HW225263   0.656   4.865   1.895
 8122SOL     OW25264   0.905   5.869   2.576
 8122SOL    HW125265   0.905   5.837   2.481
 8122SOL    HW225266   0.921   5.968   2.578
 8123SOL     OW25267   6.795   1.027   5.985
 8123SOL    HW125268   6.722   0.960   5.976
 8123SOL    HW225269   6.882   0.985   5.959
 8124SOL     OW25270   6.085   6.916   1.168
 8124SOL    HW125271   6.023   6.980   1.124
 8124SOL    HW225272   6.157   6.967   1.216
 8125SOL     OW25273   1.111   1.442   3.678
 8125SOL    HW125274   1.012   1.457   3.683
 8125SOL    HW225275   1.147   1.434   3.771
 8126SOL     OW25276   4.974   5.049   2.776
 8126SOL    HW125277   4.929   5.060   2.687
 8126SOL    HW225278   5.007   4.955   2.785
 8127SOL     OW25279   2.580   5.281   6.303
 8127SOL    HW125280   2.656   5.218   6.291
 8127SOL    HW225281   2.586   5.322   6.394
 8128SOL     OW25282   2.832   1.322   1.672
 8128SOL    HW125283   2.920   1.280   1.653
 8128SOL    HW225284   2.802   1.374   1.592
 8129SOL     OW25285   4.714   0.621   6.642
 8129SOL    HW125286   4.628   0.571   6.652
 8129SOL    HW225287   4.789   0.564   6.675
 8130SOL     OW25288   0.153   3.053   6.230
 8130SOL    HW125289   0.228   3.034   6.294
 8130SOL    HW225290   0.137   3.152   6.226
 8131SOL     OW25291   3.570   2.155   0.954
 8131SOL    HW125292   3.478   2.129   0.983
 8131SOL    HW225293   3.606   2.224   1.017
 8132SOL     OW25294   6.042   7.010   6.181
 8132SOL    HW125295   6.025   0.003   6.085
 8132SOL    HW225296   6.070   6.914   6.188
 8133SOL     OW25297   2.590   4.792   1.566
 8133SOL    HW125298   2.590   4.711   1.624
 8133SOL    HW225299   2.683   4.830   1.563
 8134SOL     OW25300   0.253   2.708   5.791
 8134SOL    HW125301   0.338   2.709   5.845
 8134SOL    HW225302   0.272   2.741   5.699
 8135SOL     OW25303   2.743   5.791   1.888
 8135SOL    HW125304   2.829   5.827   1.852
 8135SOL    HW225305   2.752   5.694   1.908
 8136SOL     OW25306   4.170   5.253   2.938
 8136SOL    HW125307   4.092   5.302   2.977
 8136SOL    HW225308   4.140   5.199   2.860
 8137SOL     OW25309   3.183   1.335   5.143
 8137SOL    HW125310   3.237   1.412   5.177
 8137SOL    HW225311   3.190   1.332   5.043
 8138SOL     OW25312   5.753   1.050   6.882
 8138SOL    HW125313   5.736   1.078   6.976
 8138SOL    HW225314   5.666   1.036   6.834
 8139SOL     OW25315   0.253   1.257   2.825
 8139SOL    HW125316   0.286   1.163   2.832
 8139SOL    HW225317   0.235   1.279   2.730
 8140SOL     OW25318   4.827   0.383   1.224
 8140SOL    HW125319   4.821   0.355   1.320
 8140SOL    HW225320   4.749   0.442   1.203
 8141SOL     OW25321   4.855   6.448   5.697
 8141SOL    HW125322   4.794   6.401   5.761
 8141SOL    HW225323   4.802   6.509   5.638
 8142SOL     OW25324   1.260   4.781   0.024
 8142SOL    HW125325   1.224   4.688   0.023
 8142SOL    HW225326   1.227   4.831   6.973
 8143SOL     OW25327   7.027   4.729   0.785
 8143SOL    HW125328   6.969   4.773   0.717
 8143SOL    HW225329   6.982   4.731   0.874
 8144SOL     OW25330   6.561   6.819   6.141
 8144SOL    HW125331   6.506   6.817   6.224
 8144SOL    HW225332   6.503   6.839   6.062
 8145SOL     OW25333   5.758   5.600   1.545
 8145SOL    HW125334   5.667   5.633   1.519
 8145SOL    HW225335   5.828   5.650   1.493
 8146SOL     OW25336   4.688   0.975   5.226
 8146SOL    HW125337   4.637   0.889   5.231
 8146SOL    HW225338   4.640   1.046   5.277
 8147SOL     OW25339   6.635   1.847   1.947
 8147SOL    HW125340   6.653   1.944   1.931
 8147SOL    HW225341   6.714   1.793   1.918
 8148SOL     OW25342   5.071   4.238   0.659
 8148SOL    HW125343   5.132   4.286   0.595
 8148SOL    HW225344   4.995   4.298   0.683
 8149SOL     OW25345   2.702   5.964   2.125
 8149SOL    HW125346   2.692   6.058   2.092
 8149SOL    HW225347   2.736   5.906   2.050
 8150SOL     OW25348   2.153   4.096   1.069
 8150SOL    HW125349   2.149   4.177   1.011
 8150SOL    HW225350   2.146   4.014   1.012
 8151SOL     OW25351   5.310   3.969   2.387
 8151SOL    HW125352   5.271   3.907   2.455
 8151SOL    HW225353   5.399   4.001   2.419
 8152SOL     OW25354   6.264   2.241   2.737
 8152SOL    HW125355   6.321   2.313   2.777
 8152SOL    HW225356   6.314   2.194   2.665
 8153SOL     OW25357   1.285   0.701   3.861
 8153SOL    HW125358   1.239   0.790   3.866
 8153SOL    HW225359   1.236   0.636   3.919
 8154SOL     OW25360   3.591   5.242   2.355
 8154SOL    HW125361   3.640   5.236   2.268
 8154SOL    HW225362   3.562   5.150   2.383
 8155SOL     OW25363   1.838   3.170   1.692
 8155SOL    HW125364   1.837   3.084   1.641
 8155SOL    HW225365   1.869   3.244   1.632
 8156SOL     OW25366   5.761   6.293   0.997
 8156SOL    HW125367   5.767   6.313   0.899
 8156SOL    HW225368   5.736   6.376   1.046
 8157SOL     OW25369   6.541   4.921   5.990
 8157SOL    HW125370   6.556   4.836   5.938
 8157SOL    HW225371   6.619   4.982   5.977
 8158SOL     OW25372   4.989   4.685   0.416
 8158SOL    HW125373   4.940   4.700   0.331
 8158SOL    HW225374   4.930   4.708   0.493
 8159SOL     OW25375   2.440   5.689   2.750
 8159SOL    HW125376   2.472   5.784   2.739
 8159SOL    HW225377   2.517   5.630   2.773
 8160SOL     OW25378   5.192   0.904   3.171
 8160SOL    HW125379   5.270   0.881   3.230
 8160SOL    HW225380   5.129   0.826   3.168
 8161SOL     OW25381   6.028   2.671   6.771
 8161SOL    HW125382   5.931   2.663   6.749
 8161SOL    HW225383   6.046   2.760   6.812
 8162SOL     OW25384   5.762   6.598   6.749
 8162SOL    HW125385   5.764   6.522   6.813
 8162SOL    HW225386   5.854   6.619   6.718
 8163SOL     OW25387   2.674   3.916   5.260
 8163SOL    HW125388   2.649   3.912   5.357
 8163SOL    HW225389   2.591   3.913   5.204
 8164SOL     OW25390   5.126   1.968   0.170
 8164SOL    HW125391   5.190   1.896   0.145
 8164SOL    HW225392   5.041   1.927   0.204
 8165SOL     OW25393   0.784   3.800   6.065
 8165SOL    HW125394   0.857   3.852   6.109
 8165SOL    HW225395   0.815   3.770   5.975
 8166SOL     OW25396   1.140   0.937   3.103
 8166SOL    HW125397   1.144   0.904   3.197
 8166SOL    HW225398   1.221   0.905   3.053
 8167SOL     OW25399   6.995   6.830   4.049
 8167SOL    HW125400   0.061   6.809   4.024
 8167SOL    HW225401   6.963   6.909   3.997
 8168SOL     OW25402   1.884   1.498   3.347
 8168SOL    HW125403   1.903   1.511   3.250
 8168SOL    HW225404   1.817   1.425   3.360
 8169SOL     OW25405   4.993   1.943   1.212
 8169SOL    HW125406   5.048   1.929   1.295
 8169SOL    HW225407   4.919   1.877   1.209
 8170SOL     OW25408   1.070   4.620   2.564
 8170SOL    HW125409   1.066   4.537   2.620
 8170SOL    HW225410   0.999   4.616   2.494
 8171SOL     OW25411   1.600   1.688   6.437
 8171SOL    HW125412   1.691   1.676   6.397
 8171SOL    HW225413   1.603   1.661   6.533
 8172SOL     OW25414   0.975   2.130   2.302
 8172SOL    HW125415   1.072   2.112   2.285
 8172SOL    HW225416   0.920   2.067   2.247
 8173SOL     OW25417   5.378   1.307   1.987
 8173SOL    HW125418   5.445   1.326   1.915
 8173SOL    HW225419   5.356   1.210   1.987
 8174SOL     OW25420   5.925   2.653   1.283
 8174SOL    HW125421   6.001   2.588   1.291
 8174SOL    HW225422   5.838   2.604   1.288
 8175SOL     OW25423   0.219   2.147   5.265
 8175SOL    HW125424   0.203   2.241   5.295
 8175SOL    HW225425   0.316   2.126   5.270
 8176SOL     OW25426   2.505   5.484   1.964
 8176SOL    HW125427   2.581   5.534   2.006
 8176SOL    HW225428   2.419   5.531   1.982
 8177SOL     OW25429   3.572   6.905   3.990
 8177SOL    HW125430   3.626   6.873   3.912
 8177SOL    HW225431   3.490   6.849   3.998
 8178SOL     OW25432   2.758   6.462   6.999
 8178SOL    HW125433   2.773   6.398   6.924
 8178SOL    HW225434   2.846   6.495   0.005
 8179SOL     OW25435   5.120   1.857   5.394
 8179SOL    HW125436   5.064   1.911   5.331
 8179SOL    HW225437   5.142   1.769   5.353
 8180SOL     OW25438   6.739   0.018   4.974
 8180SOL    HW125439   6.676   0.024   5.051
 8180SOL    HW225440   6.700   0.067   4.895
 8181SOL     OW25441   2.030   1.653   0.523
 8181SOL    HW125442   2.057   1.720   0.593
 8181SOL    HW225443   2.046   1.560   0.558
 8182SOL     OW25444   3.671   3.204   5.616
 8182SOL    HW125445   3.767   3.179   5.602
 8182SOL    HW225446   3.639   3.258   5.538
 8183SOL     OW25447   6.839   2.124   4.817
 8183SOL    HW125448   6.881   2.084   4.735
 8183SOL    HW225449   6.908   2.175   4.868
 8184SOL     OW25450   6.445   1.004   0.103
 8184SOL    HW125451   6.439   0.950   0.019
 8184SOL    HW225452   6.359   1.051   0.119
 8185SOL     OW25453   2.994   6.559   0.038
 8185SOL    HW125454   3.078   6.532   0.084
 8185SOL    HW225455   3.012   6.577   6.970
 8186SOL     OW25456   3.702   5.875   5.406
 8186SOL    HW125457   3.651   5.790   5.414
 8186SOL    HW225458   3.800   5.855   5.415
 8187SOL     OW25459   1.493   2.293   4.859
 8187SOL    HW125460   1.577   2.267   4.812
 8187SOL    HW225461   1.482   2.392   4.856
 8188SOL     OW25462   5.693   2.821   3.083
 8188SOL    HW125463   5.667   2.807   2.987
 8188SOL    HW225464   5.618   2.791   3.143
 8189SOL     OW25465   4.810   4.798   3.203
 8189SOL    HW125466   4.767   4.744   3.131
 8189SOL    HW225467   4.837   4.887   3.166
 8190SOL     OW25468   4.609   5.270   4.335
 8190SOL    HW125469   4.517   5.253   4.299
 8190SOL    HW225470   4.677   5.228   4.275
 8191SOL     OW25471   4.028   6.628   2.088
 8191SOL    HW125472   4.069   6.719   2.091
 8191SOL    HW225473   3.930   6.635   2.108
 8192SOL     OW25474   4.023   5.216   0.426
 8192SOL    HW125475   3.983   5.242   0.514
 8192SOL    HW225476   4.121   5.199   0.439
 8193SOL     OW25477   0.026   6.339   4.429
 8193SOL    HW125478   0.001   6.430   4.463
 8193SOL    HW225479   0.070   6.287   4.503
 8194SOL     OW25480   5.400   2.530   0.944
 8194SOL    HW125481   5.334   2.476   0.996
 8194SOL    HW225482   5.390   2.626   0.968
 8195SOL     OW25483   1.760   0.555   1.981
 8195SOL    HW125484   1.716   0.613   1.912
 8195SOL    HW225485   1.692   0.527   2.049
 8196SOL     OW25486   3.771   6.284   5.751
 8196SOL    HW125487   3.848   6.278   5.687
 8196SOL    HW225488   3.784   6.362   5.812
 8197SOL     OW25489   4.468   2.124   0.114
 8197SOL    HW125490   4.395   2.192   0.102
 8197SOL    HW225491   4.434   2.034   0.085
 8198SOL     OW25492   3.274   6.968   3.300
 8198SOL    HW125493   3.266   0.017   3.362
 8198SOL    HW225494   3.199   6.972   3.233
 8199SOL     OW25495   5.748   2.640   6.756
 8199SOL    HW125496   5.687   2.640   6.835
 8199SOL    HW225497   5.704   2.591   6.681
 8200SOL     OW25498   5.377   4.052   1.808
 8200SOL    HW125499   5.355   4.055   1.711
 8200SOL    HW225500   5.294   4.071   1.861
 8201SOL     OW25501   5.494   0.201   3.969
 8201SOL    HW125502   5.460   0.129   3.908
 8201SOL    HW225503   5.423   0.225   4.035
 8202SOL     OW25504   0.220   5.882   4.609
 8202SOL    HW125505   0.168   5.891   4.524
 8202SOL    HW225506   0.244   5.787   4.624
 8203SOL     OW25507   4.704   2.587   0.033
 8203SOL    HW125508   4.694   2.489   0.053
 8203SOL    HW225509   4.801   2.610   0.031
 8204SOL     OW25510   3.128   5.192   0.103
 8204SOL    HW125511   3.193   5.141   0.048
 8204SOL    HW225512   3.048   5.136   0.122
 8205SOL     OW25513   0.281   4.853   0.886
 8205SOL    HW125514   0.195   4.903   0.880
 8205SOL    HW225515   0.352   4.901   0.835
 8206SOL     OW25516   4.921   2.562   6.242
 8206SOL    HW125517   4.828   2.552   6.208
 8206SOL    HW225518   4.979   2.490   6.204
 8207SOL     OW25519   3.106   3.904   5.108
 8207SOL    HW125520   3.196   3.947   5.100
 8207SOL    HW225521   3.046   3.963   5.162
 8208SOL     OW25522   2.117   0.242   1.360
 8208SOL    HW125523   2.131   0.282   1.450
 8208SOL    HW225524   2.034   0.186   1.360
 8209SOL     OW25525   0.506   1.416   6.170
 8209SOL    HW125526   0.535   1.321   6.179
 8209SOL    HW225527   0.412   1.419   6.137
 8210SOL     OW25528   2.590   0.505   1.311
 8210SOL    HW125529   2.617   0.478   1.218
 8210SOL    HW225530   2.659   0.567   1.349
 8211SOL     OW25531   3.904   3.888   2.185
 8211SOL    HW125532   3.920   3.957   2.115
 8211SOL    HW225533   3.981   3.824   2.186
 8212SOL     OW25534   2.640   1.639   1.156
 8212SOL    HW125535   2.660   1.700   1.079
 8212SOL    HW225536   2.701   1.660   1.233
 8213SOL     OW25537   6.243   4.627   2.051
 8213SOL    HW125538   6.289   4.606   2.138
 8213SOL    HW225539   6.204   4.719   2.056
 8214SOL     OW25540   0.035   5.346   4.464
 8214SOL    HW125541   0.066   5.389   4.549
 8214SOL    HW225542   6.974   5.381   4.440
 8215SOL     OW25543   2.911   5.570   6.282
 8215SOL    HW125544   2.925   5.603   6.189
 8215SOL    HW225545   2.815   5.546   6.296
 8216SOL     OW25546   4.871   5.766   3.796
 8216SOL    HW125547   4.969   5.756   3.776
 8216SOL    HW225548   4.837   5.681   3.837
 8217SOL     OW25549   2.311   3.859   1.772
 8217SOL    HW125550   2.236   3.793   1.773
 8217SOL    HW225551   2.399   3.810   1.770
 8218SOL     OW25552   0.661   6.355   4.638
 8218SOL    HW125553   0.706   6.439   4.607
 8218SOL    HW225554   0.661   6.351   4.738
 8219SOL     OW25555   4.306   3.246   0.945
 8219SOL    HW125556   4.346   3.155   0.953
 8219SOL    HW225557   4.345   3.293   0.866
 8220SOL     OW25558   3.283   3.474   4.743
 8220SOL    HW125559   3.319   3.382   4.728
 8220SOL    HW225560   3.190   3.480   4.708
 8221SOL     OW25561   6.397   5.777   3.279
 8221SOL    HW125562   6.309   5.816   3.309
 8221SOL    HW225563   6.381   5.708   3.209
 8222SOL     OW25564   5.185   1.647   1.395
 8222SOL    HW125565   5.261   1.689   1.345
 8222SOL    HW225566   5.219   1.570   1.448
 8223SOL     OW25567   1.271   4.198   5.114
 8223SOL    HW125568   1.324   4.136   5.172
 8223SOL    HW225569   1.198   4.147   5.069
 8224SOL     OW25570   5.956   2.552   1.892
 8224SOL    HW125571   5.862   2.525   1.916
 8224SOL    HW225572   6.017   2.530   1.968
 8225SOL     OW25573   4.038   1.309   1.403
 8225SOL    HW125574   4.072   1.383   1.344
 8225SOL    HW225575   4.108   1.239   1.412
 8226SOL     OW25576   3.532   7.023   0.748
 8226SOL    HW125577   3.629   0.016   0.754
 8226SOL    HW225578   3.498   6.998   0.839
 8227SOL     OW25579   6.681   1.107   2.582
 8227SOL    HW125580   6.636   1.186   2.623
 8227SOL    HW225581   6.630   1.024   2.605
 8228SOL     OW25582   0.321   1.758   6.348
 8228SOL    HW125583   0.268   1.735   6.429
 8228SOL    HW225584   0.417   1.734   6.362
 8229SOL     OW25585   3.943   4.081   1.178
 8229SOL    HW125586   3.910   4.152   1.240
 8229SOL    HW225587   3.961   4.121   1.088
 8230SOL     OW25588   3.640   6.583   5.287
 8230SOL    HW125589   3.626   6.680   5.303
 8230SOL    HW225590   3.586   6.554   5.207
 8231SOL     OW25591   2.884   3.259   1.572
 8231SOL    HW125592   2.951   3.332   1.581
 8231SOL    HW225593   2.872   3.214   1.661
 8232SOL     OW25594   6.055   1.768   2.445
 8232SOL    HW125595   6.056   1.697   2.374
 8232SOL    HW225596   6.149   1.784   2.477
 8233SOL     OW25597   1.663   6.594   6.687
 8233SOL    HW125598   1.658   6.581   6.786
 8233SOL    HW225599   1.571   6.596   6.649
 8234SOL     OW25600   3.059   4.083   0.205
 8234SOL    HW125601   3.086   4.147   0.277
 8234SOL    HW225602   2.961   4.065   0.211
 8235SOL     OW25603   0.496   3.936   6.987
 8235SOL    HW125604   0.508   3.941   6.888
 8235SOL    HW225605   0.399   3.924   7.008
 8236SOL     OW25606   6.827   4.684   6.846
 8236SOL    HW125607   6.777   4.715   6.765
 8236SOL    HW225608   6.827   4.584   6.848
 8237SOL     OW25609   4.814   5.954   6.110
 8237SOL    HW125610   4.723   5.947   6.151
 8237SOL    HW225611   4.835   5.870   6.060
 8238SOL     OW25612   0.935   5.487   6.910
 8238SOL    HW125613   0.969   5.520   6.998
 8238SOL    HW225614   0.907   5.391   6.920
 8239SOL     OW25615   0.754   0.677   5.353
 8239SOL    HW125616   0.847   0.671   5.390
 8239SOL    HW225617   0.698   0.735   5.413
 8240SOL     OW25618   3.377   4.137   2.465
 8240SOL    HW125619   3.371   4.143   2.565
 8240SOL    HW225620   3.450   4.196   2.432
 8241SOL     OW25621   2.803   4.839   6.218
 8241SOL    HW125622   2.903   4.846   6.226
 8241SOL    HW225623   2.779   4.816   6.124
 8242SOL     OW25624   0.563   3.807   5.754
 8242SOL    HW125625   0.512   3.862   5.821
 8242SOL    HW225626   0.634   3.755   5.802
 8243SOL     OW25627   6.929   3.525   1.334
 8243SOL    HW125628   6.966   3.615   1.310
 8243SOL    HW225629   6.978   3.488   1.413
 8244SOL     OW25630   0.449   0.355   3.485
 8244SOL    HW125631   0.452   0.439   3.538
 8244SOL    HW225632   0.539   0.312   3.486
 8245SOL     OW25633   3.367   1.997   2.808
 8245SOL    HW125634   3.315   1.918   2.841
 8245SOL    HW225635   3.310   2.079   2.813
 8246SOL     OW25636   0.677   3.677   6.287
 8246SOL    HW125637   0.687   3.577   6.284
 8246SOL    HW225638   0.710   3.715   6.201
 8247SOL     OW25639   1.687   0.372   3.503
 8247SOL    HW125640   1.608   0.346   3.558
 8247SOL    HW225641   1.747   0.293   3.490
 8248SOL     OW25642   0.422   4.088   4.387
 8248SOL    HW125643   0.494   4.020   4.398
 8248SOL    HW225644   0.348   4.070   4.452
 8249SOL     OW25645   2.283   1.349   5.902
 8249SOL    HW125646   2.351   1.290   5.859
 8249SOL    HW225647   2.316   1.443   5.904
 8250SOL     OW25648   2.177   2.308   1.545
 8250SOL    HW125649   2.183   2.355   1.633
 8250SOL    HW225650   2.236   2.354   1.478
 8251SOL     OW25651   5.192   2.620   3.963
 8251SOL    HW125652   5.283   2.579   3.970
 8251SOL    HW225653   5.195   2.714   3.997
 8252SOL     OW25654   4.325   1.977   6.326
 8252SOL    HW125655   4.278   2.039   6.388
 8252SOL    HW225656   4.386   1.917   6.378
 8253SOL     OW25657   3.802   5.573   5.854
 8253SOL    HW125658   3.760   5.634   5.787
 8253SOL    HW225659   3.901   5.591   5.858
 8254SOL     OW25660   4.892   4.935   5.536
 8254SOL    HW125661   4.886   5.033   5.556
 8254SOL    HW225662   4.800   4.898   5.524
 8255SOL     OW25663   1.214   6.365   5.027
 8255SOL    HW125664   1.300   6.417   5.031
 8255SOL    HW225665   1.191   6.348   4.931
 8256SOL     OW25666   6.557   6.458   2.448
 8256SOL    HW125667   6.507   6.385   2.402
 8256SOL    HW225668   6.651   6.459   2.416
 8257SOL     OW25669   5.188   3.851   3.116
 8257SOL    HW125670   5.230   3.802   3.040
 8257SOL    HW225671   5.224   3.944   3.120
 8258SOL     OW25672   4.754   2.718   1.647
 8258SOL    HW125673   4.704   2.704   1.562
 8258SOL    HW225674   4.834   2.776   1.630
 8259SOL     OW25675   3.499   2.109   5.489
 8259SOL    HW125676   3.420   2.111   5.427
 8259SOL    HW225677   3.574   2.161   5.448
 8260SOL     OW25678   2.569   6.976   1.565
 8260SOL    HW125679   2.555   6.908   1.637
 8260SOL    HW225680   2.480   7.009   1.533
 8261SOL     OW25681   5.041   6.397   3.270
 8261SOL    HW125682   4.981   6.431   3.198
 8261SOL    HW225683   4.993   6.399   3.358
 8262SOL     OW25684   1.250   4.355   0.259
 8262SOL    HW125685   1.220   4.437   0.212
 8262SOL    HW225686   1.257   4.373   0.357
 8263SOL     OW25687   6.958   3.067   6.945
 8263SOL    HW125688   6.872   3.036   6.987
 8263SOL    HW225689   6.938   3.129   6.870
 8264SOL     OW25690   1.483   6.827   1.375
 8264SOL    HW125691   1.506   6.793   1.283
 8264SOL    HW225692   1.440   6.917   1.367
 8265SOL     OW25693   5.557   0.139   2.255
 8265SOL    HW125694   5.599   0.199   2.187
 8265SOL    HW225695   5.627   0.083   2.300
 8266SOL     OW25696   2.465   1.212   4.417
 8266SOL    HW125697   2.443   1.150   4.342
 8266SOL    HW225698   2.422   1.301   4.399
 8267SOL     OW25699   1.148   3.600   1.421
 8267SOL    HW125700   1.127   3.664   1.347
 8267SOL    HW225701   1.221   3.639   1.478
 8268SOL     OW25702   2.931   6.094   6.272
 8268SOL    HW125703   2.994   6.097   6.349
 8268SOL    HW225704   2.971   6.041   6.198
 8269SOL     OW25705   4.781   2.882   2.899
 8269SOL    HW125706   4.820   2.973   2.882
 8269SOL    HW225707   4.713   2.861   2.830
 8270SOL     OW25708   2.949   5.979   5.040
 8270SOL    HW125709   2.962   5.914   4.965
 8270SOL    HW225710   3.007   6.059   5.025
 8271SOL     OW25711   6.741   0.068   2.845
 8271SOL    HW125712   6.834   0.104   2.851
 8271SOL    HW225713   6.722   0.013   2.927
 8272SOL     OW25714   6.594   1.318   2.748
 8272SOL    HW125715   6.670   1.324   2.814
 8272SOL    HW225716   6.562   1.411   2.727
 8273SOL     OW25717   2.787   0.973   0.807
 8273SOL    HW125718   2.883   0.992   0.787
 8273SOL    HW225719   2.778   0.938   0.900
 8274SOL     OW25720   4.265   5.580   4.594
 8274SOL    HW125721   4.268   5.573   4.494
 8274SOL    HW225722   4.340   5.526   4.633
 8275SOL     OW25723   5.312   0.717   4.258
 8275SOL    HW125724   5.409   0.739   4.268
 8275SOL    HW225725   5.268   0.717   4.348
 8276SOL     OW25726   0.601   1.688   5.511
 8276SOL    HW125727   0.664   1.619   5.475
 8276SOL    HW225728   0.521   1.694   5.450
 8277SOL     OW25729   1.281   6.075   6.406
 8277SOL    HW125730   1.376   6.063   6.379
 8277SOL    HW225731   1.252   5.997   6.461
 8278SOL     OW25732   3.609   1.974   6.872
 8278SOL    HW125733   3.612   2.021   6.960
 8278SOL    HW225734   3.654   1.885   6.880
 8279SOL     OW25735   6.993   6.396   5.034
 8279SOL    HW125736   7.011   6.457   5.111
 8279SOL    HW225737   6.903   6.417   4.995
 8280SOL     OW25738   3.518   2.740   0.437
 8280SOL    HW125739   3.606   2.763   0.394
 8280SOL    HW225740   3.500   2.642   0.424
 8281SOL     OW25741   2.315   4.640   1.678
 8281SOL    HW125742   2.358   4.566   1.626
 8281SOL    HW225743   2.301   4.719   1.618
 8282SOL     OW25744   3.725   4.518   0.049
 8282SOL    HW125745   3.779   4.547   6.999
 8282SOL    HW225746   3.767   4.437   0.090
 8283SOL     OW25747   1.715   4.499   4.457
 8283SOL    HW125748   1.688   4.404   4.447
 8283SOL    HW225749   1.634   4.556   4.469
 8284SOL     OW25750   1.273   4.042   1.905
 8284SOL    HW125751   1.202   3.974   1.919
 8284SOL    HW225752   1.356   3.997   1.871
 8285SOL     OW25753   3.788   3.944   5.163
 8285SOL    HW125754   3.721   4.006   5.204
 8285SOL    HW225755   3.746   3.898   5.084
 8286SOL     OW25756   4.842   1.546   4.963
 8286SOL    HW125757   4.930   1.523   4.921
 8286SOL    HW225758   4.768   1.520   4.902
 8287SOL     OW25759   1.061   5.018   4.279
 8287SOL    HW125760   1.055   5.069   4.364
 8287SOL    HW225761   1.157   5.005   4.254
 8288SOL     OW25762   2.600   2.418   2.529
 8288SOL    HW125763   2.656   2.402   2.447
 8288SOL    HW225764   2.515   2.366   2.521
 8289SOL     OW25765   6.795   6.903   6.035
 8289SOL    HW125766   6.817   6.997   6.063
 8289SOL    HW225767   6.718   6.869   6.090
 8290SOL     OW25768   5.132   1.610   0.764
 8290SOL    HW125769   5.163   1.598   0.858
 8290SOL    HW225770   5.211   1.623   0.704
 8291SOL     OW25771   6.014   5.081   6.042
 8291SOL    HW125772   5.986   5.166   5.998
 8291SOL    HW225773   6.102   5.051   6.005
 8292SOL     OW25774   2.874   5.538   6.700
 8292SOL    HW125775   2.968   5.547   6.668
 8292SOL    HW225776   2.872   5.492   6.789
 8293SOL     OW25777   2.670   5.083   1.175
 8293SOL    HW125778   2.573   5.106   1.170
 8293SOL    HW225779   2.679   4.985   1.194
 8294SOL     OW25780   6.446   3.768   4.778
 8294SOL    HW125781   6.406   3.830   4.846
 8294SOL    HW225782   6.391   3.686   4.771
 8295SOL     OW25783   4.936   3.696   3.050
 8295SOL    HW125784   4.950   3.739   3.140
 8295SOL    HW225785   4.905   3.765   2.985
 8296SOL     OW25786   2.747   5.954   0.418
 8296SOL    HW125787   2.681   5.912   0.481
 8296SOL    HW225788   2.768   5.890   0.344
 8297SOL     OW25789   6.638   2.966   2.610
 8297SOL    HW125790   6.707   2.994   2.677
 8297SOL    HW225791   6.626   3.039   2.543
 8298SOL     OW25792   6.967   0.989   0.544
 8298SOL    HW125793   6.983   1.003   0.642
 8298SOL    HW225794   6.971   1.078   0.498
 8299SOL     OW25795   0.502   3.074   2.289
 8299SOL    HW125796   0.416   3.109   2.327
 8299SOL    HW225797   0.551   3.148   2.243
 8300SOL     OW25798   0.386   6.464   4.293
 8300SOL    HW125799   0.481   6.477   4.265
 8300SOL    HW225800   0.327   6.525   4.241
 8301SOL     OW25801   4.514   1.225   6.730
 8301SOL    HW125802   4.602   1.207   6.773
 8301SOL    HW225803   4.511   1.180   6.640
 8302SOL     OW25804   5.460   6.404   5.972
 8302SOL    HW125805   5.412   6.331   5.924
 8302SOL    HW225806   5.503   6.367   6.054
 8303SOL     OW25807   5.958   0.556   3.508
 8303SOL    HW125808   6.028   0.495   3.472
 8303SOL    HW225809   5.932   0.623   3.439
 8304SOL     OW25810   5.790   4.894   1.221
 8304SOL    HW125811   5.844   4.955   1.278
 8304SOL    HW225812   5.829   4.802   1.225
 8305SOL     OW25813   4.625   4.864   4.321
 8305SOL    HW125814   4.636   4.776   4.366
 8305SOL    HW225815   4.558   4.919   4.371
 8306SOL     OW25816   5.701   1.389   3.536
 8306SOL    HW125817   5.671   1.330   3.462
 8306SOL    HW225818   5.740   1.473   3.499
 8307SOL     OW25819   3.876   5.376   1.688
 8307SOL    HW125820   3.840   5.387   1.595
 8307SOL    HW225821   3.975   5.363   1.685
 8308SOL     OW25822   2.385   5.879   0.365
 8308SOL    HW125823   2.297   5.902   0.404
 8308SOL    HW225824   2.458   5.904   0.429
 8309SOL     OW25825   6.558   5.751   2.694
 8309SOL    HW125826   6.595   5.680   2.634
 8309SOL    HW225827   6.617   5.762   2.774
 8310SOL     OW25828   1.431   5.406   1.286
 8310SOL    HW125829   1.527   5.426   1.300
 8310SOL    HW225830   1.403   5.333   1.349
 8311SOL     OW25831   6.381   1.156   5.011
 8311SOL    HW125832   6.362   1.059   5.027
 8311SOL    HW225833   6.362   1.179   4.916
 8312SOL     OW25834   5.575   1.164   6.532
 8312SOL    HW125835   5.582   1.128   6.625
 8312SOL    HW225836   5.502   1.232   6.528
 8313SOL     OW25837   5.551   0.550   6.053
 8313SOL    HW125838   5.645   0.580   6.035
 8313SOL    HW225839   5.508   0.612   6.119
 8314SOL     OW25840   6.440   0.035   6.393
 8314SOL    HW125841   6.412   6.969   6.377
 8314SOL    HW225842   6.389   0.073   6.470
 8315SOL     OW25843   4.094   3.187   3.095
 8315SOL    HW125844   4.030   3.169   3.170
 8315SOL    HW225845   4.166   3.117   3.096
 8316SOL     OW25846   1.793   2.922   1.605
 8316SOL    HW125847   1.846   2.867   1.540
 8316SOL    HW225848   1.804   2.885   1.697
 8317SOL     OW25849   1.462   2.362   2.867
 8317SOL    HW125850   1.480   2.327   2.775
 8317SOL    HW225851   1.434   2.458   2.861
 8318SOL     OW25852   4.390   1.482   6.254
 8318SOL    HW125853   4.364   1.455   6.347
 8318SOL    HW225854   4.320   1.543   6.217
 8319SOL     OW25855   1.297   0.924   1.204
 8319SOL    HW125856   1.366   0.926   1.276
 8319SOL    HW225857   1.342   0.921   1.115
 8320SOL     OW25858   3.254   3.886   2.908
 8320SOL    HW125859   3.228   3.805   2.856
 8320SOL    HW225860   3.312   3.859   2.985
 8321SOL     OW25861   6.806   7.022   6.942
 8321SOL    HW125862   6.754   0.078   6.953
 8321SOL    HW225863   6.879   7.019   7.011
 8322SOL     OW25864   6.115   1.196   0.884
 8322SOL    HW125865   6.026   1.241   0.892
 8322SOL    HW225866   6.155   1.217   0.794
 8323SOL     OW25867   4.201   4.695   1.619
 8323SOL    HW125868   4.293   4.673   1.650
 8323SOL    HW225869   4.180   4.641   1.537
 8324SOL     OW25870   5.439   0.287   0.788
 8324SOL    HW125871   5.345   0.304   0.761
 8324SOL    HW225872   5.497   0.362   0.755
 8325SOL     OW25873   1.441   3.580   5.363
 8325SOL    HW125874   1.540   3.568   5.365
 8325SOL    HW225875   1.411   3.592   5.268
 8326SOL     OW25876   4.273   4.268   5.960
 8326SOL    HW125877   4.243   4.267   5.864
 8326SOL    HW225878   4.220   4.336   6.011
 8327SOL     OW25879   0.387   0.709   5.458
 8327SOL    HW125880   0.392   0.800   5.501
 8327SOL    HW225881   0.303   0.664   5.485
 8328SOL     OW25882   2.745   6.374   6.718
 8328SOL    HW125883   2.679   6.302   6.737
 8328SOL    HW225884   2.787   6.359   6.629
 8329SOL     OW25885   0.584   2.569   4.588
 8329SOL    HW125886   0.640   2.642   4.547
 8329SOL    HW225887   0.488   2.584   4.566
 8330SOL     OW25888   3.595   1.479   6.932
 8330SOL    HW125889   3.539   1.403   6.965
 8330SOL    HW225890   3.628   1.533   7.010
 8331SOL     OW25891   3.587   0.683   0.599
 8331SOL    HW125892   3.488   0.694   0.593
 8331SOL    HW225893   3.613   0.592   0.564
 8332SOL     OW25894   6.010   5.646   2.188
 8332SOL    HW125895   5.989   5.558   2.230
 8332SOL    HW225896   5.936   5.711   2.207
 8333SOL     OW25897   1.240   4.866   0.282
 8333SOL    HW125898   1.221   4.962   0.261
 8333SOL    HW225899   1.275   4.821   0.200
 8334SOL     OW25900   3.452   1.816   5.407
 8334SOL    HW125901   3.479   1.799   5.312
 8334SOL    HW225902   3.491   1.903   5.438
 8335SOL     OW25903   4.566   1.371   0.292
 8335SOL    HW125904   4.542   1.467   0.303
 8335SOL    HW225905   4.586   1.331   0.382
 8336SOL     OW25906   0.330   4.043   2.607
 8336SOL    HW125907   0.389   4.120   2.631
 8336SOL    HW225908   0.348   3.966   2.669
 8337SOL     OW25909   0.400   6.432   3.922
 8337SOL    HW125910   0.462   6.505   3.896
 8337SOL    HW225911   0.336   6.465   3.991
 8338SOL     OW25912   3.442   5.532   1.366
 8338SOL    HW125913   3.476   5.504   1.276
 8338SOL    HW225914   3.350   5.568   1.357
 8339SOL     OW25915   6.619   0.330   2.183
 8339SOL    HW125916   6.596   0.339   2.280
 8339SOL    HW225917   6.640   0.420   2.145
 8340SOL     OW25918   4.989   3.906   1.064
 8340SOL    HW125919   5.087   3.913   1.081
 8340SOL    HW225920   4.972   3.904   0.965
 8341SOL     OW25921   2.770   0.521   6.846
 8341SOL    HW125922   2.779   0.510   6.945
 8341SOL    HW225923   2.789   0.434   6.801
 8342SOL     OW25924   4.628   0.030   0.217
 8342SOL    HW125925   4.641   0.066   0.125
 8342SOL    HW225926   4.708   7.006   0.244
 8343SOL     OW25927   0.497   5.699   3.263
 8343SOL    HW125928   0.500   5.756   3.345
 8343SOL    HW225929   0.479   5.757   3.183
 8344SOL     OW25930   6.396   5.906   4.520
 8344SOL    HW125931   6.438   5.994   4.544
 8344SOL    HW225932   6.457   5.855   4.460
 8345SOL     OW25933   3.544   2.119   2.551
 8345SOL    HW125934   3.591   2.197   2.593
 8345SOL    HW225935   3.577   2.106   2.458
 8346SOL     OW25936   3.719   4.771   0.663
 8346SOL    HW125937   3.740   4.675   0.684
 8346SOL    HW225938   3.801   4.826   0.679
 8347SOL     OW25939   2.943   6.589   5.490
 8347SOL    HW125940   2.871   6.618   5.552
 8347SOL    HW225941   2.950   6.489   5.491
 8348SOL     OW25942   2.192   0.750   1.109
 8348SOL    HW125943   2.115   0.755   1.172
 8348SOL    HW225944   2.275   0.726   1.159
 8349SOL     OW25945   0.974   6.690   2.374
 8349SOL    HW125946   0.933   6.599   2.372
 8349SOL    HW225947   0.962   6.730   2.465
 8350SOL     OW25948   2.818   6.827   5.917
 8350SOL    HW125949   2.745   6.855   5.980
 8350SOL    HW225950   2.904   6.821   5.966
 8351SOL     OW25951   5.115   5.586   4.408
 8351SOL    HW125952   5.150   5.523   4.338
 8351SOL    HW225953   5.076   5.533   4.483
 8352SOL     OW25954   0.770   6.897   3.686
 8352SOL    HW125955   0.684   6.849   3.667
 8352SOL    HW225956   0.847   6.834   3.675
 8353SOL     OW25957   0.860   4.118   1.117
 8353SOL    HW125958   0.924   4.189   1.089
 8353SOL    HW225959   0.878   4.035   1.064
 8354SOL     OW25960   3.385   0.205   4.485
 8354SOL    HW125961   3.459   0.139   4.470
 8354SOL    HW225962   3.403   0.287   4.430
 8355SOL     OW25963   2.412   1.395   5.350
 8355SOL    HW125964   2.385   1.487   5.380
 8355SOL    HW225965   2.342   1.359   5.288
 8356SOL     OW25966   1.118   6.958   1.943
 8356SOL    HW125967   1.050   6.891   1.972
 8356SOL    HW225968   1.198   6.951   2.003
 8357SOL     OW25969   3.378   6.803   5.632
 8357SOL    HW125970   3.292   6.784   5.680
 8357SOL    HW225971   3.375   6.762   5.541
 8358SOL     OW25972   2.005   3.908   4.734
 8358SOL    HW125973   2.035   4.003   4.721
 8358SOL    HW225974   2.027   3.879   4.827
 8359SOL     OW25975   3.241   1.259   4.865
 8359SOL    HW125976   3.290   1.181   4.904
 8359SOL    HW225977   3.299   1.305   4.797
 8360SOL     OW25978   4.189   0.314   0.384
 8360SOL    HW125979   4.139   0.292   0.300
 8360SOL    HW225980   4.199   0.231   0.440
 8361SOL     OW25981   3.713   0.542   1.580
 8361SOL    HW125982   3.754   0.624   1.618
 8361SOL    HW225983   3.783   0.489   1.532
 8362SOL     OW25984   4.804   1.738   1.149
 8362SOL    HW125985   4.723   1.795   1.132
 8362SOL    HW225986   4.806   1.664   1.082
 8363SOL     OW25987   4.725   2.855   0.175
 8363SOL    HW125988   4.776   2.870   0.260
 8363SOL    HW225989   4.736   2.760   0.146
 8364SOL     OW25990   0.065   1.507   4.099
 8364SOL    HW125991   0.003   1.575   4.139
 8364SOL    HW225992   0.108   1.544   4.016
 8365SOL     OW25993   1.678   2.550   2.632
 8365SOL    HW125994   1.735   2.580   2.707
 8365SOL    HW225995   1.704   2.457   2.605
 8366SOL     OW25996   2.686   5.244   0.966
 8366SOL    HW125997   2.695   5.175   1.038
 8366SOL    HW225998   2.594   5.242   0.928
 8367SOL     OW25999   3.267   5.915   4.930
 8367SOL    HW126000   3.247   5.891   4.835
 8367SOL    HW226001   3.218   5.854   4.991
 8368SOL     OW26002   1.004   6.521   6.904
 8368SOL    HW126003   0.905   6.523   6.891
 8368SOL    HW226004   1.036   6.613   6.927
 8369SOL     OW26005   0.752   0.459   6.082
 8369SOL    HW126006   0.758   0.360   6.095
 8369SOL    HW226007   0.837   0.493   6.041
 8370SOL     OW26008   2.834   1.829   5.702
 8370SOL    HW126009   2.925   1.826   5.661
 8370SOL    HW226010   2.813   1.739   5.741
 8371SOL     OW26011   2.433   4.506   0.685
 8371SOL    HW126012   2.488   4.590   0.683
 8371SOL    HW226013   2.491   4.428   0.664
 8372SOL     OW26014   1.858   5.370   1.785
 8372SOL    HW126015   1.910   5.449   1.753
 8372SOL    HW226016   1.762   5.395   1.796
 8373SOL     OW26017   1.841   6.330   3.778
 8373SOL    HW126018   1.855   6.310   3.681
 8373SOL    HW226019   1.802   6.250   3.824
 8374SOL     OW26020   0.341   0.242   5.591
 8374SOL    HW126021   0.386   0.329   5.607
 8374SOL    HW226022   0.250   0.258   5.552
 8375SOL     OW26023   4.218   6.301   5.512
 8375SOL    HW126024   4.194   6.378   5.453
 8375SOL    HW226025   4.311   6.313   5.548
 8376SOL     OW26026   0.999   1.174   4.562
 8376SOL    HW126027   1.060   1.186   4.484
 8376SOL    HW226028   0.907   1.206   4.538
 8377SOL     OW26029   5.848   6.294   0.726
 8377SOL    HW126030   5.763   6.324   0.682
 8377SOL    HW226031   5.925   6.317   0.667
 8378SOL     OW26032   3.518   4.912   2.934
 8378SOL    HW126033   3.599   4.903   2.992
 8378SOL    HW226034   3.435   4.907   2.990
 8379SOL     OW26035   5.180   2.586   1.483
 8379SOL    HW126036   5.129   2.512   1.439
 8379SOL    HW226037   5.116   2.657   1.514
 8380SOL     OW26038   0.648   0.244   1.412
 8380SOL    HW126039   0.663   0.173   1.480
 8380SOL    HW226040   0.580   0.310   1.446
 8381SOL     OW26041   0.330   2.369   4.435
 8381SOL    HW126042   0.296   2.376   4.342
 8381SOL    HW226043   0.329   2.459   4.478
 8382SOL     OW26044   2.345   6.908   2.224
 8382SOL    HW126045   2.261   6.858   2.202
 8382SOL    HW226046   2.424   6.849   2.209
 8383SOL     OW26047   3.037   6.873   6.112
 8383SOL    HW126048   3.134   6.887   6.094
 8383SOL    HW226049   3.026   6.824   6.199
 8384SOL     OW26050   6.214   1.837   1.277
 8384SOL    HW126051   6.175   1.777   1.347
 8384SOL    HW226052   6.245   1.922   1.320
 8385SOL     OW26053   4.913   2.731   6.846
 8385SOL    HW126054   4.816   2.707   6.834
 8385SOL    HW226055   4.934   2.810   6.788
 8386SOL     OW26056   1.776   6.493   1.841
 8386SOL    HW126057   1.755   6.524   1.748
 8386SOL    HW226058   1.823   6.565   1.891
 8387SOL     OW26059   0.888   1.529   1.124
 8387SOL    HW126060   0.790   1.543   1.108
 8387SOL    HW226061   0.904   1.433   1.145
 8388SOL     OW26062   2.355   6.881   0.641
 8388SOL    HW126063   2.417   6.833   0.704
 8388SOL    HW226064   2.270   6.904   0.689
 8389SOL     OW26065   0.228   3.658   3.961
 8389SOL    HW126066   0.223   3.757   3.955
 8389SOL    HW226067   0.147   3.617   3.918
 8390SOL     OW26068   4.250   6.537   0.237
 8390SOL    HW126069   4.163   6.520   0.282
 8390SOL    HW226070   4.265   6.635   0.227
 8391SOL     OW26071   5.695   5.382   1.329
 8391SOL    HW126072   5.618   5.412   1.273
 8391SOL    HW226073   5.730   5.460   1.381
 8392SOL     OW26074   0.288   4.891   5.483
 8392SOL    HW126075   0.351   4.814   5.476
 8392SOL    HW226076   0.205   4.861   5.530
 8393SOL     OW26077   0.247   0.052   2.526
 8393SOL    HW126078   0.226   0.124   2.460
 8393SOL    HW226079   0.178   7.009   2.521
 8394SOL     OW26080   0.577   3.188   1.796
 8394SOL    HW126081   0.635   3.229   1.726
 8394SOL    HW226082   0.634   3.136   1.860
 8395SOL     OW26083   1.892   6.579   4.672
 8395SOL    HW126084   1.984   6.550   4.699
 8395SOL    HW226085   1.858   6.520   4.599
 8396SOL     OW26086   3.969   5.345   2.661
 8396SOL    HW126087   3.995   5.256   2.697
 8396SOL    HW226088   3.919   5.333   2.575
 8397SOL     OW26089   2.312   1.023   3.011
 8397SOL    HW126090   2.399   1.016   2.961
 8397SOL    HW226091   2.247   1.075   2.956
 8398SOL     OW26092   4.599   2.740   6.790
 8398SOL    HW126093   4.541   2.710   6.865
 8398SOL    HW226094   4.605   2.668   6.721
 8399SOL     OW26095   6.234   6.935   0.847
 8399SOL    HW126096   6.285   6.862   0.892
 8399SOL    HW226097   6.257   6.937   0.750
 8400SOL     OW26098   1.402   0.549   4.285
 8400SOL    HW126099   1.431   0.636   4.324
 8400SOL    HW226100   1.467   0.477   4.310
 8401SOL     OW26101   3.520   1.790   6.191
 8401SOL    HW126102   3.601   1.807   6.247
 8401SOL    HW226103   3.460   1.724   6.237
 8402SOL     OW26104   3.552   2.108   6.094
 8402SOL    HW126105   3.589   2.092   6.186
 8402SOL    HW226106   3.510   2.023   6.060
 8403SOL     OW26107   0.924   2.325   4.024
 8403SOL    HW126108   0.875   2.345   4.109
 8403SOL    HW226109   0.936   2.410   3.972
 8404SOL     OW26110   4.141   6.782   6.188
 8404SOL    HW126111   4.220   6.732   6.225
 8404SOL    HW226112   4.060   6.762   6.242
 8405SOL     OW26113   2.822   0.573   5.866
 8405SOL    HW126114   2.778   0.532   5.946
 8405SOL    HW226115   2.752   0.608   5.804
 8406SOL     OW26116   5.274   6.945   0.632
 8406SOL    HW126117   5.354   6.945   0.572
 8406SOL    HW226118   5.196   6.983   0.583
 8407SOL     OW26119   3.813   6.548   3.923
 8407SOL    HW126120   3.785   6.522   3.831
 8407SOL    HW226121   3.882   6.621   3.918
 8408SOL     OW26122   5.374   3.276   2.319
 8408SOL    HW126123   5.281   3.274   2.356
 8408SOL    HW226124   5.380   3.345   2.247
 8409SOL     OW26125   5.687   3.414   3.957
 8409SOL    HW126126   5.713   3.347   3.887
 8409SOL    HW226127   5.599   3.387   3.997
 8410SOL     OW26128   5.102   0.380   1.798
 8410SOL    HW126129   5.089   0.448   1.870
 8410SOL    HW226130   5.032   0.309   1.806
 8411SOL     OW26131   0.819   5.232   6.873
 8411SOL    HW126132   0.768   5.173   6.937
 8411SOL    HW226133   0.774   5.231   6.784
 8412SOL     OW26134   3.700   2.146   1.533
 8412SOL    HW126135   3.786   2.152   1.583
 8412SOL    HW226136   3.632   2.206   1.575
 8413SOL     OW26137   3.752   5.624   0.262
 8413SOL    HW126138   3.770   5.532   0.227
 8413SOL    HW226139   3.835   5.679   0.254
 8414SOL     OW26140   4.051   5.736   3.593
 8414SOL    HW126141   4.001   5.654   3.567
 8414SOL    HW226142   4.101   5.772   3.513
 8415SOL     OW26143   6.620   5.821   3.146
 8415SOL    HW126144   6.537   5.799   3.197
 8415SOL    HW226145   6.666   5.900   3.188
 8416SOL     OW26146   5.699   3.551   2.795
 8416SOL    HW126147   5.709   3.649   2.811
 8416SOL    HW226148   5.602   3.526   2.799
 8417SOL     OW26149   1.522   5.022   5.522
 8417SOL    HW126150   1.447   5.011   5.457
 8417SOL    HW226151   1.484   5.032   5.614
 8418SOL     OW26152   5.813   5.523   0.977
 8418SOL    HW126153   5.841   5.567   1.063
 8418SOL    HW226154   5.854   5.431   0.972
 8419SOL     OW26155   5.168   0.652   2.275
 8419SOL    HW126156   5.098   0.712   2.235
 8419SOL    HW226157   5.236   0.708   2.323
 8420SOL     OW26158   4.209   6.939   0.773
 8420SOL    HW126159   4.206   6.840   0.759
 8420SOL    HW226160   4.190   6.986   0.687
 8421SOL     OW26161   2.705   5.669   0.019
 8421SOL    HW126162   2.711   5.724   6.965
 8421SOL    HW226163   2.626   5.608   0.013
 8422SOL     OW26164   4.430   0.960   1.270
 8422SOL    HW126165   4.520   0.980   1.231
 8422SOL    HW226166   4.361   1.017   1.224
 8423SOL     OW26167   4.094   4.514   5.796
 8423SOL    HW126168   4.101   4.437   5.732
 8423SOL    HW226169   4.008   4.509   5.845
 8424SOL     OW26170   1.942   2.370   3.068
 8424SOL    HW126171   1.915   2.404   2.978
 8424SOL    HW226172   1.999   2.439   3.114
 8425SOL     OW26173   5.160   6.042   0.361
 8425SOL    HW126174   5.156   6.004   0.269
 8425SOL    HW226175   5.118   6.133   0.361
 8426SOL     OW26176   3.356   3.574   4.228
 8426SOL    HW126177   3.278   3.595   4.288
 8426SOL    HW226178   3.420   3.515   4.276
 8427SOL     OW26179   3.579   3.319   4.933
 8427SOL    HW126180   3.539   3.387   4.871
 8427SOL    HW226181   3.553   3.228   4.902
 8428SOL     OW26182   0.331   4.453   1.748
 8428SOL    HW126183   0.249   4.484   1.699
 8428SOL    HW226184   0.411   4.462   1.688
 8429SOL     OW26185   1.605   4.816   3.579
 8429SOL    HW126186   1.538   4.872   3.627
 8429SOL    HW226187   1.584   4.816   3.481
 8430SOL     OW26188   3.351   5.356   4.501
 8430SOL    HW126189   3.383   5.329   4.410
 8430SOL    HW226190   3.429   5.386   4.556
 8431SOL     OW26191   2.984   5.404   0.705
 8431SOL    HW126192   3.049   5.329   0.719
 8431SOL    HW226193   2.966   5.415   0.608
 8432SOL     OW26194   5.606   6.405   6.233
 8432SOL    HW126195   5.644   6.315   6.212
 8432SOL    HW226196   5.654   6.474   6.179
 8433SOL     OW26197   5.645   2.149   0.249
 8433SOL    HW126198   5.659   2.135   0.151
 8433SOL    HW226199   5.726   2.190   0.290
 8434SOL     OW26200   2.792   6.663   4.786
 8434SOL    HW126201   2.880   6.709   4.779
 8434SOL    HW226202   2.720   6.731   4.803
 8435SOL     OW26203   5.815   0.821   1.625
 8435SOL    HW126204   5.904   0.865   1.617
 8435SOL    HW226205   5.818   0.750   1.695
 8436SOL     OW26206   3.435   0.199   4.091
 8436SOL    HW126207   3.516   0.220   4.146
 8436SOL    HW226208   3.408   0.282   4.041
 8437SOL     OW26209   2.452   0.086   3.906
 8437SOL    HW126210   2.490   0.167   3.951
 8437SOL    HW226211   2.356   0.076   3.931
 8438SOL     OW26212   2.618   5.027   2.359
 8438SOL    HW126213   2.522   5.019   2.386
 8438SOL    HW226214   2.676   5.005   2.437
 8439SOL     OW26215   6.462   5.115   2.305
 8439SOL    HW126216   6.459   5.193   2.368
 8439SOL    HW226217   6.405   5.041   2.341
 8440SOL     OW26218   0.659   1.973   3.721
 8440SOL    HW126219   0.667   1.955   3.819
 8440SOL    HW226220   0.738   2.027   3.690
 8441SOL     OW26221   6.295   6.950   0.586
 8441SOL    HW126222   6.356   6.886   0.541
 8441SOL    HW226223   6.258   7.014   0.519
 8442SOL     OW26224   3.184   1.763   5.415
 8442SOL    HW126225   3.121   1.812   5.355
 8442SOL    HW226226   3.278   1.790   5.394
 8443SOL     OW26227   1.766   5.790   3.741
 8443SOL    HW126228   1.842   5.854   3.729
 8443SOL    HW226229   1.679   5.840   3.736
 8444SOL     OW26230   2.759   6.104   3.815
 8444SOL    HW126231   2.710   6.076   3.897
 8444SOL    HW226232   2.847   6.056   3.810
 8445SOL     OW26233   3.842   6.166   0.562
 8445SOL    HW126234   3.925   6.210   0.596
 8445SOL    HW226235   3.762   6.208   0.606
 8446SOL     OW26236   4.615   5.044   6.699
 8446SOL    HW126237   4.629   5.133   6.655
 8446SOL    HW226238   4.518   5.032   6.719
 8447SOL     OW26239   4.826   2.316   2.231
 8447SOL    HW126240   4.777   2.244   2.280
 8447SOL    HW226241   4.763   2.366   2.173
 8448SOL     OW26242   4.745   6.244   4.194
 8448SOL    HW126243   4.726   6.153   4.156
 8448SOL    HW226244   4.802   6.295   4.130
 8449SOL     OW26245   6.814   2.346   4.029
 8449SOL    HW126246   6.721   2.347   3.994
 8449SOL    HW226247   6.878   2.325   3.954
 8450SOL     OW26248   1.023   6.269   1.411
 8450SOL    HW126249   1.064   6.193   1.361
 8450SOL    HW226250   0.927   6.279   1.384
 8451SOL     OW26251   4.255   2.319   6.806
 8451SOL    HW126252   4.166   2.321   6.852
 8451SOL    HW226253   4.290   2.225   6.807
 8452SOL     OW26254   6.520   1.189   3.143
 8452SOL    HW126255   6.562   1.141   3.220
 8452SOL    HW226256   6.438   1.236   3.174
 8453SOL     OW26257   6.654   4.243   5.969
 8453SOL    HW126258   6.712   4.319   5.996
 8453SOL    HW226259   6.641   4.244   5.870
 8454SOL     OW26260   0.154   6.928   0.967
 8454SOL    HW126261   0.205   6.959   1.047
 8454SOL    HW226262   0.202   6.851   0.924
 8455SOL     OW26263   5.799   2.646   1.636
 8455SOL    HW126264   5.793   2.661   1.734
 8455SOL    HW226265   5.752   2.561   1.612
 8456SOL     OW26266   4.720   6.133   2.971
 8456SOL    HW126267   4.782   6.101   3.043
 8456SOL    HW226268   4.677   6.054   2.926
 8457SOL     OW26269   6.630   6.548   4.529
 8457SOL    HW126270   6.712   6.545   4.587
 8457SOL    HW226271   6.580   6.632   4.548
 8458SOL     OW26272   3.123   1.514   0.085
 8458SOL    HW126273   3.206   1.566   0.104
 8458SOL    HW226274   3.059   1.571   0.034
 8459SOL     OW26275   2.996   6.575   2.125
 8459SOL    HW126276   3.090   6.607   2.136
 8459SOL    HW226277   2.966   6.590   2.031
 8460SOL     OW26278   4.454   3.746   5.403
 8460SOL    HW126279   4.535   3.755   5.344
 8460SOL    HW226280   4.380   3.703   5.351
 8461SOL     OW26281   6.772   4.094   3.716
 8461SOL    HW126282   6.786   4.162   3.787
 8461SOL    HW226283   6.788   4.003   3.754
 8462SOL     OW26284   3.036   2.365   0.198
 8462SOL    HW126285   3.121   2.411   0.170
 8462SOL    HW226286   3.036   2.271   0.163
 8463SOL     OW26287   6.826   0.069   0.694
 8463SOL    HW126288   6.827   0.081   0.594
 8463SOL    HW226289   6.827   7.000   0.715
 8464SOL     OW26290   5.512   3.783   5.595
 8464SOL    HW126291   5.527   3.705   5.655
 8464SOL    HW226292   5.417   3.813   5.602
 8465SOL     OW26293   1.218   2.724   1.161
 8465SOL    HW126294   1.217   2.668   1.244
 8465SOL    HW226295   1.301   2.704   1.108
 8466SOL     OW26296   0.853   6.766   5.131
 8466SOL    HW126297   0.928   6.731   5.187
 8466SOL    HW226298   0.782   6.697   5.122
 8467SOL     OW26299   4.470   0.237   1.293
 8467SOL    HW126300   4.451   0.335   1.286
 8467SOL    HW226301   4.565   0.219   1.269
 8468SOL     OW26302   4.393   2.309   6.559
 8468SOL    HW126303   4.483   2.334   6.596
 8468SOL    HW226304   4.325   2.313   6.632
 8469SOL     OW26305   4.010   1.246   5.837
 8469SOL    HW126306   4.086   1.182   5.826
 8469SOL    HW226307   3.943   1.231   5.765
 8470SOL     OW26308   1.715   4.194   0.110
 8470SOL    HW126309   1.680   4.103   0.089
 8470SOL    HW226310   1.669   4.229   0.192
 8471SOL     OW26311   3.794   0.751   4.416
 8471SOL    HW126312   3.839   0.675   4.462
 8471SOL    HW226313   3.838   0.766   4.327
 8472SOL     OW26314   6.831   0.534   5.498
 8472SOL    HW126315   6.783   0.465   5.552
 8472SOL    HW226316   6.783   0.549   5.412
 8473SOL     OW26317   6.802   5.793   0.607
 8473SOL    HW126318   6.847   5.744   0.532
 8473SOL    HW226319   6.703   5.784   0.598
 8474SOL     OW26320   3.606   3.279   2.455
 8474SOL    HW126321   3.598   3.226   2.370
 8474SOL    HW226322   3.628   3.374   2.432
 8475SOL     OW26323   6.552   2.375   3.888
 8475SOL    HW126324   6.500   2.460   3.899
 8475SOL    HW226325   6.615   2.384   3.811
 8476SOL     OW26326   6.804   2.338   0.599
 8476SOL    HW126327   6.807   2.415   0.663
 8476SOL    HW226328   6.783   2.254   0.648
 8477SOL     OW26329   5.106   6.763   1.631
 8477SOL    HW126330   5.053   6.679   1.625
 8477SOL    HW226331   5.136   6.777   1.726
 8478SOL     OW26332   1.897   0.070   6.344
 8478SOL    HW126333   1.804   0.040   6.362
 8478SOL    HW226334   1.896   0.146   6.280
 8479SOL     OW26335   0.657   2.993   0.664
 8479SOL    HW126336   0.738   2.942   0.637
 8479SOL    HW226337   0.684   3.078   0.709
 8480SOL     OW26338   4.580   2.083   6.815
 8480SOL    HW126339   4.508   2.083   6.885
 8480SOL    HW226340   4.539   2.102   6.725
 8481SOL     OW26341   4.468   2.445   5.091
 8481SOL    HW126342   4.502   2.435   4.998
 8481SOL    HW226343   4.369   2.457   5.089
 8482SOL     OW26344   4.307   5.868   2.047
 8482SOL    HW126345   4.318   5.964   2.022
 8482SOL    HW226346   4.336   5.855   2.142
 8483SOL     OW26347   4.434   6.319   2.177
 8483SOL    HW126348   4.534   6.326   2.177
 8483SOL    HW226349   4.394   6.408   2.160
 8484SOL     OW26350   0.110   6.552   3.316
 8484SOL    HW126351   0.204   6.521   3.325
 8484SOL    HW226352   0.106   6.630   3.254
 8485SOL     OW26353   3.765   2.850   0.315
 8485SOL    HW126354   3.835   2.845   0.387
 8485SOL    HW226355   3.809   2.869   0.227
 8486SOL     OW26356   2.516   1.770   2.330
 8486SOL    HW126357   2.418   1.785   2.326
 8486SOL    HW226358   2.560   1.847   2.375
 8487SOL     OW26359   5.940   1.519   5.786
 8487SOL    HW126360   5.926   1.557   5.878
 8487SOL    HW226361   6.002   1.441   5.792
 8488SOL     OW26362   5.126   5.633   0.522
 8488SOL    HW126363   5.053   5.639   0.590
 8488SOL    HW226364   5.172   5.721   0.515
 8489SOL     OW26365   6.148   1.994   1.590
 8489SOL    HW126366   6.205   2.035   1.519
 8489SOL    HW226367   6.199   1.993   1.676
 8490SOL     OW26368   4.477   6.866   4.173
 8490SOL    HW126369   4.380   6.884   4.192
 8490SOL    HW226370   4.510   6.931   4.104
 8491SOL     OW26371   3.256   5.846   1.120
 8491SOL    HW126372   3.277   5.754   1.153
 8491SOL    HW226373   3.159   5.850   1.096
 8492SOL     OW26374   4.759   4.052   5.127
 8492SOL    HW126375   4.666   4.072   5.157
 8492SOL    HW226376   4.792   3.970   5.173
 8493SOL     OW26377   2.249   2.801   6.354
 8493SOL    HW126378   2.285   2.843   6.438
 8493SOL    HW226379   2.192   2.867   6.305
 8494SOL     OW26380   3.625   5.702   1.483
 8494SOL    HW126381   3.697   5.730   1.419
 8494SOL    HW226382   3.552   5.657   1.433
 8495SOL     OW26383   5.711   4.863   2.639
 8495SOL    HW126384   5.662   4.872   2.552
 8495SOL    HW226385   5.669   4.924   2.706
 8496SOL     OW26386   1.299   2.479   1.623
 8496SOL    HW126387   1.238   2.400   1.627
 8496SOL    HW226388   1.296   2.528   1.709
 8497SOL     OW26389   6.349   1.259   3.348
 8497SOL    HW126390   6.266   1.302   3.382
 8497SOL    HW226391   6.406   1.229   3.425
 8498SOL     OW26392   6.382   6.209   3.334
 8498SOL    HW126393   6.319   6.194   3.258
 8498SOL    HW226394   6.376   6.304   3.364
 8499SOL     OW26395   1.790   4.557   6.421
 8499SOL    HW126396   1.889   4.574   6.427
 8499SOL    HW226397   1.775   4.459   6.407
 8500SOL     OW26398   1.818   5.788   5.571
 8500SOL    HW126399   1.837   5.714   5.635
 8500SOL    HW226400   1.734   5.835   5.598
 8501SOL     OW26401   0.294   2.352   0.117
 8501SOL    HW126402   0.284   2.435   0.171
 8501SOL    HW226403   0.301   2.273   0.178
 8502SOL     OW26404   0.849   3.494   1.284
 8502SOL    HW126405   0.911   3.426   1.324
 8502SOL    HW226406   0.902   3.569   1.246
 8503SOL     OW26407   0.988   6.513   3.907
 8503SOL    HW126408   0.971   6.428   3.957
 8503SOL    HW226409   1.048   6.572   3.961
 8504SOL     OW26410   2.572   4.626   2.319
 8504SOL    HW126411   2.644   4.695   2.325
 8504SOL    HW226412   2.508   4.638   2.394
 8505SOL     OW26413   5.648   3.599   3.728
 8505SOL    HW126414   5.694   3.563   3.646
 8505SOL    HW226415   5.650   3.530   3.800
 8506SOL     OW26416   0.302   0.589   6.599
 8506SOL    HW126417   0.336   0.679   6.572
 8506SOL    HW226418   0.286   0.588   6.698
 8507SOL     OW26419   3.713   0.682   5.464
 8507SOL    HW126420   3.716   0.641   5.373
 8507SOL    HW226421   3.806   0.687   5.501
 8508SOL     OW26422   5.515   1.614   4.758
 8508SOL    HW126423   5.533   1.563   4.674
 8508SOL    HW226424   5.596   1.667   4.782
 8509SOL     OW26425   4.059   1.375   4.466
 8509SOL    HW126426   4.107   1.459   4.489
 8509SOL    HW226427   4.126   1.306   4.436
 8510SOL     OW26428   6.069   4.378   2.773
 8510SOL    HW126429   5.983   4.418   2.804
 8510SOL    HW226430   6.104   4.315   2.843
 8511SOL     OW26431   6.079   3.773   2.437
 8511SOL    HW126432   6.081   3.684   2.482
 8511SOL    HW226433   6.131   3.768   2.352
 8512SOL     OW26434   2.852   2.106   1.915
 8512SOL    HW126435   2.862   2.199   1.952
 8512SOL    HW226436   2.939   2.057   1.925
 8513SOL     OW26437   5.934   5.235   0.967
 8513SOL    HW126438   5.998   5.202   1.037
 8513SOL    HW226439   5.948   5.184   0.883
 8514SOL     OW26440   2.754   2.262   3.889
 8514SOL    HW126441   2.720   2.273   3.982
 8514SOL    HW226442   2.758   2.164   3.867
 8515SOL     OW26443   4.869   2.307   0.865
 8515SOL    HW126444   4.771   2.314   0.851
 8515SOL    HW226445   4.914   2.281   0.780
 8516SOL     OW26446   6.047   2.127   1.996
 8516SOL    HW126447   6.024   2.174   2.081
 8516SOL    HW226448   5.979   2.056   1.978
 8517SOL     OW26449   1.237   2.774   6.066
 8517SOL    HW126450   1.188   2.707   6.010
 8517SOL    HW226451   1.186   2.860   6.067
 8518SOL     OW26452   4.513   4.486   0.612
 8518SOL    HW126453   4.458   4.432   0.676
 8518SOL    HW226454   4.558   4.560   0.661
 8519SOL     OW26455   1.357   4.327   1.647
 8519SOL    HW126456   1.446   4.342   1.604
 8519SOL    HW226457   1.336   4.229   1.646
 8520SOL     OW26458   2.996   2.617   0.674
 8520SOL    HW126459   2.906   2.579   0.696
 8520SOL    HW226460   2.984   2.692   0.609
 8521SOL     OW26461   2.100   5.365   6.500
 8521SOL    HW126462   2.167   5.291   6.492
 8521SOL    HW226463   2.053   5.359   6.588
 8522SOL     OW26464   1.357   6.376   1.296
 8522SOL    HW126465   1.297   6.409   1.223
 8522SOL    HW226466   1.310   6.307   1.350
 8523SOL     OW26467   2.747   6.943   6.142
 8523SOL    HW126468   2.838   6.904   6.159
 8523SOL    HW226469   2.742   0.006   6.181
 8524SOL     OW26470   0.569   2.722   4.896
 8524SOL    HW126471   0.531   2.641   4.941
 8524SOL    HW226472   0.568   2.709   4.797
 8525SOL     OW26473   6.331   3.874   3.030
 8525SOL    HW126474   6.278   3.798   3.068
 8525SOL    HW226475   6.417   3.883   3.079
 8526SOL     OW26476   3.483   5.341   0.187
 8526SOL    HW126477   3.417   5.403   0.230
 8526SOL    HW226478   3.563   5.332   0.247
 8527SOL     OW26479   3.281   0.683   5.910
 8527SOL    HW126480   3.359   0.626   5.884
 8527SOL    HW226481   3.206   0.667   5.846
 8528SOL     OW26482   4.270   2.668   6.239
 8528SOL    HW126483   4.286   2.638   6.334
 8528SOL    HW226484   4.334   2.741   6.216
 8529SOL     OW26485   0.285   0.299   1.371
 8529SOL    HW126486   0.261   0.202   1.364
 8529SOL    HW226487   0.201   0.354   1.371
 8530SOL     OW26488   3.264   3.271   5.440
 8530SOL    HW126489   3.356   3.307   5.420
 8530SOL    HW226490   3.272   3.179   5.477
 8531SOL     OW26491   6.798   4.987   2.326
 8531SOL    HW126492   6.869   4.938   2.276
 8531SOL    HW226493   6.824   4.994   2.422
 8532SOL     OW26494   4.052   5.129   4.798
 8532SOL    HW126495   3.958   5.114   4.827
 8532SOL    HW226496   4.071   5.074   4.716
 8533SOL     OW26497   1.887   6.986   5.796
 8533SOL    HW126498   1.949   7.019   5.725
 8533SOL    HW226499   1.918   6.897   5.829
 8534SOL     OW26500   6.080   3.221   4.256
 8534SOL    HW126501   5.990   3.263   4.241
 8534SOL    HW226502   6.111   3.242   4.349
 8535SOL     OW26503   0.064   1.487   5.020
 8535SOL    HW126504   7.004   1.442   5.018
 8535SOL    HW226505   0.061   1.564   5.085
 8536SOL     OW26506   5.423   1.880   4.782
 8536SOL    HW126507   5.475   1.805   4.824
 8536SOL    HW226508   5.325   1.860   4.787
 8537SOL     OW26509   5.574   1.740   2.432
 8537SOL    HW126510   5.667   1.713   2.459
 8537SOL    HW226511   5.580   1.815   2.366
 8538SOL     OW26512   0.816   1.854   6.366
 8538SOL    HW126513   0.888   1.863   6.297
 8538SOL    HW226514   0.817   1.761   6.404
 8539SOL     OW26515   6.014   1.140   2.223
 8539SOL    HW126516   5.988   1.049   2.191
 8539SOL    HW226517   6.104   1.164   2.188
 8540SOL     OW26518   4.802   1.070   0.284
 8540SOL    HW126519   4.771   1.033   0.197
 8540SOL    HW226520   4.898   1.098   0.276
 8541SOL     OW26521   2.995   2.278   4.164
 8541SOL    HW126522   2.898   2.295   4.147
 8541SOL    HW226523   3.013   2.284   4.263
 8542SOL     OW26524   2.809   4.585   6.880
 8542SOL    HW126525   2.840   4.490   6.883
 8542SOL    HW226526   2.711   4.588   6.862
 8543SOL     OW26527   3.439   1.268   0.008
 8543SOL    HW126528   3.345   1.286   7.006
 8543SOL    HW226529   3.444   1.275   0.107
 8544SOL     OW26530   5.059   2.901   4.914
 8544SOL    HW126531   5.068   2.802   4.918
 8544SOL    HW226532   4.962   2.926   4.918
 8545SOL     OW26533   4.492   0.147   4.328
 8545SOL    HW126534   4.445   0.098   4.255
 8545SOL    HW226535   4.443   0.132   4.414
 8546SOL     OW26536   0.731   0.508   2.687
 8546SOL    HW126537   0.644   0.460   2.701
 8546SOL    HW226538   0.793   0.451   2.634
 8547SOL     OW26539   1.378   6.610   6.634
 8547SOL    HW126540   1.332   6.677   6.692
 8547SOL    HW226541   1.332   6.606   6.545
 8548SOL     OW26542   6.722   3.212   5.534
 8548SOL    HW126543   6.783   3.252   5.603
 8548SOL    HW226544   6.659   3.148   5.579
 8549SOL     OW26545   1.170   3.114   4.916
 8549SOL    HW126546   1.079   3.073   4.930
 8549SOL    HW226547   1.163   3.186   4.847
 8550SOL     OW26548   1.174   5.218   0.327
 8550SOL    HW126549   1.269   5.232   0.298
 8550SOL    HW226550   1.115   5.215   0.247
 8551SOL     OW26551   2.445   3.232   6.842
 8551SOL    HW126552   2.510   3.196   6.775
 8551SOL    HW226553   2.469   3.199   6.933
 8552SOL     OW26554   2.003   0.142   2.688
 8552SOL    HW126555   1.999   0.240   2.669
 8552SOL    HW226556   2.019   0.127   2.785
 8553SOL     OW26557   4.372   4.976   6.811
 8553SOL    HW126558   4.423   4.894   6.835
 8553SOL    HW226559   4.340   5.021   6.895
 8554SOL     OW26560   0.583   4.721   0.828
 8554SOL    HW126561   0.563   4.660   0.752
 8554SOL    HW226562   0.498   4.758   0.865
 8555SOL     OW26563   2.705   0.954   3.845
 8555SOL    HW126564   2.672   0.989   3.758
 8555SOL    HW226565   2.700   0.854   3.845
 8556SOL     OW26566   1.888   6.133   5.213
 8556SOL    HW126567   1.836   6.110   5.295
 8556SOL    HW226568   1.872   6.063   5.143
 8557SOL     OW26569   6.834   6.683   2.240
 8557SOL    HW126570   6.794   6.758   2.293
 8557SOL    HW226571   6.782   6.599   2.257
 8558SOL     OW26572   2.531   4.569   3.126
 8558SOL    HW126573   2.547   4.664   3.099
 8558SOL    HW226574   2.573   4.552   3.215
 8559SOL     OW26575   1.777   0.512   2.540
 8559SOL    HW126576   1.867   0.469   2.548
 8559SOL    HW226577   1.706   0.444   2.558
 8560SOL     OW26578   0.591   6.296   1.623
 8560SOL    HW126579   0.637   6.207   1.632
 8560SOL    HW226580   0.590   6.341   1.712
 8561SOL     OW26581   3.341   0.657   2.645
 8561SOL    HW126582   3.304   0.566   2.663
 8561SOL    HW226583   3.412   0.651   2.575
 8562SOL     OW26584   4.000   6.396   5.992
 8562SOL    HW126585   4.036   6.426   6.081
 8562SOL    HW226586   4.033   6.304   5.972
 8563SOL     OW26587   1.328   4.687   1.170
 8563SOL    HW126588   1.352   4.700   1.266
 8563SOL    HW226589   1.286   4.771   1.135
 8564SOL     OW26590   3.080   0.462   5.105
 8564SOL    HW126591   2.989   0.423   5.110
 8564SOL    HW226592   3.089   0.514   5.020
 8565SOL     OW26593   3.490   5.496   1.081
 8565SOL    HW126594   3.413   5.523   1.024
 8565SOL    HW226595   3.572   5.547   1.054
 8566SOL     OW26596   0.698   6.688   1.479
 8566SOL    HW126597   0.744   6.758   1.423
 8566SOL    HW226598   0.708   6.712   1.575
 8567SOL     OW26599   0.422   1.870   3.568
 8567SOL    HW126600   0.509   1.897   3.609
 8567SOL    HW226601   0.364   1.951   3.556
 8568SOL     OW26602   5.924   1.238   6.695
 8568SOL    HW126603   6.014   1.224   6.737
 8568SOL    HW226604   5.854   1.197   6.754
 8569SOL     OW26605   4.545   1.436   6.043
 8569SOL    HW126606   4.517   1.514   5.987
 8569SOL    HW226607   4.506   1.445   6.134
 8570SOL     OW26608   1.686   1.582   4.904
 8570SOL    HW126609   1.756   1.554   4.838
 8570SOL    HW226610   1.665   1.679   4.892
 8571SOL     OW26611   0.201   5.737   5.344
 8571SOL    HW126612   0.232   5.773   5.431
 8571SOL    HW226613   0.251   5.653   5.322
 8572SOL     OW26614   2.470   4.999   6.420
 8572SOL    HW126615   2.446   4.958   6.332
 8572SOL    HW226616   2.569   4.995   6.433
 8573SOL     OW26617   3.723   6.419   6.330
 8573SOL    HW126618   3.722   6.438   6.232
 8573SOL    HW226619   3.697   6.324   6.346
 8574SOL     OW26620   0.092   6.884   6.380
 8574SOL    HW126621   0.146   6.807   6.414
 8574SOL    HW226622   0.107   6.896   6.282
 8575SOL     OW26623   1.898   2.857   3.697
 8575SOL    HW126624   1.852   2.849   3.786
 8575SOL    HW226625   1.932   2.768   3.669
 8576SOL     OW26626   1.479   4.309   5.843
 8576SOL    HW126627   1.478   4.393   5.789
 8576SOL    HW226628   1.449   4.232   5.787
 8577SOL     OW26629   1.355   6.726   4.355
 8577SOL    HW126630   1.400   6.648   4.312
 8577SOL    HW226631   1.410   6.808   4.340
 8578SOL     OW26632   5.925   6.583   4.727
 8578SOL    HW126633   5.837   6.615   4.762
 8578SOL    HW226634   5.998   6.643   4.762
 8579SOL     OW26635   2.422   0.773   2.076
 8579SOL    HW126636   2.361   0.701   2.110
 8579SOL    HW226637   2.424   0.770   1.976
 8580SOL     OW26638   2.351   5.912   1.197
 8580SOL    HW126639   2.292   5.982   1.237
 8580SOL    HW226640   2.419   5.956   1.137
 8581SOL     OW26641   3.482   3.666   1.067
 8581SOL    HW126642   3.423   3.675   1.147
 8581SOL    HW226643   3.450   3.728   0.995
 8582SOL     OW26644   4.718   4.172   4.483
 8582SOL    HW126645   4.676   4.243   4.540
 8582SOL    HW226646   4.772   4.111   4.541
 8583SOL     OW26647   4.643   0.736   4.306
 8583SOL    HW126648   4.607   0.819   4.263
 8583SOL    HW226649   4.736   0.720   4.275
 8584SOL     OW26650   0.525   5.357   6.739
 8584SOL    HW126651   0.437   5.364   6.692
 8584SOL    HW226652   0.557   5.262   6.735
 8585SOL     OW26653   0.068   0.109   6.464
 8585SOL    HW126654   0.076   0.013   6.439
 8585SOL    HW226655   0.107   0.166   6.391
 8586SOL     OW26656   3.259   6.647   2.096
 8586SOL    HW126657   3.343   6.594   2.110
 8586SOL    HW226658   3.278   6.744   2.111
 8587SOL     OW26659   1.492   0.221   4.156
 8587SOL    HW126660   1.527   0.301   4.107
 8587SOL    HW226661   1.393   0.229   4.167
 8588SOL     OW26662   3.528   0.476   0.817
 8588SOL    HW126663   3.533   0.462   0.718
 8588SOL    HW226664   3.528   0.574   0.836
 8589SOL     OW26665   5.392   2.676   5.724
 8589SOL    HW126666   5.379   2.716   5.633
 8589SOL    HW226667   5.484   2.698   5.757
 8590SOL     OW26668   6.689   6.600   2.911
 8590SOL    HW126669   6.703   6.530   2.841
 8590SOL    HW226670   6.617   6.571   2.974
 8591SOL     OW26671   0.496   4.231   0.346
 8591SOL    HW126672   0.444   4.214   0.263
 8591SOL    HW226673   0.442   4.203   0.425
 8592SOL     OW26674   6.199   2.458   6.738
 8592SOL    HW126675   6.127   2.527   6.752
 8592SOL    HW226676   6.282   2.504   6.707
 8593SOL     OW26677   2.580   1.661   0.500
 8593SOL    HW126678   2.580   1.636   0.403
 8593SOL    HW226679   2.613   1.584   0.555
 8594SOL     OW26680   4.408   2.601   5.353
 8594SOL    HW126681   4.426   2.689   5.397
 8594SOL    HW226682   4.433   2.606   5.257
 8595SOL     OW26683   0.351   1.666   3.394
 8595SOL    HW126684   0.376   1.738   3.458
 8595SOL    HW226685   0.324   1.584   3.445
 8596SOL     OW26686   1.147   4.926   2.997
 8596SOL    HW126687   1.106   5.011   3.030
 8596SOL    HW226688   1.090   4.889   2.923
 8597SOL     OW26689   4.417   1.880   0.825
 8597SOL    HW126690   4.516   1.869   0.827
 8597SOL    HW226691   4.392   1.965   0.870
 8598SOL     OW26692   5.988   0.279   0.392
 8598SOL    HW126693   5.899   0.243   0.423
 8598SOL    HW226694   5.972   0.349   0.323
 8599SOL     OW26695   1.556   2.582   4.850
 8599SOL    HW126696   1.514   2.654   4.906
 8599SOL    HW226697   1.655   2.582   4.864
 8600SOL     OW26698   5.337   4.689   5.644
 8600SOL    HW126699   5.239   4.689   5.665
 8600SOL    HW226700   5.373   4.782   5.653
 8601SOL     OW26701   1.174   1.563   4.700
 8601SOL    HW126702   1.088   1.517   4.723
 8601SOL    HW226703   1.214   1.519   4.620
 8602SOL     OW26704   3.052   6.090   2.398
 8602SOL    HW126705   3.118   6.132   2.461
 8602SOL    HW226706   2.992   6.029   2.450
 8603SOL     OW26707   5.001   5.882   0.970
 8603SOL    HW126708   4.978   5.932   1.054
 8603SOL    HW226709   4.941   5.913   0.896
 8604SOL     OW26710   0.121   2.997   4.809
 8604SOL    HW126711   0.082   3.029   4.896
 8604SOL    HW226712   0.147   2.901   4.817
 8605SOL     OW26713   2.509   5.569   3.888
 8605SOL    HW126714   2.606   5.580   3.863
 8605SOL    HW226715   2.476   5.481   3.855
 8606SOL     OW26716   1.670   3.267   6.543
 8606SOL    HW126717   1.730   3.187   6.550
 8606SOL    HW226718   1.585   3.242   6.498
 8607SOL     OW26719   3.433   5.285   6.774
 8607SOL    HW126720   3.448   5.203   6.718
 8607SOL    HW226721   3.456   5.366   6.721
 8608SOL     OW26722   3.170   4.874   2.563
 8608SOL    HW126723   3.112   4.848   2.486
 8608SOL    HW226724   3.165   4.973   2.577
 8609SOL     OW26725   5.268   0.514   2.685
 8609SOL    HW126726   5.289   0.544   2.778
 8609SOL    HW226727   5.352   0.484   2.640
 8610SOL     OW26728   0.851   1.957   2.801
 8610SOL    HW126729   0.893   1.937   2.713
 8610SOL    HW226730   0.767   2.010   2.787
 8611SOL     OW26731   3.311   2.146   4.754
 8611SOL    HW126732   3.275   2.102   4.671
 8611SOL    HW226733   3.235   2.174   4.812
 8612SOL     OW26734   2.619   3.368   0.332
 8612SOL    HW126735   2.579   3.277   0.345
 8612SOL    HW226736   2.672   3.392   0.414
 8613SOL     OW26737   2.822   1.334   1.261
 8613SOL    HW126738   2.793   1.364   1.170
 8613SOL    HW226739   2.766   1.378   1.331
 8614SOL     OW26740   1.128   2.846   3.363
 8614SOL    HW126741   1.177   2.777   3.308
 8614SOL    HW226742   1.192   2.890   3.425
 8615SOL     OW26743   4.034   1.687   5.169
 8615SOL    HW126744   4.034   1.782   5.138
 8615SOL    HW226745   3.967   1.635   5.116
 8616SOL     OW26746   3.141   4.525   1.684
 8616SOL    HW126747   3.056   4.507   1.733
 8616SOL    HW226748   3.184   4.607   1.719
 8617SOL     OW26749   6.548   1.646   5.572
 8617SOL    HW126750   6.610   1.589   5.626
 8617SOL    HW226751   6.454   1.627   5.597
 8618SOL     OW26752   6.030   5.019   0.827
 8618SOL    HW126753   5.983   4.964   0.758
 8618SOL    HW226754   6.070   4.959   0.897
 8619SOL     OW26755   3.669   4.932   2.200
 8619SOL    HW126756   3.656   4.873   2.120
 8619SOL    HW226757   3.607   4.902   2.273
 8620SOL     OW26758   1.273   0.259   3.159
 8620SOL    HW126759   1.318   0.192   3.218
 8620SOL    HW226760   1.178   0.269   3.187
 8621SOL     OW26761   5.628   1.657   3.045
 8621SOL    HW126762   5.563   1.726   3.017
 8621SOL    HW226763   5.709   1.701   3.084
 8622SOL     OW26764   5.689   3.187   1.087
 8622SOL    HW126765   5.631   3.267   1.102
 8622SOL    HW226766   5.668   3.146   0.999
 8623SOL     OW26767   0.361   3.657   4.641
 8623SOL    HW126768   0.419   3.657   4.559
 8623SOL    HW226769   0.318   3.567   4.651
 8624SOL     OW26770   1.715   3.834   4.723
 8624SOL    HW126771   1.812   3.827   4.700
 8624SOL    HW226772   1.697   3.923   4.764
 8625SOL     OW26773   4.329   0.519   6.451
 8625SOL    HW126774   4.369   0.566   6.373
 8625SOL    HW226775   4.335   0.420   6.437
 8626SOL     OW26776   3.284   3.104   6.391
 8626SOL    HW126777   3.299   3.189   6.341
 8626SOL    HW226778   3.200   3.060   6.359
 8627SOL     OW26779   0.800   1.580   3.182
 8627SOL    HW126780   0.881   1.526   3.160
 8627SOL    HW226781   0.796   1.596   3.280
 8628SOL     OW26782   6.528   6.356   0.828
 8628SOL    HW126783   6.625   6.338   0.845
 8628SOL    HW226784   6.510   6.454   0.839
 8629SOL     OW26785   1.837   5.592   5.127
 8629SOL    HW126786   1.752   5.544   5.146
 8629SOL    HW226787   1.902   5.575   5.201
 8630SOL     OW26788   5.295   4.462   4.108
 8630SOL    HW126789   5.209   4.503   4.076
 8630SOL    HW226790   5.328   4.512   4.188
 8631SOL     OW26791   0.709   5.433   6.170
 8631SOL    HW126792   0.747   5.353   6.217
 8631SOL    HW226793   0.778   5.470   6.107
 8632SOL     OW26794   4.043   5.102   5.188
 8632SOL    HW126795   3.963   5.160   5.172
 8632SOL    HW226796   4.023   5.009   5.158
 8633SOL     OW26797   5.671   2.244   5.621
 8633SOL    HW126798   5.664   2.294   5.708
 8633SOL    HW226799   5.618   2.291   5.551
 8634SOL     OW26800   4.801   3.415   0.458
 8634SOL    HW126801   4.715   3.456   0.429
 8634SOL    HW226802   4.818   3.332   0.405
 8635SOL     OW26803   5.414   3.230   6.392
 8635SOL    HW126804   5.503   3.225   6.348
 8635SOL    HW226805   5.423   3.275   6.480
 8636SOL     OW26806   5.935   6.021   0.783
 8636SOL    HW126807   5.929   6.027   0.882
 8636SOL    HW226808   5.888   6.100   0.742
 8637SOL     OW26809   2.678   0.889   6.788
 8637SOL    HW126810   2.634   0.811   6.833
 8637SOL    HW226811   2.678   0.967   6.851
 8638SOL     OW26812   3.295   2.161   5.300
 8638SOL    HW126813   3.334   2.101   5.230
 8638SOL    HW226814   3.255   2.241   5.257
 8639SOL     OW26815   5.235   2.572   0.321
 8639SOL    HW126816   5.177   2.651   0.342
 8639SOL    HW226817   5.259   2.525   0.406
 8640SOL     OW26818   4.196   4.175   6.581
 8640SOL    HW126819   4.112   4.230   6.575
 8640SOL    HW226820   4.252   4.207   6.657
 8641SOL     OW26821   4.582   4.649   3.900
 8641SOL    HW126822   4.604   4.727   3.957
 8641SOL    HW226823   4.491   4.614   3.924
 8642SOL     OW26824   1.091   6.141   3.372
 8642SOL    HW126825   1.165   6.207   3.355
 8642SOL    HW226826   1.110   6.057   3.322
 8643SOL     OW26827   2.903   0.645   6.600
 8643SOL    HW126828   2.806   0.668   6.596
 8643SOL    HW226829   2.928   0.622   6.694
 8644SOL     OW26830   5.157   2.379   5.282
 8644SOL    HW126831   5.155   2.327   5.368
 8644SOL    HW226832   5.098   2.334   5.215
 8645SOL     OW26833   4.305   4.244   1.394
 8645SOL    HW126834   4.260   4.263   1.307
 8645SOL    HW226835   4.404   4.236   1.379
 8646SOL     OW26836   6.932   1.900   0.405
 8646SOL    HW126837   6.884   1.944   0.328
 8646SOL    HW226838   7.013   1.853   0.371
 8647SOL     OW26839   2.692   5.424   6.552
 8647SOL    HW126840   2.763   5.452   6.617
 8647SOL    HW226841   2.641   5.505   6.522
 8648SOL     OW26842   6.453   0.006   2.821
 8648SOL    HW126843   6.516   0.082   2.830
 8648SOL    HW226844   6.444   6.987   2.908
 8649SOL     OW26845   5.693   5.421   5.949
 8649SOL    HW126846   5.638   5.338   5.938
 8649SOL    HW226847   5.656   5.476   6.023
 8650SOL     OW26848   2.286   4.877   4.340
 8650SOL    HW126849   2.337   4.892   4.424
 8650SOL    HW226850   2.345   4.830   4.273
 8651SOL     OW26851   4.098   0.587   0.329
 8651SOL    HW126852   4.115   0.579   0.230
 8651SOL    HW226853   4.137   0.507   0.375
 8652SOL     OW26854   1.732   5.537   3.663
 8652SOL    HW126855   1.785   5.622   3.656
 8652SOL    HW226856   1.772   5.478   3.733
 8653SOL     OW26857   6.764   0.748   6.286
 8653SOL    HW126858   6.781   0.697   6.370
 8653SOL    HW226859   6.666   0.750   6.267
 8654SOL     OW26860   0.662   5.160   2.038
 8654SOL    HW126861   0.698   5.247   2.072
 8654SOL    HW226862   0.729   5.119   1.976
 8655SOL     OW26863   6.196   1.052   4.352
 8655SOL    HW126864   6.189   1.119   4.278
 8655SOL    HW226865   6.272   0.989   4.332
 8656SOL     OW26866   6.939   0.094   0.989
 8656SOL    HW126867   6.887   0.124   0.908
 8656SOL    HW226868   6.990   0.011   0.967
 8657SOL     OW26869   5.206   5.208   6.906
 8657SOL    HW126870   5.140   5.183   6.977
 8657SOL    HW226871   5.275   5.269   6.945
 8658SOL     OW26872   6.498   6.222   0.491
 8658SOL    HW126873   6.554   6.173   0.424
 8658SOL    HW226874   6.508   6.180   0.581
 8659SOL     OW26875   4.713   1.829   2.174
 8659SOL    HW126876   4.684   1.921   2.145
 8659SOL    HW226877   4.759   1.783   2.099
 8660SOL     OW26878   6.883   3.486   1.890
 8660SOL    HW126879   6.952   3.431   1.842
 8660SOL    HW226880   6.852   3.436   1.972
 8661SOL     OW26881   6.277   4.088   1.296
 8661SOL    HW126882   6.371   4.066   1.324
 8661SOL    HW226883   6.218   4.008   1.311
 8662SOL     OW26884   4.235   5.710   1.139
 8662SOL    HW126885   4.263   5.748   1.227
 8662SOL    HW226886   4.285   5.625   1.123
 8663SOL     OW26887   2.789   5.816   2.338
 8663SOL    HW126888   2.761   5.891   2.279
 8663SOL    HW226889   2.741   5.822   2.425
 8664SOL     OW26890   1.709   6.634   1.599
 8664SOL    HW126891   1.775   6.631   1.523
 8664SOL    HW226892   1.618   6.611   1.564
 8665SOL     OW26893   5.712   5.532   5.026
 8665SOL    HW126894   5.754   5.446   4.997
 8665SOL    HW226895   5.636   5.555   4.965
 8666SOL     OW26896   5.919   1.402   3.693
 8666SOL    HW126897   5.978   1.323   3.679
 8666SOL    HW226898   5.833   1.388   3.644
 8667SOL     OW26899   3.917   2.125   3.811
 8667SOL    HW126900   3.912   2.048   3.746
 8667SOL    HW226901   4.012   2.154   3.821
 8668SOL     OW26902   4.854   3.118   3.599
 8668SOL    HW126903   4.792   3.054   3.553
 8668SOL    HW226904   4.877   3.083   3.690
 8669SOL     OW26905   1.507   6.334   6.346
 8669SOL    HW126906   1.605   6.329   6.327
 8669SOL    HW226907   1.475   6.246   6.381
 8670SOL     OW26908   4.455   4.970   5.852
 8670SOL    HW126909   4.446   4.881   5.897
 8670SOL    HW226910   4.467   4.957   5.754
 8671SOL     OW26911   5.309   1.658   2.819
 8671SOL    HW126912   5.228   1.636   2.764
 8671SOL    HW226913   5.357   1.735   2.778
 8672SOL     OW26914   1.309   5.350   4.074
 8672SOL    HW126915   1.300   5.364   4.172
 8672SOL    HW226916   1.248   5.276   4.045
 8673SOL     OW26917   5.104   2.951   6.965
 8673SOL    HW126918   5.018   2.901   6.966
 8673SOL    HW226919   5.137   2.961   0.030
 8674SOL     OW26920   4.920   6.533   3.025
 8674SOL    HW126921   4.845   6.523   3.090
 8674SOL    HW226922   4.883   6.551   2.934
 8675SOL     OW26923   3.875   2.168   5.068
 8675SOL    HW126924   3.970   2.169   5.038
 8675SOL    HW226925   3.870   2.191   5.165
 8676SOL     OW26926   5.394   6.576   3.469
 8676SOL    HW126927   5.340   6.582   3.385
 8676SOL    HW226928   5.489   6.551   3.446
 8677SOL     OW26929   2.263   5.516   6.287
 8677SOL    HW126930   2.259   5.434   6.230
 8677SOL    HW226931   2.215   5.499   6.373
 8678SOL     OW26932   0.110   0.360   2.056
 8678SOL    HW126933   0.194   0.305   2.052
 8678SOL    HW226934   0.065   0.358   1.967
 8679SOL     OW26935   0.395   2.078   3.256
 8679SOL    HW126936   0.492   2.096   3.238
 8679SOL    HW226937   0.339   2.151   3.218
 8680SOL     OW26938   0.141   3.382   6.788
 8680SOL    HW126939   0.167   3.294   6.748
 8680SOL    HW226940   0.170   3.385   6.883
 8681SOL     OW26941   4.671   5.059   1.206
 8681SOL    HW126942   4.585   5.077   1.158
 8681SOL    HW226943   4.686   5.128   1.277
 8682SOL     OW26944   5.582   6.451   2.657
 8682SOL    HW126945   5.583   6.436   2.558
 8682SOL    HW226946   5.557   6.546   2.676
 8683SOL     OW26947   1.932   2.210   4.263
 8683SOL    HW126948   1.989   2.287   4.235
 8683SOL    HW226949   1.967   2.126   4.222
 8684SOL     OW26950   5.998   2.739   4.918
 8684SOL    HW126951   5.979   2.764   5.013
 8684SOL    HW226952   6.095   2.720   4.907
 8685SOL     OW26953   0.291   2.035   6.676
 8685SOL    HW126954   0.200   1.998   6.697
 8685SOL    HW226955   0.333   2.072   6.759
 8686SOL     OW26956   0.019   1.206   3.065
 8686SOL    HW126957   0.028   1.270   2.989
 8686SOL    HW226958   0.051   1.248   3.150
 8687SOL     OW26959   4.757   5.193   2.027
 8687SOL    HW126960   4.691   5.138   2.078
 8687SOL    HW226961   4.850   5.164   2.050
 8688SOL     OW26962   0.599   5.498   5.857
 8688SOL    HW126963   0.516   5.461   5.818
 8688SOL    HW226964   0.672   5.430   5.852
 8689SOL     OW26965   3.996   3.603   1.082
 8689SOL    HW126966   3.905   3.561   1.077
 8689SOL    HW226967   4.013   3.656   0.999
 8690SOL     OW26968   1.398   4.132   3.971
 8690SOL    HW126969   1.407   4.155   4.068
 8690SOL    HW226970   1.457   4.191   3.916
 8691SOL     OW26971   3.993   1.939   5.930
 8691SOL    HW126972   3.972   2.022   5.982
 8691SOL    HW226973   4.090   1.916   5.942
 8692SOL     OW26974   3.114   1.490   4.647
 8692SOL    HW126975   3.074   1.465   4.559
 8692SOL    HW226976   3.053   1.460   4.721
 8693SOL     OW26977   5.223   0.337   0.642
 8693SOL    HW126978   5.217   0.240   0.618
 8693SOL    HW226979   5.301   0.378   0.595
 8694SOL     OW26980   5.187   0.808   4.769
 8694SOL    HW126981   5.218   0.717   4.796
 8694SOL    HW226982   5.087   0.813   4.775
 8695SOL     OW26983   4.287   2.722   5.928
 8695SOL    HW126984   4.383   2.712   5.901
 8695SOL    HW226985   4.282   2.762   6.019
 8696SOL     OW26986   2.004   5.019   5.345
 8696SOL    HW126987   2.049   5.108   5.354
 8696SOL    HW226988   2.029   4.977   5.258
 8697SOL     OW26989   0.381   3.688   6.041
 8697SOL    HW126990   0.289   3.680   6.003
 8697SOL    HW226991   0.427   3.599   6.037
 8698SOL     OW26992   4.442   6.073   5.219
 8698SOL    HW126993   4.389   5.988   5.223
 8698SOL    HW226994   4.538   6.052   5.237
 8699SOL     OW26995   0.845   2.781   4.919
 8699SOL    HW126996   0.865   2.753   5.013
 8699SOL    HW226997   0.746   2.784   4.906
 8700SOL     OW26998   1.042   0.579   4.375
 8700SOL    HW126999   1.122   0.636   4.390
 8700SOL    HW227000   1.035   0.510   4.448
 8701SOL     OW27001   1.300   0.893   7.000
 8701SOL    HW127002   1.204   0.885   6.973
 8701SOL    HW227003   1.358   0.886   6.919
 8702SOL     OW27004   5.468   4.897   1.630
 8702SOL    HW127005   5.555   4.936   1.597
 8702SOL    HW227006   5.399   4.905   1.558
 8703SOL     OW27007   3.061   5.101   0.408
 8703SOL    HW127008   3.105   5.014   0.384
 8703SOL    HW227009   2.975   5.083   0.456
 8704SOL     OW27010   0.315   4.078   3.407
 8704SOL    HW127011   0.244   4.127   3.458
 8704SOL    HW227012   0.301   4.093   3.309
 8705SOL     OW27013   5.127   1.026   6.726
 8705SOL    HW127014   5.156   1.116   6.695
 8705SOL    HW227015   5.195   0.989   6.789
 8706SOL     OW27016   5.068   2.503   6.890
 8706SOL    HW127017   5.027   2.431   6.835
 8706SOL    HW227018   5.000   2.575   6.907
 8707SOL     OW27019   0.243   1.503   6.081
 8707SOL    HW127020   0.297   1.554   6.014
 8707SOL    HW227021   0.168   1.559   6.114
 8708SOL     OW27022   4.094   1.472   2.702
 8708SOL    HW127023   4.067   1.467   2.798
 8708SOL    HW227024   4.025   1.523   2.650
 8709SOL     OW27025   6.915   6.845   0.267
 8709SOL    HW127026   6.861   6.782   0.212
 8709SOL    HW227027   6.972   6.901   0.207
 8710SOL     OW27028   2.115   3.101   3.728
 8710SOL    HW127029   2.193   3.057   3.773
 8710SOL    HW227030   2.041   3.036   3.718
 8711SOL     OW27031   2.010   6.598   2.879
 8711SOL    HW127032   1.959   6.673   2.923
 8711SOL    HW227033   1.981   6.511   2.918
 8712SOL     OW27034   3.797   1.723   4.814
 8712SOL    HW127035   3.729   1.676   4.758
 8712SOL    HW227036   3.858   1.655   4.855
 8713SOL     OW27037   6.328   3.264   3.079
 8713SOL    HW127038   6.247   3.305   3.121
 8713SOL    HW227039   6.366   3.327   3.012
 8714SOL     OW27040   1.180   6.810   5.535
 8714SOL    HW127041   1.208   6.872   5.608
 8714SOL    HW227042   1.217   6.719   5.552
 8715SOL     OW27043   4.331   0.776   1.104
 8715SOL    HW127044   4.240   0.816   1.092
 8715SOL    HW227045   4.382   0.830   1.171
 8716SOL     OW27046   6.923   0.365   1.056
 8716SOL    HW127047   6.939   0.268   1.038
 8716SOL    HW227048   6.915   0.414   0.969
 8717SOL     OW27049   3.050   3.753   4.873
 8717SOL    HW127050   3.018   3.836   4.917
 8717SOL    HW227051   3.120   3.709   4.929
 8718SOL     OW27052   1.239   3.200   5.666
 8718SOL    HW127053   1.289   3.281   5.697
 8718SOL    HW227054   1.158   3.187   5.724
 8719SOL     OW27055   4.412   0.165   6.816
 8719SOL    HW127056   4.447   0.100   6.883
 8719SOL    HW227057   4.488   0.209   6.769
 8720SOL     OW27058   0.227   5.508   6.075
 8720SOL    HW127059   0.307   5.468   6.120
 8720SOL    HW227060   0.252   5.539   5.983
 8721SOL     OW27061   6.657   2.337   1.743
 8721SOL    HW127062   6.696   2.292   1.663
 8721SOL    HW227063   6.559   2.348   1.731
 8722SOL     OW27064   3.581   1.252   0.784
 8722SOL    HW127065   3.488   1.225   0.811
 8722SOL    HW227066   3.646   1.223   0.854
 8723SOL     OW27067   4.658   6.581   2.078
 8723SOL    HW127068   4.717   6.659   2.097
 8723SOL    HW227069   4.700   6.524   2.007
 8724SOL     OW27070   4.985   6.996   4.833
 8724SOL    HW127071   5.073   6.959   4.804
 8724SOL    HW227072   4.919   6.922   4.843
 8725SOL     OW27073   1.553   5.903   5.687
 8725SOL    HW127074   1.505   5.942   5.765
 8725SOL    HW227075   1.545   5.966   5.609
 8726SOL     OW27076   0.436   1.194   3.122
 8726SOL    HW127077   0.505   1.266   3.113
 8726SOL    HW227078   0.357   1.229   3.171
 8727SOL     OW27079   5.308   0.176   2.376
 8727SOL    HW127080   5.401   0.174   2.339
 8727SOL    HW227081   5.263   0.260   2.346
 8728SOL     OW27082   6.543   1.066   2.349
 8728SOL    HW127083   6.611   1.084   2.421
 8728SOL    HW227084   6.465   1.018   2.389
 8729SOL     OW27085   3.615   4.832   5.805
 8729SOL    HW127086   3.586   4.782   5.724
 8729SOL    HW227087   3.663   4.915   5.778
 8730SOL     OW27088   5.192   4.485   2.542
 8730SOL    HW127089   5.281   4.486   2.588
 8730SOL    HW227090   5.157   4.578   2.535
 8731SOL     OW27091   1.497   3.020   2.959
 8731SOL    HW127092   1.465   3.051   2.870
 8731SOL    HW227093   1.442   3.062   3.031
 8732SOL     OW27094   5.764   4.918   1.939
 8732SOL    HW127095   5.848   4.870   1.964
 8732SOL    HW227096   5.685   4.869   1.976
 8733SOL     OW27097   1.832   5.643   1.429
 8733SOL    HW127098   1.800   5.737   1.443
 8733SOL    HW227099   1.910   5.625   1.489
 8734SOL     OW27100   1.052   4.085   2.226
 8734SOL    HW127101   1.142   4.069   2.186
 8734SOL    HW227102   0.987   4.016   2.193
 8735SOL     OW27103   0.944   2.713   0.029
 8735SOL    HW127104   1.007   2.698   0.105
 8735SOL    HW227105   0.860   2.755   0.064
 8736SOL     OW27106   0.419   5.568   0.549
 8736SOL    HW127107   0.358   5.646   0.534
 8736SOL    HW227108   0.461   5.540   0.463
 8737SOL     OW27109   1.919   6.526   0.055
 8737SOL    HW127110   2.003   6.529   0.107
 8737SOL    HW227111   1.864   6.607   0.073
 8738SOL     OW27112   3.025   5.731   4.115
 8738SOL    HW127113   3.026   5.649   4.057
 8738SOL    HW227114   3.061   5.808   4.062
 8739SOL     OW27115   5.814   5.718   6.539
 8739SOL    HW127116   5.802   5.697   6.636
 8739SOL    HW227117   5.769   5.648   6.484
 8740SOL     OW27118   3.919   1.343   4.762
 8740SOL    HW127119   3.825   1.307   4.764
 8740SOL    HW227120   3.950   1.351   4.668
 8741SOL     OW27121   2.346   1.320   2.465
 8741SOL    HW127122   2.279   1.278   2.404
 8741SOL    HW227123   2.423   1.355   2.412
 8742SOL     OW27124   4.961   6.589   1.912
 8742SOL    HW127125   4.958   6.607   1.813
 8742SOL    HW227126   4.969   6.490   1.926
 8743SOL     OW27127   1.502   0.161   2.243
 8743SOL    HW127128   1.463   0.241   2.198
 8743SOL    HW227129   1.520   0.090   2.175
 8744SOL     OW27130   3.801   2.936   0.043
 8744SOL    HW127131   3.706   2.925   0.016
 8744SOL    HW227132   3.860   2.913   6.994
 8745SOL     OW27133   6.461   1.700   5.963
 8745SOL    HW127134   6.399   1.778   5.965
 8745SOL    HW227135   6.555   1.732   5.950
 8746SOL     OW27136   4.718   5.519   4.348
 8746SOL    HW127137   4.656   5.594   4.325
 8746SOL    HW227138   4.665   5.437   4.367
 8747SOL     OW27139   0.263   2.080   3.498
 8747SOL    HW127140   0.227   2.165   3.536
 8747SOL    HW227141   0.319   2.101   3.417
 8748SOL     OW27142   0.127   1.236   4.476
 8748SOL    HW127143   0.179   1.243   4.561
 8748SOL    HW227144   0.191   1.229   4.399
 8749SOL     OW27145   2.284   0.537   5.283
 8749SOL    HW127146   2.326   0.521   5.193
 8749SOL    HW227147   2.335   0.488   5.353
 8750SOL     OW27148   3.119   4.096   4.811
 8750SOL    HW127149   3.186   4.081   4.884
 8750SOL    HW227150   3.048   4.158   4.844
 8751SOL     OW27151   6.227   1.886   2.090
 8751SOL    HW127152   6.195   1.961   2.032
 8751SOL    HW227153   6.320   1.906   2.121
 8752SOL     OW27154   3.673   3.120   6.153
 8752SOL    HW127155   3.749   3.110   6.217
 8752SOL    HW227156   3.586   3.113   6.202
 8753SOL     OW27157   3.298   1.627   6.207
 8753SOL    HW127158   3.352   1.544   6.224
 8753SOL    HW227159   3.253   1.619   6.118
 8754SOL     OW27160   1.595   3.769   5.765
 8754SOL    HW127161   1.669   3.765   5.698
 8754SOL    HW227162   1.618   3.711   5.843
 8755SOL     OW27163   2.509   1.330   0.892
 8755SOL    HW127164   2.548   1.262   0.831
 8755SOL    HW227165   2.495   1.416   0.842
 8756SOL     OW27166   1.298   2.979   4.326
 8756SOL    HW127167   1.299   2.883   4.297
 8756SOL    HW227168   1.346   3.035   4.259
 8757SOL     OW27169   3.634   5.866   6.402
 8757SOL    HW127170   3.547   5.884   6.448
 8757SOL    HW227171   3.707   5.861   6.470
 8758SOL     OW27172   5.111   6.283   2.922
 8758SOL    HW127173   5.120   6.367   2.974
 8758SOL    HW227174   5.059   6.301   2.839
 8759SOL     OW27175   4.507   3.055   6.381
 8759SOL    HW127176   4.478   3.142   6.340
 8759SOL    HW227177   4.591   3.024   6.337
 8760SOL     OW27178   2.881   0.862   5.473
 8760SOL    HW127179   2.979   0.870   5.486
 8760SOL    HW227180   2.839   0.953   5.474
 8761SOL     OW27181   6.144   2.263   1.788
 8761SOL    HW127182   6.102   2.199   1.852
 8761SOL    HW227183   6.083   2.275   1.709
 8762SOL     OW27184   0.920   4.662   3.365
 8762SOL    HW127185   0.850   4.714   3.414
 8762SOL    HW227186   1.010   4.688   3.399
 8763SOL     OW27187   6.316   6.831   6.349
 8763SOL    HW127188   6.237   6.800   6.296
 8763SOL    HW227189   6.346   6.757   6.409
 8764SOL     OW27190   5.242   6.923   5.479
 8764SOL    HW127191   5.210   6.960   5.566
 8764SOL    HW227192   5.331   6.963   5.456
 8765SOL     OW27193   4.953   0.220   3.796
 8765SOL    HW127194   5.006   0.296   3.833
 8765SOL    HW227195   4.869   0.254   3.755
 8766SOL     OW27196   4.483   4.878   4.737
 8766SOL    HW127197   4.406   4.915   4.790
 8766SOL    HW227198   4.494   4.781   4.757
 8767SOL     OW27199   4.950   5.901   2.881
 8767SOL    HW127200   4.955   5.974   2.814
 8767SOL    HW227201   4.864   5.852   2.871
 8768SOL     OW27202   1.391   2.428   0.096
 8768SOL    HW127203   1.449   2.356   0.057
 8768SOL    HW227204   1.390   2.507   0.035
 8769SOL     OW27205   6.839   0.876   3.515
 8769SOL    HW127206   6.930   0.909   3.493
 8769SOL    HW227207   6.809   0.811   3.445
 8770SOL     OW27208   4.392   4.550   2.097
 8770SOL    HW127209   4.420   4.457   2.072
 8770SOL    HW227210   4.451   4.584   2.170
 8771SOL     OW27211   0.872   1.561   6.429
 8771SOL    HW127212   0.850   1.538   6.523
 8771SOL    HW227213   0.857   1.481   6.370
 8772SOL     OW27214   4.358   0.584   6.885
 8772SOL    HW127215   4.282   0.571   6.949
 8772SOL    HW227216   4.402   0.672   6.903
 8773SOL     OW27217   5.571   2.964   3.555
 8773SOL    HW127218   5.573   2.887   3.491
 8773SOL    HW227219   5.564   2.929   3.648
 8774SOL     OW27220   1.304   1.138   0.113
 8774SOL    HW127221   1.336   1.081   0.037
 8774SOL    HW227222   1.359   1.222   0.117
 8775SOL     OW27223   5.411   0.295   5.645
 8775SOL    HW127224   5.475   0.222   5.621
 8775SOL    HW227225   5.401   0.298   5.744
 8776SOL     OW27226   4.850   3.061   0.546
 8776SOL    HW127227   4.860   3.090   0.450
 8776SOL    HW227228   4.817   3.138   0.600
 8777SOL     OW27229   6.321   4.199   3.591
 8777SOL    HW127230   6.388   4.134   3.628
 8777SOL    HW227231   6.363   4.289   3.581
 8778SOL     OW27232   5.830   3.179   5.752
 8778SOL    HW127233   5.884   3.107   5.708
 8778SOL    HW227234   5.794   3.144   5.839
 8779SOL     OW27235   3.091   5.116   2.534
 8779SOL    HW127236   3.167   5.168   2.495
 8779SOL    HW227237   3.012   5.176   2.545
 8780SOL     OW27238   0.494   6.688   2.892
 8780SOL    HW127239   0.423   6.622   2.869
 8780SOL    HW227240   0.504   6.754   2.818
 8781SOL     OW27241   4.889   0.828   3.955
 8781SOL    HW127242   4.910   0.896   3.885
 8781SOL    HW227243   4.791   0.806   3.951
 8782SOL     OW27244   6.855   6.975   1.747
 8782SOL    HW127245   6.839   6.886   1.790
 8782SOL    HW227246   6.897   6.961   1.657
 8783SOL     OW27247   6.442   4.134   4.003
 8783SOL    HW127248   6.484   4.054   4.046
 8783SOL    HW227249   6.415   4.199   4.073
 8784SOL     OW27250   0.079   5.194   5.585
 8784SOL    HW127251   0.176   5.200   5.608
 8784SOL    HW227252   0.050   5.098   5.589
 8785SOL     OW27253   5.429   4.660   0.527
 8785SOL    HW127254   5.371   4.581   0.548
 8785SOL    HW227255   5.496   4.634   0.456
 8786SOL     OW27256   2.848   0.944   0.379
 8786SOL    HW127257   2.918   0.930   0.448
 8786SOL    HW227258   2.767   0.890   0.403
 8787SOL     OW27259   3.085   1.212   1.646
 8787SOL    HW127260   3.124   1.281   1.707
 8787SOL    HW227261   3.136   1.213   1.560
 8788SOL     OW27262   6.196   0.002   5.417
 8788SOL    HW127263   6.125   0.049   5.469
 8788SOL    HW227264   6.179   0.014   5.319
 8789SOL     OW27265   5.892   6.252   4.414
 8789SOL    HW127266   5.893   6.247   4.315
 8789SOL    HW227267   5.937   6.171   4.452
 8790SOL     OW27268   6.828   0.133   6.127
 8790SOL    HW127269   6.920   0.149   6.163
 8790SOL    HW227270   6.804   0.208   6.064
 8791SOL     OW27271   5.369   6.469   5.171
 8791SOL    HW127272   5.296   6.508   5.115
 8791SOL    HW227273   5.443   6.438   5.112
 8792SOL     OW27274   2.805   5.622   3.473
 8792SOL    HW127275   2.856   5.556   3.417
 8792SOL    HW227276   2.800   5.709   3.425
 8793SOL     OW27277   0.970   4.323   2.193
 8793SOL    HW127278   0.987   4.224   2.198
 8793SOL    HW227279   1.040   4.365   2.134
 8794SOL     OW27280   4.910   0.088   2.656
 8794SOL    HW127281   4.854   0.064   2.735
 8794SOL    HW227282   4.993   0.134   2.686
 8795SOL     OW27283   1.163   4.086   5.804
 8795SOL    HW127284   1.203   4.074   5.713
 8795SOL    HW227285   1.113   4.173   5.807
 8796SOL     OW27286   4.661   2.008   4.330
 8796SOL    HW127287   4.656   2.034   4.234
 8796SOL    HW227288   4.699   1.916   4.338
 8797SOL     OW27289   0.373   0.373   0.027
 8797SOL    HW127290   0.280   0.371   0.064
 8797SOL    HW227291   0.393   0.285   7.013
 8798SOL     OW27292   5.195   5.776   6.607
 8798SOL    HW127293   5.251   5.842   6.557
 8798SOL    HW227294   5.177   5.696   6.549
 8799SOL     OW27295   2.728   4.723   3.307
 8799SOL    HW127296   2.696   4.788   3.239
 8799SOL    HW227297   2.813   4.756   3.349
 8800SOL     OW27298   6.221   4.669   6.107
 8800SOL    HW127299   6.195   4.759   6.142
 8800SOL    HW227300   6.178   4.654   6.018
 8801SOL     OW27301   6.753   0.757   4.451
 8801SOL    HW127302   6.724   0.837   4.399
 8801SOL    HW227303   6.741   0.675   4.395
 8802SOL     OW27304   2.124   0.085   6.487
 8802SOL    HW127305   2.161   0.175   6.469
 8802SOL    HW227306   2.047   0.067   6.425
 8803SOL     OW27307   7.027   6.221   0.097
 8803SOL    HW127308   7.003   6.131   0.135
 8803SOL    HW227309   0.015   6.212   7.028
 8804SOL     OW27310   2.548   6.839   1.794
 8804SOL    HW127311   2.488   6.765   1.822
 8804SOL    HW227312   2.620   6.852   1.864
 8805SOL     OW27313   3.435   6.377   3.694
 8805SOL    HW127314   3.496   6.298   3.699
 8805SOL    HW227315   3.489   6.460   3.682
 8806SOL     OW27316   3.330   4.731   1.751
 8806SOL    HW127317   3.334   4.812   1.693
 8806SOL    HW227318   3.421   4.708   1.784
 8807SOL     OW27319   5.171   0.442   0.337
 8807SOL    HW127320   5.254   0.433   0.281
 8807SOL    HW227321   5.190   0.411   0.430
 8808SOL     OW27322   6.060   2.919   6.870
 8808SOL    HW127323   6.099   2.974   6.943
 8808SOL    HW227324   5.973   2.959   6.841
 8809SOL     OW27325   3.584   5.493   3.281
 8809SOL    HW127326   3.508   5.431   3.261
 8809SOL    HW227327   3.641   5.504   3.200
 8810SOL     OW27328   6.099   0.598   4.951
 8810SOL    HW127329   6.165   0.563   5.018
 8810SOL    HW227330   6.013   0.621   4.997
 8811SOL     OW27331   3.300   1.523   2.202
 8811SOL    HW127332   3.388   1.545   2.161
 8811SOL    HW227333   3.271   1.599   2.261
 8812SOL     OW27334   2.050   0.781   0.606
 8812SOL    HW127335   2.116   0.713   0.574
 8812SOL    HW227336   2.086   0.827   0.687
 8813SOL     OW27337   2.270   5.572   3.010
 8813SOL    HW127338   2.313   5.582   2.920
 8813SOL    HW227339   2.301   5.487   3.053
 8814SOL     OW27340   6.832   0.447   0.817
 8814SOL    HW127341   6.743   0.404   0.799
 8814SOL    HW227342   6.838   0.533   0.766
 8815SOL     OW27343   5.679   6.920   0.932
 8815SOL    HW127344   5.714   6.955   1.018
 8815SOL    HW227345   5.624   6.838   0.949
 8816SOL     OW27346   1.246   6.301   0.632
 8816SOL    HW127347   1.163   6.339   0.672
 8816SOL    HW227348   1.224   6.261   0.543
 8817SOL     OW27349   6.987   4.840   3.487
 8817SOL    HW127350   7.016   4.927   3.446
 8817SOL    HW227351   6.996   4.846   3.587
 8818SOL     OW27352   0.664   4.749   4.493
 8818SOL    HW127353   0.738   4.808   4.526
 8818SOL    HW227354   0.649   4.675   4.558
 8819SOL     OW27355   5.426   4.955   5.068
 8819SOL    HW127356   5.420   5.007   4.983
 8819SOL    HW227357   5.500   4.888   5.060
 8820SOL     OW27358   2.445   0.846   5.339
 8820SOL    HW127359   2.543   0.826   5.331
 8820SOL    HW227360   2.430   0.907   5.417
 8821SOL     OW27361   1.694   6.139   0.993
 8821SOL    HW127362   1.642   6.168   1.073
 8821SOL    HW227363   1.685   6.207   0.920
 8822SOL     OW27364   0.830   0.572   4.163
 8822SOL    HW127365   0.770   0.651   4.148
 8822SOL    HW227366   0.894   0.593   4.237
 8823SOL     OW27367   2.035   0.950   2.990
 8823SOL    HW127368   2.123   0.980   3.025
 8823SOL    HW227369   1.962   0.984   3.049
 8824SOL     OW27370   1.328   1.918   0.033
 8824SOL    HW127371   1.428   1.917   0.026
 8824SOL    HW227372   1.302   1.909   0.129
 8825SOL     OW27373   2.015   0.970   1.836
 8825SOL    HW127374   2.042   0.938   1.927
 8825SOL    HW227375   1.991   1.067   1.840
 8826SOL     OW27376   0.934   3.817   0.491
 8826SOL    HW127377   0.885   3.903   0.508
 8826SOL    HW227378   0.917   3.788   0.397
 8827SOL     OW27379   4.655   0.871   2.759
 8827SOL    HW127380   4.657   0.806   2.683
 8827SOL    HW227381   4.738   0.859   2.814
 8828SOL     OW27382   4.134   5.816   6.088
 8828SOL    HW127383   4.091   5.764   6.014
 8828SOL    HW227384   4.127   5.914   6.069
 8829SOL     OW27385   5.299   2.720   1.270
 8829SOL    HW127386   5.370   2.676   1.217
 8829SOL    HW227387   5.268   2.659   1.343
 8830SOL     OW27388   1.115   1.823   2.598
 8830SOL    HW127389   1.123   1.820   2.698
 8830SOL    HW227390   1.206   1.838   2.558
 8831SOL     OW27391   4.499   2.393   3.904
 8831SOL    HW127392   4.400   2.385   3.921
 8831SOL    HW227393   4.514   2.422   3.810
 8832SOL     OW27394   6.678   6.851   3.031
 8832SOL    HW127395   6.748   6.838   3.101
 8832SOL    HW227396   6.676   6.772   2.970
 8833SOL     OW27397   2.626   5.209   5.980
 8833SOL    HW127398   2.653   5.291   6.032
 8833SOL    HW227399   2.543   5.228   5.929
 8834SOL     OW27400   5.846   3.956   4.824
 8834SOL    HW127401   5.903   3.983   4.747
 8834SOL    HW227402   5.881   3.871   4.863
 8835SOL     OW27403   4.904   0.787   5.984
 8835SOL    HW127404   4.940   0.745   5.901
 8835SOL    HW227405   4.898   0.718   6.057
 8836SOL     OW27406   5.115   1.994   0.526
 8836SOL    HW127407   5.197   1.979   0.470
 8836SOL    HW227408   5.101   2.092   0.540
 8837SOL     OW27409   6.824   6.465   2.422
 8837SOL    HW127410   6.866   6.548   2.460
 8837SOL    HW227411   6.893   6.412   2.373
 8838SOL     OW27412   1.872   5.191   3.339
 8838SOL    HW127413   1.823   5.179   3.253
 8838SOL    HW227414   1.818   5.248   3.401
 8839SOL     OW27415   5.086   5.758   1.805
 8839SOL    HW127416   5.081   5.780   1.707
 8839SOL    HW227417   5.020   5.686   1.826
 8840SOL     OW27418   6.950   1.741   3.149
 8840SOL    HW127419   6.920   1.817   3.092
 8840SOL    HW227420   7.016   1.773   3.217
 8841SOL     OW27421   0.667   0.539   4.467
 8841SOL    HW127422   0.729   0.618   4.466
 8841SOL    HW227423   0.700   0.472   4.534
 8842SOL     OW27424   3.704   3.067   2.857
 8842SOL    HW127425   3.781   3.057   2.920
 8842SOL    HW227426   3.618   3.053   2.906
 8843SOL     OW27427   2.003   3.492   5.587
 8843SOL    HW127428   2.017   3.499   5.489
 8843SOL    HW227429   1.978   3.398   5.611
 8844SOL     OW27430   0.895   1.198   5.665
 8844SOL    HW127431   0.989   1.162   5.660
 8844SOL    HW227432   0.839   1.154   5.595
 8845SOL     OW27433   3.544   3.624   0.648
 8845SOL    HW127434   3.540   3.654   0.552
 8845SOL    HW227435   3.507   3.695   0.707
 8846SOL     OW27436   3.832   4.909   4.382
 8846SOL    HW127437   3.761   4.929   4.314
 8846SOL    HW227438   3.788   4.872   4.465
 8847SOL     OW27439   2.560   1.717   2.698
 8847SOL    HW127440   2.468   1.696   2.665
 8847SOL    HW227441   2.625   1.708   2.622
 8848SOL     OW27442   2.504   2.011   2.001
 8848SOL    HW127443   2.584   1.954   1.980
 8848SOL    HW227444   2.487   2.074   1.924
 8849SOL     OW27445   3.176   6.267   3.429
 8849SOL    HW127446   3.166   6.340   3.496
 8849SOL    HW227447   3.224   6.301   3.348
 8850SOL     OW27448   1.723   1.621   6.697
 8850SOL    HW127449   1.645   1.582   6.746
 8850SOL    HW227450   1.762   1.551   6.637
 8851SOL     OW27451   0.851   5.352   1.972
 8851SOL    HW127452   0.861   5.304   1.885
 8851SOL    HW227453   0.923   5.322   2.034
 8852SOL     OW27454   4.939   3.862   5.598
 8852SOL    HW127455   4.910   3.854   5.503
 8852SOL    HW227456   4.971   3.773   5.631
 8853SOL     OW27457   2.740   1.117   6.936
 8853SOL    HW127458   2.682   1.188   6.896
 8853SOL    HW227459   2.761   1.141   0.002
 8854SOL     OW27460   3.659   1.364   6.139
 8854SOL    HW127461   3.585   1.325   6.083
 8854SOL    HW227462   3.701   1.440   6.090
 8855SOL     OW27463   0.515   6.004   1.289
 8855SOL    HW127464   0.489   6.033   1.381
 8855SOL    HW227465   0.586   6.065   1.254
 8856SOL     OW27466   0.242   6.691   6.485
 8856SOL    HW127467   0.275   6.680   6.391
 8856SOL    HW227468   0.316   6.668   6.549
 8857SOL     OW27469   6.895   1.712   4.280
 8857SOL    HW127470   6.979   1.766   4.290
 8857SOL    HW227471   6.895   1.638   4.347
 8858SOL     OW27472   1.100   2.347   4.867
 8858SOL    HW127473   1.114   2.440   4.833
 8858SOL    HW227474   1.018   2.345   4.924
 8859SOL     OW27475   6.683   0.488   3.938
 8859SOL    HW127476   6.634   0.541   3.868
 8859SOL    HW227477   6.688   0.393   3.910
 8860SOL     OW27478   0.641   3.183   2.711
 8860SOL    HW127479   0.585   3.257   2.749
 8860SOL    HW227480   0.732   3.186   2.752
 8861SOL     OW27481   4.500   1.696   5.966
 8861SOL    HW127482   4.405   1.727   5.974
 8861SOL    HW227483   4.561   1.774   5.970
 8862SOL     OW27484   5.623   1.111   4.053
 8862SOL    HW127485   5.707   1.059   4.070
 8862SOL    HW227486   5.642   1.183   3.985
 8863SOL     OW27487   1.564   4.894   4.425
 8863SOL    HW127488   1.510   4.818   4.461
 8863SOL    HW227489   1.656   4.861   4.401
 8864SOL     OW27490   3.457   4.184   5.938
 8864SOL    HW127491   3.441   4.264   5.996
 8864SOL    HW227492   3.372   4.161   5.891
 8865SOL     OW27493   2.946   1.376   6.158
 8865SOL    HW127494   2.892   1.310   6.106
 8865SOL    HW227495   3.021   1.328   6.205
 8866SOL     OW27496   5.088   6.972   2.966
 8866SOL    HW127497   5.123   6.901   3.028
 8866SOL    HW227498   5.153   0.019   2.963
 8867SOL     OW27499   5.666   3.303   2.192
 8867SOL    HW127500   5.703   3.387   2.232
 8867SOL    HW227501   5.571   3.292   2.221
 8868SOL     OW27502   6.745   2.745   0.908
 8868SOL    HW127503   6.810   2.799   0.961
 8868SOL    HW227504   6.713   2.668   0.963
 8869SOL     OW27505   4.303   6.467   4.813
 8869SOL    HW127506   4.399   6.488   4.794
 8869SOL    HW227507   4.274   6.519   4.894
 8870SOL     OW27508   3.589   0.207   7.001
 8870SOL    HW127509   3.582   0.301   6.968
 8870SOL    HW227510   3.681   0.192   0.010
 8871SOL     OW27511   1.945   1.017   3.980
 8871SOL    HW127512   1.909   1.088   3.919
 8871SOL    HW227513   2.045   1.026   3.986
 8872SOL     OW27514   1.684   4.097   4.850
 8872SOL    HW127515   1.603   4.129   4.899
 8872SOL    HW227516   1.763   4.098   4.911
 8873SOL     OW27517   1.045   6.339   1.664
 8873SOL    HW127518   1.057   6.310   1.569
 8873SOL    HW227519   1.102   6.419   1.682
 8874SOL     OW27520   1.987   5.623   2.657
 8874SOL    HW127521   2.058   5.686   2.625
 8874SOL    HW227522   1.947   5.575   2.579
 8875SOL     OW27523   6.685   3.100   5.297
 8875SOL    HW127524   6.707   3.116   5.393
 8875SOL    HW227525   6.680   3.001   5.281
 8876SOL     OW27526   2.072   6.862   4.567
 8876SOL    HW127527   2.120   6.782   4.530
 8876SOL    HW227528   2.037   6.841   4.658
 8877SOL     OW27529   3.207   1.310   3.922
 8877SOL    HW127530   3.130   1.252   3.895
 8877SOL    HW227531   3.194   1.342   4.016
 8878SOL     OW27532   6.376   4.768   7.025
 8878SOL    HW127533   6.410   4.797   6.936
 8878SOL    HW227534   6.452   4.736   0.053
 8879SOL     OW27535   4.825   4.725   2.119
 8879SOL    HW127536   4.919   4.707   2.151
 8879SOL    HW227537   4.777   4.638   2.108
 8880SOL     OW27538   4.901   5.797   4.815
 8880SOL    HW127539   4.921   5.893   4.831
 8880SOL    HW227540   4.875   5.783   4.720
 8881SOL     OW27541   5.761   6.890   3.967
 8881SOL    HW127542   5.783   6.943   3.885
 8881SOL    HW227543   5.671   6.918   4.002
 8882SOL     OW27544   5.748   1.226   1.276
 8882SOL    HW127545   5.796   1.138   1.269
 8882SOL    HW227546   5.666   1.215   1.333
 8883SOL     OW27547   1.552   6.044   6.367
 8883SOL    HW127548   1.626   6.098   6.326
 8883SOL    HW227549   1.583   6.007   6.454
 8884SOL     OW27550   6.352   3.968   6.410
 8884SOL    HW127551   6.445   3.964   6.373
 8884SOL    HW227552   6.319   4.062   6.409
 8885SOL     OW27553   6.841   3.621   0.693
 8885SOL    HW127554   6.893   3.610   0.778
 8885SOL    HW227555   6.746   3.593   0.708
 8886SOL     OW27556   3.170   6.969   4.910
 8886SOL    HW127557   3.197   6.906   4.983
 8886SOL    HW227558   3.163   0.033   4.947
 8887SOL     OW27559   3.356   1.472   1.070
 8887SOL    HW127560   3.285   1.542   1.078
 8887SOL    HW227561   3.443   1.516   1.049
 8888SOL     OW27562   1.952   1.820   6.126
 8888SOL    HW127563   1.933   1.909   6.083
 8888SOL    HW227564   2.014   1.768   6.067
 8889SOL     OW27565   6.815   0.371   5.909
 8889SOL    HW127566   6.899   0.333   5.871
 8889SOL    HW227567   6.836   0.459   5.952
 8890SOL     OW27568   6.576   5.942   3.711
 8890SOL    HW127569   6.496   5.984   3.667
 8890SOL    HW227570   6.633   6.014   3.751
 8891SOL     OW27571   5.063   3.877   6.737
 8891SOL    HW127572   5.130   3.842   6.671
 8891SOL    HW227573   5.089   3.851   6.829
 8892SOL     OW27574   3.726   5.872   3.357
 8892SOL    HW127575   3.770   5.871   3.268
 8892SOL    HW227576   3.648   5.810   3.356
 8893SOL     OW27577   0.562   5.870   3.463
 8893SOL    HW127578   0.572   5.955   3.413
 8893SOL    HW227579   0.638   5.859   3.526
 8894SOL     OW27580   4.173   2.823   6.724
 8894SOL    HW127581   4.232   2.887   6.674
 8894SOL    HW227582   4.186   2.731   6.689
 8895SOL     OW27583   6.597   2.529   2.645
 8895SOL    HW127584   6.621   2.612   2.595
 8895SOL    HW227585   6.499   2.511   2.634
 8896SOL     OW27586   2.387   3.373   5.421
 8896SOL    HW127587   2.478   3.342   5.393
 8896SOL    HW227588   2.394   3.466   5.458
 8897SOL     OW27589   2.138   2.553   3.147
 8897SOL    HW127590   2.160   2.519   3.238
 8897SOL    HW227591   2.137   2.653   3.148
 8898SOL     OW27592   5.017   2.896   2.702
 8898SOL    HW127593   4.997   2.800   2.722
 8898SOL    HW227594   5.033   2.946   2.787
 8899SOL     OW27595   1.634   5.505   1.069
 8899SOL    HW127596   1.664   5.600   1.084
 8899SOL    HW227597   1.674   5.446   1.139
 8900SOL     OW27598   6.056   2.965   2.827
 8900SOL    HW127599   5.985   2.895   2.817
 8900SOL    HW227600   6.140   2.933   2.784
 8901SOL     OW27601   2.303   0.779   5.022
 8901SOL    HW127602   2.351   0.704   4.976
 8901SOL    HW227603   2.267   0.842   4.954
 8902SOL     OW27604   2.102   0.150   0.587
 8902SOL    HW127605   2.110   0.210   0.666
 8902SOL    HW227606   2.191   0.139   0.543
 8903SOL     OW27607   0.918   1.467   4.995
 8903SOL    HW127608   0.925   1.422   4.906
 8903SOL    HW227609   0.875   1.557   4.983
 8904SOL     OW27610   5.886   6.489   3.919
 8904SOL    HW127611   5.853   6.461   4.010
 8904SOL    HW227612   5.815   6.540   3.872
 8905SOL     OW27613   0.908   4.582   4.079
 8905SOL    HW127614   0.972   4.513   4.113
 8905SOL    HW227615   0.904   4.659   4.143
 8906SOL     OW27616   0.262   5.984   0.071
 8906SOL    HW127617   0.255   6.084   0.071
 8906SOL    HW227618   0.358   5.957   0.071
 8907SOL     OW27619   2.596   2.315   5.073
 8907SOL    HW127620   2.592   2.368   5.158
 8907SOL    HW227621   2.683   2.266   5.068
 8908SOL     OW27622   1.236   4.481   6.828
 8908SOL    HW127623   1.305   4.413   6.855
 8908SOL    HW227624   1.229   4.484   6.729
 8909SOL     OW27625   2.768   0.848   6.213
 8909SOL    HW127626   2.771   0.758   6.170
 8909SOL    HW227627   2.861   0.880   6.230
 8910SOL     OW27628   7.019   2.480   6.185
 8910SOL    HW127629   6.958   2.412   6.144
 8910SOL    HW227630   0.022   2.543   6.115
 8911SOL     OW27631   3.926   2.092   4.577
 8911SOL    HW127632   3.867   2.063   4.653
 8911SOL    HW227633   3.875   2.155   4.518
 8912SOL     OW27634   3.276   3.379   6.732
 8912SOL    HW127635   3.228   3.391   6.819
 8912SOL    HW227636   3.266   3.284   6.702
 8913SOL     OW27637   5.169   5.061   5.658
 8913SOL    HW127638   5.139   4.967   5.671
 8913SOL    HW227639   5.123   5.120   5.725
 8914SOL     OW27640   4.615   0.327   4.734
 8914SOL    HW127641   4.695   0.366   4.689
 8914SOL    HW227642   4.627   0.228   4.742
 8915SOL     OW27643   0.680   3.041   3.883
 8915SOL    HW127644   0.580   3.035   3.883
 8915SOL    HW227645   0.708   3.135   3.905
 8916SOL     OW27646   6.774   3.884   0.643
 8916SOL    HW127647   6.806   3.932   0.724
 8916SOL    HW227648   6.806   3.789   0.645
 8917SOL     OW27649   6.633   3.536   0.335
 8917SOL    HW127650   6.632   3.474   0.257
 8917SOL    HW227651   6.726   3.539   0.373
 8918SOL     OW27652   6.316   4.195   0.975
 8918SOL    HW127653   6.316   4.286   1.016
 8918SOL    HW227654   6.325   4.126   1.047
 8919SOL     OW27655   3.830   4.101   0.683
 8919SOL    HW127656   3.872   4.048   0.756
 8919SOL    HW227657   3.772   4.041   0.627
 8920SOL     OW27658   0.701   0.427   6.733
 8920SOL    HW127659   0.658   0.511   6.768
 8920SOL    HW227660   0.797   0.445   6.713
 8921SOL     OW27661   2.194   2.460   2.719
 8921SOL    HW127662   2.206   2.558   2.699
 8921SOL    HW227663   2.229   2.440   2.810
 8922SOL     OW27664   3.905   4.857   1.654
 8922SOL    HW127665   3.825   4.816   1.611
 8922SOL    HW227666   3.914   4.952   1.625
 8923SOL     OW27667   1.821   2.927   6.372
 8923SOL    HW127668   1.724   2.923   6.397
 8923SOL    HW227669   1.877   2.925   6.455
 8924SOL     OW27670   3.709   5.344   5.586
 8924SOL    HW127671   3.808   5.350   5.572
 8924SOL    HW227672   3.688   5.356   5.683
 8925SOL     OW27673   0.944   1.520   2.423
 8925SOL    HW127674   1.009   1.454   2.462
 8925SOL    HW227675   0.901   1.571   2.497
 8926SOL     OW27676   6.857   3.112   6.156
 8926SOL    HW127677   6.926   3.062   6.104
 8926SOL    HW227678   6.767   3.098   6.114
 8927SOL     OW27679   0.261   1.119   4.677
 8927SOL    HW127680   0.302   1.037   4.716
 8927SOL    HW227681   0.196   1.158   4.743
 8928SOL     OW27682   0.759   0.175   6.072
 8928SOL    HW127683   0.781   0.087   6.031
 8928SOL    HW227684   0.678   0.166   6.129
 8929SOL     OW27685   6.278   2.783   4.355
 8929SOL    HW127686   6.194   2.734   4.377
 8929SOL    HW227687   6.258   2.857   4.291
 8930SOL     OW27688   1.680   3.732   3.892
 8930SOL    HW127689   1.707   3.663   3.960
 8930SOL    HW227690   1.707   3.823   3.925
 8931SOL     OW27691   2.369   3.122   0.526
 8931SOL    HW127692   2.353   3.195   0.592
 8931SOL    HW227693   2.314   3.042   0.552
 8932SOL     OW27694   6.531   0.851   0.898
 8932SOL    HW127695   6.550   0.777   0.833
 8932SOL    HW227696   6.585   0.836   0.981
 8933SOL     OW27697   1.997   3.062   5.683
 8933SOL    HW127698   2.045   3.132   5.736
 8933SOL    HW227699   1.996   2.976   5.734
 8934SOL     OW27700   3.647   4.931   4.635
 8934SOL    HW127701   3.589   4.983   4.573
 8934SOL    HW227702   3.647   4.974   4.725
 8935SOL     OW27703   6.611   4.463   1.065
 8935SOL    HW127704   6.520   4.422   1.055
 8935SOL    HW227705   6.681   4.394   1.045
 8936SOL     OW27706   1.033   3.409   2.582
 8936SOL    HW127707   1.100   3.390   2.654
 8936SOL    HW227708   1.066   3.371   2.495
 8937SOL     OW27709   6.819   6.642   4.168
 8937SOL    HW127710   6.880   6.718   4.144
 8937SOL    HW227711   6.799   6.588   4.087
 8938SOL     OW27712   0.426   0.477   0.707
 8938SOL    HW127713   0.474   0.389   0.709
 8938SOL    HW227714   0.491   0.549   0.679
 8939SOL     OW27715   5.840   4.675   4.365
 8939SOL    HW127716   5.914   4.610   4.384
 8939SOL    HW227717   5.796   4.702   4.450
 8940SOL     OW27718   5.982   1.443   2.107
 8940SOL    HW127719   5.907   1.503   2.134
 8940SOL    HW227720   5.978   1.358   2.160
 8941SOL     OW27721   5.703   2.625   4.503
 8941SOL    HW127722   5.743   2.539   4.535
 8941SOL    HW227723   5.721   2.697   4.569
 8942SOL     OW27724   6.369   5.315   5.673
 8942SOL    HW127725   6.357   5.414   5.678
 8942SOL    HW227726   6.453   5.294   5.622
 8943SOL     OW27727   3.912   5.586   0.488
 8943SOL    HW127728   3.904   5.664   0.550
 8943SOL    HW227729   3.834   5.585   0.426
 8944SOL     OW27730   5.550   5.623   4.322
 8944SOL    HW127731   5.591   5.544   4.369
 8944SOL    HW227732   5.470   5.654   4.373
 8945SOL     OW27733   0.947   1.299   3.947
 8945SOL    HW127734   0.949   1.283   4.046
 8945SOL    HW227735   1.035   1.273   3.907
 8946SOL     OW27736   2.908   1.354   3.891
 8946SOL    HW127737   2.883   1.344   3.795
 8946SOL    HW227738   2.947   1.268   3.924
 8947SOL     OW27739   2.391   3.472   5.735
 8947SOL    HW127740   2.479   3.443   5.773
 8947SOL    HW227741   2.335   3.514   5.807
 8948SOL     OW27742   6.061   6.062   3.960
 8948SOL    HW127743   6.065   6.162   3.968
 8948SOL    HW227744   5.976   6.035   3.916
 8949SOL     OW27745   4.046   6.251   0.939
 8949SOL    HW127746   3.984   6.330   0.936
 8949SOL    HW227747   4.013   6.185   1.006
 8950SOL     OW27748   3.915   4.319   0.185
 8950SOL    HW127749   4.012   4.317   0.207
 8950SOL    HW227750   3.864   4.358   0.262
 8951SOL     OW27751   2.331   0.976   4.664
 8951SOL    HW127752   2.423   1.006   4.640
 8951SOL    HW227753   2.314   0.994   4.761
 8952SOL     OW27754   0.541   5.184   3.360
 8952SOL    HW127755   0.623   5.139   3.396
 8952SOL    HW227756   0.518   5.262   3.417
 8953SOL     OW27757   1.296   4.176   0.672
 8953SOL    HW127758   1.361   4.100   0.659
 8953SOL    HW227759   1.204   4.144   0.651
 8954SOL     OW27760   6.917   6.664   4.418
 8954SOL    HW127761   7.008   6.704   4.425
 8954SOL    HW227762   6.889   6.661   4.322
 8955SOL     OW27763   6.809   5.193   3.065
 8955SOL    HW127764   6.808   5.268   2.998
 8955SOL    HW227765   6.904   5.170   3.086
 8956SOL     OW27766   2.143   1.549   6.303
 8956SOL    HW127767   2.210   1.613   6.267
 8956SOL    HW227768   2.167   1.526   6.397
 8957SOL     OW27769   1.796   4.918   1.722
 8957SOL    HW127770   1.824   4.841   1.665
 8957SOL    HW227771   1.871   4.984   1.730
 8958SOL     OW27772   0.452   2.469   4.986
 8958SOL    HW127773   0.461   2.382   4.937
 8958SOL    HW227774   0.429   2.452   5.082
 8959SOL     OW27775   1.812   4.434   2.044
 8959SOL    HW127776   1.875   4.512   2.043
 8959SOL    HW227777   1.754   4.439   2.124
 8960SOL     OW27778   4.390   5.997   3.308
 8960SOL    HW127779   4.437   5.942   3.377
 8960SOL    HW227780   4.392   6.093   3.336
 8961SOL     OW27781   3.173   1.459   3.650
 8961SOL    HW127782   3.166   1.555   3.679
 8961SOL    HW227783   3.191   1.402   3.730
 8962SOL     OW27784   6.153   5.366   2.380
 8962SOL    HW127785   6.232   5.415   2.343
 8962SOL    HW227786   6.079   5.365   2.312
 8963SOL     OW27787   3.580   0.595   5.147
 8963SOL    HW127788   3.523   0.621   5.070
 8963SOL    HW227789   3.675   0.587   5.117
 8964SOL     OW27790   5.721   3.156   3.454
 8964SOL    HW127791   5.642   3.111   3.496
 8964SOL    HW227792   5.769   3.092   3.394
 8965SOL     OW27793   2.326   5.617   0.443
 8965SOL    HW127794   2.371   5.691   0.392
 8965SOL    HW227795   2.319   5.643   0.539
 8966SOL     OW27796   6.819   3.966   6.829
 8966SOL    HW127797   6.823   4.000   6.735
 8966SOL    HW227798   6.726   3.974   6.864
 8967SOL     OW27799   4.067   0.513   1.752
 8967SOL    HW127800   4.048   0.415   1.760
 8967SOL    HW227801   3.981   0.562   1.737
 8968SOL     OW27802   4.203   5.594   2.930
 8968SOL    HW127803   4.240   5.687   2.925
 8968SOL    HW227804   4.180   5.562   2.838
 8969SOL     OW27805   6.553   0.127   3.499
 8969SOL    HW127806   6.512   0.217   3.515
 8969SOL    HW227807   6.482   0.057   3.503
 8970SOL     OW27808   2.679   3.596   6.912
 8970SOL    HW127809   2.662   3.692   6.887
 8970SOL    HW227810   2.683   3.587   7.011
 8971SOL     OW27811   5.343   5.198   1.651
 8971SOL    HW127812   5.386   5.123   1.702
 8971SOL    HW227813   5.266   5.163   1.598
 8972SOL     OW27814   4.559   3.540   0.054
 8972SOL    HW127815   4.568   3.496   6.993
 8972SOL    HW227816   4.635   3.512   0.113
 8973SOL     OW27817   0.427   3.622   3.464
 8973SOL    HW127818   0.460   3.564   3.390
 8973SOL    HW227819   0.343   3.583   3.503
 8974SOL     OW27820   1.408   3.522   3.917
 8974SOL    HW127821   1.371   3.465   3.991
 8974SOL    HW227822   1.494   3.482   3.885
 8975SOL     OW27823   1.213   6.217   0.350
 8975SOL    HW127824   1.135   6.161   0.375
 8975SOL    HW227825   1.243   6.194   0.257
 8976SOL     OW27826   0.578   5.090   0.239
 8976SOL    HW127827   0.479   5.084   0.248
 8976SOL    HW227828   0.607   5.184   0.257
 8977SOL     OW27829   6.883   3.297   6.813
 8977SOL    HW127830   6.804   3.317   6.754
 8977SOL    HW227831   6.942   3.377   6.818
 8978SOL     OW27832   5.279   6.785   4.463
 8978SOL    HW127833   5.245   6.860   4.406
 8978SOL    HW227834   5.236   6.790   4.554
 8979SOL     OW27835   0.544   4.334   5.167
 8979SOL    HW127836   0.583   4.342   5.259
 8979SOL    HW227837   0.506   4.423   5.140
 8980SOL     OW27838   4.560   2.850   5.433
 8980SOL    HW127839   4.580   2.860   5.531
 8980SOL    HW227840   4.567   2.939   5.388
 8981SOL     OW27841   4.082   1.900   5.010
 8981SOL    HW127842   4.108   1.981   5.061
 8981SOL    HW227843   4.163   1.847   4.987
 8982SOL     OW27844   1.581   1.500   1.346
 8982SOL    HW127845   1.525   1.534   1.271
 8982SOL    HW227846   1.666   1.552   1.351
 8983SOL     OW27847   1.176   5.476   0.468
 8983SOL    HW127848   1.145   5.386   0.436
 8983SOL    HW227849   1.096   5.532   0.490
 8984SOL     OW27850   6.043   6.766   3.518
 8984SOL    HW127851   6.105   6.704   3.471
 8984SOL    HW227852   6.019   6.728   3.607
 8985SOL     OW27853   2.422   1.570   0.780
 8985SOL    HW127854   2.362   1.549   0.857
 8985SOL    HW227855   2.391   1.655   0.737
 8986SOL     OW27856   4.103   5.058   2.110
 8986SOL    HW127857   4.105   5.133   2.043
 8986SOL    HW227858   4.169   5.076   2.182
 8987SOL     OW27859   4.528   6.680   0.436
 8987SOL    HW127860   4.623   6.671   0.405
 8987SOL    HW227861   4.525   6.683   0.536
 8988SOL     OW27862   1.918   3.950   0.248
 8988SOL    HW127863   1.946   3.975   0.155
 8988SOL    HW227864   1.874   3.860   0.246
 8989SOL     OW27865   4.944   4.413   2.020
 8989SOL    HW127866   4.853   4.450   2.004
 8989SOL    HW227867   5.004   4.486   2.052
 8990SOL     OW27868   1.994   6.066   2.110
 8990SOL    HW127869   1.927   6.135   2.135
 8990SOL    HW227870   2.075   6.075   2.168
 8991SOL     OW27871   1.823   1.910   6.857
 8991SOL    HW127872   1.778   1.836   6.808
 8991SOL    HW227873   1.886   1.957   6.796
 8992SOL     OW27874   6.620   2.302   6.535
 8992SOL    HW127875   6.652   2.319   6.442
 8992SOL    HW227876   6.585   2.387   6.574
 8993SOL     OW27877   4.943   2.639   2.779
 8993SOL    HW127878   4.967   2.586   2.697
 8993SOL    HW227879   4.844   2.640   2.789
 8994SOL     OW27880   0.689   4.715   4.849
 8994SOL    HW127881   0.596   4.699   4.882
 8994SOL    HW227882   0.742   4.630   4.858
 8995SOL     OW27883   1.123   2.442   6.666
 8995SOL    HW127884   1.077   2.489   6.590
 8995SOL    HW227885   1.132   2.505   6.743
 8996SOL     OW27886   6.479   5.250   1.571
 8996SOL    HW127887   6.480   5.334   1.624
 8996SOL    HW227888   6.570   5.208   1.572
 8997SOL     OW27889   4.492   1.447   6.572
 8997SOL    HW127890   4.460   1.367   6.622
 8997SOL    HW227891   4.414   1.503   6.543
 8998SOL     OW27892   7.016   3.335   5.143
 8998SOL    HW127893   7.002   3.370   5.050
 8998SOL    HW227894   6.979   3.401   5.209
 8999SOL     OW27895   5.176   6.846   0.260
 8999SOL    HW127896   5.174   6.754   0.299
 8999SOL    HW227897   5.106   6.854   0.189
 9000SOL     OW27898   2.507   4.379   6.698
 9000SOL    HW127899   2.536   4.475   6.693
 9000SOL    HW227900   2.427   4.372   6.757
 9001SOL     OW27901   0.887   5.544   2.939
 9001SOL    HW127902   0.882   5.479   3.015
 9001SOL    HW227903   0.830   5.511   2.863
 9002SOL     OW27904   6.586   5.027   4.906
 9002SOL    HW127905   6.578   5.126   4.897
 9002SOL    HW227906   6.671   4.996   4.863
 9003SOL     OW27907   5.298   2.413   1.197
 9003SOL    HW127908   5.377   2.428   1.257
 9003SOL    HW227909   5.300   2.318   1.164
 9004SOL     OW27910   5.143   6.803   1.910
 9004SOL    HW127911   5.136   6.874   1.980
 9004SOL    HW227912   5.104   6.717   1.945
 9005SOL     OW27913   4.804   1.741   5.225
 9005SOL    HW127914   4.874   1.702   5.285
 9005SOL    HW227915   4.714   1.707   5.253
 9006SOL     OW27916   2.638   6.347   0.721
 9006SOL    HW127917   2.712   6.354   0.654
 9006SOL    HW227918   2.660   6.276   0.787
 9007SOL     OW27919   3.834   6.864   4.182
 9007SOL    HW127920   3.745   6.821   4.165
 9007SOL    HW227921   3.906   6.809   4.140
 9008SOL     OW27922   7.025   5.408   3.043
 9008SOL    HW127923   0.059   5.332   3.027
 9008SOL    HW227924   0.044   5.494   3.028
 9009SOL     OW27925   2.573   0.861   0.400
 9009SOL    HW127926   2.503   0.882   0.468
 9009SOL    HW227927   2.543   0.891   0.310
 9010SOL     OW27928   0.674   0.011   4.689
 9010SOL    HW127929   0.731   0.019   4.771
 9010SOL    HW227930   0.716   0.063   4.614
 9011SOL     OW27931   4.113   2.031   1.668
 9011SOL    HW127932   4.101   2.007   1.572
 9011SOL    HW227933   4.025   2.056   1.708
 9012SOL     OW27934   3.398   4.150   1.023
 9012SOL    HW127935   3.421   4.085   1.096
 9012SOL    HW227936   3.299   4.164   1.022
 9013SOL     OW27937   0.310   5.984   3.995
 9013SOL    HW127938   0.290   5.974   4.092
 9013SOL    HW227939   0.369   6.064   3.981
 9014SOL     OW27940   0.613   0.816   0.024
 9014SOL    HW127941   0.549   0.892   0.033
 9014SOL    HW227942   0.705   0.847   0.046
 9015SOL     OW27943   6.114   1.873   0.995
 9015SOL    HW127944   6.169   1.820   1.060
 9015SOL    HW227945   6.162   1.878   0.907
 9016SOL     OW27946   0.488   6.559   6.551
 9016SOL    HW127947   0.475   6.465   6.520
 9016SOL    HW227948   0.583   6.572   6.578
 9017SOL     OW27949   4.338   2.156   1.742
 9017SOL    HW127950   4.255   2.103   1.727
 9017SOL    HW227951   4.417   2.095   1.745
 9018SOL     OW27952   4.788   1.409   5.942
 9018SOL    HW127953   4.758   1.363   5.858
 9018SOL    HW227954   4.708   1.446   5.989
 9019SOL     OW27955   0.141   0.737   1.651
 9019SOL    HW127956   0.195   0.688   1.719
 9019SOL    HW227957   0.188   0.735   1.563
 9020SOL     OW27958   1.543   3.280   1.541
 9020SOL    HW127959   1.468   3.303   1.480
 9020SOL    HW227960   1.556   3.353   1.608
 9021SOL     OW27961   6.846   0.279   3.734
 9021SOL    HW127962   6.851   0.373   3.702
 9021SOL    HW227963   6.888   0.218   3.667
 9022SOL     OW27964   2.907   1.575   0.818
 9022SOL    HW127965   2.866   1.551   0.730
 9022SOL    HW227966   3.000   1.610   0.804
 9023SOL     OW27967   3.250   3.420   2.185
 9023SOL    HW127968   3.342   3.449   2.159
 9023SOL    HW227969   3.200   3.496   2.225
 9024SOL     OW27970   0.542   5.121   5.115
 9024SOL    HW127971   0.599   5.136   5.196
 9024SOL    HW227972   0.548   5.202   5.056
 9025SOL     OW27973   0.674   5.787   0.353
 9025SOL    HW127974   0.653   5.850   0.429
 9025SOL    HW227975   0.696   5.840   0.271
 9026SOL     OW27976   4.081   3.665   1.912
 9026SOL    HW127977   4.173   3.641   1.881
 9026SOL    HW227978   4.087   3.711   2.000
 9027SOL     OW27979   1.274   1.849   4.204
 9027SOL    HW127980   1.364   1.817   4.174
 9027SOL    HW227981   1.225   1.773   4.247
 9028SOL     OW27982   2.468   3.804   6.398
 9028SOL    HW127983   2.437   3.847   6.313
 9028SOL    HW227984   2.565   3.821   6.410
 9029SOL     OW27985   3.490   5.241   4.898
 9029SOL    HW127986   3.557   5.167   4.896
 9029SOL    HW227987   3.402   5.205   4.930
 9030SOL     OW27988   2.037   1.563   3.541
 9030SOL    HW127989   1.967   1.534   3.477
 9030SOL    HW227990   2.123   1.581   3.492
 9031SOL     OW27991   4.350   6.203   4.495
 9031SOL    HW127992   4.432   6.202   4.552
 9031SOL    HW227993   4.307   6.113   4.496
 9032SOL     OW27994   3.275   3.118   0.911
 9032SOL    HW127995   3.194   3.065   0.885
 9032SOL    HW227996   3.356   3.079   0.866
 9033SOL     OW27997   1.796   5.310   3.807
 9033SOL    HW127998   1.832   5.236   3.750
 9033SOL    HW227999   1.721   5.275   3.863
 9034SOL     OW28000   2.777   0.723   5.039
 9034SOL    HW128001   2.869   0.740   5.003
 9034SOL    HW228002   2.744   0.635   5.008
 9035SOL     OW28003   1.287   4.978   5.380
 9035SOL    HW128004   1.254   4.944   5.292
 9035SOL    HW228005   1.239   5.062   5.403
 9036SOL     OW28006   1.730   0.847   5.447
 9036SOL    HW128007   1.654   0.879   5.392
 9036SOL    HW228008   1.784   0.925   5.479
 9037SOL     OW28009   1.370   3.909   5.883
 9037SOL    HW128010   1.307   3.890   5.808
 9037SOL    HW228011   1.463   3.885   5.854
 9038SOL     OW28012   5.054   6.596   5.854
 9038SOL    HW128013   5.014   6.572   5.765
 9038SOL    HW228014   5.030   6.526   5.921
 9039SOL     OW28015   2.723   4.722   4.390
 9039SOL    HW128016   2.803   4.769   4.427
 9039SOL    HW228017   2.689   4.656   4.458
 9040SOL     OW28018   2.742   2.150   2.638
 9040SOL    HW128019   2.840   2.132   2.632
 9040SOL    HW228020   2.724   2.245   2.613
 9041SOL     OW28021   0.871   2.353   2.060
 9041SOL    HW128022   0.860   2.301   2.145
 9041SOL    HW228023   0.958   2.330   2.017
 9042SOL     OW28024   2.193   0.155   3.591
 9042SOL    HW128025   2.270   0.200   3.545
 9042SOL    HW228026   2.219   0.062   3.616
 9043SOL     OW28027   2.881   1.733   6.878
 9043SOL    HW128028   2.837   1.791   6.808
 9043SOL    HW228029   2.980   1.739   6.869
 9044SOL     OW28030   5.813   1.683   1.961
 9044SOL    HW128031   5.764   1.641   1.884
 9044SOL    HW228032   5.768   1.656   2.046
 9045SOL     OW28033   3.099   1.433   2.543
 9045SOL    HW128034   3.190   1.405   2.510
 9045SOL    HW228035   3.029   1.389   2.488
 9046SOL     OW28036   3.419   4.167   4.684
 9046SOL    HW128037   3.365   4.233   4.735
 9046SOL    HW228038   3.439   4.088   4.742
 9047SOL     OW28039   1.081   2.850   5.724
 9047SOL    HW128040   1.180   2.866   5.720
 9047SOL    HW228041   1.051   2.805   5.640
 9048SOL     OW28042   6.372   1.983   5.885
 9048SOL    HW128043   6.290   1.946   5.928
 9048SOL    HW228044   6.442   2.001   5.955
 9049SOL     OW28045   3.774   0.108   6.213
 9049SOL    HW128046   3.800   0.204   6.220
 9049SOL    HW228047   3.844   0.051   6.258
 9050SOL     OW28048   6.999   4.099   6.134
 9050SOL    HW128049   0.023   4.088   6.218
 9050SOL    HW228050   6.916   4.150   6.153
 9051SOL     OW28051   4.084   6.238   0.671
 9051SOL    HW128052   4.048   6.226   0.764
 9051SOL    HW228053   4.183   6.225   0.672
 9052SOL     OW28054   1.512   2.357   3.398
 9052SOL    HW128055   1.438   2.299   3.430
 9052SOL    HW228056   1.513   2.358   3.298
 9053SOL     OW28057   1.642   1.664   3.167
 9053SOL    HW128058   1.611   1.584   3.117
 9053SOL    HW228059   1.738   1.683   3.143
 9054SOL     OW28060   1.590   0.279   2.542
 9054SOL    HW128061   1.556   0.339   2.469
 9054SOL    HW228062   1.539   0.192   2.540
 9055SOL     OW28063   6.306   3.162   3.686
 9055SOL    HW128064   6.232   3.229   3.697
 9055SOL    HW228065   6.394   3.209   3.685
 9056SOL     OW28066   6.751   0.908   1.369
 9056SOL    HW128067   6.666   0.960   1.364
 9056SOL    HW228068   6.814   0.952   1.433
 9057SOL     OW28069   6.133   4.824   5.674
 9057SOL    HW128070   6.198   4.898   5.661
 9057SOL    HW228071   6.104   4.821   5.770
 9058SOL     OW28072   1.899   1.994   3.593
 9058SOL    HW128073   1.887   1.925   3.665
 9058SOL    HW228074   1.822   2.057   3.593
 9059SOL     OW28075   1.299   1.150   5.224
 9059SOL    HW128076   1.298   1.175   5.127
 9059SOL    HW228077   1.249   1.218   5.276
 9060SOL     OW28078   6.653   3.097   2.325
 9060SOL    HW128079   6.619   3.069   2.235
 9060SOL    HW228080   6.613   3.186   2.349
 9061SOL     OW28081   2.989   5.719   2.202
 9061SOL    HW128082   3.062   5.776   2.166
 9061SOL    HW228083   2.926   5.775   2.255
 9062SOL     OW28084   1.613   5.938   2.212
 9062SOL    HW128085   1.663   5.952   2.297
 9062SOL    HW228086   1.666   5.975   2.136
 9063SOL     OW28087   2.432   0.215   2.872
 9063SOL    HW128088   2.360   0.282   2.888
 9063SOL    HW228089   2.432   0.149   2.947
 9064SOL     OW28090   6.237   2.875   5.851
 9064SOL    HW128091   6.143   2.886   5.819
 9064SOL    HW228092   6.299   2.887   5.774
 9065SOL     OW28093   3.055   6.731   6.329
 9065SOL    HW128094   3.026   6.778   6.412
 9065SOL    HW228095   3.154   6.731   6.323
 9066SOL     OW28096   5.483   6.918   0.473
 9066SOL    HW128097   5.513   6.905   0.378
 9066SOL    HW228098   5.555   6.887   0.535
 9067SOL     OW28099   6.041   0.376   4.366
 9067SOL    HW128100   6.116   0.357   4.428
 9067SOL    HW228101   5.992   0.291   4.346
 9068SOL     OW28102   2.986   0.327   5.479
 9068SOL    HW128103   2.927   0.300   5.555
 9068SOL    HW228104   3.010   0.424   5.487
 9069SOL     OW28105   2.660   2.335   1.972
 9069SOL    HW128106   2.590   2.381   2.027
 9069SOL    HW228107   2.747   2.337   2.020
 9070SOL     OW28108   1.112   3.382   5.882
 9070SOL    HW128109   1.092   3.429   5.968
 9070SOL    HW228110   1.210   3.358   5.880
 9071SOL     OW28111   5.633   0.082   0.755
 9071SOL    HW128112   5.647   7.028   0.809
 9071SOL    HW228113   5.560   0.137   0.797
 9072SOL     OW28114   6.280   1.219   2.267
 9072SOL    HW128115   6.282   1.203   2.366
 9072SOL    HW228116   6.349   1.287   2.243
 9073SOL     OW28117   3.428   6.590   0.412
 9073SOL    HW128118   3.412   6.524   0.486
 9073SOL    HW228119   3.346   6.646   0.399
 9074SOL     OW28120   2.232   1.160   1.653
 9074SOL    HW128121   2.326   1.124   1.653
 9074SOL    HW228122   2.170   1.091   1.691
 9075SOL     OW28123   1.255   1.091   2.469
 9075SOL    HW128124   1.237   1.047   2.557
 9075SOL    HW228125   1.236   1.027   2.395
 9076SOL     OW28126   5.919   1.870   5.234
 9076SOL    HW128127   5.935   1.924   5.316
 9076SOL    HW228128   5.829   1.827   5.239
 9077SOL     OW28129   5.388   6.547   6.896
 9077SOL    HW128130   5.419   6.582   6.807
 9077SOL    HW228131   5.444   6.587   6.969
 9078SOL     OW28132   4.651   3.795   6.292
 9078SOL    HW128133   4.576   3.761   6.235
 9078SOL    HW228134   4.643   3.756   6.384
 9079SOL     OW28135   2.491   6.555   3.994
 9079SOL    HW128136   2.446   6.634   3.952
 9079SOL    HW228137   2.570   6.529   3.939
 9080SOL     OW28138   5.681   2.105   7.013
 9080SOL    HW128139   5.628   2.188   6.999
 9080SOL    HW228140   5.773   2.117   6.976
 9081SOL     OW28141   3.668   6.182   2.942
 9081SOL    HW128142   3.761   6.180   2.904
 9081SOL    HW228143   3.634   6.088   2.952
 9082SOL     OW28144   2.493   6.600   5.069
 9082SOL    HW128145   2.455   6.509   5.088
 9082SOL    HW228146   2.551   6.628   5.146
 9083SOL     OW28147   3.775   4.741   6.025
 9083SOL    HW128148   3.866   4.777   6.006
 9083SOL    HW228149   3.721   4.740   5.940
 9084SOL     OW28150   3.179   3.872   5.532
 9084SOL    HW128151   3.121   3.805   5.486
 9084SOL    HW228152   3.275   3.851   5.516
 9085SOL     OW28153   1.998   4.799   1.314
 9085SOL    HW128154   2.021   4.703   1.300
 9085SOL    HW228155   1.997   4.846   1.225
 9086SOL     OW28156   0.759   4.214   0.395
 9086SOL    HW128157   0.666   4.220   0.361
 9086SOL    HW228158   0.758   4.187   0.492
 9087SOL     OW28159   4.710   2.455   1.738
 9087SOL    HW128160   4.683   2.537   1.687
 9087SOL    HW228161   4.628   2.409   1.771
 9088SOL     OW28162   5.361   6.023   0.535
 9088SOL    HW128163   5.291   5.999   0.468
 9088SOL    HW228164   5.368   6.122   0.541
 9089SOL     OW28165   4.839   6.466   5.206
 9089SOL    HW128166   4.814   6.559   5.231
 9089SOL    HW228167   4.916   6.436   5.262
 9090SOL     OW28168   0.254   0.286   3.297
 9090SOL    HW128169   0.303   0.327   3.374
 9090SOL    HW228170   0.289   0.324   3.211
 9091SOL     OW28171   3.448   3.820   0.804
 9091SOL    HW128172   3.513   3.880   0.850
 9091SOL    HW228173   3.359   3.866   0.798
 9092SOL     OW28174   0.291   1.555   1.045
 9092SOL    HW128175   0.197   1.525   1.024
 9092SOL    HW228176   0.348   1.474   1.061
 9093SOL     OW28177   1.339   6.557   6.363
 9093SOL    HW128178   1.385   6.637   6.323
 9093SOL    HW228179   1.404   6.481   6.368
 9094SOL     OW28180   6.090   5.267   2.844
 9094SOL    HW128181   6.168   5.310   2.798
 9094SOL    HW228182   6.026   5.232   2.776
 9095SOL     OW28183   4.635   4.511   5.986
 9095SOL    HW128184   4.597   4.467   5.905
 9095SOL    HW228185   4.720   4.465   6.012
 9096SOL     OW28186   6.021   3.478   1.774
 9096SOL    HW128187   6.046   3.384   1.748
 9096SOL    HW228188   6.025   3.487   1.873
 9097SOL     OW28189   0.720   1.943   0.198
 9097SOL    HW128190   0.662   1.870   0.162
 9097SOL    HW228191   0.814   1.910   0.208
 9098SOL     OW28192   3.767   1.605   6.038
 9098SOL    HW128193   3.829   1.579   5.964
 9098SOL    HW228194   3.719   1.689   6.013
 9099SOL     OW28195   2.839   2.734   5.670
 9099SOL    HW128196   2.923   2.760   5.622
 9099SOL    HW228197   2.760   2.756   5.613
 9100SOL     OW28198   0.591   3.808   4.027
 9100SOL    HW128199   0.538   3.723   4.032
 9100SOL    HW228200   0.542   3.881   4.074
 9101SOL     OW28201   2.275   2.374   2.976
 9101SOL    HW128202   2.348   2.323   3.021
 9101SOL    HW228203   2.230   2.434   3.042
 9102SOL     OW28204   2.858   0.089   1.835
 9102SOL    HW128205   2.939   0.043   1.872
 9102SOL    HW228206   2.856   0.183   1.868
 9103SOL     OW28207   6.272   3.108   6.367
 9103SOL    HW128208   6.363   3.148   6.355
 9103SOL    HW228209   6.203   3.170   6.330
 9104SOL     OW28210   0.430   6.543   2.019
 9104SOL    HW128211   0.459   6.637   2.040
 9104SOL    HW228212   0.421   6.491   2.104
 9105SOL     OW28213   1.378   1.730   6.700
 9105SOL    HW128214   1.400   1.639   6.665
 9105SOL    HW228215   1.284   1.753   6.676
 9106SOL     OW28216   0.339   2.874   0.777
 9106SOL    HW128217   0.366   2.907   0.867
 9106SOL    HW228218   0.310   2.779   0.784
 9107SOL     OW28219   4.000   0.685   6.304
 9107SOL    HW128220   4.040   0.693   6.395
 9107SOL    HW228221   3.900   0.685   6.311
 9108SOL     OW28222   4.879   4.256   5.745
 9108SOL    HW128223   4.841   4.173   5.705
 9108SOL    HW228224   4.943   4.298   5.681
 9109SOL     OW28225   6.671   2.940   3.702
 9109SOL    HW128226   6.675   3.040   3.703
 9109SOL    HW228227   6.584   2.911   3.663
 9110SOL     OW28228   1.551   5.250   4.239
 9110SOL    HW128229   1.596   5.338   4.248
 9110SOL    HW228230   1.526   5.216   4.330
 9111SOL     OW28231   4.794   2.040   0.474
 9111SOL    HW128232   4.781   2.025   0.376
 9111SOL    HW228233   4.800   1.951   0.520
 9112SOL     OW28234   0.624   5.402   2.877
 9112SOL    HW128235   0.658   5.397   2.971
 9112SOL    HW228236   0.655   5.321   2.827
 9113SOL     OW28237   4.681   1.822   2.775
 9113SOL    HW128238   4.642   1.792   2.863
 9113SOL    HW228239   4.607   1.834   2.709
 9114SOL     OW28240   1.015   5.011   2.171
 9114SOL    HW128241   1.049   5.003   2.078
 9114SOL    HW228242   1.078   4.966   2.234
 9115SOL     OW28243   0.046   5.643   4.080
 9115SOL    HW128244   0.140   5.641   4.048
 9115SOL    HW228245   7.018   5.697   4.017
 9116SOL     OW28246   6.874   1.116   1.879
 9116SOL    HW128247   6.832   1.141   1.966
 9116SOL    HW228248   6.917   1.026   1.888
 9117SOL     OW28249   4.998   2.582   0.125
 9117SOL    HW128250   5.077   2.575   0.065
 9117SOL    HW228251   5.024   2.626   0.210
 9118SOL     OW28252   6.822   3.785   0.221
 9118SOL    HW128253   6.825   3.699   0.171
 9118SOL    HW228254   6.903   3.793   0.279
 9119SOL     OW28255   4.029   0.326   2.400
 9119SOL    HW128256   4.108   0.387   2.407
 9119SOL    HW228257   4.036   0.255   2.470
 9120SOL     OW28258   6.182   1.795   6.021
 9120SOL    HW128259   6.141   1.706   6.001
 9120SOL    HW228260   6.125   1.844   6.087
 9121SOL     OW28261   4.266   0.377   5.470
 9121SOL    HW128262   4.240   0.393   5.565
 9121SOL    HW228263   4.293   0.282   5.458
 9122SOL     OW28264   2.391   4.417   2.258
 9122SOL    HW128265   2.329   4.489   2.227
 9122SOL    HW228266   2.483   4.455   2.267
 9123SOL     OW28267   2.220   0.660   3.641
 9123SOL    HW128268   2.155   0.704   3.703
 9123SOL    HW228269   2.171   0.620   3.564
 9124SOL     OW28270   5.551   5.738   0.312
 9124SOL    HW128271   5.516   5.689   0.392
 9124SOL    HW228272   5.647   5.713   0.298
 9125SOL     OW28273   4.866   4.360   0.276
 9125SOL    HW128274   4.801   4.328   0.345
 9125SOL    HW228275   4.857   4.303   0.194
 9126SOL     OW28276   6.125   3.436   1.282
 9126SOL    HW128277   6.029   3.416   1.304
 9126SOL    HW228278   6.182   3.413   1.361
 9127SOL     OW28279   6.522   1.554   6.436
 9127SOL    HW128280   6.475   1.602   6.362
 9127SOL    HW228281   6.621   1.569   6.427
 9128SOL     OW28282   6.107   2.640   5.347
 9128SOL    HW128283   6.027   2.594   5.309
 9128SOL    HW228284   6.170   2.572   5.385
 9129SOL     OW28285   0.380   2.853   6.961
 9129SOL    HW128286   0.394   2.854   0.031
 9129SOL    HW228287   0.292   2.896   6.940
 9130SOL     OW28288   0.434   2.957   6.145
 9130SOL    HW128289   0.412   2.911   6.231
 9130SOL    HW228290   0.522   3.004   6.153
 9131SOL     OW28291   5.588   2.823   5.908
 9131SOL    HW128292   5.494   2.853   5.892
 9131SOL    HW228293   5.608   2.828   6.006
 9132SOL     OW28294   0.467   5.282   4.466
 9132SOL    HW128295   0.448   5.306   4.371
 9132SOL    HW228296   0.491   5.365   4.517
 9133SOL     OW28297   4.298   6.272   1.554
 9133SOL    HW128298   4.285   6.370   1.544
 9133SOL    HW228299   4.330   6.233   1.468
 9134SOL     OW28300   3.629   5.565   1.746
 9134SOL    HW128301   3.615   5.643   1.685
 9134SOL    HW228302   3.709   5.582   1.803
 9135SOL     OW28303   6.515   0.268   1.664
 9135SOL    HW128304   6.446   0.206   1.626
 9135SOL    HW228305   6.508   0.270   1.763
 9136SOL     OW28306   5.425   6.297   7.009
 9136SOL    HW128307   5.401   6.218   6.952
 9136SOL    HW228308   5.387   6.380   6.970
 9137SOL     OW28309   5.038   1.136   0.503
 9137SOL    HW128310   5.001   1.193   0.430
 9137SOL    HW228311   5.129   1.103   0.477
 9138SOL     OW28312   0.284   5.648   6.715
 9138SOL    HW128313   0.249   5.558   6.741
 9138SOL    HW228314   0.229   5.685   6.641
 9139SOL     OW28315   1.880   2.188   3.253
 9139SOL    HW128316   1.821   2.112   3.226
 9139SOL    HW228317   1.906   2.241   3.173
 9140SOL     OW28318   0.021   3.535   2.254
 9140SOL    HW128319   7.011   3.614   2.208
 9140SOL    HW228320   6.983   3.461   2.256
 9141SOL     OW28321   5.693   6.898   1.433
 9141SOL    HW128322   5.695   6.877   1.531
 9141SOL    HW228323   5.754   6.835   1.384
 9142SOL     OW28324   1.025   3.270   1.301
 9142SOL    HW128325   1.099   3.269   1.234
 9142SOL    HW228326   0.985   3.179   1.307
 9143SOL     OW28327   6.361   2.686   0.036
 9143SOL    HW128328   6.288   2.619   0.025
 9143SOL    HW228329   6.448   2.646   0.007
 9144SOL     OW28330   2.452   4.672   4.850
 9144SOL    HW128331   2.363   4.627   4.839
 9144SOL    HW228332   2.505   4.625   4.921
 9145SOL     OW28333   0.519   5.430   7.003
 9145SOL    HW128334   0.594   5.495   7.015
 9145SOL    HW228335   0.521   5.395   6.909
 9146SOL     OW28336   5.211   3.068   3.649
 9146SOL    HW128337   5.305   3.084   3.677
 9146SOL    HW228338   5.197   3.102   3.556
 9147SOL     OW28339   5.716   6.960   5.117
 9147SOL    HW128340   5.624   6.969   5.078
 9147SOL    HW228341   5.709   6.922   5.209
 9148SOL     OW28342   5.120   6.264   2.103
 9148SOL    HW128343   5.182   6.322   2.155
 9148SOL    HW228344   5.149   6.169   2.111
 9149SOL     OW28345   4.882   3.668   2.649
 9149SOL    HW128346   4.847   3.574   2.657
 9149SOL    HW228347   4.883   3.695   2.553
 9150SOL     OW28348   3.134   5.337   1.136
 9150SOL    HW128349   3.081   5.353   1.053
 9150SOL    HW228350   3.129   5.240   1.161
 9151SOL     OW28351   1.109   4.301   3.537
 9151SOL    HW128352   1.193   4.295   3.591
 9151SOL    HW228353   1.116   4.240   3.458
 9152SOL     OW28354   2.187   4.268   4.376
 9152SOL    HW128355   2.208   4.194   4.440
 9152SOL    HW228356   2.267   4.285   4.319
 9153SOL     OW28357   0.701   3.028   0.309
 9153SOL    HW128358   0.777   3.045   0.247
 9153SOL    HW228359   0.699   2.931   0.334
 9154SOL     OW28360   5.679   4.802   5.104
 9154SOL    HW128361   5.764   4.751   5.090
 9154SOL    HW228362   5.679   4.845   5.194
 9155SOL     OW28363   1.760   4.466   2.462
 9155SOL    HW128364   1.759   4.374   2.501
 9155SOL    HW228365   1.673   4.484   2.416
 9156SOL     OW28366   0.570   2.169   0.639
 9156SOL    HW128367   0.549   2.201   0.731
 9156SOL    HW228368   0.519   2.222   0.572
 9157SOL     OW28369   2.666   4.147   6.754
 9157SOL    HW128370   2.607   4.224   6.730
 9157SOL    HW228371   2.693   4.155   6.851
 9158SOL     OW28372   6.408   4.156   4.607
 9158SOL    HW128373   6.453   4.242   4.629
 9158SOL    HW228374   6.314   4.174   4.576
 9159SOL     OW28375   1.459   0.392   2.816
 9159SOL    HW128376   1.415   0.359   2.899
 9159SOL    HW228377   1.464   0.318   2.749
 9160SOL     OW28378   0.345   6.408   6.098
 9160SOL    HW128379   0.367   6.311   6.091
 9160SOL    HW228380   0.253   6.424   6.061
 9161SOL     OW28381   5.525   5.269   3.377
 9161SOL    HW128382   5.461   5.201   3.344
 9161SOL    HW228383   5.592   5.226   3.437
 9162SOL     OW28384   4.310   0.692   3.281
 9162SOL    HW128385   4.227   0.726   3.325
 9162SOL    HW228386   4.349   0.763   3.222
 9163SOL     OW28387   6.763   2.604   4.407
 9163SOL    HW128388   6.714   2.526   4.446
 9163SOL    HW228389   6.697   2.670   4.370
 9164SOL     OW28390   1.763   0.806   6.828
 9164SOL    HW128391   1.687   0.780   6.887
 9164SOL    HW228392   1.823   0.870   6.876
 9165SOL     OW28393   5.555   1.695   6.326
 9165SOL    HW128394   5.537   1.718   6.422
 9165SOL    HW228395   5.652   1.711   6.306
 9166SOL     OW28396   4.356   5.864   0.951
 9166SOL    HW128397   4.301   5.870   0.868
 9166SOL    HW228398   4.308   5.808   1.019
 9167SOL     OW28399   2.211   2.133   5.733
 9167SOL    HW128400   2.179   2.202   5.669
 9167SOL    HW228401   2.140   2.063   5.745
 9168SOL     OW28402   6.834   6.056   6.771
 9168SOL    HW128403   6.788   6.084   6.687
 9168SOL    HW228404   6.905   6.124   6.794
 9169SOL     OW28405   6.693   6.757   6.588
 9169SOL    HW128406   6.690   6.804   6.676
 9169SOL    HW228407   6.724   6.820   6.517
 9170SOL     OW28408   1.968   0.384   6.442
 9170SOL    HW128409   1.971   0.353   6.347
 9170SOL    HW228410   1.874   0.375   6.477
 9171SOL     OW28411   3.420   6.133   0.770
 9171SOL    HW128412   3.362   6.136   0.851
 9171SOL    HW228413   3.415   6.043   0.727
 9172SOL     OW28414   4.914   1.098   3.865
 9172SOL    HW128415   4.851   1.108   3.788
 9172SOL    HW228416   4.876   1.144   3.945
 9173SOL     OW28417   6.227   4.314   5.485
 9173SOL    HW128418   6.133   4.347   5.477
 9173SOL    HW228419   6.226   4.219   5.514
 9174SOL     OW28420   0.572   5.538   0.333
 9174SOL    HW128421   0.641   5.488   0.282
 9174SOL    HW228422   0.602   5.632   0.347
 9175SOL     OW28423   1.096   6.856   6.575
 9175SOL    HW128424   1.002   6.890   6.573
 9175SOL    HW228425   1.135   6.870   6.666
 9176SOL     OW28426   3.183   0.299   1.699
 9176SOL    HW128427   3.220   0.370   1.759
 9176SOL    HW228428   3.090   0.324   1.671
 9177SOL     OW28429   0.871   3.705   4.316
 9177SOL    HW128430   0.904   3.709   4.222
 9177SOL    HW228431   0.814   3.784   4.336
 9178SOL     OW28432   2.035   5.117   6.833
 9178SOL    HW128433   1.940   5.088   6.842
 9178SOL    HW228434   2.092   5.062   6.895
 9179SOL     OW28435   1.598   5.512   4.374
 9179SOL    HW128436   1.685   5.496   4.420
 9179SOL    HW228437   1.606   5.591   4.313
 9180SOL     OW28438   6.203   2.511   3.297
 9180SOL    HW128439   6.128   2.531   3.235
 9180SOL    HW228440   6.233   2.416   3.284
 9181SOL     OW28441   6.030   2.478   4.620
 9181SOL    HW128442   6.072   2.408   4.677
 9181SOL    HW228443   5.931   2.468   4.623
 9182SOL     OW28444   2.489   7.001   3.004
 9182SOL    HW128445   2.433   6.925   3.036
 9182SOL    HW228446   2.571   6.967   2.959
 9183SOL     OW28447   4.592   4.714   6.404
 9183SOL    HW128448   4.535   4.711   6.485
 9183SOL    HW228449   4.666   4.780   6.417
 9184SOL     OW28450   4.355   2.366   0.908
 9184SOL    HW128451   4.316   2.381   0.817
 9184SOL    HW228452   4.402   2.449   0.939
 9185SOL     OW28453   6.924   6.551   4.679
 9185SOL    HW128454   6.934   6.614   4.602
 9185SOL    HW228455   6.975   6.586   4.757
 9186SOL     OW28456   5.285   0.218   4.994
 9186SOL    HW128457   5.307   0.215   4.897
 9186SOL    HW228458   5.324   0.139   5.040
 9187SOL     OW28459   3.970   2.043   0.098
 9187SOL    HW128460   3.944   1.948   0.080
 9187SOL    HW228461   3.942   2.069   0.190
 9188SOL     OW28462   1.942   0.309   1.142
 9188SOL    HW128463   1.947   0.307   1.242
 9188SOL    HW228464   1.849   0.335   1.114
 9189SOL     OW28465   3.470   6.295   2.286
 9189SOL    HW128466   3.379   6.321   2.253
 9189SOL    HW228467   3.527   6.266   2.208
 9190SOL     OW28468   0.384   3.186   5.695
 9190SOL    HW128469   0.422   3.277   5.680
 9190SOL    HW228470   0.288   3.194   5.722
 9191SOL     OW28471   5.844   1.039   6.529
 9191SOL    HW128472   5.886   1.107   6.589
 9191SOL    HW228473   5.759   1.076   6.491
 9192SOL     OW28474   6.725   2.327   6.285
 9192SOL    HW128475   6.771   2.283   6.208
 9192SOL    HW228476   6.760   2.420   6.297
 9193SOL     OW28477   3.961   3.721   5.007
 9193SOL    HW128478   3.872   3.748   4.971
 9193SOL    HW228479   4.008   3.665   4.939
 9194SOL     OW28480   2.675   0.234   2.479
 9194SOL    HW128481   2.643   0.176   2.553
 9194SOL    HW228482   2.764   0.200   2.446
 9195SOL     OW28483   1.867   3.374   2.926
 9195SOL    HW128484   1.861   3.306   2.852
 9195SOL    HW228485   1.777   3.416   2.939
 9196SOL     OW28486   5.083   6.665   3.879
 9196SOL    HW128487   5.010   6.710   3.827
 9196SOL    HW228488   5.151   6.628   3.816
 9197SOL     OW28489   3.400   5.181   1.007
 9197SOL    HW128490   3.376   5.274   1.032
 9197SOL    HW228491   3.445   5.136   1.084
 9198SOL     OW28492   6.143   4.063   0.144
 9198SOL    HW128493   6.209   4.063   0.220
 9198SOL    HW228494   6.120   4.157   0.120
 9199SOL     OW28495   0.505   2.721   5.900
 9199SOL    HW128496   0.596   2.679   5.896
 9199SOL    HW228497   0.480   2.735   5.996
 9200SOL     OW28498   2.466   6.085   5.830
 9200SOL    HW128499   2.543   6.148   5.834
 9200SOL    HW228500   2.499   5.992   5.844
 9201SOL     OW28501   0.121   3.133   0.140
 9201SOL    HW128502   0.046   3.080   0.103
 9201SOL    HW228503   0.188   3.072   0.182
 9202SOL     OW28504   0.756   5.495   4.004
 9202SOL    HW128505   0.742   5.407   3.959
 9202SOL    HW228506   0.854   5.512   4.015
 9203SOL     OW28507   6.187   2.861   6.260
 9203SOL    HW128508   6.214   2.940   6.315
 9203SOL    HW228509   6.198   2.777   6.314
 9204SOL     OW28510   5.009   3.635   4.213
 9204SOL    HW128511   5.032   3.707   4.277
 9204SOL    HW228512   4.971   3.557   4.263
 9205SOL     OW28513   5.218   5.826   3.265
 9205SOL    HW128514   5.288   5.793   3.201
 9205SOL    HW228515   5.145   5.871   3.214
 9206SOL     OW28516   3.178   6.735   3.559
 9206SOL    HW128517   3.096   6.792   3.560
 9206SOL    HW228518   3.245   6.770   3.624
 9207SOL     OW28519   3.989   5.062   7.001
 9207SOL    HW128520   3.997   4.964   6.987
 9207SOL    HW228521   3.936   5.103   6.926
 9208SOL     OW28522   5.697   3.576   2.259
 9208SOL    HW128523   5.754   3.655   2.235
 9208SOL    HW228524   5.687   3.572   2.359
 9209SOL     OW28525   4.615   0.781   1.430
 9209SOL    HW128526   4.570   0.710   1.484
 9209SOL    HW228527   4.550   0.856   1.414
 9210SOL     OW28528   0.919   0.953   1.297
 9210SOL    HW128529   0.992   0.887   1.311
 9210SOL    HW228530   0.832   0.905   1.285
 9211SOL     OW28531   5.678   3.318   6.732
 9211SOL    HW128532   5.757   3.300   6.791
 9211SOL    HW228533   5.664   3.241   6.671
 9212SOL     OW28534   5.062   4.472   4.394
 9212SOL    HW128535   4.987   4.537   4.402
 9212SOL    HW228536   5.041   4.404   4.324
 9213SOL     OW28537   4.671   5.958   4.681
 9213SOL    HW128538   4.623   6.047   4.681
 9213SOL    HW228539   4.648   5.908   4.598
 9214SOL     OW28540   0.041   2.726   5.329
 9214SOL    HW128541   0.076   2.656   5.393
 9214SOL    HW228542   7.007   2.683   5.264
 9215SOL     OW28543   1.145   4.298   2.928
 9215SOL    HW128544   1.099   4.219   2.969
 9215SOL    HW228545   1.121   4.304   2.831
 9216SOL     OW28546   2.433   6.654   3.593
 9216SOL    HW128547   2.501   6.635   3.663
 9216SOL    HW228548   2.478   6.679   3.508
 9217SOL     OW28549   6.407   2.316   0.111
 9217SOL    HW128550   6.335   2.374   0.071
 9217SOL    HW228551   6.481   2.304   0.045
 9218SOL     OW28552   4.407   0.646   0.187
 9218SOL    HW128553   4.313   0.650   0.152
 9218SOL    HW228554   4.440   0.739   0.202
 9219SOL     OW28555   4.908   3.575   6.368
 9219SOL    HW128556   4.862   3.663   6.377
 9219SOL    HW228557   4.845   3.508   6.329
 9220SOL     OW28558   1.407   6.625   2.436
 9220SOL    HW128559   1.320   6.609   2.482
 9220SOL    HW228560   1.396   6.605   2.338
 9221SOL     OW28561   2.604   6.965   3.741
 9221SOL    HW128562   2.574   7.008   3.656
 9221SOL    HW228563   2.559   7.010   3.818
 9222SOL     OW28564   2.767   5.536   5.064
 9222SOL    HW128565   2.694   5.588   5.020
 9222SOL    HW228566   2.840   5.517   4.998
 9223SOL     OW28567   1.374   3.149   4.119
 9223SOL    HW128568   1.324   3.222   4.072
 9223SOL    HW228569   1.468   3.179   4.136
 9224SOL     OW28570   1.319   4.593   3.606
 9224SOL    HW128571   1.344   4.648   3.685
 9224SOL    HW228572   1.396   4.535   3.579
 9225SOL     OW28573   3.533   6.181   5.859
 9225SOL    HW128574   3.630   6.194   5.841
 9225SOL    HW228575   3.481   6.256   5.819
 9226SOL     OW28576   0.336   6.641   1.380
 9226SOL    HW128577   0.407   6.570   1.389
 9226SOL    HW228578   0.340   6.702   1.459
 9227SOL     OW28579   1.960   6.395   1.563
 9227SOL    HW128580   2.044   6.411   1.510
 9227SOL    HW228581   1.976   6.320   1.627
 9228SOL     OW28582   2.219   2.242   0.274
 9228SOL    HW128583   2.140   2.184   0.291
 9228SOL    HW228584   2.241   2.241   0.177
 9229SOL     OW28585   1.071   4.558   5.679
 9229SOL    HW128586   1.086   4.556   5.580
 9229SOL    HW228587   0.978   4.590   5.697
 9230SOL     OW28588   4.833   3.002   3.226
 9230SOL    HW128589   4.902   3.067   3.196
 9230SOL    HW228590   4.839   2.918   3.171
 9231SOL     OW28591   1.516   3.055   5.324
 9231SOL    HW128592   1.566   3.088   5.244
 9231SOL    HW228593   1.581   3.014   5.389
 9232SOL     OW28594   2.932   5.306   0.242
 9232SOL    HW128595   2.919   5.324   0.144
 9232SOL    HW228596   3.016   5.252   0.255
 9233SOL     OW28597   6.995   6.626   0.721
 9233SOL    HW128598   0.059   6.636   0.685
 9233SOL    HW228599   6.995   6.554   0.790
 9234SOL     OW28600   2.774   5.759   0.907
 9234SOL    HW128601   2.811   5.780   0.998
 9234SOL    HW228602   2.721   5.675   0.912
 9235SOL     OW28603   1.959   2.786   2.977
 9235SOL    HW128604   2.011   2.770   2.894
 9235SOL    HW228605   1.870   2.826   2.954
 9236SOL     OW28606   1.680   3.862   0.495
 9236SOL    HW128607   1.668   3.861   0.396
 9236SOL    HW228608   1.737   3.784   0.522
 9237SOL     OW28609   0.276   5.592   2.985
 9237SOL    HW128610   0.283   5.566   3.081
 9237SOL    HW228611   0.181   5.615   2.963
 9238SOL     OW28612   2.697   2.825   6.166
 9238SOL    HW128613   2.748   2.827   6.079
 9238SOL    HW228614   2.599   2.829   6.147
 9239SOL     OW28615   0.085   4.469   6.037
 9239SOL    HW128616   0.122   4.539   6.099
 9239SOL    HW228617   0.124   4.380   6.060
 9240SOL     OW28618   4.844   2.991   1.742
 9240SOL    HW128619   4.762   2.992   1.798
 9240SOL    HW228620   4.923   2.965   1.798
 9241SOL     OW28621   0.296   5.026   0.349
 9241SOL    HW128622   0.267   5.117   0.382
 9241SOL    HW228623   0.221   4.983   0.300
 9242SOL     OW28624   1.700   3.791   1.217
 9242SOL    HW128625   1.669   3.742   1.298
 9242SOL    HW228626   1.657   3.752   1.136
 9243SOL     OW28627   6.632   0.424   1.437
 9243SOL    HW128628   6.684   0.503   1.468
 9243SOL    HW228629   6.587   0.381   1.515
 9244SOL     OW28630   3.000   5.683   6.048
 9244SOL    HW128631   2.982   5.781   6.042
 9244SOL    HW228632   2.963   5.637   5.967
 9245SOL     OW28633   0.901   5.082   3.756
 9245SOL    HW128634   0.981   5.133   3.724
 9245SOL    HW228635   0.930   4.991   3.786
 9246SOL     OW28636   5.853   0.286   2.784
 9246SOL    HW128637   5.889   0.298   2.691
 9246SOL    HW228638   5.798   0.203   2.787
 9247SOL     OW28639   2.476   6.088   3.065
 9247SOL    HW128640   2.456   5.990   3.058
 9247SOL    HW228641   2.517   6.120   2.980
 9248SOL     OW28642   2.933   1.883   4.314
 9248SOL    HW128643   2.896   1.792   4.298
 9248SOL    HW228644   2.914   1.941   4.235
 9249SOL     OW28645   3.984   4.591   1.229
 9249SOL    HW128646   4.004   4.544   1.315
 9249SOL    HW228647   3.908   4.655   1.243
 9250SOL     OW28648   5.796   3.371   4.537
 9250SOL    HW128649   5.766   3.453   4.489
 9250SOL    HW228650   5.891   3.351   4.513
 9251SOL     OW28651   4.191   1.776   2.542
 9251SOL    HW128652   4.230   1.696   2.588
 9251SOL    HW228653   4.238   1.792   2.456
 9252SOL     OW28654   5.609   0.843   4.521
 9252SOL    HW128655   5.596   0.833   4.422
 9252SOL    HW228656   5.692   0.895   4.539
 9253SOL     OW28657   5.567   5.139   5.541
 9253SOL    HW128658   5.495   5.186   5.490
 9253SOL    HW228659   5.623   5.207   5.589
 9254SOL     OW28660   4.584   5.139   3.302
 9254SOL    HW128661   4.605   5.211   3.369
 9254SOL    HW228662   4.521   5.176   3.233
 9255SOL     OW28663   4.886   3.938   6.942
 9255SOL    HW128664   4.788   3.931   6.922
 9255SOL    HW228665   4.938   3.924   6.858
 9256SOL     OW28666   3.095   0.451   2.614
 9256SOL    HW128667   3.096   0.437   2.713
 9256SOL    HW228668   3.012   0.500   2.588
 9257SOL     OW28669   6.419   5.265   3.145
 9257SOL    HW128670   6.380   5.176   3.170
 9257SOL    HW228671   6.470   5.257   3.060
 9258SOL     OW28672   4.191   3.216   1.922
 9258SOL    HW128673   4.213   3.219   2.020
 9258SOL    HW228674   4.249   3.147   1.877
 9259SOL     OW28675   0.529   1.712   0.831
 9259SOL    HW128676   0.493   1.779   0.896
 9259SOL    HW228677   0.476   1.714   0.747
 9260SOL     OW28678   5.972   2.035   5.461
 9260SOL    HW128679   5.886   2.043   5.511
 9260SOL    HW228680   5.989   2.119   5.410
 9261SOL     OW28681   3.867   1.097   0.320
 9261SOL    HW128682   3.812   1.015   0.337
 9261SOL    HW228683   3.878   1.147   0.406
 9262SOL     OW28684   0.136   5.661   5.025
 9262SOL    HW128685   0.203   5.622   5.087
 9262SOL    HW228686   0.177   5.739   4.977
 9263SOL     OW28687   3.755   6.524   2.628
 9263SOL    HW128688   3.688   6.465   2.584
 9263SOL    HW228689   3.720   6.618   2.632
 9264SOL     OW28690   4.869   3.895   0.792
 9264SOL    HW128691   4.920   3.927   0.712
 9264SOL    HW228692   4.792   3.956   0.809
 9265SOL     OW28693   3.556   2.585   0.003
 9265SOL    HW128694   3.642   2.549   6.994
 9265SOL    HW228695   3.554   2.684   7.019
 9266SOL     OW28696   1.263   6.085   0.811
 9266SOL    HW128697   1.333   6.015   0.798
 9266SOL    HW228698   1.275   6.157   0.743
 9267SOL     OW28699   0.139   1.820   4.640
 9267SOL    HW128700   0.189   1.876   4.574
 9267SOL    HW228701   0.041   1.838   4.631
 9268SOL     OW28702   1.766   6.877   2.396
 9268SOL    HW128703   1.801   6.966   2.424
 9268SOL    HW228704   1.684   6.856   2.449
 9269SOL     OW28705   4.815   1.070   6.561
 9269SOL    HW128706   4.898   1.125   6.548
 9269SOL    HW228707   4.818   0.990   6.502
 9270SOL     OW28708   4.461   6.547   6.124
 9270SOL    HW128709   4.550   6.593   6.126
 9270SOL    HW228710   4.405   6.579   6.201
 9271SOL     OW28711   6.107   0.111   0.969
 9271SOL    HW128712   6.026   0.136   0.916
 9271SOL    HW228713   6.150   0.030   0.930
 9272SOL     OW28714   1.261   5.612   5.532
 9272SOL    HW128715   1.360   5.619   5.541
 9272SOL    HW228716   1.237   5.527   5.485
 9273SOL     OW28717   5.776   5.916   3.065
 9273SOL    HW128718   5.857   5.857   3.056
 9273SOL    HW228719   5.698   5.861   3.095
 9274SOL     OW28720   6.787   1.586   0.376
 9274SOL    HW128721   6.736   1.659   0.421
 9274SOL    HW228722   6.857   1.552   0.438
 9275SOL     OW28723   6.506   0.600   0.007
 9275SOL    HW128724   6.462   0.577   6.949
 9275SOL    HW228725   6.499   0.698   0.023
 9276SOL     OW28726   2.212   4.516   1.031
 9276SOL    HW128727   2.254   4.606   1.025
 9276SOL    HW228728   2.249   4.457   0.959
 9277SOL     OW28729   4.670   4.422   1.522
 9277SOL    HW128730   4.649   4.436   1.425
 9277SOL    HW228731   4.731   4.495   1.553
 9278SOL     OW28732   2.011   6.756   5.490
 9278SOL    HW128733   1.927   6.714   5.523
 9278SOL    HW228734   1.989   6.821   5.416
 9279SOL     OW28735   2.965   0.223   1.408
 9279SOL    HW128736   3.049   0.171   1.390
 9279SOL    HW228737   2.893   0.160   1.437
 9280SOL     OW28738   2.265   1.861   2.333
 9280SOL    HW128739   2.261   1.903   2.424
 9280SOL    HW228740   2.176   1.871   2.289
 9281SOL     OW28741   3.146   4.168   6.574
 9281SOL    HW128742   3.054   4.131   6.585
 9281SOL    HW228743   3.195   4.163   6.661
 9282SOL     OW28744   5.182   1.439   3.259
 9282SOL    HW128745   5.173   1.529   3.300
 9282SOL    HW228746   5.279   1.416   3.250
 9283SOL     OW28747   4.863   0.446   4.188
 9283SOL    HW128748   4.769   0.427   4.160
 9283SOL    HW228749   4.891   0.536   4.155
 9284SOL     OW28750   2.874   2.980   5.358
 9284SOL    HW128751   2.930   3.062   5.346
 9284SOL    HW228752   2.779   3.001   5.336
 9285SOL     OW28753   5.109   3.327   1.363
 9285SOL    HW128754   5.133   3.419   1.393
 9285SOL    HW228755   5.021   3.329   1.315
 9286SOL     OW28756   5.402   5.721   0.919
 9286SOL    HW128757   5.402   5.752   0.825
 9286SOL    HW228758   5.450   5.787   0.977
 9287SOL     OW28759   3.500   5.040   6.680
 9287SOL    HW128760   3.511   5.040   6.581
 9287SOL    HW228761   3.573   4.985   6.722
 9288SOL     OW28762   4.510   1.283   2.645
 9288SOL    HW128763   4.595   1.257   2.691
 9288SOL    HW228764   4.532   1.340   2.566
 9289SOL     OW28765   4.542   0.519   1.527
 9289SOL    HW128766   4.635   0.490   1.548
 9289SOL    HW228767   4.480   0.489   1.600
 9290SOL     OW28768   5.206   0.791   3.634
 9290SOL    HW128769   5.176   0.879   3.597
 9290SOL    HW228770   5.196   0.720   3.565
 9291SOL     OW28771   1.440   5.316   5.629
 9291SOL    HW128772   1.419   5.260   5.549
 9291SOL    HW228773   1.535   5.348   5.623
 9292SOL     OW28774   2.381   2.573   5.926
 9292SOL    HW128775   2.385   2.656   5.982
 9292SOL    HW228776   2.310   2.512   5.962
 9293SOL     OW28777   6.595   3.416   6.675
 9293SOL    HW128778   6.530   3.379   6.742
 9293SOL    HW228779   6.547   3.432   6.589
 9294SOL     OW28780   5.155   0.722   6.131
 9294SOL    HW128781   5.109   0.809   6.150
 9294SOL    HW228782   5.187   0.721   6.036
 9295SOL     OW28783   5.134   0.538   5.413
 9295SOL    HW128784   5.222   0.572   5.382
 9295SOL    HW228785   5.085   0.497   5.336
 9296SOL     OW28786   1.964   5.362   6.748
 9296SOL    HW128787   2.000   5.435   6.807
 9296SOL    HW228788   1.997   5.274   6.781
 9297SOL     OW28789   1.157   6.817   2.993
 9297SOL    HW128790   1.145   6.913   3.017
 9297SOL    HW228791   1.193   6.810   2.900
 9298SOL     OW28792   1.094   6.273   6.726
 9298SOL    HW128793   1.190   6.291   6.709
 9298SOL    HW228794   1.048   6.357   6.754
 9299SOL     OW28795   0.349   2.018   3.934
 9299SOL    HW128796   0.440   2.058   3.926
 9299SOL    HW228797   0.314   2.033   4.027
 9300SOL     OW28798   0.652   4.584   5.940
 9300SOL    HW128799   0.688   4.505   5.990
 9300SOL    HW228800   0.714   4.606   5.865
 9301SOL     OW28801   5.607   5.364   4.430
 9301SOL    HW128802   5.637   5.405   4.516
 9301SOL    HW228803   5.534   5.298   4.447
 9302SOL     OW28804   2.024   3.631   3.802
 9302SOL    HW128805   2.015   3.641   3.902
 9302SOL    HW228806   2.026   3.534   3.778
 9303SOL     OW28807   3.267   3.764   0.355
 9303SOL    HW128808   3.250   3.810   0.267
 9303SOL    HW228809   3.244   3.826   0.430
 9304SOL     OW28810   4.349   4.556   1.416
 9304SOL    HW128811   4.330   4.458   1.423
 9304SOL    HW228812   4.392   4.575   1.327
 9305SOL     OW28813   3.839   1.054   0.676
 9305SOL    HW128814   3.931   1.048   0.715
 9305SOL    HW228815   3.772   1.036   0.748
 9306SOL     OW28816   0.952   3.772   5.441
 9306SOL    HW128817   1.010   3.690   5.436
 9306SOL    HW228818   0.862   3.747   5.477
 9307SOL     OW28819   1.326   4.262   0.945
 9307SOL    HW128820   1.332   4.242   0.847
 9307SOL    HW228821   1.373   4.348   0.963
 9308SOL     OW28822   1.872   3.642   1.449
 9308SOL    HW128823   1.896   3.739   1.459
 9308SOL    HW228824   1.784   3.625   1.493
 9309SOL     OW28825   3.404   5.505   5.891
 9309SOL    HW128826   3.456   5.421   5.878
 9309SOL    HW228827   3.466   5.584   5.886
 9310SOL     OW28828   5.753   5.611   5.761
 9310SOL    HW128829   5.708   5.687   5.808
 9310SOL    HW228830   5.724   5.524   5.801
 9311SOL     OW28831   5.066   4.689   0.953
 9311SOL    HW128832   5.044   4.701   0.856
 9311SOL    HW228833   5.134   4.616   0.962
 9312SOL     OW28834   1.519   3.046   0.978
 9312SOL    HW128835   1.552   3.022   1.070
 9312SOL    HW228836   1.473   2.966   0.938
 9313SOL     OW28837   7.002   0.321   1.532
 9313SOL    HW128838   6.912   0.278   1.521
 9313SOL    HW228839   7.026   0.323   1.629
 9314SOL     OW28840   6.577   3.713   6.797
 9314SOL    HW128841   6.568   3.790   6.734
 9314SOL    HW228842   6.628   3.639   6.753
 9315SOL     OW28843   6.841   0.144   5.657
 9315SOL    HW128844   6.891   0.108   5.736
 9315SOL    HW228845   6.904   0.156   5.581
 9316SOL     OW28846   5.981   6.067   5.440
 9316SOL    HW128847   6.046   5.993   5.420
 9316SOL    HW228848   5.904   6.030   5.494
 9317SOL     OW28849   4.582   5.693   4.182
 9317SOL    HW128850   4.535   5.782   4.187
 9317SOL    HW228851   4.642   5.692   4.102
 9318SOL     OW28852   6.347   0.580   6.803
 9318SOL    HW128853   6.288   0.499   6.804
 9318SOL    HW228854   6.425   0.562   6.742
 9319SOL     OW28855   2.335   3.083   1.284
 9319SOL    HW128856   2.354   3.078   1.382
 9319SOL    HW228857   2.271   3.010   1.259
 9320SOL     OW28858   3.968   0.604   5.525
 9320SOL    HW128859   3.960   0.547   5.606
 9320SOL    HW228860   3.974   0.546   5.444
 9321SOL     OW28861   0.970   0.411   4.566
 9321SOL    HW128862   0.915   0.333   4.596
 9321SOL    HW228863   0.940   0.493   4.615
 9322SOL     OW28864   0.159   3.915   6.678
 9322SOL    HW128865   0.246   3.954   6.707
 9322SOL    HW228866   0.146   3.825   6.720
 9323SOL     OW28867   1.069   1.019   4.770
 9323SOL    HW128868   0.992   0.959   4.792
 9323SOL    HW228869   1.039   1.093   4.711
 9324SOL     OW28870   1.971   4.120   2.311
 9324SOL    HW128871   1.948   4.134   2.407
 9324SOL    HW228872   1.907   4.054   2.270
 9325SOL     OW28873   6.511   0.271   6.840
 9325SOL    HW128874   6.411   0.279   6.839
 9325SOL    HW228875   6.543   0.246   6.748
 9326SOL     OW28876   2.636   4.985   7.013
 9326SOL    HW128877   2.664   4.958   6.921
 9326SOL    HW228878   2.587   4.910   0.028
 9327SOL     OW28879   4.300   0.075   2.463
 9327SOL    HW128880   4.345   0.024   2.390
 9327SOL    HW228881   4.360   0.149   2.495
 9328SOL     OW28882   2.352   0.759   4.494
 9328SOL    HW128883   2.355   0.826   4.568
 9328SOL    HW228884   2.366   0.805   4.406
 9329SOL     OW28885   5.978   4.206   0.869
 9329SOL    HW128886   6.002   4.124   0.920
 9329SOL    HW228887   5.929   4.181   0.785
 9330SOL     OW28888   6.675   0.359   5.652
 9330SOL    HW128889   6.724   0.393   5.733
 9330SOL    HW228890   6.712   0.270   5.625
 9331SOL     OW28891   2.705   1.221   6.498
 9331SOL    HW128892   2.643   1.253   6.426
 9331SOL    HW228893   2.709   1.121   6.497
 9332SOL     OW28894   3.417   5.038   0.318
 9332SOL    HW128895   3.367   5.100   0.379
 9332SOL    HW228896   3.356   5.006   0.245
 9333SOL     OW28897   3.490   5.484   6.609
 9333SOL    HW128898   3.460   5.579   6.614
 9333SOL    HW228899   3.465   5.445   6.520
 9334SOL     OW28900   4.429   6.673   5.280
 9334SOL    HW128901   4.377   6.588   5.288
 9334SOL    HW228902   4.497   6.664   5.207
 9335SOL     OW28903   1.670   1.232   6.534
 9335SOL    HW128904   1.719   1.318   6.529
 9335SOL    HW228905   1.572   1.248   6.520
 9336SOL     OW28906   4.383   0.072   4.612
 9336SOL    HW128907   4.439   0.013   4.671
 9336SOL    HW228908   4.348   0.149   4.666
 9337SOL     OW28909   4.265   1.150   5.389
 9337SOL    HW128910   4.322   1.086   5.338
 9337SOL    HW228911   4.181   1.105   5.418
 9338SOL     OW28912   6.286   0.030   1.277
 9338SOL    HW128913   6.328   0.033   1.367
 9338SOL    HW228914   6.303   0.117   1.230
 9339SOL     OW28915   6.272   6.216   0.192
 9339SOL    HW128916   6.236   6.303   0.227
 9339SOL    HW228917   6.336   6.233   0.118
 9340SOL     OW28918   3.723   4.945   3.139
 9340SOL    HW128919   3.714   5.044   3.125
 9340SOL    HW228920   3.703   4.923   3.235
 9341SOL     OW28921   5.510   4.896   1.205
 9341SOL    HW128922   5.476   4.960   1.136
 9341SOL    HW228923   5.607   4.879   1.190
 9342SOL     OW28924   2.740   6.931   4.488
 9342SOL    HW128925   2.696   6.875   4.558
 9342SOL    HW228926   2.677   6.947   4.413
 9343SOL     OW28927   4.677   4.295   2.247
 9343SOL    HW128928   4.633   4.354   2.314
 9343SOL    HW228929   4.620   4.287   2.165
 9344SOL     OW28930   5.431   6.292   1.639
 9344SOL    HW128931   5.488   6.284   1.721
 9344SOL    HW228932   5.376   6.375   1.644
 9345SOL     OW28933   6.477   5.100   1.090
 9345SOL    HW128934   6.403   5.057   1.142
 9345SOL    HW228935   6.508   5.182   1.138
 9346SOL     OW28936   4.542   0.379   2.185
 9346SOL    HW128937   4.613   0.374   2.255
 9346SOL    HW228938   4.575   0.431   2.106
 9347SOL     OW28939   3.043   5.741   0.561
 9347SOL    HW128940   3.072   5.715   0.653
 9347SOL    HW228941   2.992   5.827   0.565
 9348SOL     OW28942   3.099   5.609   3.180
 9348SOL    HW128943   3.048   5.690   3.150
 9348SOL    HW228944   3.194   5.635   3.199
 9349SOL     OW28945   6.455   4.907   2.086
 9349SOL    HW128946   6.475   4.981   2.151
 9349SOL    HW228947   6.356   4.902   2.072
 9350SOL     OW28948   6.627   1.755   4.755
 9350SOL    HW128949   6.545   1.806   4.779
 9350SOL    HW228950   6.700   1.776   4.820
 9351SOL     OW28951   3.531   6.678   6.180
 9351SOL    HW128952   3.545   6.592   6.130
 9351SOL    HW228953   3.538   6.755   6.116
 9352SOL     OW28954   3.716   2.364   6.283
 9352SOL    HW128955   3.712   2.265   6.299
 9352SOL    HW228956   3.778   2.406   6.349
 9353SOL     OW28957   1.338   4.697   1.437
 9353SOL    HW128958   1.331   4.599   1.457
 9353SOL    HW228959   1.411   4.737   1.493
 9354SOL     OW28960   0.348   1.911   6.120
 9354SOL    HW128961   0.393   1.864   6.044
 9354SOL    HW228962   0.333   1.847   6.195
 9355SOL     OW28963   0.295   1.587   4.527
 9355SOL    HW128964   0.271   1.536   4.445
 9355SOL    HW228965   0.213   1.633   4.563
 9356SOL     OW28966   4.622   5.944   1.978
 9356SOL    HW128967   4.610   5.855   2.023
 9356SOL    HW228968   4.701   5.940   1.917
 9357SOL     OW28969   2.329   3.686   6.572
 9357SOL    HW128970   2.380   3.610   6.612
 9357SOL    HW228971   2.385   3.733   6.504
 9358SOL     OW28972   6.217   3.002   2.488
 9358SOL    HW128973   6.122   3.009   2.458
 9358SOL    HW228974   6.258   3.094   2.489
 9359SOL     OW28975   0.701   3.720   5.506
 9359SOL    HW128976   0.648   3.748   5.426
 9359SOL    HW228977   0.657   3.754   5.589
 9360SOL     OW28978   1.617   5.947   6.617
 9360SOL    HW128979   1.704   5.899   6.632
 9360SOL    HW228980   1.549   5.911   6.680
 9361SOL     OW28981   1.248   6.315   3.100
 9361SOL    HW128982   1.190   6.373   3.158
 9361SOL    HW228983   1.212   6.315   3.007
 9362SOL     OW28984   2.141   3.209   2.756
 9362SOL    HW128985   2.042   3.196   2.749
 9362SOL    HW228986   2.168   3.294   2.710
 9363SOL     OW28987   4.095   6.600   2.460
 9363SOL    HW128988   4.073   6.695   2.438
 9363SOL    HW228989   4.192   6.584   2.442
 9364SOL     OW28990   3.843   2.825   6.274
 9364SOL    HW128991   3.791   2.760   6.219
 9364SOL    HW228992   3.940   2.801   6.272
 9365SOL     OW28993   2.256   2.323   4.247
 9365SOL    HW128994   2.328   2.383   4.281
 9365SOL    HW228995   2.290   2.273   4.167
 9366SOL     OW28996   3.504   6.523   6.727
 9366SOL    HW128997   3.404   6.519   6.727
 9366SOL    HW228998   3.537   6.545   6.635
 9367SOL     OW28999   6.683   6.462   2.105
 9367SOL    HW129000   6.644   6.550   2.080
 9367SOL    HW229001   6.783   6.467   2.100
 9368SOL     OW29002   3.062   1.296   3.415
 9368SOL    HW129003   3.107   1.338   3.494
 9368SOL    HW229004   3.032   1.204   3.438
 9369SOL     OW29005   6.590   6.788   4.707
 9369SOL    HW129006   6.673   6.811   4.758
 9369SOL    HW229007   6.529   6.733   4.764
 9370SOL     OW29008   4.941   0.763   2.789
 9370SOL    HW129009   4.958   0.743   2.693
 9370SOL    HW229010   5.001   0.837   2.818
 9371SOL     OW29011   2.412   4.816   0.523
 9371SOL    HW129012   2.506   4.843   0.542
 9371SOL    HW229013   2.410   4.749   0.449
 9372SOL     OW29014   5.165   6.072   2.643
 9372SOL    HW129015   5.067   6.089   2.655
 9372SOL    HW229016   5.217   6.129   2.706
 9373SOL     OW29017   4.666   2.093   2.415
 9373SOL    HW129018   4.613   2.177   2.402
 9373SOL    HW229019   4.607   2.022   2.452
 9374SOL     OW29020   0.768   3.880   0.247
 9374SOL    HW129021   0.701   3.879   0.321
 9374SOL    HW229022   0.742   3.948   0.178
 9375SOL     OW29023   0.280   1.381   2.463
 9375SOL    HW129024   0.345   1.416   2.530
 9375SOL    HW229025   0.315   1.397   2.371
 9376SOL     OW29026   2.493   4.573   1.403
 9376SOL    HW129027   2.447   4.660   1.420
 9376SOL    HW229028   2.424   4.503   1.381
 9377SOL     OW29029   2.436   5.171   4.198
 9377SOL    HW129030   2.347   5.206   4.229
 9377SOL    HW229031   2.476   5.115   4.269
 9378SOL     OW29032   1.824   1.196   4.637
 9378SOL    HW129033   1.821   1.138   4.719
 9378SOL    HW229034   1.828   1.138   4.555
 9379SOL     OW29035   3.974   5.810   5.476
 9379SOL    HW129036   4.040   5.773   5.541
 9379SOL    HW229037   4.000   5.903   5.452
 9380SOL     OW29038   5.479   5.156   4.538
 9380SOL    HW129039   5.488   5.060   4.511
 9380SOL    HW229040   5.560   5.184   4.590
 9381SOL     OW29041   3.607   2.771   5.957
 9381SOL    HW129042   3.530   2.833   5.970
 9381SOL    HW229043   3.615   2.710   6.036
 9382SOL     OW29044   3.571   0.880   3.508
 9382SOL    HW129045   3.597   0.800   3.454
 9382SOL    HW229046   3.628   0.958   3.482
 9383SOL     OW29047   1.010   5.781   4.483
 9383SOL    HW129048   1.034   5.833   4.401
 9383SOL    HW229049   0.910   5.779   4.493
 9384SOL     OW29050   4.349   0.267   1.989
 9384SOL    HW129051   4.415   0.296   2.059
 9384SOL    HW229052   4.265   0.236   2.033
 9385SOL     OW29053   4.409   0.996   3.915
 9385SOL    HW129054   4.337   1.048   3.869
 9385SOL    HW229055   4.392   0.898   3.904
 9386SOL     OW29056   2.275   5.861   5.082
 9386SOL    HW129057   2.243   5.846   4.988
 9386SOL    HW229058   2.340   5.937   5.082
 9387SOL     OW29059   3.149   1.717   6.847
 9387SOL    HW129060   3.179   1.623   6.829
 9387SOL    HW229061   3.227   1.772   6.875
 9388SOL     OW29062   2.752   5.812   2.621
 9388SOL    HW129063   2.792   5.734   2.670
 9388SOL    HW229064   2.663   5.833   2.660
 9389SOL     OW29065   2.016   0.136   3.792
 9389SOL    HW129066   2.092   0.161   3.732
 9389SOL    HW229067   1.930   0.151   3.743
 9390SOL     OW29068   5.060   4.768   5.357
 9390SOL    HW129069   5.114   4.840   5.312
 9390SOL    HW229070   5.008   4.808   5.433
 9391SOL     OW29071   2.573   1.630   4.946
 9391SOL    HW129072   2.578   1.556   5.014
 9391SOL    HW229073   2.661   1.637   4.899
 9392SOL     OW29074   6.403   6.489   5.074
 9392SOL    HW129075   6.327   6.532   5.123
 9392SOL    HW229076   6.431   6.406   5.121
 9393SOL     OW29077   3.240   6.429   6.378
 9393SOL    HW129078   3.216   6.419   6.282
 9393SOL    HW229079   3.239   6.526   6.403
 9394SOL     OW29080   0.206   1.259   2.200
 9394SOL    HW129081   0.238   1.262   2.105
 9394SOL    HW229082   0.283   1.275   2.262
 9395SOL     OW29083   2.877   1.083   1.392
 9395SOL    HW129084   2.972   1.057   1.371
 9395SOL    HW229085   2.854   1.167   1.343
 9396SOL     OW29086   1.959   4.915   3.855
 9396SOL    HW129087   1.925   4.983   3.921
 9396SOL    HW229088   2.059   4.912   3.858
 9397SOL     OW29089   5.030   0.008   6.421
 9397SOL    HW129090   5.018   0.090   6.365
 9397SOL    HW229091   5.113   0.017   6.476
 9398SOL     OW29092   6.332   0.562   5.131
 9398SOL    HW129093   6.271   0.486   5.155
 9398SOL    HW229094   6.351   0.617   5.213
 9399SOL     OW29095   1.062   1.849   5.891
 9399SOL    HW129096   1.003   1.794   5.832
 9399SOL    HW229097   1.091   1.795   5.970
 9400SOL     OW29098   4.577   0.557   1.888
 9400SOL    HW129099   4.590   0.458   1.894
 9400SOL    HW229100   4.479   0.577   1.877
 9401SOL     OW29101   6.257   0.978   3.607
 9401SOL    HW129102   6.339   1.028   3.576
 9401SOL    HW229103   6.199   1.040   3.660
 9402SOL     OW29104   1.006   5.287   2.765
 9402SOL    HW129105   1.005   5.373   2.815
 9402SOL    HW229106   1.097   5.272   2.726
 9403SOL     OW29107   6.289   1.329   3.033
 9403SOL    HW129108   6.214   1.332   3.099
 9403SOL    HW229109   6.299   1.419   2.991
 9404SOL     OW29110   1.503   2.934   0.423
 9404SOL    HW129111   1.592   2.961   0.462
 9404SOL    HW229112   1.514   2.851   0.369
 9405SOL     OW29113   2.183   4.900   3.399
 9405SOL    HW129114   2.083   4.894   3.395
 9405SOL    HW229115   2.212   4.920   3.492
 9406SOL     OW29116   0.018   2.957   5.777
 9406SOL    HW129117   6.981   2.917   5.840
 9406SOL    HW229118   0.109   2.956   5.818
 9407SOL     OW29119   2.860   5.092   3.457
 9407SOL    HW129120   2.921   5.156   3.502
 9407SOL    HW229121   2.765   5.116   3.478
 9408SOL     OW29122   6.543   2.601   6.431
 9408SOL    HW129123   6.506   2.530   6.371
 9408SOL    HW229124   6.637   2.621   6.405
 9409SOL     OW29125   5.836   6.112   0.432
 9409SOL    HW129126   5.747   6.079   0.464
 9409SOL    HW229127   5.908   6.050   0.463
 9410SOL     OW29128   2.995   0.440   1.256
 9410SOL    HW129129   3.019   0.531   1.291
 9410SOL    HW229130   2.975   0.379   1.333
 9411SOL     OW29131   3.383   2.999   2.213
 9411SOL    HW129132   3.322   2.938   2.164
 9411SOL    HW229133   3.454   2.946   2.259
 9412SOL     OW29134   0.244   1.597   2.891
 9412SOL    HW129135   0.316   1.543   2.848
 9412SOL    HW229136   0.271   1.619   2.985
 9413SOL     OW29137   3.847   5.918   3.626
 9413SOL    HW129138   3.808   5.913   3.534
 9413SOL    HW229139   3.921   5.851   3.634
 9414SOL     OW29140   2.645   0.751   3.193
 9414SOL    HW129141   2.732   0.800   3.190
 9414SOL    HW229142   2.577   0.805   3.242
 9415SOL     OW29143   2.790   6.767   1.678
 9415SOL    HW129144   2.841   6.846   1.644
 9415SOL    HW229145   2.703   6.797   1.717
 9416SOL     OW29146   0.268   2.593   0.484
 9416SOL    HW129147   0.212   2.511   0.501
 9416SOL    HW229148   0.247   2.628   0.393
 9417SOL     OW29149   4.885   0.760   0.831
 9417SOL    HW129150   4.907   0.682   0.773
 9417SOL    HW229151   4.836   0.829   0.778
 9418SOL     OW29152   4.236   0.088   1.138
 9418SOL    HW129153   4.161   0.152   1.118
 9418SOL    HW229154   4.311   0.138   1.181
 9419SOL     OW29155   3.262   4.550   5.900
 9419SOL    HW129156   3.267   4.579   5.996
 9419SOL    HW229157   3.349   4.571   5.855
 9420SOL     OW29158   6.216   4.061   5.588
 9420SOL    HW129159   6.118   4.066   5.570
 9420SOL    HW229160   6.257   3.988   5.534
 9421SOL     OW29161   2.171   6.318   4.441
 9421SOL    HW129162   2.073   6.333   4.454
 9421SOL    HW229163   2.193   6.222   4.457
 9422SOL     OW29164   3.198   5.352   3.107
 9422SOL    HW129165   3.258   5.366   3.028
 9422SOL    HW229166   3.128   5.423   3.109
 9423SOL     OW29167   2.672   6.700   3.753
 9423SOL    HW129168   2.657   6.799   3.758
 9423SOL    HW229169   2.743   6.674   3.818
 9424SOL     OW29170   4.803   1.255   4.899
 9424SOL    HW129171   4.745   1.334   4.919
 9424SOL    HW229172   4.756   1.171   4.927
 9425SOL     OW29173   5.801   3.569   0.969
 9425SOL    HW129174   5.756   3.657   0.958
 9425SOL    HW229175   5.819   3.529   0.879
 9426SOL     OW29176   3.994   1.884   6.339
 9426SOL    HW129177   3.903   1.875   6.299
 9426SOL    HW229178   4.046   1.954   6.289
 9427SOL     OW29179   2.572   4.829   3.110
 9427SOL    HW129180   2.511   4.886   3.166
 9427SOL    HW229181   2.581   4.869   3.019
 9428SOL     OW29182   6.931   1.181   1.025
 9428SOL    HW129183   6.917   1.096   1.075
 9428SOL    HW229184   6.989   1.242   1.079
 9429SOL     OW29185   2.084   3.578   2.758
 9429SOL    HW129186   2.098   3.499   2.818
 9429SOL    HW229187   2.026   3.551   2.681
 9430SOL     OW29188   0.406   4.098   3.676
 9430SOL    HW129189   0.366   4.016   3.716
 9430SOL    HW229190   0.408   4.090   3.576
 9431SOL     OW29191   6.358   3.950   0.619
 9431SOL    HW129192   6.447   3.986   0.591
 9431SOL    HW229193   6.364   3.915   0.712
 9432SOL     OW29194   5.282   0.311   3.620
 9432SOL    HW129195   5.286   0.308   3.520
 9432SOL    HW229196   5.220   0.240   3.653
 9433SOL     OW29197   3.311   6.351   3.223
 9433SOL    HW129198   3.290   6.287   3.150
 9433SOL    HW229199   3.260   6.436   3.208
 9434SOL     OW29200   5.328   5.731   3.008
 9434SOL    HW129201   5.284   5.676   2.937
 9434SOL    HW229202   5.352   5.821   2.970
 9435SOL     OW29203   0.273   2.458   4.759
 9435SOL    HW129204   0.283   2.362   4.734
 9435SOL    HW229205   0.333   2.478   4.837
 9436SOL     OW29206   1.456   2.694   1.039
 9436SOL    HW129207   1.526   2.760   1.066
 9436SOL    HW229208   1.496   2.602   1.034
 9437SOL     OW29209   1.167   6.014   2.826
 9437SOL    HW129210   1.229   6.024   2.904
 9437SOL    HW229211   1.216   5.971   2.750
 9438SOL     OW29212   0.176   0.144   1.700
 9438SOL    HW129213   0.187   0.128   1.602
 9438SOL    HW229214   0.093   0.198   1.716
 9439SOL     OW29215   0.546   3.434   1.212
 9439SOL    HW129216   0.645   3.446   1.210
 9439SOL    HW229217   0.504   3.482   1.135
 9440SOL     OW29218   3.885   5.189   3.385
 9440SOL    HW129219   3.980   5.221   3.378
 9440SOL    HW229220   3.878   5.124   3.460
 9441SOL     OW29221   6.619   4.053   5.440
 9441SOL    HW129222   6.706   4.053   5.390
 9441SOL    HW229223   6.567   4.135   5.415
 9442SOL     OW29224   4.948   3.434   1.117
 9442SOL    HW129225   4.914   3.513   1.065
 9442SOL    HW229226   5.003   3.376   1.057
 9443SOL     OW29227   2.453   5.412   0.750
 9443SOL    HW129228   2.358   5.436   0.766
 9443SOL    HW229229   2.510   5.446   0.825
 9444SOL     OW29230   1.406   3.236   0.797
 9444SOL    HW129231   1.433   3.172   0.868
 9444SOL    HW229232   1.370   3.186   0.718
 9445SOL     OW29233   6.018   2.888   3.336
 9445SOL    HW129234   6.097   2.944   3.314
 9445SOL    HW229235   5.936   2.928   3.295
 9446SOL     OW29236   6.385   5.525   3.765
 9446SOL    HW129237   6.359   5.535   3.669
 9446SOL    HW229238   6.451   5.451   3.774
 9447SOL     OW29239   6.032   4.414   3.429
 9447SOL    HW129240   5.961   4.344   3.432
 9447SOL    HW229241   6.115   4.376   3.389
 9448SOL     OW29242   0.618   0.038   6.947
 9448SOL    HW129243   0.523   0.046   6.918
 9448SOL    HW229244   0.675   0.097   6.890
 9449SOL     OW29245   6.537   6.836   0.499
 9449SOL    HW129246   6.537   6.923   0.450
 9449SOL    HW229247   6.551   6.761   0.434
 9450SOL     OW29248   2.084   5.133   4.526
 9450SOL    HW129249   2.004   5.183   4.559
 9450SOL    HW229250   2.053   5.047   4.484
 9451SOL     OW29251   4.366   0.281   5.978
 9451SOL    HW129252   4.432   0.218   5.938
 9451SOL    HW229253   4.289   0.230   6.015
 9452SOL     OW29254   1.865   3.671   0.637
 9452SOL    HW129255   1.904   3.615   0.709
 9452SOL    HW229256   1.770   3.694   0.660
 9453SOL     OW29257   2.436   4.964   3.303
 9453SOL    HW129258   2.469   4.927   3.391
 9453SOL    HW229259   2.337   4.967   3.304
 9454SOL     OW29260   3.428   3.503   6.496
 9454SOL    HW129261   3.502   3.440   6.519
 9454SOL    HW229262   3.373   3.521   6.578
 9455SOL     OW29263   2.520   1.616   3.543
 9455SOL    HW129264   2.597   1.603   3.606
 9455SOL    HW229265   2.553   1.621   3.449
 9456SOL     OW29266   7.007   3.582   0.904
 9456SOL    HW129267   6.920   3.550   0.943
 9456SOL    HW229268   0.052   3.563   0.969
 9457SOL     OW29269   1.675   3.614   5.081
 9457SOL    HW129270   1.705   3.709   5.088
 9457SOL    HW229271   1.578   3.607   5.101
 9458SOL     OW29272   1.240   2.966   0.167
 9458SOL    HW129273   1.283   3.051   0.200
 9458SOL    HW229274   1.310   2.896   0.156
 9459SOL     OW29275   5.532   4.474   3.669
 9459SOL    HW129276   5.588   4.402   3.628
 9459SOL    HW229277   5.476   4.435   3.742
 9460SOL     OW29278   1.137   3.392   3.778
 9460SOL    HW129279   1.113   3.478   3.822
 9460SOL    HW229280   1.080   3.318   3.815
 9461SOL     OW29281   0.076   2.078   1.593
 9461SOL    HW129282   7.028   2.068   1.657
 9461SOL    HW229283   0.089   1.993   1.543
 9462SOL     OW29284   2.152   3.917   3.057
 9462SOL    HW129285   2.104   3.997   3.020
 9462SOL    HW229286   2.152   3.922   3.157
 9463SOL     OW29287   6.221   0.361   1.862
 9463SOL    HW129288   6.320   0.378   1.873
 9463SOL    HW229289   6.203   0.334   1.767
 9464SOL     OW29290   5.820   0.682   0.776
 9464SOL    HW129291   5.882   0.622   0.827
 9464SOL    HW229292   5.809   0.768   0.826
 9465SOL     OW29293   1.519   4.531   2.234
 9465SOL    HW129294   1.459   4.467   2.187
 9465SOL    HW229295   1.472   4.568   2.315
 9466SOL     OW29296   3.843   4.457   5.873
 9466SOL    HW129297   3.770   4.398   5.839
 9466SOL    HW229298   3.807   4.515   5.945
 9467SOL     OW29299   1.447   2.332   2.589
 9467SOL    HW129300   1.545   2.330   2.568
 9467SOL    HW229301   1.417   2.427   2.598
 9468SOL     OW29302   5.929   3.754   6.538
 9468SOL    HW129303   5.964   3.758   6.632
 9468SOL    HW229304   5.998   3.790   6.475
 9469SOL     OW29305   6.366   5.076   1.732
 9469SOL    HW129306   6.417   5.134   1.668
 9469SOL    HW229307   6.310   5.133   1.792
 9470SOL     OW29308   5.134   3.078   6.052
 9470SOL    HW129309   5.133   3.146   6.126
 9470SOL    HW229310   5.065   3.008   6.070
 9471SOL     OW29311   6.899   1.872   4.609
 9471SOL    HW129312   6.823   1.819   4.571
 9471SOL    HW229313   6.915   1.953   4.552
 9472SOL     OW29314   6.524   2.517   5.491
 9472SOL    HW129315   6.614   2.556   5.510
 9472SOL    HW229316   6.516   2.498   5.393
 9473SOL     OW29317   2.417   5.574   0.016
 9473SOL    HW129318   2.428   5.529   6.956
 9473SOL    HW229319   2.430   5.507   0.089
 9474SOL     OW29320   0.440   2.897   0.202
 9474SOL    HW129321   0.489   2.983   0.187
 9474SOL    HW229322   0.414   2.889   0.298
 9475SOL     OW29323   3.671   3.176   6.827
 9475SOL    HW129324   3.616   3.107   6.781
 9475SOL    HW229325   3.619   3.215   6.903
 9476SOL     OW29326   3.686   4.205   4.930
 9476SOL    HW129327   3.697   4.160   4.842
 9476SOL    HW229328   3.694   4.304   4.917
 9477SOL     OW29329   0.634   2.806   1.085
 9477SOL    HW129330   0.629   2.782   1.182
 9477SOL    HW229331   0.730   2.817   1.058
 9478SOL     OW29332   5.089   3.181   0.697
 9478SOL    HW129333   5.149   3.221   0.627
 9478SOL    HW229334   5.000   3.162   0.656
 9479SOL     OW29335   4.098   6.313   6.612
 9479SOL    HW129336   4.032   6.322   6.687
 9479SOL    HW229337   4.094   6.221   6.575
 9480SOL     OW29338   5.928   4.829   0.659
 9480SOL    HW129339   5.943   4.734   0.687
 9480SOL    HW229340   5.831   4.844   0.640
 9481SOL     OW29341   4.791   2.767   2.174
 9481SOL    HW129342   4.774   2.671   2.157
 9481SOL    HW229343   4.756   2.822   2.098
 9482SOL     OW29344   0.198   1.353   3.249
 9482SOL    HW129345   0.192   1.292   3.329
 9482SOL    HW229346   0.240   1.439   3.276
 9483SOL     OW29347   1.895   1.382   1.029
 9483SOL    HW129348   1.865   1.334   0.947
 9483SOL    HW229349   1.925   1.474   1.004
 9484SOL     OW29350   4.309   0.732   3.935
 9484SOL    HW129351   4.320   0.635   3.959
 9484SOL    HW229352   4.247   0.775   4.000
 9485SOL     OW29353   0.598   0.659   0.591
 9485SOL    HW129354   0.619   0.678   0.494
 9485SOL    HW229355   0.653   0.720   0.649
 9486SOL     OW29356   4.050   6.459   1.286
 9486SOL    HW129357   4.105   6.502   1.358
 9486SOL    HW229358   4.092   6.372   1.261
 9487SOL     OW29359   3.657   3.477   3.967
 9487SOL    HW129360   3.723   3.457   3.895
 9487SOL    HW229361   3.696   3.453   4.056
 9488SOL     OW29362   2.560   6.393   1.139
 9488SOL    HW129363   2.536   6.428   1.048
 9488SOL    HW229364   2.654   6.420   1.160
 9489SOL     OW29365   4.573   4.212   1.274
 9489SOL    HW129366   4.623   4.298   1.276
 9489SOL    HW229367   4.637   4.136   1.261
 9490SOL     OW29368   6.338   4.611   2.314
 9490SOL    HW129369   6.349   4.709   2.300
 9490SOL    HW229370   6.376   4.586   2.403
 9491SOL     OW29371   6.040   4.985   4.194
 9491SOL    HW129372   5.949   4.952   4.169
 9491SOL    HW229373   6.066   5.061   4.135
 9492SOL     OW29374   3.698   2.944   4.034
 9492SOL    HW129375   3.638   2.866   4.017
 9492SOL    HW229376   3.683   2.977   4.127
 9493SOL     OW29377   3.309   5.826   4.204
 9493SOL    HW129378   3.216   5.789   4.197
 9493SOL    HW229379   3.352   5.790   4.287
 9494SOL     OW29380   4.953   3.285   2.220
 9494SOL    HW129381   4.859   3.250   2.215
 9494SOL    HW229382   4.953   3.384   2.207
 9495SOL     OW29383   6.666   1.711   3.628
 9495SOL    HW129384   6.578   1.703   3.582
 9495SOL    HW229385   6.738   1.727   3.561
 9496SOL     OW29386   6.741   3.804   1.656
 9496SOL    HW129387   6.660   3.863   1.655
 9496SOL    HW229388   6.715   3.711   1.632
 9497SOL     OW29389   5.739   6.229   5.782
 9497SOL    HW129390   5.760   6.315   5.827
 9497SOL    HW229391   5.795   6.156   5.821
 9498SOL     OW29392   4.201   6.731   4.705
 9498SOL    HW129393   4.147   6.786   4.641
 9498SOL    HW229394   4.224   6.643   4.663
 9499SOL     OW29395   2.510   5.629   6.512
 9499SOL    HW129396   2.427   5.592   6.553
 9499SOL    HW229397   2.514   5.603   6.415
 9500SOL     OW29398   5.225   0.247   1.038
 9500SOL    HW129399   5.317   0.257   1.000
 9500SOL    HW229400   5.165   0.204   0.971
 9501SOL     OW29401   3.029   1.179   4.406
 9501SOL    HW129402   3.038   1.274   4.374
 9501SOL    HW229403   3.053   1.116   4.332
 9502SOL     OW29404   5.277   3.020   5.043
 9502SOL    HW129405   5.258   3.115   5.069
 9502SOL    HW229406   5.203   2.986   4.985
 9503SOL     OW29407   0.478   1.350   1.128
 9503SOL    HW129408   0.428   1.364   1.213
 9503SOL    HW229409   0.551   1.418   1.121
 9504SOL     OW29410   0.494   2.714   0.618
 9504SOL    HW129411   0.464   2.805   0.647
 9504SOL    HW229412   0.417   2.664   0.579
 9505SOL     OW29413   5.016   4.422   3.792
 9505SOL    HW129414   5.066   4.338   3.814
 9505SOL    HW229415   4.917   4.403   3.791
 9506SOL     OW29416   1.085   1.780   6.615
 9506SOL    HW129417   0.987   1.770   6.599
 9506SOL    HW229418   1.112   1.875   6.598
 9507SOL     OW29419   1.146   2.185   3.257
 9507SOL    HW129420   1.064   2.128   3.247
 9507SOL    HW229421   1.170   2.223   3.167
 9508SOL     OW29422   6.164   2.444   1.296
 9508SOL    HW129423   6.253   2.454   1.341
 9508SOL    HW229424   6.150   2.349   1.269
 9509SOL     OW29425   0.839   1.186   4.204
 9509SOL    HW129426   0.869   1.099   4.244
 9509SOL    HW229427   0.748   1.175   4.166
 9510SOL     OW29428   1.477   3.801   3.174
 9510SOL    HW129429   1.412   3.858   3.124
 9510SOL    HW229430   1.569   3.840   3.165
 9511SOL     OW29431   1.361   0.566   0.466
 9511SOL    HW129432   1.373   0.662   0.492
 9511SOL    HW229433   1.283   0.528   0.516
 9512SOL     OW29434   6.171   1.550   1.382
 9512SOL    HW129435   6.186   1.561   1.480
 9512SOL    HW229436   6.252   1.510   1.340
 9513SOL     OW29437   2.200   3.791   6.781
 9513SOL    HW129438   2.256   3.803   6.862
 9513SOL    HW229439   2.252   3.741   6.711
 9514SOL     OW29440   2.043   5.361   5.972
 9514SOL    HW129441   2.037   5.342   6.070
 9514SOL    HW229442   2.067   5.458   5.959
 9515SOL     OW29443   2.074   5.694   0.976
 9515SOL    HW129444   2.045   5.786   0.947
 9515SOL    HW229445   2.017   5.626   0.930
 9516SOL     OW29446   5.817   4.475   5.692
 9516SOL    HW129447   5.724   4.495   5.722
 9516SOL    HW229448   5.852   4.396   5.743
 9517SOL     OW29449   2.098   4.537   0.683
 9517SOL    HW129450   2.182   4.573   0.641
 9517SOL    HW229451   2.041   4.496   0.612
 9518SOL     OW29452   2.302   2.175   0.013
 9518SOL    HW129453   2.359   2.099   7.011
 9518SOL    HW229454   2.213   2.171   6.996
 9519SOL     OW29455   3.770   3.566   4.850
 9519SOL    HW129456   3.776   3.534   4.945
 9519SOL    HW229457   3.811   3.499   4.789
 9520SOL     OW29458   1.695   1.481   3.585
 9520SOL    HW129459   1.650   1.569   3.567
 9520SOL    HW229460   1.647   1.409   3.536
 9521SOL     OW29461   4.848   5.048   1.678
 9521SOL    HW129462   4.801   4.973   1.725
 9521SOL    HW229463   4.899   5.102   1.744
 9522SOL     OW29464   3.210   5.586   1.244
 9522SOL    HW129465   3.122   5.590   1.292
 9522SOL    HW229466   3.216   5.500   1.193
 9523SOL     OW29467   2.571   4.641   5.109
 9523SOL    HW129468   2.567   4.632   5.209
 9523SOL    HW229469   2.666   4.642   5.079
 9524SOL     OW29470   3.556   3.221   1.073
 9524SOL    HW129471   3.495   3.239   1.150
 9524SOL    HW229472   3.506   3.173   1.001
 9525SOL     OW29473   2.413   2.653   5.409
 9525SOL    HW129474   2.368   2.565   5.392
 9525SOL    HW229475   2.440   2.694   5.322
 9526SOL     OW29476   5.785   5.027   1.682
 9526SOL    HW129477   5.805   4.989   1.773
 9526SOL    HW229478   5.788   4.954   1.614
 9527SOL     OW29479   0.618   0.801   4.270
 9527SOL    HW129480   0.647   0.821   4.363
 9527SOL    HW229481   0.576   0.711   4.266
 9528SOL     OW29482   6.970   1.212   0.382
 9528SOL    HW129483   6.898   1.234   0.316
 9528SOL    HW229484   0.029   1.205   0.334
 9529SOL     OW29485   6.468   3.210   5.840
 9529SOL    HW129486   6.514   3.135   5.792
 9529SOL    HW229487   6.396   3.247   5.782
 9530SOL     OW29488   1.416   4.264   2.016
 9530SOL    HW129489   1.350   4.197   1.984
 9530SOL    HW229490   1.471   4.296   1.939
 9531SOL     OW29491   4.516   4.823   2.960
 9531SOL    HW129492   4.607   4.858   2.982
 9531SOL    HW229493   4.448   4.876   3.010
 9532SOL     OW29494   6.558   0.038   2.223
 9532SOL    HW129495   6.548   7.028   2.132
 9532SOL    HW229496   6.590   0.132   2.216
 9533SOL     OW29497   6.934   6.343   5.848
 9533SOL    HW129498   6.893   6.252   5.839
 9533SOL    HW229499   6.959   6.377   5.758
 9534SOL     OW29500   0.418   4.017   4.766
 9534SOL    HW129501   0.344   4.001   4.700
 9534SOL    HW229502   0.484   3.942   4.760
 9535SOL     OW29503   1.964   1.224   6.243
 9535SOL    HW129504   2.027   1.158   6.203
 9535SOL    HW229505   1.979   1.231   6.341
 9536SOL     OW29506   2.678   4.137   5.720
 9536SOL    HW129507   2.582   4.146   5.695
 9536SOL    HW229508   2.736   4.165   5.643
 9537SOL     OW29509   2.865   6.844   3.268
 9537SOL    HW129510   2.890   6.783   3.193
 9537SOL    HW229511   2.856   6.791   3.352
 9538SOL     OW29512   6.107   2.026   3.629
 9538SOL    HW129513   6.155   2.063   3.550
 9538SOL    HW229514   6.120   2.086   3.708
 9539SOL     OW29515   2.879   4.068   5.197
 9539SOL    HW129516   2.808   4.000   5.217
 9539SOL    HW229517   2.866   4.104   5.105
 9540SOL     OW29518   6.164   4.201   4.547
 9540SOL    HW129519   6.139   4.214   4.643
 9540SOL    HW229520   6.117   4.121   4.510
 9541SOL     OW29521   4.208   0.357   5.734
 9541SOL    HW129522   4.285   0.353   5.797
 9541SOL    HW229523   4.142   0.285   5.757
 9542SOL     OW29524   5.124   4.640   4.728
 9542SOL    HW129525   5.188   4.607   4.659
 9542SOL    HW229526   5.031   4.634   4.691
 9543SOL     OW29527   3.742   0.964   5.495
 9543SOL    HW129528   3.733   0.872   5.457
 9543SOL    HW229529   3.654   1.011   5.490
 9544SOL     OW29530   6.853   1.603   3.806
 9544SOL    HW129531   6.819   1.585   3.898
 9544SOL    HW229532   6.777   1.629   3.746
 9545SOL     OW29533   5.897   5.222   4.007
 9545SOL    HW129534   5.840   5.206   4.088
 9545SOL    HW229535   5.992   5.233   4.036
 9546SOL     OW29536   3.662   2.128   5.729
 9546SOL    HW129537   3.640   2.111   5.633
 9546SOL    HW229538   3.581   2.111   5.786
 9547SOL     OW29539   2.148   6.505   4.791
 9547SOL    HW129540   2.180   6.591   4.830
 9547SOL    HW229541   2.218   6.470   4.728
 9548SOL     OW29542   6.543   5.605   6.364
 9548SOL    HW129543   6.460   5.552   6.344
 9548SOL    HW229544   6.539   5.692   6.316
 9549SOL     OW29545   2.765   3.162   0.911
 9549SOL    HW129546   2.832   3.092   0.935
 9549SOL    HW229547   2.697   3.123   0.848
 9550SOL     OW29548   0.712   1.215   0.374
 9550SOL    HW129549   0.811   1.229   0.383
 9550SOL    HW229550   0.664   1.285   0.428
 9551SOL     OW29551   5.900   1.341   4.443
 9551SOL    HW129552   5.809   1.367   4.412
 9551SOL    HW229553   5.905   1.241   4.448
 9552SOL     OW29554   1.689   6.198   3.272
 9552SOL    HW129555   1.706   6.216   3.175
 9552SOL    HW229556   1.649   6.279   3.315
 9553SOL     OW29557   6.064   3.754   6.783
 9553SOL    HW129558   6.096   3.687   6.850
 9553SOL    HW229559   6.137   3.771   6.716
 9554SOL     OW29560   2.557   0.153   1.220
 9554SOL    HW129561   2.589   0.195   1.305
 9554SOL    HW229562   2.475   0.199   1.188
 9555SOL     OW29563   0.965   1.388   2.718
 9555SOL    HW129564   0.964   1.484   2.747
 9555SOL    HW229565   0.880   1.344   2.744
 9556SOL     OW29566   1.452   2.090   1.558
 9556SOL    HW129567   1.520   2.023   1.588
 9556SOL    HW229568   1.499   2.171   1.523
 9557SOL     OW29569   0.250   0.377   2.935
 9557SOL    HW129570   0.282   0.456   2.882
 9557SOL    HW229571   0.181   0.406   3.000
 9558SOL     OW29572   6.288   6.148   4.707
 9558SOL    HW129573   6.381   6.111   4.707
 9558SOL    HW229574   6.267   6.186   4.617
 9559SOL     OW29575   0.687   4.182   0.903
 9559SOL    HW129576   0.713   4.268   0.859
 9559SOL    HW229577   0.731   4.177   0.993
 9560SOL     OW29578   1.385   1.810   3.451
 9560SOL    HW129579   1.362   1.788   3.546
 9560SOL    HW229580   1.308   1.789   3.391
 9561SOL     OW29581   1.410   6.529   0.315
 9561SOL    HW129582   1.340   6.493   0.253
 9561SOL    HW229583   1.450   6.611   0.275
 9562SOL     OW29584   3.298   0.382   5.628
 9562SOL    HW129585   3.208   0.424   5.640
 9562SOL    HW229586   3.366   0.454   5.612
 9563SOL     OW29587   6.562   0.025   0.831
 9563SOL    HW129588   6.517   6.993   0.766
 9563SOL    HW229589   6.650   7.014   0.858
 9564SOL     OW29590   3.156   0.395   0.369
 9564SOL    HW129591   3.222   0.397   0.294
 9564SOL    HW229592   3.095   0.317   0.358
 9565SOL     OW29593   4.115   6.284   4.798
 9565SOL    HW129594   4.193   6.340   4.826
 9565SOL    HW229595   4.137   6.187   4.813
 9566SOL     OW29596   2.577   4.641   6.685
 9566SOL    HW129597   2.596   4.704   6.609
 9566SOL    HW229598   2.524   4.688   6.755
 9567SOL     OW29599   5.810   4.706   6.496
 9567SOL    HW129600   5.720   4.704   6.453
 9567SOL    HW229601   5.831   4.799   6.525
 9568SOL     OW29602   4.500   2.295   6.284
 9568SOL    HW129603   4.571   2.231   6.254
 9568SOL    HW229604   4.452   2.257   6.363
 9569SOL     OW29605   0.066   0.696   2.736
 9569SOL    HW129606   0.008   0.755   2.790
 9569SOL    HW229607   0.151   0.678   2.786
 9570SOL     OW29608   1.040   2.930   2.433
 9570SOL    HW129609   1.075   2.896   2.346
 9570SOL    HW229610   1.005   3.023   2.421
 9571SOL     OW29611   2.587   3.853   6.867
 9571SOL    HW129612   2.591   3.952   6.857
 9571SOL    HW229613   2.570   3.810   6.779
 9572SOL     OW29614   2.110   5.736   1.841
 9572SOL    HW129615   2.183   5.762   1.777
 9572SOL    HW229616   2.149   5.687   1.918
 9573SOL     OW29617   1.434   0.866   6.478
 9573SOL    HW129618   1.410   0.786   6.423
 9573SOL    HW229619   1.439   0.947   6.419
 9574SOL     OW29620   3.931   3.594   4.488
 9574SOL    HW129621   3.983   3.509   4.491
 9574SOL    HW229622   3.856   3.585   4.423
 9575SOL     OW29623   5.756   1.844   0.716
 9575SOL    HW129624   5.691   1.812   0.785
 9575SOL    HW229625   5.750   1.786   0.635
 9576SOL     OW29626   2.458   0.356   2.306
 9576SOL    HW129627   2.379   0.317   2.355
 9576SOL    HW229628   2.539   0.350   2.365
 9577SOL     OW29629   1.188   0.800   4.481
 9577SOL    HW129630   1.188   0.780   4.579
 9577SOL    HW229631   1.259   0.868   4.461
 9578SOL     OW29632   0.593   4.298   3.445
 9578SOL    HW129633   0.692   4.293   3.437
 9578SOL    HW229634   0.568   4.336   3.534
 9579SOL     OW29635   1.953   5.291   3.007
 9579SOL    HW129636   2.050   5.266   3.002
 9579SOL    HW229637   1.944   5.391   3.002
 9580SOL     OW29638   4.382   2.996   0.974
 9580SOL    HW129639   4.438   3.005   0.892
 9580SOL    HW229640   4.324   2.915   0.967
 9581SOL     OW29641   1.392   5.311   6.263
 9581SOL    HW129642   1.411   5.314   6.165
 9581SOL    HW229643   1.463   5.362   6.312
 9582SOL     OW29644   4.867   4.623   4.744
 9582SOL    HW129645   4.872   4.523   4.744
 9582SOL    HW229646   4.916   4.660   4.822
 9583SOL     OW29647   3.691   4.881   1.255
 9583SOL    HW129648   3.672   4.814   1.183
 9583SOL    HW229649   3.789   4.899   1.260
 9584SOL     OW29650   6.790   6.373   0.402
 9584SOL    HW129651   6.784   6.274   0.391
 9584SOL    HW229652   6.854   6.410   0.334
 9585SOL     OW29653   6.127   0.363   3.464
 9585SOL    HW129654   6.097   0.271   3.491
 9585SOL    HW229655   6.224   0.360   3.441
 9586SOL     OW29656   5.688   3.845   2.771
 9586SOL    HW129657   5.595   3.869   2.741
 9586SOL    HW229658   5.750   3.853   2.694
 9587SOL     OW29659   6.489   0.924   2.665
 9587SOL    HW129660   6.468   0.940   2.761
 9587SOL    HW229661   6.404   0.925   2.612
 9588SOL     OW29662   0.479   1.483   2.604
 9588SOL    HW129663   0.485   1.466   2.703
 9588SOL    HW229664   0.512   1.575   2.584
 9589SOL     OW29665   2.710   5.483   5.983
 9589SOL    HW129666   2.791   5.502   5.928
 9589SOL    HW229667   2.628   5.511   5.933
 9590SOL     OW29668   0.390   4.315   2.151
 9590SOL    HW129669   0.337   4.278   2.075
 9590SOL    HW229670   0.416   4.240   2.212
 9591SOL     OW29671   3.207   6.155   6.920
 9591SOL    HW129672   3.114   6.120   6.915
 9591SOL    HW229673   3.209   6.241   6.971
 9592SOL     OW29674   3.710   4.541   1.444
 9592SOL    HW129675   3.652   4.467   1.479
 9592SOL    HW229676   3.690   4.625   1.492
 9593SOL     OW29677   6.622   0.115   4.736
 9593SOL    HW129678   6.523   0.128   4.742
 9593SOL    HW229679   6.667   0.204   4.729
 9594SOL     OW29680   1.555   5.906   2.946
 9594SOL    HW129681   1.506   5.820   2.961
 9594SOL    HW229682   1.509   5.979   2.996
 9595SOL     OW29683   1.916   4.177   5.080
 9595SOL    HW129684   1.840   4.144   5.137
 9595SOL    HW229685   2.002   4.165   5.129
 9596SOL     OW29686   0.622   6.066   0.162
 9596SOL    HW129687   0.660   6.113   0.082
 9596SOL    HW229688   0.570   5.986   0.132
 9597SOL     OW29689   0.408   4.893   0.567
 9597SOL    HW129690   0.316   4.854   0.573
 9597SOL    HW229691   0.406   4.971   0.504
 9598SOL     OW29692   0.677   3.554   5.231
 9598SOL    HW129693   0.612   3.567   5.306
 9598SOL    HW229694   0.728   3.638   5.215
 9599SOL     OW29695   3.456   0.330   5.332
 9599SOL    HW129696   3.455   0.369   5.240
 9599SOL    HW229697   3.541   0.354   5.378
 9600SOL     OW29698   2.392   6.927   0.031
 9600SOL    HW129699   2.434   6.925   0.122
 9600SOL    HW229700   2.408   6.840   7.013
 9601SOL     OW29701   6.135   3.999   6.910
 9601SOL    HW129702   6.118   4.025   7.005
 9601SOL    HW229703   6.116   3.901   6.898
 9602SOL     OW29704   6.514   4.893   6.824
 9602SOL    HW129705   6.516   4.990   6.799
 9602SOL    HW229706   6.581   4.843   6.769
 9603SOL     OW29707   3.235   0.984   4.778
 9603SOL    HW129708   3.163   1.034   4.730
 9603SOL    HW229709   3.198   0.949   4.865
 9604SOL     OW29710   4.993   0.387   0.766
 9604SOL    HW129711   4.992   0.339   0.853
 9604SOL    HW229712   5.074   0.360   0.714
 9605SOL     OW29713   0.960   5.185   4.819
 9605SOL    HW129714   0.932   5.240   4.740
 9605SOL    HW229715   0.903   5.103   4.823
 9606SOL     OW29716   1.629   6.256   5.102
 9606SOL    HW129717   1.645   6.234   5.006
 9606SOL    HW229718   1.716   6.273   5.148
 9607SOL     OW29719   1.076   2.267   1.910
 9607SOL    HW129720   1.129   2.249   1.993
 9607SOL    HW229721   1.078   2.186   1.851
 9608SOL     OW29722   6.484   6.600   1.692
 9608SOL    HW129723   6.526   6.532   1.751
 9608SOL    HW229724   6.553   6.642   1.633
 9609SOL     OW29725   1.767   4.004   5.920
 9609SOL    HW129726   1.737   3.911   5.896
 9609SOL    HW229727   1.789   4.055   5.837
 9610SOL     OW29728   1.686   4.503   4.018
 9610SOL    HW129729   1.756   4.443   3.979
 9610SOL    HW229730   1.719   4.597   4.019
 9611SOL     OW29731   0.336   0.055   6.900
 9611SOL    HW129732   0.294   0.067   6.810
 9611SOL    HW229733   0.279   7.025   6.957
 9612SOL     OW29734   6.603   3.306   1.393
 9612SOL    HW129735   6.611   3.406   1.393
 9612SOL    HW229736   6.600   3.272   1.299
 9613SOL     OW29737   3.907   6.586   3.312
 9613SOL    HW129738   3.937   6.505   3.263
 9613SOL    HW229739   3.821   6.619   3.274
 9614SOL     OW29740   3.905   2.844   1.150
 9614SOL    HW129741   3.934   2.750   1.130
 9614SOL    HW229742   3.833   2.871   1.086
 9615SOL     OW29743   1.009   0.025   2.555
 9615SOL    HW129744   1.069   0.023   2.475
 9615SOL    HW229745   0.982   6.960   2.578
 9616SOL     OW29746   4.535   3.628   0.667
 9616SOL    HW129747   4.575   3.604   0.578
 9616SOL    HW229748   4.494   3.719   0.662
 9617SOL     OW29749   1.032   3.708   4.521
 9617SOL    HW129750   1.081   3.795   4.521
 9617SOL    HW229751   0.962   3.709   4.450
 9618SOL     OW29752   4.991   0.180   6.001
 9618SOL    HW129753   4.975   0.201   6.098
 9618SOL    HW229754   5.074   0.126   5.993
 9619SOL     OW29755   1.194   0.496   0.681
 9619SOL    HW129756   1.249   0.462   0.757
 9619SOL    HW229757   1.101   0.515   0.713
 9620SOL     OW29758   5.612   1.553   6.742
 9620SOL    HW129759   5.603   1.460   6.776
 9620SOL    HW229760   5.705   1.567   6.706
 9621SOL     OW29761   1.760   1.539   2.853
 9621SOL    HW129762   1.699   1.557   2.776
 9621SOL    HW229763   1.718   1.470   2.912
 9622SOL     OW29764   6.326   1.045   6.623
 9622SOL    HW129765   6.279   1.124   6.662
 9622SOL    HW229766   6.278   0.961   6.651
 9623SOL     OW29767   3.994   5.406   5.493
 9623SOL    HW129768   4.053   5.463   5.436
 9623SOL    HW229769   4.038   5.392   5.582
 9624SOL     OW29770   5.453   4.050   3.920
 9624SOL    HW129771   5.524   3.992   3.880
 9624SOL    HW229772   5.433   4.126   3.857
 9625SOL     OW29773   5.231   4.693   6.715
 9625SOL    HW129774   5.323   4.680   6.753
 9625SOL    HW229775   5.185   4.605   6.708
 9626SOL     OW29776   2.090   5.808   5.758
 9626SOL    HW129777   2.085   5.903   5.789
 9626SOL    HW229778   2.011   5.788   5.700
 9627SOL     OW29779   6.954   4.207   4.426
 9627SOL    HW129780   6.999   4.263   4.356
 9627SOL    HW229781   7.004   4.217   4.512
 9628SOL     OW29782   6.093   4.499   0.364
 9628SOL    HW129783   6.066   4.404   0.347
 9628SOL    HW229784   6.188   4.512   0.337
 9629SOL     OW29785   6.540   5.813   2.294
 9629SOL    HW129786   6.588   5.877   2.355
 9629SOL    HW229787   6.580   5.819   2.202
 9630SOL     OW29788   6.380   6.161   5.681
 9630SOL    HW129789   6.406   6.171   5.777
 9630SOL    HW229790   6.453   6.111   5.633
 9631SOL     OW29791   4.680   1.817   0.780
 9631SOL    HW129792   4.772   1.815   0.817
 9631SOL    HW229793   4.681   1.781   0.687
 9632SOL     OW29794   2.604   5.619   1.613
 9632SOL    HW129795   2.661   5.572   1.680
 9632SOL    HW229796   2.515   5.640   1.653
 9633SOL     OW29797   3.700   4.098   0.313
 9633SOL    HW129798   3.717   4.197   0.316
 9633SOL    HW229799   3.674   4.071   0.221
 9634SOL     OW29800   0.153   6.033   3.775
 9634SOL    HW129801   0.177   6.033   3.872
 9634SOL    HW229802   0.221   5.981   3.723
 9635SOL     OW29803   2.161   4.314   5.344
 9635SOL    HW129804   2.174   4.382   5.416
 9635SOL    HW229805   2.192   4.350   5.256
 9636SOL     OW29806   4.945   1.589   6.146
 9636SOL    HW129807   4.907   1.550   6.062
 9636SOL    HW229808   4.946   1.689   6.139
 9637SOL     OW29809   3.878   2.954   0.691
 9637SOL    HW129810   3.907   2.989   0.781
 9637SOL    HW229811   3.778   2.949   0.688
 9638SOL     OW29812   0.033   3.200   5.643
 9638SOL    HW129813   0.028   3.101   5.652
 9638SOL    HW229814   6.991   3.242   5.700
 9639SOL     OW29815   4.242   2.303   2.119
 9639SOL    HW129816   4.242   2.231   2.189
 9639SOL    HW229817   4.207   2.388   2.159
 9640SOL     OW29818   3.364   0.878   2.827
 9640SOL    HW129819   3.435   0.941   2.795
 9640SOL    HW229820   3.340   0.816   2.753
 9641SOL     OW29821   5.459   5.430   1.737
 9641SOL    HW129822   5.427   5.338   1.714
 9641SOL    HW229823   5.416   5.496   1.676
 9642SOL     OW29824   1.442   6.051   4.390
 9642SOL    HW129825   1.434   6.122   4.319
 9642SOL    HW229826   1.539   6.035   4.410
 9643SOL     OW29827   5.064   4.063   3.661
 9643SOL    HW129828   5.064   4.119   3.744
 9643SOL    HW229829   5.128   4.102   3.594
 9644SOL     OW29830   1.119   5.814   5.714
 9644SOL    HW129831   1.181   5.891   5.699
 9644SOL    HW229832   1.143   5.739   5.653
 9645SOL     OW29833   2.813   4.745   3.991
 9645SOL    HW129834   2.793   4.672   4.055
 9645SOL    HW229835   2.801   4.712   3.897
 9646SOL     OW29836   2.795   5.079   1.832
 9646SOL    HW129837   2.834   5.020   1.761
 9646SOL    HW229838   2.779   5.025   1.915
 9647SOL     OW29839   6.943   6.652   2.590
 9647SOL    HW129840   7.009   6.587   2.627
 9647SOL    HW229841   6.990   6.732   2.554
 9648SOL     OW29842   3.738   2.562   6.771
 9648SOL    HW129843   3.697   2.636   6.717
 9648SOL    HW229844   3.837   2.564   6.758
 9649SOL     OW29845   1.971   4.272   0.026
 9649SOL    HW129846   1.923   4.307   6.974
 9649SOL    HW229847   1.912   4.281   0.107
 9650SOL     OW29848   4.868   5.146   3.235
 9650SOL    HW129849   4.782   5.161   3.282
 9650SOL    HW229850   4.919   5.232   3.231
 9651SOL     OW29851   5.450   1.544   0.867
 9651SOL    HW129852   5.417   1.491   0.945
 9651SOL    HW229853   5.444   1.641   0.887
 9652SOL     OW29854   1.404   4.803   1.938
 9652SOL    HW129855   1.326   4.806   2.000
 9652SOL    HW229856   1.402   4.716   1.887
 9653SOL     OW29857   5.012   5.435   4.604
 9653SOL    HW129858   5.061   5.482   4.677
 9653SOL    HW229859   5.056   5.346   4.587
 9654SOL     OW29860   3.315   3.208   3.324
 9654SOL    HW129861   3.218   3.229   3.339
 9654SOL    HW229862   3.359   3.286   3.280
 9655SOL     OW29863   0.233   1.790   0.413
 9655SOL    HW129864   0.285   1.830   0.489
 9655SOL    HW229865   0.226   1.691   0.426
 9656SOL     OW29866   4.154   2.816   0.967
 9656SOL    HW129867   4.150   2.807   0.867
 9656SOL    HW229868   4.116   2.734   1.009
 9657SOL     OW29869   5.257   3.323   2.671
 9657SOL    HW129870   5.214   3.265   2.602
 9657SOL    HW229871   5.243   3.419   2.647
 9658SOL     OW29872   5.171   1.668   2.289
 9658SOL    HW129873   5.221   1.595   2.335
 9658SOL    HW229874   5.092   1.695   2.344
 9659SOL     OW29875   0.449   3.639   6.608
 9659SOL    HW129876   0.509   3.616   6.685
 9659SOL    HW229877   0.484   3.720   6.561
 9660SOL     OW29878   0.514   6.995   3.307
 9660SOL    HW129879   0.599   6.993   3.361
 9660SOL    HW229880   0.505   6.909   3.257
 9661SOL     OW29881   3.652   6.201   1.414
 9661SOL    HW129882   3.690   6.268   1.478
 9661SOL    HW229883   3.594   6.136   1.463
 9662SOL     OW29884   3.838   2.928   6.010
 9662SOL    HW129885   3.769   2.891   5.949
 9662SOL    HW229886   3.800   2.938   6.102
 9663SOL     OW29887   6.642   6.163   2.178
 9663SOL    HW129888   6.575   6.158   2.252
 9663SOL    HW229889   6.659   6.259   2.155
 9664SOL     OW29890   5.765   5.202   4.250
 9664SOL    HW129891   5.721   5.276   4.301
 9664SOL    HW229892   5.703   5.124   4.245
 9665SOL     OW29893   5.842   6.308   6.391
 9665SOL    HW129894   5.763   6.253   6.418
 9665SOL    HW229895   5.908   6.250   6.343
 9666SOL     OW29896   6.669   4.133   2.400
 9666SOL    HW129897   6.668   4.155   2.302
 9666SOL    HW229898   6.646   4.214   2.453
 9667SOL     OW29899   4.132   3.478   6.849
 9667SOL    HW129900   4.161   3.391   6.809
 9667SOL    HW229901   4.037   3.472   6.879
 9668SOL     OW29902   0.334   0.648   6.192
 9668SOL    HW129903   0.330   0.738   6.236
 9668SOL    HW229904   0.406   0.648   6.123
 9669SOL     OW29905   1.970   0.153   1.720
 9669SOL    HW129906   1.943   0.058   1.738
 9669SOL    HW229907   1.922   0.214   1.783
 9670SOL     OW29908   0.102   4.899   5.849
 9670SOL    HW129909   0.171   4.928   5.916
 9670SOL    HW229910   0.032   4.970   5.841
 9671SOL     OW29911   0.157   4.105   6.926
 9671SOL    HW129912   0.124   4.031   6.868
 9671SOL    HW229913   0.078   4.154   6.965
 9672SOL     OW29914   1.684   5.371   3.443
 9672SOL    HW129915   1.611   5.306   3.463
 9672SOL    HW229916   1.697   5.431   3.521
 9673SOL     OW29917   4.349   3.834   1.533
 9673SOL    HW129918   4.419   3.779   1.487
 9673SOL    HW229919   4.269   3.777   1.549
 9674SOL     OW29920   3.086   0.272   3.469
 9674SOL    HW129921   3.179   0.251   3.500
 9674SOL    HW229922   3.087   0.293   3.372
 9675SOL     OW29923   5.620   2.619   6.422
 9675SOL    HW129924   5.686   2.693   6.410
 9675SOL    HW229925   5.657   2.551   6.485
 9676SOL     OW29926   1.563   3.476   5.660
 9676SOL    HW129927   1.624   3.420   5.604
 9676SOL    HW229928   1.600   3.569   5.666
 9677SOL     OW29929   6.774   5.565   4.711
 9677SOL    HW129930   6.816   5.655   4.720
 9677SOL    HW229931   6.675   5.573   4.727
 9678SOL     OW29932   3.134   4.068   3.818
 9678SOL    HW129933   3.067   4.029   3.881
 9678SOL    HW229934   3.099   4.061   3.724
 9679SOL     OW29935   3.050   0.893   3.492
 9679SOL    HW129936   3.062   0.831   3.415
 9679SOL    HW229937   2.957   0.929   3.491
 9680SOL     OW29938   4.457   0.974   3.457
 9680SOL    HW129939   4.404   0.908   3.509
 9680SOL    HW229940   4.484   0.933   3.370
 9681SOL     OW29941   3.029   1.907   0.855
 9681SOL    HW129942   3.127   1.892   0.846
 9681SOL    HW229943   3.007   2.003   0.839
 9682SOL     OW29944   4.708   4.206   3.604
 9682SOL    HW129945   4.692   4.269   3.680
 9682SOL    HW229946   4.692   4.254   3.518
 9683SOL     OW29947   3.397   6.435   1.842
 9683SOL    HW129948   3.399   6.406   1.746
 9683SOL    HW229949   3.320   6.390   1.888
 9684SOL     OW29950   0.726   3.331   6.111
 9684SOL    HW129951   0.772   3.403   6.163
 9684SOL    HW229952   0.789   3.296   6.042
 9685SOL     OW29953   4.098   4.562   0.669
 9685SOL    HW129954   4.064   4.601   0.755
 9685SOL    HW229955   4.160   4.486   0.689
 9686SOL     OW29956   0.698   3.323   6.820
 9686SOL    HW129957   0.777   3.336   6.879
 9686SOL    HW229958   0.652   3.238   6.844
 9687SOL     OW29959   0.935   0.800   3.991
 9687SOL    HW129960   1.019   0.836   3.949
 9687SOL    HW229961   0.899   0.867   4.056
 9688SOL     OW29962   1.281   2.980   1.416
 9688SOL    HW129963   1.196   2.960   1.368
 9688SOL    HW229964   1.335   2.897   1.426
 9689SOL     OW29965   0.715   4.317   6.301
 9689SOL    HW129966   0.717   4.235   6.244
 9689SOL    HW229967   0.782   4.384   6.267
 9690SOL     OW29968   6.204   5.722   6.797
 9690SOL    HW129969   6.106   5.728   6.815
 9690SOL    HW229970   6.227   5.629   6.768
 9691SOL     OW29971   3.577   5.125   1.234
 9691SOL    HW129972   3.584   5.169   1.323
 9691SOL    HW229973   3.612   5.032   1.239
 9692SOL     OW29974   3.840   6.138   1.977
 9692SOL    HW129975   3.895   6.220   1.963
 9692SOL    HW229976   3.829   6.090   1.890
 9693SOL     OW29977   5.304   3.767   2.610
 9693SOL    HW129978   5.402   3.762   2.590
 9693SOL    HW229979   5.260   3.682   2.582
 9694SOL     OW29980   3.086   1.429   1.292
 9694SOL    HW129981   3.086   1.527   1.312
 9694SOL    HW229982   2.992   1.395   1.290
 9695SOL     OW29983   0.326   3.116   3.234
 9695SOL    HW129984   0.307   3.020   3.251
 9695SOL    HW229985   0.251   3.157   3.183
 9696SOL     OW29986   5.428   2.784   1.560
 9696SOL    HW129987   5.389   2.771   1.468
 9696SOL    HW229988   5.371   2.737   1.627
 9697SOL     OW29989   0.204   4.957   6.893
 9697SOL    HW129990   0.194   5.000   6.803
 9697SOL    HW229991   0.254   5.018   6.954
 9698SOL     OW29992   5.341   2.067   6.021
 9698SOL    HW129993   5.312   2.016   5.940
 9698SOL    HW229994   5.433   2.039   6.047
 9699SOL     OW29995   6.529   5.891   6.632
 9699SOL    HW129996   6.502   5.901   6.728
 9699SOL    HW229997   6.504   5.974   6.582
 9700SOL     OW29998   4.621   5.555   5.140
 9700SOL    HW129999   4.551   5.526   5.074
 9700SOL    HW230000   4.708   5.567   5.093
 9701SOL     OW30001   4.024   4.655   5.587
 9701SOL    HW130002   4.063   4.584   5.645
 9701SOL    HW230003   4.087   4.732   5.582
 9702SOL     OW30004   4.314   1.074   6.840
 9702SOL    HW130005   4.323   1.083   6.939
 9702SOL    HW230006   4.390   1.119   6.795
 9703SOL     OW30007   4.856   3.783   3.741
 9703SOL    HW130008   4.909   3.740   3.667
 9703SOL    HW230009   4.887   3.746   3.829
 9704SOL     OW30010   3.581   6.620   1.721
 9704SOL    HW130011   3.589   6.595   1.624
 9704SOL    HW230012   3.499   6.578   1.759
 9705SOL     OW30013   5.553   4.248   5.655
 9705SOL    HW130014   5.607   4.266   5.737
 9705SOL    HW230015   5.571   4.154   5.624
 9706SOL     OW30016   2.248   3.004   0.936
 9706SOL    HW130017   2.224   2.967   1.027
 9706SOL    HW230018   2.178   3.070   0.908
 9707SOL     OW30019   6.119   4.465   2.319
 9707SOL    HW130020   6.033   4.508   2.345
 9707SOL    HW230021   6.193   4.533   2.325
 9708SOL     OW30022   1.421   1.909   3.940
 9708SOL    HW130023   1.427   1.837   3.871
 9708SOL    HW230024   1.478   1.884   4.019
 9709SOL     OW30025   5.354   6.273   3.191
 9709SOL    HW130026   5.403   6.354   3.161
 9709SOL    HW230027   5.260   6.298   3.215
 9710SOL     OW30028   0.095   1.800   1.454
 9710SOL    HW130029   0.072   1.861   1.379
 9710SOL    HW230030   0.055   1.710   1.438
 9711SOL     OW30031   3.726   5.355   6.046
 9711SOL    HW130032   3.635   5.316   6.031
 9711SOL    HW230033   3.741   5.429   5.980
 9712SOL     OW30034   5.482   4.027   6.446
 9712SOL    HW130035   5.512   3.967   6.520
 9712SOL    HW230036   5.464   4.118   6.482
 9713SOL     OW30037   1.550   4.508   3.273
 9713SOL    HW130038   1.463   4.516   3.225
 9713SOL    HW230039   1.537   4.454   3.356
 9714SOL     OW30040   4.288   6.157   6.259
 9714SOL    HW130041   4.281   6.081   6.324
 9714SOL    HW230042   4.292   6.244   6.310
 9715SOL     OW30043   5.529   4.543   0.047
 9715SOL    HW130044   5.543   4.561   0.145
 9715SOL    HW230045   5.565   4.453   0.025
 9716SOL     OW30046   3.736   4.868   6.852
 9716SOL    HW130047   3.766   4.911   6.767
 9716SOL    HW230048   3.693   4.936   6.910
 9717SOL     OW30049   5.465   6.040   5.864
 9717SOL    HW130050   5.369   6.032   5.889
 9717SOL    HW230051   5.473   6.069   5.769
 9718SOL     OW30052   5.256   3.308   0.469
 9718SOL    HW130053   5.342   3.359   0.461
 9718SOL    HW230054   5.181   3.362   0.431
 9719SOL     OW30055   6.588   0.877   5.842
 9719SOL    HW130056   6.506   0.897   5.896
 9719SOL    HW230057   6.566   0.886   5.745
 9720SOL     OW30058   0.471   5.197   2.339
 9720SOL    HW130059   0.420   5.242   2.413
 9720SOL    HW230060   0.425   5.213   2.252
 9721SOL     OW30061   0.381   1.962   0.611
 9721SOL    HW130062   0.454   1.918   0.557
 9721SOL    HW230063   0.410   2.054   0.637
 9722SOL     OW30064   4.311   1.082   4.652
 9722SOL    HW130065   4.398   1.032   4.645
 9722SOL    HW230066   4.328   1.180   4.646
 9723SOL     OW30067   3.062   6.998   3.147
 9723SOL    HW130068   3.068   6.948   3.061
 9723SOL    HW230069   2.984   6.965   3.200
 9724SOL     OW30070   1.512   4.792   0.307
 9724SOL    HW130071   1.414   4.806   0.320
 9724SOL    HW230072   1.562   4.873   0.337
 9725SOL     OW30073   4.903   5.457   5.715
 9725SOL    HW130074   4.840   5.494   5.648
 9725SOL    HW230075   4.996   5.457   5.678
 9726SOL     OW30076   5.158   1.469   3.902
 9726SOL    HW130077   5.204   1.521   3.973
 9726SOL    HW230078   5.173   1.371   3.916
 9727SOL     OW30079   1.150   2.638   0.215
 9727SOL    HW130080   1.156   2.658   0.312
 9727SOL    HW230081   1.213   2.697   0.164
 9728SOL     OW30082   1.501   0.119   5.452
 9728SOL    HW130083   1.575   0.071   5.500
 9728SOL    HW230084   1.480   0.072   5.367
 9729SOL     OW30085   1.250   4.798   3.206
 9729SOL    HW130086   1.293   4.715   3.170
 9729SOL    HW230087   1.212   4.851   3.129
 9730SOL     OW30088   1.734   4.018   3.641
 9730SOL    HW130089   1.675   3.958   3.588
 9730SOL    HW230090   1.786   4.077   3.579
 9731SOL     OW30091   5.176   4.406   0.986
 9731SOL    HW130092   5.215   4.346   0.917
 9731SOL    HW230093   5.179   4.361   1.075
 9732SOL     OW30094   6.841   5.277   2.412
 9732SOL    HW130095   6.826   5.206   2.344
 9732SOL    HW230096   6.934   5.270   2.448
 9733SOL     OW30097   5.247   5.226   0.208
 9733SOL    HW130098   5.211   5.140   0.172
 9733SOL    HW230099   5.172   5.286   0.234
 9734SOL     OW30100   6.379   1.869   0.851
 9734SOL    HW130101   6.441   1.831   0.781
 9734SOL    HW230102   6.372   1.806   0.927
 9735SOL     OW30103   2.089   3.849   3.578
 9735SOL    HW130104   2.045   3.769   3.619
 9735SOL    HW230105   2.176   3.867   3.624
 9736SOL     OW30106   5.926   1.785   6.280
 9736SOL    HW130107   5.881   1.840   6.349
 9736SOL    HW230108   6.002   1.735   6.321
 9737SOL     OW30109   5.822   3.046   3.204
 9737SOL    HW130110   5.790   2.963   3.159
 9737SOL    HW230111   5.888   3.093   3.144
 9738SOL     OW30112   2.167   0.534   0.517
 9738SOL    HW130113   2.096   0.468   0.492
 9738SOL    HW230114   2.200   0.581   0.435
 9739SOL     OW30115   5.868   5.137   1.364
 9739SOL    HW130116   5.781   5.173   1.330
 9739SOL    HW230117   5.897   5.190   1.444
 9740SOL     OW30118   6.772   1.308   3.663
 9740SOL    HW130119   6.782   1.354   3.575
 9740SOL    HW230120   6.857   1.260   3.684
 9741SOL     OW30121   3.783   1.918   2.694
 9741SOL    HW130122   3.700   1.880   2.655
 9741SOL    HW230123   3.773   1.927   2.793
 9742SOL     OW30124   4.934   1.221   0.734
 9742SOL    HW130125   4.974   1.198   0.645
 9742SOL    HW230126   4.895   1.313   0.731
 9743SOL     OW30127   6.606   3.133   4.751
 9743SOL    HW130128   6.563   3.173   4.832
 9743SOL    HW230129   6.705   3.138   4.760
 9744SOL     OW30130   2.074   6.818   2.141
 9744SOL    HW130131   2.013   6.896   2.157
 9744SOL    HW230132   2.068   6.755   2.217
 9745SOL     OW30133   5.359   2.633   6.390
 9745SOL    HW130134   5.456   2.611   6.401
 9745SOL    HW230135   5.306   2.585   6.460
 9746SOL     OW30136   6.418   0.175   5.436
 9746SOL    HW130137   6.469   0.168   5.350
 9746SOL    HW230138   6.356   0.097   5.444
 9747SOL     OW30139   2.574   0.919   1.436
 9747SOL    HW130140   2.647   0.943   1.500
 9747SOL    HW230141   2.556   0.996   1.375
 9748SOL     OW30142   0.219   0.723   3.132
 9748SOL    HW130143   0.296   0.660   3.141
 9748SOL    HW230144   0.139   0.675   3.096
 9749SOL     OW30145   2.815   0.342   4.258
 9749SOL    HW130146   2.816   0.429   4.307
 9749SOL    HW230147   2.825   0.267   4.323
 9750SOL     OW30148   5.973   3.884   3.029
 9750SOL    HW130149   6.035   3.876   2.951
 9750SOL    HW230150   5.898   3.820   3.019
 9751SOL     OW30151   2.249   1.289   0.323
 9751SOL    HW130152   2.186   1.247   0.388
 9751SOL    HW230153   2.311   1.351   0.371
 9752SOL     OW30154   4.135   2.265   4.992
 9752SOL    HW130155   4.145   2.291   4.896
 9752SOL    HW230156   4.146   2.346   5.050
 9753SOL     OW30157   6.965   5.584   6.160
 9753SOL    HW130158   0.030   5.570   6.127
 9753SOL    HW230159   6.956   5.678   6.194
 9754SOL     OW30160   1.890   0.654   0.132
 9754SOL    HW130161   1.849   0.680   0.044
 9754SOL    HW230162   1.824   0.670   0.205
 9755SOL     OW30163   3.676   3.799   4.514
 9755SOL    HW130164   3.687   3.777   4.611
 9755SOL    HW230165   3.734   3.877   4.491
 9756SOL     OW30166   5.711   3.367   0.253
 9756SOL    HW130167   5.810   3.354   0.263
 9756SOL    HW230168   5.674   3.301   0.188
 9757SOL     OW30169   5.970   3.921   3.774
 9757SOL    HW130170   5.927   3.892   3.859
 9757SOL    HW230171   5.902   3.927   3.701
 9758SOL     OW30172   2.879   0.298   6.726
 9758SOL    HW130173   2.888   0.217   6.784
 9758SOL    HW230174   2.968   0.320   6.684
 9759SOL     OW30175   1.366   0.185   0.020
 9759SOL    HW130176   1.283   0.143   0.056
 9759SOL    HW230177   1.429   0.203   0.096
 9760SOL     OW30178   5.012   2.804   5.608
 9760SOL    HW130179   4.982   2.861   5.531
 9760SOL    HW230180   4.973   2.712   5.597
 9761SOL     OW30181   6.757   1.391   2.149
 9761SOL    HW130182   6.815   1.406   2.230
 9761SOL    HW230183   6.662   1.376   2.179
 9762SOL     OW30184   3.270   1.625   4.399
 9762SOL    HW130185   3.220   1.690   4.456
 9762SOL    HW230186   3.368   1.633   4.417
 9763SOL     OW30187   4.714   1.630   2.438
 9763SOL    HW130188   4.806   1.597   2.455
 9763SOL    HW230189   4.715   1.696   2.363
 9764SOL     OW30190   0.245   2.841   3.192
 9764SOL    HW130191   0.254   2.798   3.102
 9764SOL    HW230192   0.289   2.783   3.261
 9765SOL     OW30193   6.712   0.214   3.258
 9765SOL    HW130194   6.801   0.169   3.265
 9765SOL    HW230195   6.649   0.173   3.323
 9766SOL     OW30196   2.540   6.710   2.282
 9766SOL    HW130197   2.513   6.708   2.378
 9766SOL    HW230198   2.640   6.705   2.275
 9767SOL     OW30199   3.787   1.114   5.267
 9767SOL    HW130200   3.765   1.077   5.358
 9767SOL    HW230201   3.869   1.068   5.232
 9768SOL     OW30202   5.741   1.577   2.211
 9768SOL    HW130203   5.670   1.507   2.221
 9768SOL    HW230204   5.792   1.585   2.296
 9769SOL     OW30205   3.845   1.200   3.018
 9769SOL    HW130206   3.762   1.153   2.987
 9769SOL    HW230207   3.833   1.232   3.112
 9770SOL     OW30208   4.588   1.162   6.458
 9770SOL    HW130209   4.611   1.250   6.415
 9770SOL    HW230210   4.672   1.115   6.485
 9771SOL     OW30211   2.642   6.627   0.145
 9771SOL    HW130212   2.675   6.557   0.082
 9771SOL    HW230213   2.719   6.681   0.180
 9772SOL     OW30214   2.169   6.100   1.496
 9772SOL    HW130215   2.241   6.166   1.516
 9772SOL    HW230216   2.156   6.094   1.397
 9773SOL     OW30217   4.725   5.578   3.972
 9773SOL    HW130218   4.757   5.515   4.043
 9773SOL    HW230219   4.726   5.531   3.884
 9774SOL     OW30220   0.337   5.180   1.702
 9774SOL    HW130221   0.389   5.105   1.661
 9774SOL    HW230222   0.353   5.181   1.801
 9775SOL     OW30223   2.540   0.719   3.704
 9775SOL    HW130224   2.443   0.725   3.729
 9775SOL    HW230225   2.555   0.637   3.649
 9776SOL     OW30226   1.229   4.470   4.965
 9776SOL    HW130227   1.201   4.478   5.061
 9776SOL    HW230228   1.223   4.375   4.936
 9777SOL     OW30229   6.853   5.830   6.959
 9777SOL    HW130230   6.883   5.748   6.910
 9777SOL    HW230231   6.857   5.909   6.898
 9778SOL     OW30232   0.051   0.733   4.378
 9778SOL    HW130233   6.983   0.750   4.363
 9778SOL    HW230234   0.074   0.640   4.349
 9779SOL     OW30235   1.236   1.394   4.453
 9779SOL    HW130236   1.205   1.316   4.399
 9779SOL    HW230237   1.335   1.390   4.464
 9780SOL     OW30238   2.110   2.451   1.282
 9780SOL    HW130239   2.127   2.356   1.256
 9780SOL    HW230240   2.193   2.504   1.269
 9781SOL     OW30241   2.153   3.658   4.256
 9781SOL    HW130242   2.111   3.707   4.333
 9781SOL    HW230243   2.180   3.567   4.286
 9782SOL     OW30244   0.184   1.074   1.296
 9782SOL    HW130245   0.182   1.063   1.196
 9782SOL    HW230246   0.279   1.072   1.328
 9783SOL     OW30247   3.987   2.166   2.805
 9783SOL    HW130248   3.897   2.176   2.848
 9783SOL    HW230249   3.976   2.123   2.715
 9784SOL     OW30250   3.191   1.647   4.879
 9784SOL    HW130251   3.172   1.631   4.782
 9784SOL    HW230252   3.107   1.635   4.931
 9785SOL     OW30253   0.717   2.646   6.219
 9785SOL    HW130254   0.780   2.652   6.141
 9785SOL    HW230255   0.739   2.565   6.273
 9786SOL     OW30256   2.139   4.286   0.477
 9786SOL    HW130257   2.192   4.211   0.517
 9786SOL    HW230258   2.050   4.250   0.446
 9787SOL     OW30259   4.045   3.967   1.839
 9787SOL    HW130260   4.062   3.870   1.858
 9787SOL    HW230261   4.123   4.005   1.789
 9788SOL     OW30262   1.017   1.067   3.652
 9788SOL    HW130263   0.959   1.003   3.601
 9788SOL    HW230264   0.966   1.149   3.675
 9789SOL     OW30265   1.857   5.470   0.844
 9789SOL    HW130266   1.800   5.464   0.926
 9789SOL    HW230267   1.820   5.540   0.783
 9790SOL     OW30268   6.614   4.427   6.873
 9790SOL    HW130269   6.713   4.411   6.881
 9790SOL    HW230270   6.565   4.356   6.923
 9791SOL     OW30271   0.490   1.524   1.893
 9791SOL    HW130272   0.589   1.532   1.889
 9791SOL    HW230273   0.451   1.609   1.930
 9792SOL     OW30274   4.240   4.921   0.553
 9792SOL    HW130275   4.277   4.832   0.526
 9792SOL    HW230276   4.265   4.989   0.484
 9793SOL     OW30277   4.186   6.613   2.845
 9793SOL    HW130278   4.143   6.546   2.785
 9793SOL    HW230279   4.122   6.642   2.915
 9794SOL     OW30280   6.994   4.287   0.008
 9794SOL    HW130281   6.909   4.242   0.033
 9794SOL    HW230282   0.020   4.303   0.090
 9795SOL     OW30283   2.082   1.662   4.178
 9795SOL    HW130284   2.082   1.642   4.080
 9795SOL    HW230285   2.010   1.730   4.198
 9796SOL     OW30286   3.487   2.613   1.653
 9796SOL    HW130287   3.414   2.677   1.676
 9796SOL    HW230288   3.555   2.659   1.596
 9797SOL     OW30289   2.450   5.397   0.246
 9797SOL    HW130290   2.525   5.331   0.261
 9797SOL    HW230291   2.441   5.455   0.326
 9798SOL     OW30292   2.518   0.538   1.690
 9798SOL    HW130293   2.614   0.552   1.716
 9798SOL    HW230294   2.490   0.445   1.715
 9799SOL     OW30295   2.982   3.154   4.961
 9799SOL    HW130296   2.900   3.098   4.946
 9799SOL    HW230297   2.955   3.241   5.003
 9800SOL     OW30298   3.724   5.669   4.855
 9800SOL    HW130299   3.819   5.652   4.828
 9800SOL    HW230300   3.719   5.682   4.954
 9801SOL     OW30301   4.606   4.236   0.192
 9801SOL    HW130302   4.612   4.334   0.206
 9801SOL    HW230303   4.571   4.217   0.100
 9802SOL     OW30304   0.180   3.989   1.325
 9802SOL    HW130305   0.225   4.042   1.397
 9802SOL    HW230306   0.081   3.994   1.338
 9803SOL     OW30307   0.906   2.334   6.780
 9803SOL    HW130308   0.931   2.318   6.876
 9803SOL    HW230309   0.984   2.375   6.732
 9804SOL     OW30310   1.988   6.485   2.489
 9804SOL    HW130311   2.011   6.582   2.489
 9804SOL    HW230312   1.897   6.473   2.447
 9805SOL     OW30313   1.736   6.760   3.974
 9805SOL    HW130314   1.804   6.788   3.907
 9805SOL    HW230315   1.743   6.661   3.989
 9806SOL     OW30316   1.134   0.581   0.015
 9806SOL    HW130317   1.211   0.601   0.076
 9806SOL    HW230318   1.059   0.644   0.033
 9807SOL     OW30319   3.043   4.527   0.199
 9807SOL    HW130320   3.015   4.594   0.130
 9807SOL    HW230321   3.143   4.532   0.212
 9808SOL     OW30322   4.032   0.451   5.315
 9808SOL    HW130323   4.039   0.504   5.230
 9808SOL    HW230324   4.123   0.438   5.354
 9809SOL     OW30325   1.373   2.523   6.176
 9809SOL    HW130326   1.295   2.461   6.177
 9809SOL    HW230327   1.348   2.607   6.127
 9810SOL     OW30328   2.337   2.717   3.801
 9810SOL    HW130329   2.403   2.691   3.872
 9810SOL    HW230330   2.291   2.636   3.766
 9811SOL     OW30331   5.423   4.777   3.143
 9811SOL    HW130332   5.373   4.818   3.220
 9811SOL    HW230333   5.413   4.678   3.145
 9812SOL     OW30334   3.282   2.102   5.667
 9812SOL    HW130335   3.375   2.119   5.635
 9812SOL    HW230336   3.244   2.187   5.704
 9813SOL     OW30337   5.562   1.265   0.744
 9813SOL    HW130338   5.566   1.359   0.779
 9813SOL    HW230339   5.495   1.213   0.798
 9814SOL     OW30340   0.008   7.013   0.078
 9814SOL    HW130341   0.028   0.081   0.091
 9814SOL    HW230342   0.093   6.962   0.067
 9815SOL     OW30343   5.252   4.247   3.508
 9815SOL    HW130344   5.211   4.183   3.443
 9815SOL    HW230345   5.247   4.340   3.471
 9816SOL     OW30346   0.295   1.223   6.072
 9816SOL    HW130347   0.365   1.205   6.002
 9816SOL    HW230348   0.269   1.320   6.068
 9817SOL     OW30349   2.830   0.235   3.133
 9817SOL    HW130350   2.920   0.273   3.158
 9817SOL    HW230351   2.835   0.197   3.041
 9818SOL     OW30352   1.569   0.761   4.271
 9818SOL    HW130353   1.567   0.792   4.176
 9818SOL    HW230354   1.653   0.710   4.288
 9819SOL     OW30355   4.833   3.065   3.869
 9819SOL    HW130356   4.795   3.124   3.940
 9819SOL    HW230357   4.781   2.979   3.865
 9820SOL     OW30358   4.335   3.490   6.574
 9820SOL    HW130359   4.303   3.409   6.524
 9820SOL    HW230360   4.347   3.468   6.670
 9821SOL     OW30361   5.216   0.765   0.103
 9821SOL    HW130362   5.276   0.723   0.172
 9821SOL    HW230363   5.126   0.722   0.107
 9822SOL     OW30364   2.701   6.101   3.551
 9822SOL    HW130365   2.651   6.184   3.574
 9822SOL    HW230366   2.728   6.053   3.634
 9823SOL     OW30367   2.592   1.297   6.756
 9823SOL    HW130368   2.639   1.296   6.667
 9823SOL    HW230369   2.607   1.385   6.801
 9824SOL     OW30370   2.059   4.860   4.457
 9824SOL    HW130371   1.985   4.818   4.404
 9824SOL    HW230372   2.145   4.851   4.406
 9825SOL     OW30373   5.272   5.799   4.429
 9825SOL    HW130374   5.200   5.731   4.447
 9825SOL    HW230375   5.276   5.818   4.331
 9826SOL     OW30376   4.570   5.234   5.515
 9826SOL    HW130377   4.551   5.321   5.561
 9826SOL    HW230378   4.596   5.251   5.419
 9827SOL     OW30379   1.596   4.211   3.777
 9827SOL    HW130380   1.659   4.256   3.841
 9827SOL    HW230381   1.641   4.132   3.736
 9828SOL     OW30382   2.100   2.172   5.238
 9828SOL    HW130383   2.025   2.206   5.182
 9828SOL    HW230384   2.179   2.153   5.180
 9829SOL     OW30385   4.519   5.306   6.607
 9829SOL    HW130386   4.533   5.364   6.526
 9829SOL    HW230387   4.423   5.308   6.633
 9830SOL     OW30388   4.953   2.128   1.813
 9830SOL    HW130389   4.979   2.107   1.907
 9830SOL    HW230390   4.973   2.224   1.793
 9831SOL     OW30391   1.469   5.085   1.985
 9831SOL    HW130392   1.484   5.116   2.078
 9831SOL    HW230393   1.448   4.987   1.985
 9832SOL     OW30394   4.850   5.600   2.613
 9832SOL    HW130395   4.911   5.547   2.555
 9832SOL    HW230396   4.766   5.548   2.630
 9833SOL     OW30397   3.364   3.224   4.742
 9833SOL    HW130398   3.370   3.159   4.666
 9833SOL    HW230399   3.335   3.176   4.824
 9834SOL     OW30400   2.505   4.153   5.329
 9834SOL    HW130401   2.598   4.172   5.297
 9834SOL    HW230402   2.474   4.065   5.292
 9835SOL     OW30403   4.490   3.446   5.358
 9835SOL    HW130404   4.395   3.477   5.354
 9835SOL    HW230405   4.539   3.480   5.278
 9836SOL     OW30406   6.499   4.000   3.647
 9836SOL    HW130407   6.528   3.917   3.599
 9836SOL    HW230408   6.578   4.040   3.695
 9837SOL     OW30409   3.683   0.193   2.392
 9837SOL    HW130410   3.749   0.119   2.380
 9837SOL    HW230411   3.698   0.263   2.322
 9838SOL     OW30412   1.615   6.777   0.505
 9838SOL    HW130413   1.700   6.758   0.555
 9838SOL    HW230414   1.573   6.860   0.542
 9839SOL     OW30415   5.020   6.989   3.775
 9839SOL    HW130416   4.979   0.051   3.767
 9839SOL    HW230417   4.949   6.921   3.789
 9840SOL     OW30418   5.521   1.806   0.872
 9840SOL    HW130419   5.510   1.867   0.950
 9840SOL    HW230420   5.465   1.838   0.796
 9841SOL     OW30421   1.472   4.141   5.572
 9841SOL    HW130422   1.461   4.043   5.588
 9841SOL    HW230423   1.398   4.173   5.512
 9842SOL     OW30424   3.139   3.056   1.678
 9842SOL    HW130425   3.230   3.058   1.720
 9842SOL    HW230426   3.088   2.976   1.711
 9843SOL     OW30427   6.705   0.618   2.161
 9843SOL    HW130428   6.781   0.610   2.226
 9843SOL    HW230429   6.732   0.678   2.086
 9844SOL     OW30430   6.742   1.137   2.993
 9844SOL    HW130431   6.794   1.218   2.965
 9844SOL    HW230432   6.660   1.165   3.042
 9845SOL     OW30433   2.078   2.865   3.199
 9845SOL    HW130434   2.010   2.902   3.263
 9845SOL    HW230435   2.035   2.845   3.112
 9846SOL     OW30436   3.605   2.391   1.304
 9846SOL    HW130437   3.673   2.423   1.369
 9846SOL    HW230438   3.651   2.350   1.225
 9847SOL     OW30439   3.836   2.969   3.507
 9847SOL    HW130440   3.745   2.945   3.474
 9847SOL    HW230441   3.834   2.978   3.607
 9848SOL     OW30442   4.074   3.173   5.191
 9848SOL    HW130443   4.109   3.123   5.270
 9848SOL    HW230444   3.985   3.136   5.165
 9849SOL     OW30445   0.952   6.927   6.014
 9849SOL    HW130446   0.996   6.837   6.017
 9849SOL    HW230447   0.965   6.973   6.102
 9850SOL     OW30448   6.419   6.837   3.711
 9850SOL    HW130449   6.407   6.921   3.765
 9850SOL    HW230450   6.399   6.857   3.615
 9851SOL     OW30451   0.028   0.054   4.521
 9851SOL    HW130452   0.037   0.047   4.421
 9851SOL    HW230453   6.962   0.037   4.547
 9852SOL     OW30454   3.157   1.716   4.164
 9852SOL    HW130455   3.107   1.802   4.171
 9852SOL    HW230456   3.182   1.685   4.256
 9853SOL     OW30457   5.294   4.174   4.896
 9853SOL    HW130458   5.382   4.185   4.942
 9853SOL    HW230459   5.232   4.248   4.924
 9854SOL     OW30460   6.564   6.112   4.599
 9854SOL    HW130461   6.587   6.175   4.525
 9854SOL    HW230462   6.632   6.038   4.602
 9855SOL     OW30463   1.933   3.548   1.140
 9855SOL    HW130464   1.941   3.451   1.117
 9855SOL    HW230465   1.858   3.560   1.206
 9856SOL     OW30466   4.880   4.321   4.768
 9856SOL    HW130467   4.882   4.223   4.785
 9856SOL    HW230468   4.792   4.347   4.728
 9857SOL     OW30469   4.850   3.334   2.677
 9857SOL    HW130470   4.941   3.314   2.640
 9857SOL    HW230471   4.787   3.261   2.652
 9858SOL     OW30472   6.644   0.129   1.303
 9858SOL    HW130473   6.609   0.110   1.211
 9858SOL    HW230474   6.629   0.226   1.324
 9859SOL     OW30475   6.184   6.362   2.405
 9859SOL    HW130476   6.230   6.304   2.472
 9859SOL    HW230477   6.100   6.318   2.374
 9860SOL     OW30478   1.939   2.565   3.619
 9860SOL    HW130479   1.934   2.549   3.718
 9860SOL    HW230480   1.854   2.533   3.576
 9861SOL     OW30481   2.727   0.517   3.326
 9861SOL    HW130482   2.746   0.441   3.264
 9861SOL    HW230483   2.695   0.596   3.274
 9862SOL     OW30484   3.044   2.837   6.888
 9862SOL    HW130485   3.110   2.766   6.862
 9862SOL    HW230486   2.958   2.794   6.915
 9863SOL     OW30487   3.307   6.761   2.381
 9863SOL    HW130488   3.291   6.791   2.287
 9863SOL    HW230489   3.295   6.838   2.444
 9864SOL     OW30490   2.942   0.315   3.733
 9864SOL    HW130491   2.887   0.240   3.695
 9864SOL    HW230492   3.027   0.324   3.680
 9865SOL     OW30493   1.470   6.870   4.639
 9865SOL    HW130494   1.462   6.821   4.726
 9865SOL    HW230495   1.557   6.848   4.596
 9866SOL     OW30496   5.148   4.532   5.963
 9866SOL    HW130497   5.154   4.433   5.972
 9866SOL    HW230498   5.150   4.573   6.055
 9867SOL     OW30499   6.871   1.649   1.026
 9867SOL    HW130500   6.862   1.660   1.125
 9867SOL    HW230501   6.901   1.735   0.985
 9868SOL     OW30502   0.193   3.403   4.701
 9868SOL    HW130503   0.288   3.374   4.696
 9868SOL    HW230504   0.164   3.436   4.611
 9869SOL     OW30505   0.393   2.529   1.493
 9869SOL    HW130506   0.419   2.497   1.402
 9869SOL    HW230507   0.358   2.451   1.546
 9870SOL     OW30508   4.158   5.564   2.662
 9870SOL    HW130509   4.143   5.605   2.572
 9870SOL    HW230510   4.090   5.492   2.678
 9871SOL     OW30511   6.546   4.671   5.871
 9871SOL    HW130512   6.528   4.591   5.927
 9871SOL    HW230513   6.478   4.677   5.798
 9872SOL     OW30514   3.144   5.591   5.018
 9872SOL    HW130515   3.222   5.566   4.962
 9872SOL    HW230516   3.171   5.594   5.114
 9873SOL     OW30517   2.350   2.618   0.936
 9873SOL    HW130518   2.320   2.528   0.968
 9873SOL    HW230519   2.371   2.613   0.838
 9874SOL     OW30520   5.577   3.337   5.095
 9874SOL    HW130521   5.479   3.331   5.110
 9874SOL    HW230522   5.620   3.380   5.174
 9875SOL     OW30523   6.090   5.599   1.913
 9875SOL    HW130524   6.177   5.551   1.906
 9875SOL    HW230525   6.072   5.623   2.009
 9876SOL     OW30526   5.374   0.722   3.850
 9876SOL    HW130527   5.307   0.747   3.780
 9876SOL    HW230528   5.364   0.626   3.873
 9877SOL     OW30529   6.373   4.626   4.479
 9877SOL    HW130530   6.311   4.677   4.538
 9877SOL    HW230531   6.368   4.664   4.386
 9878SOL     OW30532   2.675   3.896   5.548
 9878SOL    HW130533   2.665   3.977   5.605
 9878SOL    HW230534   2.630   3.818   5.592
 9879SOL     OW30535   4.970   5.708   5.351
 9879SOL    HW130536   5.038   5.697   5.423
 9879SOL    HW230537   5.005   5.770   5.281
 9880SOL     OW30538   3.129   0.890   0.575
 9880SOL    HW130539   3.208   0.881   0.635
 9880SOL    HW230540   3.092   0.800   0.554
 9881SOL     OW30541   0.413   1.657   5.268
 9881SOL    HW130542   0.486   1.627   5.206
 9881SOL    HW230543   0.346   1.712   5.218
 9882SOL     OW30544   1.770   3.670   5.574
 9882SOL    HW130545   1.861   3.666   5.614
 9882SOL    HW230546   1.766   3.610   5.494
 9883SOL     OW30547   1.213   6.215   1.055
 9883SOL    HW130548   1.195   6.313   1.061
 9883SOL    HW230549   1.258   6.195   0.968
 9884SOL     OW30550   4.807   1.521   0.977
 9884SOL    HW130551   4.836   1.538   0.883
 9884SOL    HW230552   4.707   1.523   0.981
 9885SOL     OW30553   6.926   2.381   4.552
 9885SOL    HW130554   6.828   2.362   4.544
 9885SOL    HW230555   6.952   2.385   4.649
 9886SOL     OW30556   1.123   5.172   1.529
 9886SOL    HW130557   1.065   5.155   1.449
 9886SOL    HW230558   1.214   5.197   1.498
 9887SOL     OW30559   4.039   0.232   0.144
 9887SOL    HW130560   4.033   0.140   0.106
 9887SOL    HW230561   4.048   0.299   0.070
 9888SOL     OW30562   5.210   5.525   2.839
 9888SOL    HW130563   5.152   5.444   2.837
 9888SOL    HW230564   5.199   5.576   2.753
 9889SOL     OW30565   6.236   4.729   0.908
 9889SOL    HW130566   6.196   4.761   0.822
 9889SOL    HW230567   6.336   4.725   0.899
 9890SOL     OW30568   0.534   2.125   1.267
 9890SOL    HW130569   0.556   2.192   1.196
 9890SOL    HW230570   0.604   2.126   1.338
 9891SOL     OW30571   6.241   3.384   1.502
 9891SOL    HW130572   6.297   3.452   1.549
 9891SOL    HW230573   6.187   3.333   1.569
 9892SOL     OW30574   1.275   5.174   2.569
 9892SOL    HW130575   1.227   5.233   2.504
 9892SOL    HW230576   1.371   5.203   2.575
 9893SOL     OW30577   6.506   0.364   2.425
 9893SOL    HW130578   6.570   0.417   2.481
 9893SOL    HW230579   6.480   0.281   2.474
 9894SOL     OW30580   3.182   2.243   6.560
 9894SOL    HW130581   3.159   2.310   6.632
 9894SOL    HW230582   3.117   2.251   6.485
 9895SOL     OW30583   5.294   3.275   5.406
 9895SOL    HW130584   5.295   3.176   5.392
 9895SOL    HW230585   5.223   3.316   5.349
 9896SOL     OW30586   5.287   1.091   0.442
 9896SOL    HW130587   5.303   1.189   0.442
 9896SOL    HW230588   5.351   1.046   0.379
 9897SOL     OW30589   5.439   6.929   2.173
 9897SOL    HW130590   5.478   7.015   2.208
 9897SOL    HW230591   5.418   6.868   2.250
 9898SOL     OW30592   0.790   4.683   5.728
 9898SOL    HW130593   0.805   4.781   5.743
 9898SOL    HW230594   0.729   4.671   5.650
 9899SOL     OW30595   0.535   5.539   2.477
 9899SOL    HW130596   0.617   5.483   2.492
 9899SOL    HW230597   0.539   5.582   2.387
 9900SOL     OW30598   1.798   3.409   2.496
 9900SOL    HW130599   1.804   3.369   2.404
 9900SOL    HW230600   1.887   3.447   2.521
 9901SOL     OW30601   2.512   0.929   0.139
 9901SOL    HW130602   2.593   0.983   0.116
 9901SOL    HW230603   2.437   0.955   0.077
 9902SOL     OW30604   3.999   4.241   0.962
 9902SOL    HW130605   4.067   4.278   1.025
 9902SOL    HW230606   4.039   4.232   0.871
 9903SOL     OW30607   5.064   1.848   1.560
 9903SOL    HW130608   5.122   1.908   1.616
 9903SOL    HW230609   5.117   1.769   1.530
 9904SOL     OW30610   0.483   3.443   5.984
 9904SOL    HW130611   0.394   3.397   5.980
 9904SOL    HW230612   0.543   3.392   6.046
 9905SOL     OW30613   1.635   0.615   6.353
 9905SOL    HW130614   1.707   0.660   6.301
 9905SOL    HW230615   1.672   0.577   6.438
 9906SOL     OW30616   1.693   3.511   0.433
 9906SOL    HW130617   1.755   3.558   0.496
 9906SOL    HW230618   1.605   3.495   0.477
 9907SOL     OW30619   1.530   1.053   2.062
 9907SOL    HW130620   1.603   1.102   2.014
 9907SOL    HW230621   1.544   1.060   2.160
 9908SOL     OW30622   0.768   2.624   5.797
 9908SOL    HW130623   0.798   2.700   5.739
 9908SOL    HW230624   0.846   2.566   5.819
 9909SOL     OW30625   3.915   0.698   2.837
 9909SOL    HW130626   3.841   0.640   2.870
 9909SOL    HW230627   3.884   0.752   2.759
 9910SOL     OW30628   1.825   5.198   1.533
 9910SOL    HW130629   1.741   5.178   1.584
 9910SOL    HW230630   1.905   5.180   1.591
 9911SOL     OW30631   3.657   5.953   2.291
 9911SOL    HW130632   3.601   5.950   2.208
 9911SOL    HW230633   3.699   5.863   2.305
 9912SOL     OW30634   4.566   1.122   1.899
 9912SOL    HW130635   4.593   1.203   1.847
 9912SOL    HW230636   4.485   1.142   1.953
 9913SOL     OW30637   6.014   3.084   1.178
 9913SOL    HW130638   5.994   3.004   1.121
 9913SOL    HW230639   5.959   3.161   1.146
 9914SOL     OW30640   0.106   6.688   5.165
 9914SOL    HW130641   0.205   6.692   5.159
 9914SOL    HW230642   0.079   6.618   5.232
 9915SOL     OW30643   5.843   2.344   3.367
 9915SOL    HW130644   5.872   2.252   3.342
 9915SOL    HW230645   5.861   2.360   3.464
 9916SOL     OW30646   1.808   2.313   3.756
 9916SOL    HW130647   1.747   2.254   3.809
 9916SOL    HW230648   1.815   2.278   3.663
 9917SOL     OW30649   3.448   3.659   5.213
 9917SOL    HW130650   3.526   3.624   5.263
 9917SOL    HW230651   3.366   3.653   5.270
 9918SOL     OW30652   1.013   2.926   1.984
 9918SOL    HW130653   1.084   2.884   2.040
 9918SOL    HW230654   1.055   2.988   1.917
 9919SOL     OW30655   2.252   5.918   2.520
 9919SOL    HW130656   2.187   5.974   2.573
 9919SOL    HW230657   2.312   5.978   2.468
 9920SOL     OW30658   4.165   0.582   2.829
 9920SOL    HW130659   4.075   0.622   2.817
 9920SOL    HW230660   4.168   0.492   2.786
 9921SOL     OW30661   4.596   0.039   5.092
 9921SOL    HW130662   4.519   0.102   5.087
 9921SOL    HW230663   4.680   0.090   5.107
 9922SOL     OW30664   4.707   4.440   1.232
 9922SOL    HW130665   4.769   4.415   1.157
 9922SOL    HW230666   4.753   4.505   1.292
 9923SOL     OW30667   6.384   3.157   0.216
 9923SOL    HW130668   6.411   3.244   0.174
 9923SOL    HW230669   6.433   3.146   0.303
 9924SOL     OW30670   4.912   1.771   2.596
 9924SOL    HW130671   4.931   1.836   2.523
 9924SOL    HW230672   4.843   1.808   2.657
 9925SOL     OW30673   1.381   4.959   3.678
 9925SOL    HW130674   1.424   5.048   3.695
 9925SOL    HW230675   1.295   4.972   3.629
 9926SOL     OW30676   4.472   2.792   0.573
 9926SOL    HW130677   4.487   2.825   0.479
 9926SOL    HW230678   4.453   2.694   0.570
 9927SOL     OW30679   1.233   1.101   0.914
 9927SOL    HW130680   1.300   1.032   0.942
 9927SOL    HW230681   1.146   1.083   0.960
 9928SOL     OW30682   5.458   3.417   2.827
 9928SOL    HW130683   5.486   3.363   2.906
 9928SOL    HW230684   5.391   3.365   2.774
 9929SOL     OW30685   3.055   4.017   4.538
 9929SOL    HW130686   3.127   4.071   4.495
 9929SOL    HW230687   3.047   4.042   4.634
 9930SOL     OW30688   0.482   0.375   6.204
 9930SOL    HW130689   0.492   0.397   6.301
 9930SOL    HW230690   0.522   0.448   6.150
 9931SOL     OW30691   0.285   5.579   3.935
 9931SOL    HW130692   0.334   5.494   3.953
 9931SOL    HW230693   0.242   5.574   3.845
 9932SOL     OW30694   2.897   2.048   6.158
 9932SOL    HW130695   2.928   2.055   6.063
 9932SOL    HW230696   2.942   2.119   6.213
 9933SOL     OW30697   1.573   0.024   3.951
 9933SOL    HW130698   1.620   0.093   4.008
 9933SOL    HW230699   1.611   6.963   3.970
 9934SOL     OW30700   6.161   1.791   6.756
 9934SOL    HW130701   6.157   1.701   6.799
 9934SOL    HW230702   6.254   1.828   6.763
 9935SOL     OW30703   3.236   0.182   0.931
 9935SOL    HW130704   3.208   0.191   0.836
 9935SOL    HW230705   3.164   0.134   0.983
 9936SOL     OW30706   6.333   4.908   0.615
 9936SOL    HW130707   6.297   4.831   0.561
 9936SOL    HW230708   6.289   4.910   0.705
 9937SOL     OW30709   0.798   1.754   1.967
 9937SOL    HW130710   0.749   1.684   1.916
 9937SOL    HW230711   0.837   1.714   2.050
 9938SOL     OW30712   5.509   6.341   4.284
 9938SOL    HW130713   5.451   6.359   4.363
 9938SOL    HW230714   5.494   6.247   4.253
 9939SOL     OW30715   3.268   2.874   0.564
 9939SOL    HW130716   3.309   2.822   0.639
 9939SOL    HW230717   3.329   2.872   0.485
 9940SOL     OW30718   1.468   0.501   2.347
 9940SOL    HW130719   1.404   0.448   2.292
 9940SOL    HW230720   1.541   0.536   2.289
 9941SOL     OW30721   3.074   5.100   5.941
 9941SOL    HW130722   3.016   5.025   5.910
 9941SOL    HW230723   3.018   5.182   5.958
 9942SOL     OW30724   3.844   5.676   2.269
 9942SOL    HW130725   3.843   5.591   2.215
 9942SOL    HW230726   3.848   5.754   2.207
 9943SOL     OW30727   0.977   4.260   6.645
 9943SOL    HW130728   0.903   4.265   6.712
 9943SOL    HW230729   0.995   4.164   6.623
 9944SOL     OW30730   0.961   4.771   6.377
 9944SOL    HW130731   0.988   4.738   6.467
 9944SOL    HW230732   0.896   4.706   6.337
 9945SOL     OW30733   5.009   4.817   6.777
 9945SOL    HW130734   4.990   4.909   6.741
 9945SOL    HW230735   5.098   4.787   6.745
 9946SOL     OW30736   5.925   0.328   3.206
 9946SOL    HW130737   6.003   0.390   3.218
 9946SOL    HW230738   5.931   0.283   3.117
 9947SOL     OW30739   2.998   2.248   4.769
 9947SOL    HW130740   3.047   2.264   4.854
 9947SOL    HW230741   2.993   2.333   4.716
 9948SOL     OW30742   6.106   5.968   4.831
 9948SOL    HW130743   6.139   6.049   4.782
 9948SOL    HW230744   6.009   5.979   4.851
 9949SOL     OW30745   0.028   4.584   3.453
 9949SOL    HW130746   7.023   4.678   3.460
 9949SOL    HW230747   0.064   4.554   3.541
 9950SOL     OW30748   6.111   5.978   6.769
 9950SOL    HW130749   6.060   5.989   6.854
 9950SOL    HW230750   6.162   5.892   6.771
 9951SOL     OW30751   1.014   2.527   3.518
 9951SOL    HW130752   0.960   2.446   3.540
 9951SOL    HW230753   1.034   2.528   3.420
 9952SOL     OW30754   2.192   3.653   1.158
 9952SOL    HW130755   2.201   3.682   1.062
 9952SOL    HW230756   2.096   3.637   1.179
 9953SOL     OW30757   6.033   2.128   3.878
 9953SOL    HW130758   6.073   2.219   3.891
 9953SOL    HW230759   6.017   2.086   3.967
 9954SOL     OW30760   1.177   6.976   4.944
 9954SOL    HW130761   1.215   6.886   4.920
 9954SOL    HW230762   1.140   6.974   5.036
 9955SOL     OW30763   3.862   3.580   6.346
 9955SOL    HW130764   3.773   3.626   6.344
 9955SOL    HW230765   3.903   3.591   6.436
 9956SOL     OW30766   0.925   4.794   3.794
 9956SOL    HW130767   0.961   4.705   3.767
 9956SOL    HW230768   0.972   4.826   3.876
 9957SOL     OW30769   5.724   0.299   2.091
 9957SOL    HW130770   5.685   0.364   2.027
 9957SOL    HW230771   5.792   0.345   2.148
 9958SOL     OW30772   2.539   6.713   6.925
 9958SOL    HW130773   2.612   6.676   6.867
 9958SOL    HW230774   2.553   6.682   7.019
 9959SOL     OW30775   4.135   3.697   3.632
 9959SOL    HW130776   4.218   3.749   3.650
 9959SOL    HW230777   4.116   3.697   3.534
 9960SOL     OW30778   0.957   6.797   2.105
 9960SOL    HW130779   0.886   6.726   2.097
 9960SOL    HW230780   1.010   6.781   2.188
 9961SOL     OW30781   1.508   5.210   3.656
 9961SOL    HW130782   1.493   5.183   3.561
 9961SOL    HW230783   1.506   5.310   3.663
 9962SOL     OW30784   4.394   0.307   2.609
 9962SOL    HW130785   4.369   0.352   2.523
 9962SOL    HW230786   4.493   0.303   2.617
 9963SOL     OW30787   2.287   2.702   5.664
 9963SOL    HW130788   2.322   2.637   5.731
 9963SOL    HW230789   2.316   2.675   5.572
 9964SOL     OW30790   4.283   5.188   5.935
 9964SOL    HW130791   4.311   5.276   5.972
 9964SOL    HW230792   4.364   5.136   5.907
 9965SOL     OW30793   3.605   4.694   5.338
 9965SOL    HW130794   3.514   4.710   5.300
 9965SOL    HW230795   3.659   4.778   5.331
 9966SOL     OW30796   2.396   5.414   2.465
 9966SOL    HW130797   2.365   5.504   2.496
 9966SOL    HW230798   2.338   5.383   2.390
 9967SOL     OW30799   4.900   5.741   2.187
 9967SOL    HW130800   4.940   5.761   2.098
 9967SOL    HW230801   4.813   5.693   2.176
 9968SOL     OW30802   3.140   5.657   6.777
 9968SOL    HW130803   3.151   5.619   6.686
 9968SOL    HW230804   3.183   5.597   6.844
 9969SOL     OW30805   1.007   3.150   4.023
 9969SOL    HW130806   1.052   3.065   4.047
 9969SOL    HW230807   1.073   3.225   4.026
 9970SOL     OW30808   6.585   4.455   2.268
 9970SOL    HW130809   6.509   4.520   2.265
 9970SOL    HW230810   6.558   4.371   2.222
 9971SOL     OW30811   2.629   4.559   0.230
 9971SOL    HW130812   2.678   4.475   0.208
 9971SOL    HW230813   2.557   4.575   0.163
 9972SOL     OW30814   3.626   4.692   0.239
 9972SOL    HW130815   3.550   4.683   0.302
 9972SOL    HW230816   3.626   4.614   0.175
 9973SOL     OW30817   3.669   1.927   5.091
 9973SOL    HW130818   3.672   1.904   4.994
 9973SOL    HW230819   3.736   1.998   5.111
 9974SOL     OW30820   6.859   3.446   3.182
 9974SOL    HW130821   6.958   3.448   3.198
 9974SOL    HW230822   6.818   3.373   3.237
 9975SOL     OW30823   0.125   4.569   0.041
 9975SOL    HW130824   0.035   4.526   0.051
 9975SOL    HW230825   0.132   4.611   6.979
 9976SOL     OW30826   6.403   5.397   5.177
 9976SOL    HW130827   6.474   5.359   5.237
 9976SOL    HW230828   6.399   5.345   5.092
 9977SOL     OW30829   6.736   5.406   5.788
 9977SOL    HW130830   6.673   5.428   5.862
 9977SOL    HW230831   6.822   5.371   5.827
 9978SOL     OW30832   6.243   2.130   4.604
 9978SOL    HW130833   6.241   2.183   4.520
 9978SOL    HW230834   6.189   2.047   4.593
 9979SOL     OW30835   6.518   4.744   6.193
 9979SOL    HW130836   6.471   4.666   6.152
 9979SOL    HW230837   6.553   4.804   6.121
 9980SOL     OW30838   1.438   0.919   6.748
 9980SOL    HW130839   1.531   0.953   6.757
 9980SOL    HW230840   1.427   0.873   6.660
 9981SOL     OW30841   2.449   2.093   1.336
 9981SOL    HW130842   2.535   2.140   1.315
 9981SOL    HW230843   2.413   2.051   1.252
 9982SOL     OW30844   1.035   1.932   3.040
 9982SOL    HW130845   1.005   1.988   3.117
 9982SOL    HW230846   0.964   1.933   2.969
 9983SOL     OW30847   1.038   1.464   1.634
 9983SOL    HW130848   0.945   1.495   1.616
 9983SOL    HW230849   1.100   1.500   1.564
 9984SOL     OW30850   0.890   0.551   0.756
 9984SOL    HW130851   0.821   0.481   0.774
 9984SOL    HW230852   0.945   0.566   0.838
 9985SOL     OW30853   3.354   0.372   1.380
 9985SOL    HW130854   3.387   0.440   1.445
 9985SOL    HW230855   3.389   0.393   1.289
 9986SOL     OW30856   4.724   4.247   6.543
 9986SOL    HW130857   4.684   4.162   6.577
 9986SOL    HW230858   4.795   4.226   6.476
 9987SOL     OW30859   5.546   2.186   2.495
 9987SOL    HW130860   5.629   2.180   2.439
 9987SOL    HW230861   5.466   2.161   2.440
 9988SOL     OW30862   0.032   5.492   4.736
 9988SOL    HW130863   0.050   5.423   4.806
 9988SOL    HW230864   6.975   5.538   4.755
 9989SOL     OW30865   5.232   3.430   3.217
 9989SOL    HW130866   5.279   3.349   3.183
 9989SOL    HW230867   5.133   3.415   3.216
 9990SOL     OW30868   2.221   6.883   3.336
 9990SOL    HW130869   2.244   6.891   3.433
 9990SOL    HW230870   2.296   6.835   3.288
 9991SOL     OW30871   1.100   3.011   4.512
 9991SOL    HW130872   1.171   2.990   4.444
 9991SOL    HW230873   1.123   2.967   4.598
 9992SOL     OW30874   4.948   3.653   0.571
 9992SOL    HW130875   4.885   3.579   0.599
 9992SOL    HW230876   4.919   3.739   0.613
 9993SOL     OW30877   4.400   6.696   2.709
 9993SOL    HW130878   4.328   6.653   2.764
 9993SOL    HW230879   4.389   6.669   2.613
 9994SOL     OW30880   6.807   4.023   4.285
 9994SOL    HW130881   6.856   4.093   4.336
 9994SOL    HW230882   6.872   3.956   4.249
 9995SOL     OW30883   3.114   0.262   3.200
 9995SOL    HW130884   3.102   0.164   3.185
 9995SOL    HW230885   3.207   0.279   3.233
 9996SOL     OW30886   3.119   2.224   1.305
 9996SOL    HW130887   3.035   2.253   1.351
 9996SOL    HW230888   3.196   2.279   1.338
 9997SOL     OW30889   4.197   1.789   1.057
 9997SOL    HW130890   4.236   1.810   1.147
 9997SOL    HW230891   4.258   1.822   0.985
 9998SOL     OW30892   6.267   3.715   2.214
 9998SOL    HW130893   6.265   3.627   2.166
 9998SOL    HW230894   6.280   3.789   2.148
 9999SOL     OW30895   6.086   4.999   4.739
 9999SOL    HW130896   6.158   4.940   4.776
 9999SOL    HW230897   6.115   5.035   4.650
10000SOL     OW30898   6.356   1.921   6.364
10000SOL    HW130899   6.388   1.843   6.309
10000SOL    HW230900   6.283   1.969   6.315
10001SOL     OW30901   5.324   0.905   1.614
10001SOL    HW130902   5.270   0.838   1.665
10001SOL    HW230903   5.421   0.896   1.637
10002SOL     OW30904   1.424   1.089   1.605
10002SOL    HW130905   1.517   1.095   1.569
10002SOL    HW230906   1.390   0.995   1.594
10003SOL     OW30907   3.920   1.987   3.562
10003SOL    HW130908   3.982   2.064   3.544
10003SOL    HW230909   3.872   1.963   3.478
10004SOL     OW30910   5.397   2.980   4.798
10004SOL    HW130911   5.332   2.939   4.734
10004SOL    HW230912   5.368   2.962   4.892
10005SOL     OW30913   4.694   5.666   3.138
10005SOL    HW130914   4.780   5.705   3.106
10005SOL    HW230915   4.698   5.650   3.236
10006SOL     OW30916   5.348   1.078   4.517
10006SOL    HW130917   5.376   0.983   4.503
10006SOL    HW230918   5.299   1.111   4.436
10007SOL     OW30919   0.832   4.403   4.886
10007SOL    HW130920   0.841   4.442   4.978
10007SOL    HW230921   0.770   4.324   4.890
10008SOL     OW30922   4.177   1.170   3.767
10008SOL    HW130923   4.219   1.196   3.680
10008SOL    HW230924   4.162   1.252   3.822
10009SOL     OW30925   1.994   3.384   1.529
10009SOL    HW130926   2.068   3.429   1.578
10009SOL    HW230927   1.939   3.452   1.481
10010SOL     OW30928   2.064   6.714   0.455
10010SOL    HW130929   2.154   6.675   0.479
10010SOL    HW230930   2.076   6.810   0.429
10011SOL     OW30931   0.493   2.433   5.294
10011SOL    HW130932   0.578   2.396   5.256
10011SOL    HW230933   0.513   2.518   5.343
10012SOL     OW30934   4.982   6.790   2.674
10012SOL    HW130935   5.077   6.782   2.704
10012SOL    HW230936   4.950   6.883   2.688
10013SOL     OW30937   2.246   1.641   4.481
10013SOL    HW130938   2.258   1.657   4.579
10013SOL    HW230939   2.233   1.728   4.434
10014SOL     OW30940   6.849   2.107   0.193
10014SOL    HW130941   6.781   2.160   0.245
10014SOL    HW230942   6.931   2.162   0.180
10015SOL     OW30943   3.104   4.266   0.393
10015SOL    HW130944   3.084   4.363   0.403
10015SOL    HW230945   3.077   4.217   0.476
10016SOL     OW30946   2.310   0.076   4.693
10016SOL    HW130947   2.307   0.014   4.771
10016SOL    HW230948   2.242   0.048   4.625
10017SOL     OW30949   1.812   2.211   2.242
10017SOL    HW130950   1.839   2.204   2.338
10017SOL    HW230951   1.717   2.180   2.233
10018SOL     OW30952   6.143   5.471   6.121
10018SOL    HW130953   6.104   5.411   6.051
10018SOL    HW230954   6.069   5.515   6.172
10019SOL     OW30955   0.865   2.075   3.545
10019SOL    HW130956   0.947   2.116   3.584
10019SOL    HW230957   0.793   2.144   3.536
10020SOL     OW30958   0.195   1.899   1.131
10020SOL    HW130959   0.111   1.846   1.119
10020SOL    HW230960   0.237   1.917   1.042
10021SOL     OW30961   0.678   2.860   1.648
10021SOL    HW130962   0.775   2.840   1.639
10021SOL    HW230963   0.646   2.833   1.739
10022SOL     OW30964   3.944   6.823   1.151
10022SOL    HW130965   3.902   6.734   1.136
10022SOL    HW230966   3.912   6.887   1.081
10023SOL     OW30967   1.930   5.272   5.711
10023SOL    HW130968   1.861   5.200   5.709
10023SOL    HW230969   1.963   5.284   5.804
10024SOL     OW30970   2.083   6.975   1.864
10024SOL    HW130971   2.058   6.894   1.918
10024SOL    HW230972   2.158   7.023   1.908
10025SOL     OW30973   1.377   1.323   0.998
10025SOL    HW130974   1.317   1.248   0.970
10025SOL    HW230975   1.461   1.285   1.039
10026SOL     OW30976   4.792   6.210   3.729
10026SOL    HW130977   4.717   6.191   3.792
10026SOL    HW230978   4.862   6.265   3.776
10027SOL     OW30979   1.016   4.758   5.079
10027SOL    HW130980   0.981   4.827   5.142
10027SOL    HW230981   0.961   4.675   5.087
10028SOL     OW30982   1.221   1.562   1.476
10028SOL    HW130983   1.297   1.497   1.474
10028SOL    HW230984   1.226   1.622   1.395
10029SOL     OW30985   3.317   1.785   3.526
10029SOL    HW130986   3.244   1.749   3.584
10029SOL    HW230987   3.405   1.746   3.557
10030SOL     OW30988   2.432   6.836   3.969
10030SOL    HW130989   2.340   6.840   4.009
10030SOL    HW230990   2.453   6.923   3.925
10031SOL     OW30991   6.084   5.063   3.422
10031SOL    HW130992   6.155   5.044   3.356
10031SOL    HW230993   6.106   5.146   3.473
10032SOL     OW30994   3.366   0.901   5.276
10032SOL    HW130995   3.384   0.893   5.374
10032SOL    HW230996   3.339   0.812   5.240
10033SOL     OW30997   4.595   2.262   4.136
10033SOL    HW130998   4.619   2.169   4.109
10033SOL    HW230999   4.548   2.308   4.061
10034SOL     OW31000   3.063   0.107   4.162
10034SOL    HW131001   3.086   0.175   4.093
10034SOL    HW231002   2.969   0.075   4.146
10035SOL     OW31003   0.004   4.442   2.214
10035SOL    HW131004   0.034   4.529   2.175
10035SOL    HW231005   0.080   4.399   2.262
10036SOL     OW31006   5.637   1.607   1.229
10036SOL    HW131007   5.716   1.552   1.202
10036SOL    HW231008   5.604   1.577   1.318
10037SOL     OW31009   5.728   1.540   0.900
10037SOL    HW131010   5.783   1.534   0.984
10037SOL    HW231011   5.645   1.593   0.918
10038SOL     OW31012   4.208   1.214   6.524
10038SOL    HW131013   4.249   1.125   6.505
10038SOL    HW231014   4.109   1.203   6.537
10039SOL     OW31015   3.258   0.495   4.243
10039SOL    HW131016   3.213   0.407   4.227
10039SOL    HW231017   3.345   0.479   4.291
10040SOL     OW31018   3.986   5.927   6.322
10040SOL    HW131019   4.029   5.867   6.255
10040SOL    HW231020   3.918   5.985   6.277
10041SOL     OW31021   4.412   5.656   6.066
10041SOL    HW131022   4.325   5.704   6.075
10041SOL    HW231023   4.485   5.713   6.102
10042SOL     OW31024   1.169   1.662   4.364
10042SOL    HW131025   1.191   1.579   4.415
10042SOL    HW231026   1.073   1.686   4.379
10043SOL     OW31027   6.582   2.149   4.759
10043SOL    HW131028   6.675   2.164   4.792
10043SOL    HW231029   6.585   2.121   4.663
10044SOL     OW31030   2.885   1.500   5.248
10044SOL    HW131031   2.868   1.596   5.269
10044SOL    HW231032   2.874   1.445   5.331
10045SOL     OW31033   4.133   0.136   3.065
10045SOL    HW131034   4.124   0.037   3.054
10045SOL    HW231035   4.223   0.164   3.033
10046SOL     OW31036   2.399   3.962   0.780
10046SOL    HW131037   2.368   4.013   0.699
10046SOL    HW231038   2.320   3.940   0.837
10047SOL     OW31039   0.524   3.870   5.332
10047SOL    HW131040   0.510   3.966   5.355
10047SOL    HW231041   0.524   3.860   5.232
10048SOL     OW31042   6.162   0.795   3.083
10048SOL    HW131043   6.146   0.838   2.994
10048SOL    HW231044   6.194   0.863   3.148
10049SOL     OW31045   0.367   1.606   6.708
10049SOL    HW131046   0.364   1.549   6.790
10049SOL    HW231047   0.452   1.658   6.706
10050SOL     OW31048   5.395   3.903   4.686
10050SOL    HW131049   5.459   3.831   4.711
10050SOL    HW231050   5.313   3.896   4.743
10051SOL     OW31051   6.017   3.474   6.036
10051SOL    HW131052   6.082   3.547   6.019
10051SOL    HW231053   6.053   3.388   5.998
10052SOL     OW31054   1.727   2.018   3.119
10052SOL    HW131055   1.637   1.978   3.136
10052SOL    HW231056   1.726   2.064   3.030
10053SOL     OW31057   3.923   5.843   3.127
10053SOL    HW131058   3.969   5.905   3.190
10053SOL    HW231059   3.943   5.749   3.151
10054SOL     OW31060   5.786   6.027   6.807
10054SOL    HW131061   5.809   6.109   6.756
10054SOL    HW231062   5.838   5.950   6.772
10055SOL     OW31063   5.712   1.053   4.731
10055SOL    HW131064   5.637   1.099   4.685
10055SOL    HW231065   5.678   1.009   4.814
10056SOL     OW31066   5.205   4.379   3.060
10056SOL    HW131067   5.257   4.446   3.113
10056SOL    HW231068   5.181   4.417   2.971
10057SOL     OW31069   4.334   2.477   5.609
10057SOL    HW131070   4.425   2.481   5.569
10057SOL    HW231071   4.330   2.404   5.677
10058SOL     OW31072   6.491   3.298   5.226
10058SOL    HW131073   6.527   3.390   5.209
10058SOL    HW231074   6.566   3.239   5.256
10059SOL     OW31075   6.655   1.001   0.584
10059SOL    HW131076   6.748   0.968   0.598
10059SOL    HW231077   6.629   0.987   0.488
10060SOL     OW31078   1.768   2.882   2.147
10060SOL    HW131079   1.733   2.810   2.207
10060SOL    HW231080   1.861   2.906   2.175
10061SOL     OW31081   4.529   0.973   4.165
10061SOL    HW131082   4.568   1.052   4.213
10061SOL    HW231083   4.488   1.004   4.078
10062SOL     OW31084   5.651   0.733   3.831
10062SOL    HW131085   5.556   0.714   3.854
10062SOL    HW231086   5.656   0.815   3.774
10063SOL     OW31087   2.844   0.918   4.165
10063SOL    HW131088   2.826   0.846   4.098
10063SOL    HW231089   2.941   0.915   4.191
10064SOL     OW31090   4.964   6.808   0.062
10064SOL    HW131091   4.925   6.728   0.017
10064SOL    HW231092   4.896   6.882   0.062
10065SOL     OW31093   3.286   0.105   2.791
10065SOL    HW131094   3.364   0.155   2.753
10065SOL    HW231095   3.213   0.168   2.815
10066SOL     OW31096   0.321   2.664   4.526
10066SOL    HW131097   0.323   2.758   4.490
10066SOL    HW231098   0.229   2.628   4.519
10067SOL     OW31099   0.483   3.898   5.048
10067SOL    HW131100   0.440   3.810   5.069
10067SOL    HW231101   0.422   3.951   4.989
10068SOL     OW31102   0.280   3.451   3.020
10068SOL    HW131103   0.246   3.527   2.965
10068SOL    HW231104   0.377   3.467   3.041
10069SOL     OW31105   3.035   5.597   2.482
10069SOL    HW131106   2.953   5.614   2.429
10069SOL    HW231107   3.113   5.583   2.421
10070SOL     OW31108   0.343   6.008   5.186
10070SOL    HW131109   0.377   6.028   5.278
10070SOL    HW231110   0.245   6.027   5.182
10071SOL     OW31111   6.613   6.309   4.403
10071SOL    HW131112   6.520   6.340   4.381
10071SOL    HW231113   6.666   6.386   4.439
10072SOL     OW31114   0.146   6.287   4.194
10072SOL    HW131115   0.096   6.302   4.279
10072SOL    HW231116   0.196   6.370   4.169
10073SOL     OW31117   6.088   4.680   4.155
10073SOL    HW131118   6.016   4.623   4.196
10073SOL    HW231119   6.074   4.775   4.182
10074SOL     OW31120   2.149   0.274   5.758
10074SOL    HW131121   2.150   0.232   5.849
10074SOL    HW231122   2.055   0.289   5.729
10075SOL     OW31123   1.910   2.596   2.410
10075SOL    HW131124   1.999   2.595   2.364
10075SOL    HW231125   1.917   2.548   2.497
10076SOL     OW31126   6.111   6.326   3.953
10076SOL    HW131127   6.031   6.387   3.956
10076SOL    HW231128   6.191   6.378   3.923
10077SOL     OW31129   4.515   3.350   0.352
10077SOL    HW131130   4.463   3.274   0.390
10077SOL    HW231131   4.552   3.325   0.263
10078SOL     OW31132   6.610   5.954   4.173
10078SOL    HW131133   6.532   5.979   4.115
10078SOL    HW231134   6.579   5.897   4.248
10079SOL     OW31135   6.007   2.983   3.621
10079SOL    HW131136   6.052   3.063   3.659
10079SOL    HW231137   6.028   2.976   3.523
10080SOL     OW31138   5.002   0.639   5.737
10080SOL    HW131139   4.972   0.547   5.761
10080SOL    HW231140   4.961   0.665   5.649
10081SOL     OW31141   0.159   1.542   0.375
10081SOL    HW131142   0.131   1.549   0.279
10081SOL    HW231143   0.189   1.448   0.394
10082SOL     OW31144   0.462   5.409   1.590
10082SOL    HW131145   0.420   5.335   1.644
10082SOL    HW231146   0.468   5.491   1.647
10083SOL     OW31147   4.057   0.884   3.703
10083SOL    HW131148   4.076   0.978   3.676
10083SOL    HW231149   4.142   0.832   3.707
10084SOL     OW31150   1.785   0.328   5.926
10084SOL    HW131151   1.752   0.240   5.961
10084SOL    HW231152   1.845   0.312   5.848
10085SOL     OW31153   2.965   6.379   0.887
10085SOL    HW131154   3.031   6.346   0.954
10085SOL    HW231155   3.013   6.419   0.809
10086SOL     OW31156   5.789   6.101   2.273
10086SOL    HW131157   5.755   6.123   2.365
10086SOL    HW231158   5.882   6.135   2.263
10087SOL     OW31159   6.644   5.717   3.823
10087SOL    HW131160   6.604   5.797   3.778
10087SOL    HW231161   6.630   5.637   3.765
10088SOL     OW31162   0.069   6.700   2.213
10088SOL    HW131163   6.999   6.685   2.216
10088SOL    HW231164   0.107   6.649   2.136
10089SOL     OW31165   2.866   1.834   3.741
10089SOL    HW131166   2.815   1.748   3.740
10089SOL    HW231167   2.806   1.909   3.712
10090SOL     OW31168   0.406   5.160   1.968
10090SOL    HW131169   0.505   5.155   1.987
10090SOL    HW231170   0.365   5.070   1.983
10091SOL     OW31171   6.890   5.587   6.503
10091SOL    HW131172   6.847   5.675   6.525
10091SOL    HW231173   6.819   5.519   6.486
10092SOL     OW31174   2.209   3.080   5.912
10092SOL    HW131175   2.258   3.160   5.946
10092SOL    HW231176   2.269   3.027   5.853
10093SOL     OW31177   4.831   3.505   5.374
10093SOL    HW131178   4.794   3.510   5.467
10093SOL    HW231179   4.760   3.530   5.308
10094SOL     OW31180   3.214   5.396   1.880
10094SOL    HW131181   3.252   5.307   1.907
10094SOL    HW231182   3.144   5.423   1.946
10095SOL     OW31183   5.255   1.835   4.380
10095SOL    HW131184   5.288   1.909   4.322
10095SOL    HW231185   5.331   1.775   4.405
10096SOL     OW31186   4.269   5.904   2.916
10096SOL    HW131187   4.195   5.958   2.955
10096SOL    HW231188   4.344   5.896   2.981
10097SOL     OW31189   1.594   1.921   7.006
10097SOL    HW131190   1.672   1.942   6.947
10097SOL    HW231191   1.610   1.833   0.023
10098SOL     OW31192   2.799   0.393   5.277
10098SOL    HW131193   2.887   0.405   5.325
10098SOL    HW231194   2.724   0.408   5.342
10099SOL     OW31195   1.314   5.060   1.741
10099SOL    HW131196   1.274   5.040   1.652
10099SOL    HW231197   1.411   5.083   1.730
10100SOL     OW31198   4.998   5.986   5.752
10100SOL    HW131199   5.031   5.911   5.809
10100SOL    HW231200   4.898   5.985   5.751
10101SOL     OW31201   6.507   2.999   2.056
10101SOL    HW131202   6.555   2.970   1.973
10101SOL    HW231203   6.460   2.921   2.097
10102SOL     OW31204   0.080   1.005   2.210
10102SOL    HW131205   0.016   0.980   2.283
10102SOL    HW231206   0.121   1.093   2.232
10103SOL     OW31207   2.687   0.778   5.728
10103SOL    HW131208   2.773   0.730   5.710
10103SOL    HW231209   2.703   0.877   5.728
10104SOL     OW31210   1.387   1.904   4.978
10104SOL    HW131211   1.371   1.983   4.919
10104SOL    HW231212   1.457   1.845   4.937
10105SOL     OW31213   2.240   0.294   6.232
10105SOL    HW131214   2.277   0.379   6.194
10105SOL    HW231215   2.305   0.220   6.218
10106SOL     OW31216   3.905   6.864   0.493
10106SOL    HW131217   3.853   6.809   0.427
10106SOL    HW231218   3.985   6.904   0.447
10107SOL     OW31219   5.248   1.506   5.861
10107SOL    HW131220   5.322   1.443   5.839
10107SOL    HW231221   5.203   1.477   5.946
10108SOL     OW31222   6.828   0.869   0.342
10108SOL    HW131223   6.882   0.913   0.414
10108SOL    HW231224   6.750   0.928   0.318
10109SOL     OW31225   0.208   1.281   0.517
10109SOL    HW131226   0.204   1.195   0.466
10109SOL    HW231227   0.119   1.297   0.561
10110SOL     OW31228   4.940   4.939   3.924
10110SOL    HW131229   4.850   4.919   3.963
10110SOL    HW231230   4.983   4.855   3.892
10111SOL     OW31231   6.553   3.328   3.682
10111SOL    HW131232   6.592   3.388   3.612
10111SOL    HW231233   6.627   3.283   3.732
10112SOL     OW31234   5.906   3.578   3.063
10112SOL    HW131235   6.002   3.603   3.047
10112SOL    HW231236   5.873   3.523   2.986
10113SOL     OW31237   4.420   6.898   0.293
10113SOL    HW131238   4.444   6.812   0.338
10113SOL    HW231239   4.503   6.946   0.266
10114SOL     OW31240   4.003   2.182   2.354
10114SOL    HW131241   3.972   2.160   2.261
10114SOL    HW231242   4.002   2.099   2.410
10115SOL     OW31243   4.573   2.034   5.076
10115SOL    HW131244   4.623   2.051   4.992
10115SOL    HW231245   4.604   2.098   5.147
10116SOL     OW31246   0.897   0.417   6.990
10116SOL    HW131247   0.976   0.457   0.007
10116SOL    HW231248   0.814   0.440   0.013
10117SOL     OW31249   6.248   6.518   6.214
10117SOL    HW131250   6.195   6.593   6.175
10117SOL    HW231251   6.190   6.437   6.224
10118SOL     OW31252   2.433   4.396   3.577
10118SOL    HW131253   2.334   4.410   3.573
10118SOL    HW231254   2.454   4.303   3.546
10119SOL     OW31255   6.637   4.897   3.794
10119SOL    HW131256   6.547   4.877   3.834
10119SOL    HW231257   6.659   4.828   3.726
10120SOL     OW31258   1.764   3.783   4.363
10120SOL    HW131259   1.853   3.764   4.322
10120SOL    HW231260   1.760   3.880   4.388
10121SOL     OW31261   5.490   4.281   6.578
10121SOL    HW131262   5.578   4.320   6.606
10121SOL    HW231263   5.435   4.351   6.533
10122SOL     OW31264   5.310   2.356   3.010
10122SOL    HW131265   5.248   2.418   3.059
10122SOL    HW231266   5.268   2.331   2.922
10123SOL     OW31267   5.573   6.063   0.858
10123SOL    HW131268   5.623   6.140   0.897
10123SOL    HW231269   5.526   6.013   0.931
10124SOL     OW31270   1.557   4.535   0.686
10124SOL    HW131271   1.637   4.575   0.641
10124SOL    HW231272   1.475   4.583   0.655
10125SOL     OW31273   2.234   1.518   0.965
10125SOL    HW131274   2.146   1.563   0.974
10125SOL    HW231275   2.282   1.520   1.053
10126SOL     OW31276   0.362   0.177   0.407
10126SOL    HW131277   0.277   0.152   0.454
10126SOL    HW231278   0.374   0.120   0.327
10127SOL     OW31279   1.902   3.297   0.331
10127SOL    HW131280   1.884   3.285   0.234
10127SOL    HW231281   1.822   3.336   0.376
10128SOL     OW31282   3.019   0.938   6.263
10128SOL    HW131283   3.048   0.909   6.355
10128SOL    HW231284   3.066   1.023   6.239
10129SOL     OW31285   6.350   1.233   2.755
10129SOL    HW131286   6.449   1.243   2.746
10129SOL    HW231287   6.325   1.226   2.852
10130SOL     OW31288   0.793   3.265   1.650
10130SOL    HW131289   0.864   3.328   1.682
10130SOL    HW231290   0.796   3.261   1.550
10131SOL     OW31291   1.964   6.893   4.323
10131SOL    HW131292   1.983   6.896   4.422
10131SOL    HW231293   1.882   6.839   4.307
10132SOL     OW31294   1.935   0.852   3.277
10132SOL    HW131295   1.883   0.796   3.342
10132SOL    HW231296   1.949   0.800   3.193
10133SOL     OW31297   4.919   6.574   0.702
10133SOL    HW131298   4.927   6.674   0.713
10133SOL    HW231299   4.895   6.534   0.790
10134SOL     OW31300   5.560   1.372   2.295
10134SOL    HW131301   5.645   1.344   2.339
10134SOL    HW231302   5.489   1.385   2.365
10135SOL     OW31303   5.090   2.785   3.581
10135SOL    HW131304   5.062   2.827   3.495
10135SOL    HW231305   5.148   2.848   3.633
10136SOL     OW31306   5.099   2.088   2.054
10136SOL    HW131307   5.161   2.021   2.096
10136SOL    HW231308   5.068   2.152   2.124
10137SOL     OW31309   0.416   4.512   4.846
10137SOL    HW131310   0.329   4.557   4.866
10137SOL    HW231311   0.424   4.428   4.900
10138SOL     OW31312   5.074   3.482   0.386
10138SOL    HW131313   4.978   3.454   0.390
10138SOL    HW231314   5.086   3.566   0.439
10139SOL     OW31315   3.002   3.263   4.642
10139SOL    HW131316   3.037   3.189   4.583
10139SOL    HW231317   2.998   3.231   4.736
10140SOL     OW31318   0.259   6.242   0.035
10140SOL    HW131319   0.320   6.300   7.010
10140SOL    HW231320   0.170   6.286   0.044
10141SOL     OW31321   4.446   1.313   5.514
10141SOL    HW131322   4.403   1.386   5.567
10141SOL    HW231323   4.376   1.257   5.471
10142SOL     OW31324   6.174   6.128   6.016
10142SOL    HW131325   6.209   6.035   6.001
10142SOL    HW231326   6.140   6.164   5.929
10143SOL     OW31327   5.453   2.226   0.878
10143SOL    HW131328   5.400   2.309   0.861
10143SOL    HW231329   5.500   2.199   0.794
10144SOL     OW31330   4.545   6.978   6.208
10144SOL    HW131331   4.455   7.000   6.171
10144SOL    HW231332   4.616   7.010   6.145
10145SOL     OW31333   3.492   5.977   3.136
10145SOL    HW131334   3.524   6.022   3.220
10145SOL    HW231335   3.569   5.965   3.074
10146SOL     OW31336   6.012   4.180   4.813
10146SOL    HW131337   5.968   4.167   4.902
10146SOL    HW231338   5.972   4.260   4.768
10147SOL     OW31339   4.912   3.890   6.353
10147SOL    HW131340   4.820   3.877   6.315
10147SOL    HW231341   4.915   3.975   6.405
10148SOL     OW31342   6.001   5.025   0.040
10148SOL    HW131343   5.976   5.022   6.972
10148SOL    HW231344   6.100   5.039   0.049
10149SOL     OW31345   5.371   3.732   1.494
10149SOL    HW131346   5.468   3.749   1.477
10149SOL    HW231347   5.342   3.651   1.443
10150SOL     OW31348   3.980   2.874   1.809
10150SOL    HW131349   3.895   2.824   1.798
10150SOL    HW231350   3.981   2.919   1.899
10151SOL     OW31351   1.047   6.874   0.143
10151SOL    HW131352   1.033   6.910   0.235
10151SOL    HW231353   1.135   6.826   0.140
10152SOL     OW31354   6.802   6.187   3.513
10152SOL    HW131355   6.843   6.141   3.592
10152SOL    HW231356   6.874   6.220   3.452
10153SOL     OW31357   5.156   6.140   4.163
10153SOL    HW131358   5.212   6.188   4.230
10153SOL    HW231359   5.159   6.042   4.181
10154SOL     OW31360   3.919   6.565   5.246
10154SOL    HW131361   3.830   6.602   5.274
10154SOL    HW231362   3.911   6.522   5.156
10155SOL     OW31363   5.106   2.194   5.473
10155SOL    HW131364   5.079   2.181   5.568
10155SOL    HW231365   5.157   2.113   5.442
10156SOL     OW31366   5.612   0.435   1.890
10156SOL    HW131367   5.604   0.367   1.817
10156SOL    HW231368   5.521   0.468   1.915
10157SOL     OW31369   0.102   2.153   0.429
10157SOL    HW131370   0.025   2.094   0.454
10157SOL    HW231371   0.123   2.215   0.504
10158SOL     OW31372   6.298   6.033   1.421
10158SOL    HW131373   6.265   6.081   1.502
10158SOL    HW231374   6.310   6.098   1.346
10159SOL     OW31375   3.635   2.828   2.128
10159SOL    HW131376   3.607   2.829   2.225
10159SOL    HW231377   3.688   2.745   2.110
10160SOL     OW31378   1.526   3.529   3.183
10160SOL    HW131379   1.617   3.509   3.219
10160SOL    HW231380   1.504   3.626   3.198
10161SOL     OW31381   3.493   4.208   6.647
10161SOL    HW131382   3.483   4.137   6.578
10161SOL    HW231383   3.435   4.188   6.725
10162SOL     OW31384   2.552   5.223   0.582
10162SOL    HW131385   2.635   5.174   0.607
10162SOL    HW231386   2.517   5.272   0.661
10163SOL     OW31387   0.418   4.011   6.742
10163SOL    HW131388   0.418   4.000   6.643
10163SOL    HW231389   0.416   4.109   6.765
10164SOL     OW31390   5.927   3.604   5.083
10164SOL    HW131391   5.933   3.544   5.163
10164SOL    HW231392   5.832   3.626   5.065
10165SOL     OW31393   6.572   2.166   3.253
10165SOL    HW131394   6.518   2.130   3.328
10165SOL    HW231395   6.511   2.185   3.175
10166SOL     OW31396   2.232   1.717   1.348
10166SOL    HW131397   2.277   1.799   1.384
10166SOL    HW231398   2.216   1.652   1.423
10167SOL     OW31399   0.380   5.583   0.138
10167SOL    HW131400   0.413   5.534   0.057
10167SOL    HW231401   0.442   5.565   0.215
10168SOL     OW31402   6.687   2.216   5.955
10168SOL    HW131403   6.600   2.197   6.001
10168SOL    HW231404   6.669   2.251   5.863
10169SOL     OW31405   0.209   3.475   3.563
10169SOL    HW131406   0.115   3.504   3.580
10169SOL    HW231407   0.246   3.433   3.646
10170SOL     OW31408   6.333   5.437   6.328
10170SOL    HW131409   6.283   5.449   6.242
10170SOL    HW231410   6.280   5.378   6.389
10171SOL     OW31411   0.622   2.832   4.418
10171SOL    HW131412   0.715   2.868   4.411
10171SOL    HW231413   0.580   2.865   4.502
10172SOL     OW31414   0.888   6.295   4.311
10172SOL    HW131415   0.886   6.256   4.403
10172SOL    HW231416   0.811   6.359   4.300
10173SOL     OW31417   2.109   2.977   0.351
10173SOL    HW131418   2.156   2.891   0.373
10173SOL    HW231419   2.018   2.977   0.393
10174SOL     OW31420   5.063   4.744   3.553
10174SOL    HW131421   5.025   4.835   3.538
10174SOL    HW231422   5.060   4.723   3.651
10175SOL     OW31423   5.169   2.576   3.432
10175SOL    HW131424   5.153   2.665   3.475
10175SOL    HW231425   5.250   2.534   3.473
10176SOL     OW31426   6.569   2.320   5.690
10176SOL    HW131427   6.524   2.375   5.620
10176SOL    HW231428   6.597   2.233   5.651
10177SOL     OW31429   1.891   0.922   0.408
10177SOL    HW131430   1.955   0.871   0.465
10177SOL    HW231431   1.813   0.864   0.384
10178SOL     OW31432   0.839   0.517   0.478
10178SOL    HW131433   0.768   0.446   0.478
10178SOL    HW231434   0.872   0.531   0.571
10179SOL     OW31435   0.836   3.318   6.570
10179SOL    HW131436   0.904   3.248   6.553
10179SOL    HW231437   0.791   3.299   6.658
10180SOL     OW31438   5.057   0.467   1.115
10180SOL    HW131439   5.111   0.383   1.116
10180SOL    HW231440   4.968   0.449   1.158
10181SOL     OW31441   0.269   2.420   0.993
10181SOL    HW131442   0.231   2.512   0.999
10181SOL    HW231443   0.208   2.355   1.037
10182SOL     OW31444   5.221   0.674   0.691
10182SOL    HW131445   5.168   0.599   0.652
10182SOL    HW231446   5.266   0.643   0.775
10183SOL     OW31447   6.027   2.692   5.705
10183SOL    HW131448   5.931   2.709   5.683
10183SOL    HW231449   6.085   2.744   5.642
10184SOL     OW31450   4.370   2.580   6.474
10184SOL    HW131451   4.391   2.485   6.497
10184SOL    HW231452   4.455   2.632   6.465
10185SOL     OW31453   6.347   5.718   1.985
10185SOL    HW131454   6.348   5.779   1.905
10185SOL    HW231455   6.314   5.769   2.065
10186SOL     OW31456   5.012   3.815   4.434
10186SOL    HW131457   4.955   3.896   4.447
10186SOL    HW231458   5.045   3.782   4.523
10187SOL     OW31459   1.563   3.725   6.482
10187SOL    HW131460   1.615   3.642   6.499
10187SOL    HW231461   1.597   3.799   6.540
10188SOL     OW31462   2.485   5.439   6.824
10188SOL    HW131463   2.569   5.389   6.844
10188SOL    HW231464   2.410   5.374   6.807
10189SOL     OW31465   0.885   1.072   6.156
10189SOL    HW131466   0.832   1.021   6.224
10189SOL    HW231467   0.845   1.060   6.066
10190SOL     OW31468   3.989   2.926   1.511
10190SOL    HW131469   4.027   2.844   1.470
10190SOL    HW231470   4.015   2.931   1.608
10191SOL     OW31471   4.936   5.492   6.635
10191SOL    HW131472   4.937   5.393   6.653
10191SOL    HW231473   4.951   5.541   6.721
10192SOL     OW31474   3.672   1.624   5.489
10192SOL    HW131475   3.767   1.642   5.464
10192SOL    HW231476   3.616   1.613   5.407
10193SOL     OW31477   3.101   3.719   2.593
10193SOL    HW131478   3.009   3.682   2.601
10193SOL    HW231479   3.160   3.677   2.662
10194SOL     OW31480   4.904   0.807   4.585
10194SOL    HW131481   4.854   0.826   4.669
10194SOL    HW231482   4.877   0.873   4.515
10195SOL     OW31483   6.687   6.697   1.563
10195SOL    HW131484   6.717   6.773   1.504
10195SOL    HW231485   6.743   6.696   1.646
10196SOL     OW31486   4.640   1.988   4.063
10196SOL    HW131487   4.661   1.893   4.042
10196SOL    HW231488   4.553   2.014   4.020
10197SOL     OW31489   4.881   2.268   3.981
10197SOL    HW131490   4.809   2.255   4.050
10197SOL    HW231491   4.949   2.332   4.017
10198SOL     OW31492   3.952   0.395   1.498
10198SOL    HW131493   3.970   0.299   1.517
10198SOL    HW231494   4.024   0.451   1.540
10199SOL     OW31495   0.987   2.235   0.003
10199SOL    HW131496   1.045   2.264   0.080
10199SOL    HW231497   0.892   2.228   0.035
10200SOL     OW31498   4.946   3.005   5.451
10200SOL    HW131499   4.954   3.047   5.541
10200SOL    HW231500   4.874   3.050   5.399
10201SOL     OW31501   0.559   6.348   0.550
10201SOL    HW131502   0.646   6.336   0.598
10201SOL    HW231503   0.511   6.428   0.586
10202SOL     OW31504   2.277   4.393   6.857
10202SOL    HW131505   2.289   4.450   6.776
10202SOL    HW231506   2.189   4.346   6.851
10203SOL     OW31507   0.719   3.029   2.003
10203SOL    HW131508   0.649   2.958   2.009
10203SOL    HW231509   0.808   2.987   1.982
10204SOL     OW31510   3.340   5.647   0.068
10204SOL    HW131511   3.243   5.622   0.074
10204SOL    HW231512   3.376   5.622   7.007
10205SOL     OW31513   3.181   0.758   2.298
10205SOL    HW131514   3.265   0.810   2.315
10205SOL    HW231515   3.116   0.774   2.371
10206SOL     OW31516   5.512   6.946   6.670
10206SOL    HW131517   5.530   7.020   6.734
10206SOL    HW231518   5.488   6.863   6.721
10207SOL     OW31519   1.768   1.404   0.003
10207SOL    HW131520   1.830   1.352   0.062
10207SOL    HW231521   1.814   1.487   6.999
10208SOL     OW31522   6.289   4.420   3.966
10208SOL    HW131523   6.333   4.351   3.908
10208SOL    HW231524   6.273   4.503   3.913
10209SOL     OW31525   0.290   0.106   6.010
10209SOL    HW131526   0.272   0.128   6.106
10209SOL    HW231527   0.312   0.008   6.002
10210SOL     OW31528   5.438   6.795   1.518
10210SOL    HW131529   5.494   6.876   1.502
10210SOL    HW231530   5.410   6.793   1.614
10211SOL     OW31531   3.893   6.400   5.013
10211SOL    HW131532   3.973   6.377   4.958
10211SOL    HW231533   3.811   6.401   4.956
10212SOL     OW31534   0.118   7.023   5.261
10212SOL    HW131535   0.046   0.046   5.214
10212SOL    HW231536   0.106   6.926   5.243
10213SOL     OW31537   5.346   2.752   2.612
10213SOL    HW131538   5.286   2.680   2.578
10213SOL    HW231539   5.315   2.841   2.579
10214SOL     OW31540   1.095   1.895   2.152
10214SOL    HW131541   1.085   1.812   2.206
10214SOL    HW231542   1.191   1.910   2.130
10215SOL     OW31543   3.188   2.995   3.955
10215SOL    HW131544   3.211   3.035   3.867
10215SOL    HW231545   3.111   3.045   3.996
10216SOL     OW31546   0.655   6.922   1.172
10216SOL    HW131547   0.607   6.842   1.137
10216SOL    HW231548   0.589   6.995   1.190
10217SOL     OW31549   1.990   1.905   2.936
10217SOL    HW131550   2.025   1.997   2.922
10217SOL    HW231551   1.940   1.901   3.022
10218SOL     OW31552   1.619   0.681   1.779
10218SOL    HW131553   1.543   0.674   1.714
10218SOL    HW231554   1.692   0.736   1.739
10219SOL     OW31555   0.103   3.195   2.455
10219SOL    HW131556   0.179   3.213   2.518
10219SOL    HW231557   0.128   3.225   2.363
10220SOL     OW31558   3.940   1.838   1.112
10220SOL    HW131559   3.961   1.893   1.193
10220SOL    HW231560   4.018   1.779   1.090
10221SOL     OW31561   1.890   3.262   4.278
10221SOL    HW131562   1.973   3.313   4.301
10221SOL    HW231563   1.873   3.192   4.348
10222SOL     OW31564   2.553   3.589   5.441
10222SOL    HW131565   2.595   3.521   5.381
10222SOL    HW231566   2.614   3.605   5.520
10223SOL     OW31567   2.016   6.515   6.446
10223SOL    HW131568   2.048   6.421   6.451
10223SOL    HW231569   2.028   6.559   6.535
10224SOL     OW31570   0.626   1.498   5.151
10224SOL    HW131571   0.630   1.417   5.092
10224SOL    HW231572   0.677   1.573   5.109
10225SOL     OW31573   2.191   6.211   6.025
10225SOL    HW131574   2.141   6.170   6.101
10225SOL    HW231575   2.287   6.182   6.029
10226SOL     OW31576   2.513   0.832   6.403
10226SOL    HW131577   2.554   0.817   6.313
10226SOL    HW231578   2.580   0.876   6.463
10227SOL     OW31579   5.477   4.334   0.939
10227SOL    HW131580   5.534   4.280   1.002
10227SOL    HW231581   5.474   4.429   0.970
10228SOL     OW31582   1.076   6.221   1.888
10228SOL    HW131583   1.071   6.265   1.798
10228SOL    HW231584   0.993   6.168   1.903
10229SOL     OW31585   1.555   1.805   4.146
10229SOL    HW131586   1.592   1.713   4.161
10229SOL    HW231587   1.594   1.869   4.212
10230SOL     OW31588   6.369   6.520   3.016
10230SOL    HW131589   6.289   6.563   3.057
10230SOL    HW231590   6.362   6.524   2.916
10231SOL     OW31591   6.143   5.513   4.818
10231SOL    HW131592   6.086   5.566   4.880
10231SOL    HW231593   6.186   5.573   4.751
10232SOL     OW31594   2.767   1.203   4.841
10232SOL    HW131595   2.740   1.131   4.904
10232SOL    HW231596   2.686   1.255   4.813
10233SOL     OW31597   5.045   3.541   5.220
10233SOL    HW131598   4.990   3.565   5.140
10233SOL    HW231599   4.986   3.538   5.301
10234SOL     OW31600   5.559   0.173   0.289
10234SOL    HW131601   5.594   0.192   0.198
10234SOL    HW231602   5.635   0.164   0.353
10235SOL     OW31603   4.084   3.122   0.367
10235SOL    HW131604   4.054   3.182   0.440
10235SOL    HW231605   4.032   3.141   0.284
10236SOL     OW31606   2.150   0.751   1.721
10236SOL    HW131607   2.182   0.766   1.628
10236SOL    HW231608   2.094   0.828   1.751
10237SOL     OW31609   6.751   4.236   0.323
10237SOL    HW131610   6.676   4.283   0.277
10237SOL    HW231611   6.816   4.202   0.256
10238SOL     OW31612   3.349   4.115   3.336
10238SOL    HW131613   3.344   4.076   3.427
10238SOL    HW231614   3.257   4.125   3.299
10239SOL     OW31615   2.167   4.198   5.772
10239SOL    HW131616   2.241   4.204   5.705
10239SOL    HW231617   2.158   4.104   5.804
10240SOL     OW31618   1.319   4.502   3.122
10240SOL    HW131619   1.348   4.553   3.041
10240SOL    HW231620   1.280   4.414   3.094
10241SOL     OW31621   6.720   0.501   2.496
10241SOL    HW131622   6.815   0.470   2.503
10241SOL    HW231623   6.718   0.600   2.490
10242SOL     OW31624   6.726   1.308   0.250
10242SOL    HW131625   6.719   1.290   0.152
10242SOL    HW231626   6.717   1.406   0.266
10243SOL     OW31627   1.586   5.111   1.700
10243SOL    HW131628   1.582   5.126   1.799
10243SOL    HW231629   1.645   5.032   1.681
10244SOL     OW31630   1.338   3.991   0.312
10244SOL    HW131631   1.313   4.022   0.220
10244SOL    HW231632   1.438   3.988   0.320
10245SOL     OW31633   2.960   4.712   0.028
10245SOL    HW131634   3.018   4.787   7.025
10245SOL    HW231635   2.905   4.678   6.981
10246SOL     OW31636   3.418   4.174   3.751
10246SOL    HW131637   3.395   4.118   3.830
10246SOL    HW231638   3.344   4.240   3.735
10247SOL     OW31639   6.931   5.082   5.841
10247SOL    HW131640   6.966   5.163   5.888
10247SOL    HW231641   6.837   5.099   5.810
10248SOL     OW31642   2.688   6.993   2.325
10248SOL    HW131643   2.598   7.006   2.367
10248SOL    HW231644   2.756   0.014   2.378
10249SOL     OW31645   3.434   0.366   6.331
10249SOL    HW131646   3.395   0.455   6.356
10249SOL    HW231647   3.388   0.332   6.249
10250SOL     OW31648   6.694   3.016   1.508
10250SOL    HW131649   6.612   3.067   1.484
10250SOL    HW231650   6.756   3.075   1.561
10251SOL     OW31651   2.940   1.636   4.981
10251SOL    HW131652   2.908   1.581   4.904
10251SOL    HW231653   2.951   1.578   5.062
10252SOL     OW31654   4.607   4.764   0.279
10252SOL    HW131655   4.662   4.841   0.244
10252SOL    HW231656   4.546   4.731   0.207
10253SOL     OW31657   3.289   6.171   0.282
10253SOL    HW131658   3.270   6.095   0.220
10253SOL    HW231659   3.203   6.217   0.305
10254SOL     OW31660   4.564   0.894   4.590
10254SOL    HW131661   4.590   0.801   4.563
10254SOL    HW231662   4.646   0.951   4.594
10255SOL     OW31663   2.287   0.017   1.467
10255SOL    HW131664   2.213   7.003   1.518
10255SOL    HW231665   2.250   0.088   1.407
10256SOL     OW31666   6.044   0.967   1.613
10256SOL    HW131667   6.078   0.988   1.522
10256SOL    HW231668   6.059   1.046   1.673
10257SOL     OW31669   1.923   5.153   4.862
10257SOL    HW131670   1.899   5.068   4.910
10257SOL    HW231671   1.877   5.155   4.773
10258SOL     OW31672   3.528   0.771   4.085
10258SOL    HW131673   3.552   0.730   4.172
10258SOL    HW231674   3.584   0.852   4.069
10259SOL     OW31675   0.230   4.321   2.948
10259SOL    HW131676   0.270   4.408   2.976
10259SOL    HW231677   0.131   4.330   2.944
10260SOL     OW31678   0.422   0.944   4.140
10260SOL    HW131679   0.473   0.909   4.218
10260SOL    HW231680   0.448   0.893   4.057
10261SOL     OW31681   6.914   6.070   3.175
10261SOL    HW131682   6.930   6.154   3.228
10261SOL    HW231683   6.816   6.053   3.167
10262SOL     OW31684   1.726   6.764   4.266
10262SOL    HW131685   1.698   6.679   4.311
10262SOL    HW231686   1.723   6.753   4.167
10263SOL     OW31687   5.193   0.858   6.518
10263SOL    HW131688   5.141   0.900   6.444
10263SOL    HW231689   5.179   0.911   6.602
10264SOL     OW31690   6.042   2.303   5.371
10264SOL    HW131691   6.121   2.343   5.417
10264SOL    HW231692   5.962   2.360   5.385
10265SOL     OW31693   2.577   2.127   3.380
10265SOL    HW131694   2.493   2.153   3.427
10265SOL    HW231695   2.592   2.028   3.389
10266SOL     OW31696   3.441   2.849   4.863
10266SOL    HW131697   3.436   2.780   4.935
10266SOL    HW231698   3.529   2.841   4.816
10267SOL     OW31699   0.123   1.500   0.107
10267SOL    HW131700   0.038   1.545   0.079
10267SOL    HW231701   0.121   1.405   0.077
10268SOL     OW31702   5.624   5.096   2.265
10268SOL    HW131703   5.655   5.012   2.309
10268SOL    HW231704   5.693   5.127   2.199
10269SOL     OW31705   0.170   3.339   6.252
10269SOL    HW131706   0.079   3.380   6.258
10269SOL    HW231707   0.219   3.355   6.338
10270SOL     OW31708   2.952   4.838   3.380
10270SOL    HW131709   2.921   4.931   3.401
10270SOL    HW231710   3.014   4.807   3.453
10271SOL     OW31711   3.619   2.289   0.068
10271SOL    HW131712   3.638   2.370   0.124
10271SOL    HW231713   3.698   2.270   0.010
10272SOL     OW31714   0.792   0.460   4.895
10272SOL    HW131715   0.720   0.519   4.858
10272SOL    HW231716   0.789   0.371   4.851
10273SOL     OW31717   3.445   5.611   2.734
10273SOL    HW131718   3.437   5.706   2.705
10273SOL    HW231719   3.469   5.553   2.656
10274SOL     OW31720   6.778   5.112   3.684
10274SOL    HW131721   6.855   5.121   3.747
10274SOL    HW231722   6.715   5.043   3.718
10275SOL     OW31723   0.959   0.037   1.732
10275SOL    HW131724   0.926   0.131   1.745
10275SOL    HW231725   1.021   0.013   1.807
10276SOL     OW31726   5.912   5.158   5.223
10276SOL    HW131727   5.847   5.094   5.264
10276SOL    HW231728   5.963   5.111   5.151
10277SOL     OW31729   2.341   5.405   4.516
10277SOL    HW131730   2.310   5.335   4.580
10277SOL    HW231731   2.295   5.393   4.428
10278SOL     OW31732   6.939   0.316   4.523
10278SOL    HW131733   7.010   0.247   4.542
10278SOL    HW231734   6.893   0.293   4.437
10279SOL     OW31735   3.083   5.363   4.433
10279SOL    HW131736   3.034   5.424   4.495
10279SOL    HW231737   3.180   5.361   4.457
10280SOL     OW31738   1.035   4.280   0.981
10280SOL    HW131739   1.135   4.287   0.989
10280SOL    HW231740   0.996   4.371   0.972
10281SOL     OW31741   6.030   1.164   2.752
10281SOL    HW131742   6.108   1.227   2.759
10281SOL    HW231743   6.021   1.132   2.658
10282SOL     OW31744   5.922   4.134   4.169
10282SOL    HW131745   6.010   4.094   4.144
10282SOL    HW231746   5.924   4.232   4.148
10283SOL     OW31747   1.075   3.815   1.234
10283SOL    HW131748   1.134   3.892   1.259
10283SOL    HW231749   1.017   3.840   1.156
10284SOL     OW31750   5.358   2.992   5.360
10284SOL    HW131751   5.394   2.982   5.267
10284SOL    HW231752   5.324   2.903   5.393
10285SOL     OW31753   5.493   1.498   1.410
10285SOL    HW131754   5.540   1.410   1.404
10285SOL    HW231755   5.424   1.494   1.481
10286SOL     OW31756   3.102   1.727   3.689
10286SOL    HW131757   3.008   1.759   3.703
10286SOL    HW231758   3.160   1.763   3.761
10287SOL     OW31759   2.199   6.197   1.000
10287SOL    HW131760   2.244   6.278   0.963
10287SOL    HW231761   2.100   6.211   0.998
10288SOL     OW31762   4.878   5.874   3.142
10288SOL    HW131763   4.923   5.930   3.071
10288SOL    HW231764   4.876   5.926   3.227
10289SOL     OW31765   2.867   0.244   2.157
10289SOL    HW131766   2.948   0.302   2.151
10289SOL    HW231767   2.793   0.283   2.102
10290SOL     OW31768   2.851   3.511   1.771
10290SOL    HW131769   2.775   3.450   1.751
10290SOL    HW231770   2.890   3.546   1.686
10291SOL     OW31771   3.721   1.812   3.716
10291SOL    HW131772   3.650   1.872   3.754
10291SOL    HW231773   3.792   1.868   3.674
10292SOL     OW31774   1.616   0.171   4.902
10292SOL    HW131775   1.621   0.269   4.918
10292SOL    HW231776   1.529   0.136   4.936
10293SOL     OW31777   2.012   5.160   2.769
10293SOL    HW131778   1.953   5.223   2.819
10293SOL    HW231779   1.971   5.068   2.771
10294SOL     OW31780   5.444   3.019   2.383
10294SOL    HW131781   5.356   2.977   2.404
10294SOL    HW231782   5.434   3.119   2.384
10295SOL     OW31783   5.550   4.558   6.375
10295SOL    HW131784   5.529   4.640   6.321
10295SOL    HW231785   5.465   4.509   6.395
10296SOL     OW31786   4.569   3.028   0.042
10296SOL    HW131787   4.633   2.956   0.067
10296SOL    HW231788   4.484   2.988   0.008
10297SOL     OW31789   2.173   0.103   0.013
10297SOL    HW131790   2.192   0.006   7.024
10297SOL    HW231791   2.151   0.149   6.956
10298SOL     OW31792   3.550   4.981   1.808
10298SOL    HW131793   3.581   4.916   1.877
10298SOL    HW231794   3.609   5.061   1.809
10299SOL     OW31795   4.733   5.772   2.781
10299SOL    HW131796   4.769   5.711   2.711
10299SOL    HW231797   4.657   5.727   2.829
10300SOL     OW31798   1.097   4.219   3.262
10300SOL    HW131799   1.020   4.159   3.282
10300SOL    HW231800   1.063   4.312   3.245
10301SOL     OW31801   5.474   2.325   4.612
10301SOL    HW131802   5.402   2.373   4.560
10301SOL    HW231803   5.466   2.227   4.597
10302SOL     OW31804   1.069   5.748   3.555
10302SOL    HW131805   1.037   5.746   3.461
10302SOL    HW231806   1.159   5.791   3.559
10303SOL     OW31807   1.741   5.622   2.509
10303SOL    HW131808   1.720   5.590   2.602
10303SOL    HW231809   1.658   5.659   2.467
10304SOL     OW31810   5.163   0.371   2.254
10304SOL    HW131811   5.082   0.313   2.263
10304SOL    HW231812   5.141   0.464   2.280
10305SOL     OW31813   0.523   4.250   6.881
10305SOL    HW131814   0.584   4.321   6.846
10305SOL    HW231815   0.571   4.162   6.883
10306SOL     OW31816   4.384   6.563   7.007
10306SOL    HW131817   4.340   6.553   0.068
10306SOL    HW231818   4.339   6.502   6.941
10307SOL     OW31819   2.177   1.903   4.395
10307SOL    HW131820   2.218   1.992   4.416
10307SOL    HW231821   2.182   1.887   4.296
10308SOL     OW31822   2.179   4.586   4.272
10308SOL    HW131823   2.126   4.623   4.196
10308SOL    HW231824   2.116   4.548   4.341
10309SOL     OW31825   5.906   1.334   4.713
10309SOL    HW131826   5.844   1.256   4.720
10309SOL    HW231827   5.911   1.365   4.618
10310SOL     OW31828   3.795   3.340   1.651
10310SOL    HW131829   3.814   3.291   1.736
10310SOL    HW231830   3.860   3.416   1.642
10311SOL     OW31831   0.889   6.324   1.071
10311SOL    HW131832   0.927   6.367   1.154
10311SOL    HW231833   0.833   6.246   1.097
10312SOL     OW31834   2.738   6.398   1.824
10312SOL    HW131835   2.815   6.460   1.844
10312SOL    HW231836   2.743   6.370   1.728
10313SOL     OW31837   4.637   0.153   0.936
10313SOL    HW131838   4.563   0.092   0.909
10313SOL    HW231839   4.611   0.248   0.918
10314SOL     OW31840   6.943   0.348   2.503
10314SOL    HW131841   6.953   0.305   2.413
10314SOL    HW231842   6.976   0.284   2.573
10315SOL     OW31843   6.092   5.848   4.172
10315SOL    HW131844   6.123   5.892   4.256
10315SOL    HW231845   6.104   5.912   4.095
10316SOL     OW31846   6.397   2.375   4.777
10316SOL    HW131847   6.448   2.290   4.765
10316SOL    HW231848   6.449   2.436   4.837
10317SOL     OW31849   3.373   6.073   5.520
10317SOL    HW131850   3.458   6.125   5.522
10317SOL    HW231851   3.379   5.997   5.584
10318SOL     OW31852   5.291   5.953   6.410
10318SOL    HW131853   5.311   6.036   6.461
10318SOL    HW231854   5.205   5.965   6.359
10319SOL     OW31855   2.118   2.350   5.573
10319SOL    HW131856   2.113   2.406   5.490
10319SOL    HW231857   2.058   2.388   5.643
10320SOL     OW31858   0.917   0.684   2.533
10320SOL    HW131859   0.902   0.772   2.580
10320SOL    HW231860   0.885   0.610   2.591
10321SOL     OW31861   4.354   0.782   2.879
10321SOL    HW131862   4.358   0.859   2.815
10321SOL    HW231863   4.294   0.711   2.843
10322SOL     OW31864   6.832   5.824   6.267
10322SOL    HW131865   6.850   5.821   6.365
10322SOL    HW231866   6.734   5.826   6.251
10323SOL     OW31867   6.182   3.261   5.943
10323SOL    HW131868   6.198   3.250   5.845
10323SOL    HW231869   6.263   3.232   5.993
10324SOL     OW31870   3.106   3.329   3.193
10324SOL    HW131871   3.103   3.325   3.093
10324SOL    HW231872   3.013   3.337   3.228
10325SOL     OW31873   0.260   3.753   2.948
10325SOL    HW131874   0.327   3.786   2.882
10325SOL    HW231875   0.286   3.781   3.040
10326SOL     OW31876   4.009   3.962   6.954
10326SOL    HW131877   3.929   4.020   6.963
10326SOL    HW231878   4.076   3.986   7.025
10327SOL     OW31879   2.683   1.974   1.741
10327SOL    HW131880   2.662   2.043   1.671
10327SOL    HW231881   2.751   2.010   1.805
10328SOL     OW31882   5.994   2.814   1.063
10328SOL    HW131883   5.918   2.807   0.999
10328SOL    HW231884   5.962   2.795   1.156
10329SOL     OW31885   3.813   0.439   3.635
10329SOL    HW131886   3.844   0.531   3.655
10329SOL    HW231887   3.873   0.398   3.565
10330SOL     OW31888   3.412   5.829   1.809
10330SOL    HW131889   3.498   5.802   1.852
10330SOL    HW231890   3.372   5.750   1.761
10331SOL     OW31891   6.643   0.592   4.232
10331SOL    HW131892   6.581   0.543   4.293
10331SOL    HW231893   6.648   0.543   4.145
10332SOL     OW31894   6.005   1.462   0.511
10332SOL    HW131895   6.079   1.508   0.462
10332SOL    HW231896   5.921   1.469   0.457
10333SOL     OW31897   6.764   4.905   4.028
10333SOL    HW131898   6.752   4.918   3.929
10333SOL    HW231899   6.822   4.978   4.065
10334SOL     OW31900   2.409   5.915   4.094
10334SOL    HW131901   2.424   5.821   4.125
10334SOL    HW231902   2.365   5.914   4.005
10335SOL     OW31903   2.728   5.001   6.746
10335SOL    HW131904   2.824   4.990   6.772
10335SOL    HW231905   2.715   4.966   6.653
10336SOL     OW31906   5.571   0.176   3.322
10336SOL    HW131907   5.646   0.117   3.351
10336SOL    HW231908   5.609   0.260   3.283
10337SOL     OW31909   6.693   6.540   5.869
10337SOL    HW131910   6.766   6.472   5.866
10337SOL    HW231911   6.662   6.552   5.963
10338SOL     OW31912   2.478   6.317   2.475
10338SOL    HW131913   2.571   6.319   2.439
10338SOL    HW231914   2.413   6.305   2.400
10339SOL     OW31915   2.518   6.141   0.203
10339SOL    HW131916   2.462   6.219   0.229
10339SOL    HW231917   2.471   6.056   0.229
10340SOL     OW31918   0.953   5.032   0.917
10340SOL    HW131919   0.874   5.077   0.876
10340SOL    HW231920   1.037   5.077   0.885
10341SOL     OW31921   2.082   3.709   1.809
10341SOL    HW131922   2.117   3.698   1.902
10341SOL    HW231923   2.096   3.624   1.758
10342SOL     OW31924   1.296   6.156   5.629
10342SOL    HW131925   1.257   6.207   5.552
10342SOL    HW231926   1.223   6.128   5.690
10343SOL     OW31927   2.152   3.866   0.901
10343SOL    HW131928   2.085   3.817   0.957
10343SOL    HW231929   2.109   3.896   0.816
10344SOL     OW31930   4.348   3.326   1.677
10344SOL    HW131931   4.287   3.320   1.598
10344SOL    HW231932   4.297   3.357   1.757
10345SOL     OW31933   1.598   0.739   5.978
10345SOL    HW131934   1.673   0.773   6.035
10345SOL    HW231935   1.601   0.639   5.974
10346SOL     OW31936   6.188   0.870   0.965
10346SOL    HW131937   6.138   0.957   0.966
10346SOL    HW231938   6.237   0.861   0.878
10347SOL     OW31939   4.975   2.671   2.456
10347SOL    HW131940   5.067   2.659   2.492
10347SOL    HW231941   4.962   2.612   2.376
10348SOL     OW31942   6.555   1.749   0.053
10348SOL    HW131943   6.559   1.848   0.061
10348SOL    HW231944   6.506   1.711   0.132
10349SOL     OW31945   6.361   0.738   0.428
10349SOL    HW131946   6.262   0.746   0.423
10349SOL    HW231947   6.402   0.782   0.348
10350SOL     OW31948   2.197   6.157   5.373
10350SOL    HW131949   2.159   6.236   5.325
10350SOL    HW231950   2.123   6.102   5.411
10351SOL     OW31951   5.564   5.048   6.148
10351SOL    HW131952   5.618   4.968   6.121
10351SOL    HW231953   5.473   5.042   6.106
10352SOL     OW31954   5.718   1.662   0.166
10352SOL    HW131955   5.793   1.682   0.229
10352SOL    HW231956   5.756   1.648   0.074
10353SOL     OW31957   5.731   1.934   4.562
10353SOL    HW131958   5.754   1.875   4.639
10353SOL    HW231959   5.655   1.994   4.587
10354SOL     OW31960   6.913   2.109   1.790
10354SOL    HW131961   6.887   2.024   1.835
10354SOL    HW231962   6.946   2.174   1.858
10355SOL     OW31963   1.457   0.931   0.963
10355SOL    HW131964   1.508   1.000   0.911
10355SOL    HW231965   1.521   0.865   1.002
10356SOL     OW31966   6.622   3.584   5.292
10356SOL    HW131967   6.604   3.675   5.254
10356SOL    HW231968   6.617   3.588   5.391
10357SOL     OW31969   3.394   2.457   5.921
10357SOL    HW131970   3.304   2.430   5.889
10357SOL    HW231971   3.413   2.411   6.008
10358SOL     OW31972   0.412   3.013   3.813
10358SOL    HW131973   0.369   2.940   3.866
10358SOL    HW231974   0.391   3.000   3.716
10359SOL     OW31975   5.492   1.416   1.734
10359SOL    HW131976   5.401   1.419   1.693
10359SOL    HW231977   5.554   1.476   1.683
10360SOL     OW31978   4.888   5.540   1.849
10360SOL    HW131979   4.953   5.508   1.780
10360SOL    HW231980   4.879   5.472   1.921
10361SOL     OW31981   2.656   1.156   3.117
10361SOL    HW131982   2.593   1.222   3.076
10361SOL    HW231983   2.684   1.188   3.208
10362SOL     OW31984   0.339   5.391   2.819
10362SOL    HW131985   0.315   5.472   2.872
10362SOL    HW231986   0.433   5.363   2.842
10363SOL     OW31987   5.271   2.999   1.412
10363SOL    HW131988   5.284   2.995   1.511
10363SOL    HW231989   5.219   2.919   1.382
10364SOL     OW31990   4.098   4.262   1.610
10364SOL    HW131991   4.086   4.205   1.691
10364SOL    HW231992   4.181   4.234   1.562
10365SOL     OW31993   5.039   4.138   6.617
10365SOL    HW131994   5.104   4.143   6.541
10365SOL    HW231995   5.055   4.054   6.669
10366SOL     OW31996   3.083   0.052   3.867
10366SOL    HW131997   3.096   0.147   3.894
10366SOL    HW231998   2.986   0.035   3.851
10367SOL     OW31999   6.989   1.619   1.828
10367SOL    HW132000   0.036   1.558   1.851
10367SOL    HW232001   6.904   1.583   1.867
10368SOL     OW32002   2.000   1.372   2.312
10368SOL    HW132003   2.077   1.308   2.308
10368SOL    HW232004   1.969   1.381   2.407
10369SOL     OW32005   3.062   7.018   5.809
10369SOL    HW132006   3.128   0.048   5.763
10369SOL    HW232007   3.069   6.925   5.773
10370SOL     OW32008   0.042   0.980   5.413
10370SOL    HW132009   0.121   1.039   5.396
10370SOL    HW232010   7.022   1.013   5.493
10371SOL     OW32011   1.889   6.271   4.449
10371SOL    HW132012   1.864   6.243   4.542
10371SOL    HW232013   1.839   6.215   4.383
10372SOL     OW32014   2.150   0.995   6.738
10372SOL    HW132015   2.190   0.931   6.674
10372SOL    HW232016   2.096   1.063   6.689
10373SOL     OW32017   1.359   5.876   4.956
10373SOL    HW132018   1.320   5.959   4.996
10373SOL    HW232019   1.297   5.842   4.886
10374SOL     OW32020   3.133   0.717   3.821
10374SOL    HW132021   3.194   0.793   3.795
10374SOL    HW232022   3.161   0.682   3.910
10375SOL     OW32023   2.140   2.067   6.252
10375SOL    HW132024   2.173   2.027   6.167
10375SOL    HW232025   2.210   2.128   6.290
10376SOL     OW32026   1.222   5.894   3.259
10376SOL    HW132027   1.304   5.839   3.275
10376SOL    HW232028   1.146   5.833   3.236
10377SOL     OW32029   0.163   0.668   2.457
10377SOL    HW132030   0.205   0.759   2.449
10377SOL    HW232031   0.120   0.659   2.547
10378SOL     OW32032   5.790   5.688   5.504
10378SOL    HW132033   5.760   5.654   5.593
10378SOL    HW232034   5.814   5.785   5.512
10379SOL     OW32035   2.661   6.031   4.051
10379SOL    HW132036   2.721   5.997   4.123
10379SOL    HW232037   2.571   5.990   4.060
10380SOL     OW32038   1.031   2.622   4.756
10380SOL    HW132039   1.078   2.702   4.720
10380SOL    HW232040   0.944   2.649   4.797
10381SOL     OW32041   4.510   3.796   1.065
10381SOL    HW132042   4.560   3.788   1.152
10381SOL    HW232043   4.463   3.709   1.046
10382SOL     OW32044   2.213   5.252   1.839
10382SOL    HW132045   2.292   5.195   1.865
10382SOL    HW232046   2.244   5.346   1.825
10383SOL     OW32047   1.314   3.988   1.157
10383SOL    HW132048   1.270   4.048   1.089
10383SOL    HW232049   1.386   4.038   1.204
10384SOL     OW32050   6.541   0.139   1.061
10384SOL    HW132051   6.460   0.197   1.069
10384SOL    HW232052   6.539   0.090   0.974
10385SOL     OW32053   4.074   6.024   5.760
10385SOL    HW132054   4.042   6.069   5.676
10385SOL    HW232055   3.995   6.000   5.817
10386SOL     OW32056   6.793   1.594   5.224
10386SOL    HW132057   6.799   1.534   5.305
10386SOL    HW232058   6.808   1.539   5.142
10387SOL     OW32059   4.342   1.554   2.631
10387SOL    HW132060   4.417   1.488   2.640
10387SOL    HW232061   4.255   1.509   2.652
10388SOL     OW32062   2.238   5.574   2.040
10388SOL    HW132063   2.286   5.612   2.120
10388SOL    HW232064   2.150   5.536   2.069
10389SOL     OW32065   6.472   5.344   0.451
10389SOL    HW132066   6.563   5.329   0.489
10389SOL    HW232067   6.411   5.271   0.481
10390SOL     OW32068   2.100   3.290   0.987
10390SOL    HW132069   2.009   3.253   0.968
10390SOL    HW232070   2.111   3.304   1.085
10391SOL     OW32071   0.391   6.471   3.266
10391SOL    HW132072   0.328   6.401   3.232
10391SOL    HW232073   0.470   6.478   3.205
10392SOL     OW32074   6.569   4.821   5.372
10392SOL    HW132075   6.620   4.795   5.290
10392SOL    HW232076   6.545   4.740   5.424
10393SOL     OW32077   2.606   2.460   3.730
10393SOL    HW132078   2.608   2.453   3.630
10393SOL    HW232079   2.679   2.405   3.769
10394SOL     OW32080   2.508   5.572   5.241
10394SOL    HW132081   2.596   5.587   5.197
10394SOL    HW232082   2.435   5.579   5.173
10395SOL     OW32083   0.606   0.768   1.941
10395SOL    HW132084   0.667   0.692   1.965
10395SOL    HW232085   0.582   0.763   1.844
10396SOL     OW32086   3.889   1.024   3.432
10396SOL    HW132087   3.977   0.992   3.397
10396SOL    HW232088   3.894   1.121   3.454
10397SOL     OW32089   2.923   1.453   4.423
10397SOL    HW132090   2.894   1.520   4.354
10397SOL    HW232091   2.843   1.402   4.456
10398SOL     OW32092   5.370   2.442   0.564
10398SOL    HW132093   5.441   2.373   0.551
10398SOL    HW232094   5.297   2.405   0.621
10399SOL     OW32095   5.088   2.414   4.101
10399SOL    HW132096   5.065   2.455   4.189
10399SOL    HW232097   5.115   2.486   4.037
10400SOL     OW32098   3.930   6.049   0.134
10400SOL    HW132099   3.936   6.056   0.034
10400SOL    HW232100   3.987   6.119   0.176
10401SOL     OW32101   0.560   6.807   2.001
10401SOL    HW132102   0.523   6.871   2.067
10401SOL    HW232103   0.541   6.840   1.908
10402SOL     OW32104   0.351   1.490   5.484
10402SOL    HW132105   0.392   1.531   5.402
10402SOL    HW232106   0.284   1.554   5.523
10403SOL     OW32107   4.410   1.701   2.876
10403SOL    HW132108   4.362   1.615   2.864
10403SOL    HW232109   4.345   1.773   2.899
10404SOL     OW32110   6.730   6.423   4.021
10404SOL    HW132111   6.663   6.426   3.947
10404SOL    HW232112   6.682   6.431   4.109
10405SOL     OW32113   1.108   5.844   4.807
10405SOL    HW132114   1.023   5.808   4.769
10405SOL    HW232115   1.182   5.828   4.742
10406SOL     OW32116   2.057   3.082   5.052
10406SOL    HW132117   2.151   3.088   5.019
10406SOL    HW232118   2.051   3.012   5.124
10407SOL     OW32119   2.732   7.004   6.975
10407SOL    HW132120   2.714   6.916   7.019
10407SOL    HW232121   2.663   0.042   7.004
10408SOL     OW32122   4.556   6.753   1.734
10408SOL    HW132123   4.460   6.780   1.728
10408SOL    HW232124   4.611   6.834   1.758
10409SOL     OW32125   0.041   4.399   0.790
10409SOL    HW132126   0.100   4.479   0.793
10409SOL    HW232127   6.979   4.426   0.758
10410SOL     OW32128   5.019   2.598   1.884
10410SOL    HW132129   5.024   2.517   1.826
10410SOL    HW232130   4.923   2.623   1.898
10411SOL     OW32131   3.130   5.981   4.010
10411SOL    HW132132   3.198   6.053   4.008
10411SOL    HW232133   3.083   5.976   3.922
10412SOL     OW32134   0.422   1.300   0.709
10412SOL    HW132135   0.471   1.231   0.762
10412SOL    HW232136   0.342   1.259   0.666
10413SOL     OW32137   6.301   2.700   1.821
10413SOL    HW132138   6.215   2.689   1.772
10413SOL    HW232139   6.351   2.778   1.783
10414SOL     OW32140   3.344   4.966   6.438
10414SOL    HW132141   3.335   4.877   6.484
10414SOL    HW232142   3.370   4.951   6.343
10415SOL     OW32143   1.822   4.754   4.294
10415SOL    HW132144   1.822   4.754   4.194
10415SOL    HW232145   1.797   4.663   4.328
10416SOL     OW32146   5.648   6.839   5.349
10416SOL    HW132147   5.699   6.836   5.435
10416SOL    HW232148   5.601   6.751   5.335
10417SOL     OW32149   4.204   5.022   3.884
10417SOL    HW132150   4.165   5.041   3.794
10417SOL    HW232151   4.140   4.968   3.938
10418SOL     OW32152   6.613   4.212   5.693
10418SOL    HW132153   6.652   4.295   5.653
10418SOL    HW232154   6.653   4.132   5.648
10419SOL     OW32155   3.341   6.705   6.381
10419SOL    HW132156   3.366   6.796   6.414
10419SOL    HW232157   3.391   6.684   6.298
10420SOL     OW32158   0.530   3.605   4.350
10420SOL    HW132159   0.482   3.519   4.334
10420SOL    HW232160   0.586   3.627   4.270
10421SOL     OW32161   1.421   3.746   3.781
10421SOL    HW132162   1.519   3.765   3.784
10421SOL    HW232163   1.401   3.665   3.837
10422SOL     OW32164   6.151   3.441   5.481
10422SOL    HW132165   6.174   3.386   5.401
10422SOL    HW232166   6.225   3.507   5.498
10423SOL     OW32167   5.436   4.959   5.705
10423SOL    HW132168   5.509   5.007   5.656
10423SOL    HW232169   5.355   5.018   5.712
10424SOL     OW32170   4.050   3.340   1.038
10424SOL    HW132171   4.145   3.314   1.024
10424SOL    HW232172   4.045   3.439   1.056
10425SOL     OW32173   1.161   6.521   2.544
10425SOL    HW132174   1.153   6.594   2.610
10425SOL    HW232175   1.072   6.476   2.532
10426SOL     OW32176   5.336   4.910   6.967
10426SOL    HW132177   5.263   4.974   6.992
10426SOL    HW232178   5.313   4.818   6.999
10427SOL     OW32179   4.488   0.972   0.487
10427SOL    HW132180   4.398   1.009   0.465
10427SOL    HW232181   4.478   0.893   0.548
10428SOL     OW32182   3.187   1.371   4.181
10428SOL    HW132183   3.134   1.453   4.204
10428SOL    HW232184   3.263   1.362   4.246
10429SOL     OW32185   0.018   4.156   2.601
10429SOL    HW132186   0.032   4.112   2.689
10429SOL    HW232187   6.954   4.193   2.597
10430SOL     OW32188   4.298   6.906   5.303
10430SOL    HW132189   4.198   6.909   5.307
10430SOL    HW232190   4.327   6.815   5.274
10431SOL     OW32191   2.197   6.393   4.177
10431SOL    HW132192   2.261   6.344   4.117
10431SOL    HW232193   2.201   6.354   4.269
10432SOL     OW32194   6.367   0.232   4.855
10432SOL    HW132195   6.269   0.218   4.854
10432SOL    HW232196   6.387   0.327   4.881
10433SOL     OW32197   0.419   6.260   2.838
10433SOL    HW132198   0.366   6.176   2.845
10433SOL    HW232199   0.420   6.291   2.743
10434SOL     OW32200   3.573   6.031   2.538
10434SOL    HW132201   3.553   6.011   2.442
10434SOL    HW232202   3.672   6.040   2.549
10435SOL     OW32203   1.475   1.931   5.255
10435SOL    HW132204   1.457   1.918   5.157
10435SOL    HW232205   1.390   1.958   5.300
10436SOL     OW32206   6.047   4.765   5.375
10436SOL    HW132207   6.048   4.830   5.451
10436SOL    HW232208   6.133   4.771   5.325
10437SOL     OW32209   5.063   4.699   5.694
10437SOL    HW132210   5.039   4.607   5.664
10437SOL    HW232211   5.000   4.729   5.765
10438SOL     OW32212   0.386   5.956   6.748
10438SOL    HW132213   0.442   5.880   6.780
10438SOL    HW232214   0.441   6.040   6.745
10439SOL     OW32215   4.177   1.321   4.873
10439SOL    HW132216   4.189   1.320   4.973
10439SOL    HW232217   4.088   1.360   4.850
10440SOL     OW32218   0.627   0.010   0.796
10440SOL    HW132219   0.685   0.048   0.868
10440SOL    HW232220   0.547   0.068   0.783
10441SOL     OW32221   3.446   1.661   1.694
10441SOL    HW132222   3.482   1.719   1.621
10441SOL    HW232223   3.449   1.565   1.665
10442SOL     OW32224   4.408   6.732   6.330
10442SOL    HW132225   4.451   6.808   6.282
10442SOL    HW232226   4.400   6.754   6.428
10443SOL     OW32227   4.781   2.509   3.496
10443SOL    HW132228   4.851   2.575   3.469
10443SOL    HW232229   4.816   2.453   3.571
10444SOL     OW32230   4.036   6.063   2.955
10444SOL    HW132231   3.971   6.000   2.997
10444SOL    HW232232   3.989   6.118   2.886
10445SOL     OW32233   0.567   4.812   4.214
10445SOL    HW132234   0.488   4.754   4.235
10445SOL    HW232235   0.616   4.833   4.298
10446SOL     OW32236   2.008   3.169   6.418
10446SOL    HW132237   1.997   3.069   6.424
10446SOL    HW232238   1.997   3.209   6.509
10447SOL     OW32239   0.020   0.951   3.165
10447SOL    HW132240   0.090   0.888   3.132
10447SOL    HW232241   0.035   1.042   3.126
10448SOL     OW32242   4.689   0.282   2.588
10448SOL    HW132243   4.716   0.186   2.597
10448SOL    HW232244   4.767   0.340   2.612
10449SOL     OW32245   1.670   5.002   6.214
10449SOL    HW132246   1.769   4.986   6.208
10449SOL    HW232247   1.621   4.916   6.200
10450SOL     OW32248   0.485   1.128   0.269
10450SOL    HW132249   0.572   1.156   0.309
10450SOL    HW232250   0.429   1.084   0.340
10451SOL     OW32251   1.821   5.593   2.855
10451SOL    HW132252   1.876   5.586   2.772
10451SOL    HW232253   1.880   5.580   2.935
10452SOL     OW32254   6.379   3.236   1.987
10452SOL    HW132255   6.394   3.244   1.888
10452SOL    HW232256   6.423   3.154   2.022
10453SOL     OW32257   5.573   0.080   1.312
10453SOL    HW132258   5.609   0.018   1.382
10453SOL    HW232259   5.501   0.033   1.260
10454SOL     OW32260   4.872   3.200   0.307
10454SOL    HW132261   4.954   3.216   0.253
10454SOL    HW232262   4.792   3.205   0.248
10455SOL     OW32263   6.856   6.847   3.251
10455SOL    HW132264   6.807   6.893   3.325
10455SOL    HW232265   6.954   6.858   3.265
10456SOL     OW32266   1.588   5.427   0.425
10456SOL    HW132267   1.556   5.365   0.353
10456SOL    HW232268   1.678   5.463   0.399
10457SOL     OW32269   4.012   3.103   0.882
10457SOL    HW132270   4.100   3.063   0.856
10457SOL    HW232271   4.025   3.197   0.912
10458SOL     OW32272   6.287   0.348   6.301
10458SOL    HW132273   6.325   0.283   6.235
10458SOL    HW232274   6.357   0.416   6.323
10459SOL     OW32275   4.604   6.017   1.466
10459SOL    HW132276   4.578   6.017   1.369
10459SOL    HW232277   4.633   6.108   1.493
10460SOL     OW32278   0.631   3.936   1.797
10460SOL    HW132279   0.583   3.864   1.745
10460SOL    HW232280   0.578   4.020   1.793
10461SOL     OW32281   5.906   5.371   4.869
10461SOL    HW132282   5.931   5.277   4.889
10461SOL    HW232283   5.983   5.417   4.824
10462SOL     OW32284   5.184   1.682   3.364
10462SOL    HW132285   5.205   1.686   3.266
10462SOL    HW232286   5.093   1.722   3.380
10463SOL     OW32287   4.699   2.892   5.990
10463SOL    HW132288   4.710   2.962   5.919
10463SOL    HW232289   4.788   2.874   6.032
10464SOL     OW32290   6.967   6.692   1.346
10464SOL    HW132291   6.885   6.719   1.295
10464SOL    HW232292   7.024   6.633   1.289
10465SOL     OW32293   6.041   5.942   0.462
10465SOL    HW132294   6.108   5.996   0.513
10465SOL    HW232295   6.074   5.927   0.369
10466SOL     OW32296   4.815   5.173   5.641
10466SOL    HW132297   4.720   5.193   5.619
10466SOL    HW232298   4.863   5.258   5.663
10467SOL     OW32299   2.831   1.621   0.112
10467SOL    HW132300   2.830   1.656   0.018
10467SOL    HW232301   2.796   1.690   0.174
10468SOL     OW32302   3.722   5.226   3.166
10468SOL    HW132303   3.725   5.321   3.137
10468SOL    HW232304   3.772   5.215   3.251
10469SOL     OW32305   3.978   4.585   5.291
10469SOL    HW132306   3.937   4.495   5.299
10469SOL    HW232307   3.984   4.627   5.382
10470SOL     OW32308   2.195   2.564   3.409
10470SOL    HW132309   2.261   2.610   3.469
10470SOL    HW232310   2.104   2.568   3.450
10471SOL     OW32311   3.310   1.241   0.893
10471SOL    HW132312   3.315   1.310   0.965
10471SOL    HW232313   3.262   1.160   0.927
10472SOL     OW32314   3.271   6.006   0.511
10472SOL    HW132315   3.274   5.907   0.493
10472SOL    HW232316   3.283   6.056   0.425
10473SOL     OW32317   6.462   6.811   6.966
10473SOL    HW132318   6.418   6.741   7.022
10473SOL    HW232319   6.403   6.831   6.887
10474SOL     OW32320   3.736   1.675   4.220
10474SOL    HW132321   3.739   1.662   4.121
10474SOL    HW232322   3.643   1.658   4.253
10475SOL     OW32323   4.564   6.873   1.093
10475SOL    HW132324   4.515   6.915   1.016
10475SOL    HW232325   4.522   6.901   1.179
10476SOL     OW32326   6.764   6.640   0.128
10476SOL    HW132327   6.852   6.594   0.136
10476SOL    HW232328   6.756   6.682   0.037
10477SOL     OW32329   6.674   0.648   4.667
10477SOL    HW132330   6.700   0.707   4.591
10477SOL    HW232331   6.737   0.662   4.743
10478SOL     OW32332   6.261   0.932   0.677
10478SOL    HW132333   6.359   0.952   0.678
10478SOL    HW232334   6.221   0.967   0.593
10479SOL     OW32335   6.590   1.826   3.005
10479SOL    HW132336   6.581   1.737   3.048
10479SOL    HW232337   6.687   1.848   2.993
10480SOL     OW32338   6.775   0.192   1.605
10480SOL    HW132339   6.685   0.227   1.632
10480SOL    HW232340   6.791   0.104   1.649
10481SOL     OW32341   2.818   0.057   4.103
10481SOL    HW132342   2.764   0.139   4.084
10481SOL    HW232343   2.757   7.009   4.121
10482SOL     OW32344   6.429   4.975   4.357
10482SOL    HW132345   6.489   4.904   4.320
10482SOL    HW232346   6.430   5.055   4.297
10483SOL     OW32347   6.591   4.545   0.090
10483SOL    HW132348   6.625   4.521   7.028
10483SOL    HW232349   6.626   4.635   0.116
10484SOL     OW32350   6.136   1.724   1.653
10484SOL    HW132351   6.149   1.819   1.625
10484SOL    HW232352   6.127   1.719   1.753
10485SOL     OW32353   3.201   3.501   0.249
10485SOL    HW132354   3.223   3.590   0.288
10485SOL    HW232355   3.285   3.456   0.219
10486SOL     OW32356   0.323   0.443   0.403
10486SOL    HW132357   0.338   0.457   0.501
10486SOL    HW232358   0.347   0.349   0.379
10487SOL     OW32359   4.914   1.534   1.323
10487SOL    HW132360   5.004   1.568   1.352
10487SOL    HW232361   4.870   1.603   1.266
10488SOL     OW32362   3.430   1.429   5.788
10488SOL    HW132363   3.432   1.507   5.850
10488SOL    HW232364   3.521   1.414   5.750
10489SOL     OW32365   0.353   6.721   5.064
10489SOL    HW132366   0.376   6.639   5.013
10489SOL    HW232367   0.437   6.765   5.096
10490SOL     OW32368   5.704   1.683   0.489
10490SOL    HW132369   5.739   1.608   0.431
10490SOL    HW232370   5.670   1.756   0.431
10491SOL     OW32371   2.588   2.338   6.030
10491SOL    HW132372   2.532   2.268   5.987
10491SOL    HW232373   2.587   2.421   5.974
10492SOL     OW32374   5.570   5.205   0.827
10492SOL    HW132375   5.546   5.298   0.854
10492SOL    HW232376   5.636   5.167   0.892
10493SOL     OW32377   3.486   0.188   1.541
10493SOL    HW132378   3.430   0.236   1.474
10493SOL    HW232379   3.447   0.200   1.632
10494SOL     OW32380   5.836   3.772   6.141
10494SOL    HW132381   5.809   3.679   6.167
10494SOL    HW232382   5.844   3.778   6.041
10495SOL     OW32383   1.450   6.565   1.497
10495SOL    HW132384   1.396   6.512   1.431
10495SOL    HW232385   1.474   6.654   1.457
10496SOL     OW32386   6.515   3.635   6.463
10496SOL    HW132387   6.596   3.672   6.509
10496SOL    HW232388   6.540   3.599   6.374
10497SOL     OW32389   1.927   0.260   2.168
10497SOL    HW132390   1.936   0.161   2.182
10497SOL    HW232391   1.892   0.302   2.251
10498SOL     OW32392   4.910   5.448   0.887
10498SOL    HW132393   4.966   5.391   0.947
10498SOL    HW232394   4.925   5.420   0.792
10499SOL     OW32395   4.393   6.574   2.118
10499SOL    HW132396   4.337   6.649   2.083
10499SOL    HW232397   4.490   6.596   2.106
10500SOL     OW32398   6.350   1.258   6.023
10500SOL    HW132399   6.319   1.241   5.929
10500SOL    HW232400   6.449   1.244   6.028
10501SOL     OW32401   2.352   5.997   2.104
10501SOL    HW132402   2.369   5.912   2.153
10501SOL    HW232403   2.394   5.993   2.013
10502SOL     OW32404   2.650   1.573   2.099
10502SOL    HW132405   2.705   1.656   2.092
10502SOL    HW232406   2.662   1.518   2.016
10503SOL     OW32407   4.692   2.689   0.855
10503SOL    HW132408   4.641   2.764   0.814
10503SOL    HW232409   4.770   2.726   0.906
10504SOL     OW32410   1.276   1.988   5.834
10504SOL    HW132411   1.251   2.046   5.757
10504SOL    HW232412   1.204   1.920   5.849
10505SOL     OW32413   4.970   5.044   0.914
10505SOL    HW132414   4.928   5.062   0.825
10505SOL    HW232415   5.029   5.121   0.939
10506SOL     OW32416   6.917   4.331   0.548
10506SOL    HW132417   6.851   4.327   0.623
10506SOL    HW232418   6.868   4.345   0.461
10507SOL     OW32419   1.870   6.723   0.662
10507SOL    HW132420   1.959   6.728   0.617
10507SOL    HW232421   1.859   6.632   0.704
10508SOL     OW32422   6.171   5.577   4.148
10508SOL    HW132423   6.142   5.670   4.171
10508SOL    HW232424   6.264   5.579   4.110
10509SOL     OW32425   6.875   4.959   4.806
10509SOL    HW132426   6.880   5.048   4.850
10509SOL    HW232427   6.968   4.926   4.786
10510SOL     OW32428   4.721   5.648   6.568
10510SOL    HW132429   4.668   5.681   6.645
10510SOL    HW232430   4.793   5.587   6.600
10511SOL     OW32431   3.290   1.052   2.245
10511SOL    HW132432   3.342   0.986   2.191
10511SOL    HW232433   3.234   1.109   2.185
10512SOL     OW32434   4.502   0.488   6.675
10512SOL    HW132435   4.439   0.501   6.752
10512SOL    HW232436   4.452   0.456   6.595
10513SOL     OW32437   5.759   2.391   4.684
10513SOL    HW132438   5.669   2.366   4.648
10513SOL    HW232439   5.788   2.323   4.751
10514SOL     OW32440   0.481   3.260   0.906
10514SOL    HW132441   0.476   3.359   0.919
10514SOL    HW232442   0.400   3.216   0.946
10515SOL     OW32443   0.859   4.147   3.682
10515SOL    HW132444   0.824   4.212   3.615
10515SOL    HW232445   0.871   4.058   3.639
10516SOL     OW32446   4.292   1.459   0.695
10516SOL    HW132447   4.226   1.430   0.626
10516SOL    HW232448   4.376   1.405   0.685
10517SOL     OW32449   0.414   2.991   1.380
10517SOL    HW132450   0.435   3.058   1.309
10517SOL    HW232451   0.378   3.038   1.461
10518SOL     OW32452   0.515   5.930   0.526
10518SOL    HW132453   0.517   5.949   0.625
10518SOL    HW232454   0.423   5.905   0.498
10519SOL     OW32455   3.727   3.414   0.755
10519SOL    HW132456   3.664   3.487   0.727
10519SOL    HW232457   3.680   3.326   0.750
10520SOL     OW32458   0.420   2.198   5.947
10520SOL    HW132459   0.350   2.215   5.877
10520SOL    HW232460   0.503   2.162   5.904
10521SOL     OW32461   6.227   5.411   1.718
10521SOL    HW132462   6.170   5.391   1.798
10521SOL    HW232463   6.319   5.434   1.749
10522SOL     OW32464   0.745   0.089   5.378
10522SOL    HW132465   0.780   0.183   5.375
10522SOL    HW232466   0.785   0.041   5.456
10523SOL     OW32467   0.743   4.541   2.657
10523SOL    HW132468   0.755   4.625   2.606
10523SOL    HW232469   0.647   4.511   2.652
10524SOL     OW32470   0.995   6.685   3.667
10524SOL    HW132471   0.970   6.619   3.737
10524SOL    HW232472   1.049   6.759   3.709
10525SOL     OW32473   4.538   0.048   6.551
10525SOL    HW132474   4.622   0.075   6.599
10525SOL    HW232475   4.501   0.126   6.502
10526SOL     OW32476   1.816   6.729   3.619
10526SOL    HW132477   1.796   6.734   3.522
10526SOL    HW232478   1.751   6.668   3.664
10527SOL     OW32479   1.018   1.346   5.219
10527SOL    HW132480   0.950   1.282   5.255
10527SOL    HW232481   0.977   1.399   5.144
10528SOL     OW32482   1.371   3.236   6.206
10528SOL    HW132483   1.404   3.322   6.245
10528SOL    HW232484   1.396   3.232   6.109
10529SOL     OW32485   3.006   6.329   4.222
10529SOL    HW132486   2.915   6.316   4.181
10529SOL    HW232487   3.002   6.405   4.288
10530SOL     OW32488   1.609   6.963   6.464
10530SOL    HW132489   1.640   0.006   6.526
10530SOL    HW232490   1.511   6.946   6.478
10531SOL     OW32491   1.339   2.738   4.248
10531SOL    HW132492   1.243   2.712   4.232
10531SOL    HW232493   1.386   2.663   4.293
10532SOL     OW32494   1.110   6.482   6.240
10532SOL    HW132495   1.192   6.515   6.287
10532SOL    HW232496   1.114   6.383   6.231
10533SOL     OW32497   2.973   6.915   3.639
10533SOL    HW132498   2.940   7.006   3.614
10533SOL    HW232499   2.902   6.865   3.689
10534SOL     OW32500   6.591   5.660   1.541
10534SOL    HW132501   6.551   5.607   1.467
10534SOL    HW232502   6.559   5.755   1.535
10535SOL     OW32503   1.133   2.268   1.596
10535SOL    HW132504   1.044   2.240   1.633
10535SOL    HW232505   1.198   2.193   1.607
10536SOL     OW32506   3.948   0.817   4.158
10536SOL    HW132507   3.929   0.759   4.078
10536SOL    HW232508   3.985   0.904   4.128
10537SOL     OW32509   3.988   6.090   3.944
10537SOL    HW132510   3.929   6.021   3.986
10537SOL    HW232511   3.960   6.104   3.849
10538SOL     OW32512   5.880   2.845   0.398
10538SOL    HW132513   5.888   2.749   0.373
10538SOL    HW232514   5.944   2.866   0.472
10539SOL     OW32515   0.383   4.745   6.955
10539SOL    HW132516   0.377   4.656   6.909
10539SOL    HW232517   0.317   4.808   6.914
10540SOL     OW32518   1.575   1.919   5.760
10540SOL    HW132519   1.478   1.907   5.785
10540SOL    HW232520   1.582   1.992   5.692
10541SOL     OW32521   3.200   4.100   2.152
10541SOL    HW132522   3.228   4.054   2.236
10541SOL    HW232523   3.165   4.192   2.174
10542SOL     OW32524   0.647   0.101   5.777
10542SOL    HW132525   0.648   0.022   5.839
10542SOL    HW232526   0.612   0.072   5.688
10543SOL     OW32527   0.104   1.303   4.809
10543SOL    HW132528   0.104   1.363   4.888
10543SOL    HW232529   0.012   1.301   4.769
10544SOL     OW32530   2.752   6.925   2.061
10544SOL    HW132531   2.759   7.016   2.021
10544SOL    HW232532   2.712   6.932   2.152
10545SOL     OW32533   0.284   2.178   1.400
10545SOL    HW132534   0.382   2.182   1.378
10545SOL    HW232535   0.272   2.194   1.498
10546SOL     OW32536   1.591   0.745   1.157
10546SOL    HW132537   1.690   0.763   1.152
10546SOL    HW232538   1.553   0.789   1.238
10547SOL     OW32539   4.955   3.423   2.997
10547SOL    HW132540   4.930   3.418   2.900
10547SOL    HW232541   4.951   3.518   3.027
10548SOL     OW32542   5.530   4.403   3.985
10548SOL    HW132543   5.573   4.373   4.071
10548SOL    HW232544   5.442   4.447   4.005
10549SOL     OW32545   0.676   0.194   1.951
10549SOL    HW132546   0.590   0.153   1.922
10549SOL    HW232547   0.726   0.130   2.009
10550SOL     OW32548   4.624   6.939   3.759
10550SOL    HW132549   4.589   6.957   3.851
10550SOL    HW232550   4.549   6.910   3.700
10551SOL     OW32551   1.589   2.468   6.602
10551SOL    HW132552   1.602   2.410   6.683
10551SOL    HW232553   1.554   2.412   6.527
10552SOL     OW32554   3.038   0.995   5.963
10552SOL    HW132555   3.100   0.959   6.032
10552SOL    HW232556   3.083   1.069   5.913
10553SOL     OW32557   0.655   4.701   1.573
10553SOL    HW132558   0.649   4.759   1.654
10553SOL    HW232559   0.618   4.750   1.494
10554SOL     OW32560   6.124   4.778   0.475
10554SOL    HW132561   6.053   4.831   0.522
10554SOL    HW232562   6.094   4.683   0.467
10555SOL     OW32563   1.944   2.388   0.262
10555SOL    HW132564   1.973   2.445   0.185
10555SOL    HW232565   1.851   2.415   0.289
10556SOL     OW32566   1.847   1.472   4.710
10556SOL    HW132567   1.823   1.377   4.688
10556SOL    HW232568   1.917   1.503   4.646
10557SOL     OW32569   2.211   2.941   3.431
10557SOL    HW132570   2.191   3.032   3.466
10557SOL    HW232571   2.190   2.937   3.334
10558SOL     OW32572   3.978   0.356   4.278
10558SOL    HW132573   4.000   0.261   4.300
10558SOL    HW232574   4.061   0.411   4.285
10559SOL     OW32575   5.016   0.550   2.002
10559SOL    HW132576   4.932   0.593   1.969
10559SOL    HW232577   5.019   0.556   2.102
10560SOL     OW32578   4.106   6.181   2.593
10560SOL    HW132579   4.032   6.121   2.626
10560SOL    HW232580   4.078   6.224   2.508
10561SOL     OW32581   3.672   4.194   1.554
10561SOL    HW132582   3.627   4.198   1.643
10561SOL    HW232583   3.750   4.132   1.559
10562SOL     OW32584   4.138   5.463   6.884
10562SOL    HW132585   4.182   5.552   6.889
10562SOL    HW232586   4.039   5.475   6.879
10563SOL     OW32587   0.857   1.570   3.462
10563SOL    HW132588   0.813   1.546   3.548
10563SOL    HW232589   0.904   1.658   3.472
10564SOL     OW32590   6.028   6.222   2.177
10564SOL    HW132591   6.128   6.216   2.178
10564SOL    HW232592   6.001   6.302   2.123
10565SOL     OW32593   0.908   6.787   5.608
10565SOL    HW132594   0.893   6.885   5.615
10565SOL    HW232595   0.994   6.769   5.560
10566SOL     OW32596   3.675   2.094   6.353
10566SOL    HW132597   3.579   2.092   6.383
10566SOL    HW232598   3.724   2.016   6.393
10567SOL     OW32599   2.827   2.060   4.906
10567SOL    HW132600   2.842   2.030   5.000
10567SOL    HW232601   2.902   2.121   4.878
10568SOL     OW32602   6.536   3.276   1.777
10568SOL    HW132603   6.527   3.358   1.722
10568SOL    HW232604   6.625   3.233   1.759
10569SOL     OW32605   5.916   1.981   2.414
10569SOL    HW132606   5.962   2.043   2.350
10569SOL    HW232607   5.975   1.903   2.434
10570SOL     OW32608   1.089   5.014   3.470
10570SOL    HW132609   1.076   4.915   3.473
10570SOL    HW232610   1.073   5.048   3.378
10571SOL     OW32611   0.095   4.208   5.554
10571SOL    HW132612   0.069   4.167   5.641
10571SOL    HW232613   0.013   4.222   5.498
10572SOL     OW32614   6.575   3.906   3.157
10572SOL    HW132615   6.573   3.982   3.222
10572SOL    HW232616   6.627   3.830   3.196
10573SOL     OW32617   5.239   0.491   5.064
10573SOL    HW132618   5.304   0.552   5.108
10573SOL    HW232619   5.267   0.396   5.080
10574SOL     OW32620   1.560   1.422   4.040
10574SOL    HW132621   1.480   1.471   4.076
10574SOL    HW232622   1.611   1.381   4.115
10575SOL     OW32623   6.815   1.406   4.051
10575SOL    HW132624   6.801   1.351   4.134
10575SOL    HW232625   6.913   1.408   4.029
10576SOL     OW32626   6.933   5.551   5.126
10576SOL    HW132627   6.951   5.453   5.125
10576SOL    HW232628   7.008   5.600   5.081
10577SOL     OW32629   1.852   4.452   0.316
10577SOL    HW132630   1.852   4.431   0.414
10577SOL    HW232631   1.766   4.422   0.275
10578SOL     OW32632   4.791   1.265   2.585
10578SOL    HW132633   4.778   1.339   2.518
10578SOL    HW232634   4.859   1.293   2.653
10579SOL     OW32635   4.235   2.827   1.686
10579SOL    HW132636   4.137   2.815   1.702
10579SOL    HW232637   4.259   2.923   1.701
10580SOL     OW32638   6.482   0.494   6.560
10580SOL    HW132639   6.549   0.423   6.583
10580SOL    HW232640   6.526   0.584   6.568
10581SOL     OW32641   5.957   6.936   3.032
10581SOL    HW132642   5.975   0.003   3.011
10581SOL    HW232643   5.966   6.921   3.130
10582SOL     OW32644   4.861   4.954   5.831
10582SOL    HW132645   4.906   4.943   5.742
10582SOL    HW232646   4.830   5.049   5.841
10583SOL     OW32647   3.979   1.228   3.586
10583SOL    HW132648   4.051   1.284   3.546
10583SOL    HW232649   4.012   1.190   3.673
10584SOL     OW32650   6.516   0.328   0.394
10584SOL    HW132651   6.601   0.354   0.439
10584SOL    HW232652   6.440   0.337   0.458
10585SOL     OW32653   2.372   1.659   5.426
10585SOL    HW132654   2.331   1.735   5.375
10585SOL    HW232655   2.470   1.677   5.439
10586SOL     OW32656   6.637   5.283   4.444
10586SOL    HW132657   6.658   5.238   4.531
10586SOL    HW232658   6.695   5.364   4.433
10587SOL     OW32659   6.452   4.230   0.080
10587SOL    HW132660   6.424   4.225   0.176
10587SOL    HW232661   6.422   4.147   0.033
10588SOL     OW32662   1.436   3.483   4.294
10588SOL    HW132663   1.482   3.567   4.266
10588SOL    HW232664   1.354   3.505   4.347
10589SOL     OW32665   6.579   1.018   4.406
10589SOL    HW132666   6.509   0.948   4.393
10589SOL    HW232667   6.544   1.106   4.376
10590SOL     OW32668   0.426   0.433   1.571
10590SOL    HW132669   0.411   0.411   1.668
10590SOL    HW232670   0.375   0.369   1.514
10591SOL     OW32671   2.156   1.849   6.883
10591SOL    HW132672   2.113   1.936   6.907
10591SOL    HW232673   2.093   1.796   6.826
10592SOL     OW32674   5.999   3.330   2.614
10592SOL    HW132675   6.002   3.244   2.563
10592SOL    HW232676   5.966   3.312   2.707
10593SOL     OW32677   2.282   6.533   0.495
10593SOL    HW132678   2.287   6.465   0.422
10593SOL    HW232679   2.367   6.586   0.496
10594SOL     OW32680   5.300   0.522   3.001
10594SOL    HW132681   5.217   0.560   3.042
10594SOL    HW232682   5.314   0.429   3.034
10595SOL     OW32683   4.469   6.130   0.024
10595SOL    HW132684   4.541   6.177   0.075
10595SOL    HW232685   4.482   6.144   6.955
10596SOL     OW32686   4.398   0.497   0.462
10596SOL    HW132687   4.320   0.434   0.458
10596SOL    HW232688   4.400   0.554   0.380
10597SOL     OW32689   3.030   1.471   5.637
10597SOL    HW132690   3.121   1.471   5.595
10597SOL    HW232691   3.039   1.484   5.736
10598SOL     OW32692   3.555   2.880   6.997
10598SOL    HW132693   3.536   2.935   6.915
10598SOL    HW232694   3.470   2.866   0.018
10599SOL     OW32695   5.335   3.320   5.970
10599SOL    HW132696   5.423   3.359   5.996
10599SOL    HW232697   5.272   3.323   6.047
10600SOL     OW32698   2.946   2.632   0.274
10600SOL    HW132699   2.848   2.624   0.295
10600SOL    HW232700   2.988   2.541   0.275
10601SOL     OW32701   1.909   4.487   5.332
10601SOL    HW132702   1.843   4.464   5.260
10601SOL    HW232703   1.936   4.404   5.380
10602SOL     OW32704   2.676   0.857   2.245
10602SOL    HW132705   2.580   0.854   2.218
10602SOL    HW232706   2.733   0.826   2.169
10603SOL     OW32707   3.672   0.385   3.253
10603SOL    HW132708   3.702   0.299   3.293
10603SOL    HW232709   3.623   0.368   3.168
10604SOL     OW32710   5.958   5.651   4.987
10604SOL    HW132711   5.869   5.611   5.009
10604SOL    HW232712   5.944   5.738   4.940
10605SOL     OW32713   1.664   6.258   7.014
10605SOL    HW132714   1.695   6.229   6.923
10605SOL    HW232715   1.741   6.297   0.036
10606SOL     OW32716   0.281   0.855   2.076
10606SOL    HW132717   0.260   0.763   2.108
10606SOL    HW232718   0.219   0.920   2.119
10607SOL     OW32719   4.492   4.968   5.575
10607SOL    HW132720   4.492   5.066   5.554
10607SOL    HW232721   4.551   4.920   5.509
10608SOL     OW32722   5.680   3.132   5.994
10608SOL    HW132723   5.607   3.067   5.979
10608SOL    HW232724   5.715   3.122   6.087
10609SOL     OW32725   2.153   6.935   6.688
10609SOL    HW132726   2.243   6.954   6.726
10609SOL    HW232727   2.135   6.996   6.611
10610SOL     OW32728   1.141   2.279   4.269
10610SOL    HW132729   1.227   2.243   4.232
10610SOL    HW232730   1.081   2.203   4.292
10611SOL     OW32731   2.724   3.926   6.428
10611SOL    HW132732   2.744   3.922   6.330
10611SOL    HW232733   2.744   4.018   6.463
10612SOL     OW32734   3.602   1.597   4.687
10612SOL    HW132735   3.542   1.650   4.627
10612SOL    HW232736   3.599   1.500   4.661
10613SOL     OW32737   5.307   5.908   5.449
10613SOL    HW132738   5.248   5.988   5.442
10613SOL    HW232739   5.253   5.829   5.479
10614SOL     OW32740   5.133   1.510   4.621
10614SOL    HW132741   5.162   1.432   4.675
10614SOL    HW232742   5.189   1.516   4.538
10615SOL     OW32743   4.482   0.207   5.650
10615SOL    HW132744   4.564   0.256   5.620
10615SOL    HW232745   4.505   0.146   5.725
10616SOL     OW32746   2.328   0.130   0.437
10616SOL    HW132747   2.280   0.184   0.368
10616SOL    HW232748   2.427   0.145   0.428
10617SOL     OW32749   2.961   3.655   1.545
10617SOL    HW132750   2.909   3.622   1.467
10617SOL    HW232751   3.055   3.673   1.516
10618SOL     OW32752   1.201   3.601   6.074
10618SOL    HW132753   1.291   3.576   6.038
10618SOL    HW232754   1.195   3.574   6.170
10619SOL     OW32755   0.088   3.259   2.205
10619SOL    HW132756   0.095   3.347   2.158
10619SOL    HW232757   0.004   3.213   2.178
10620SOL     OW32758   1.086   5.734   5.058
10620SOL    HW132759   1.121   5.790   5.133
10620SOL    HW232760   1.106   5.779   4.971
10621SOL     OW32761   0.847   5.075   1.768
10621SOL    HW132762   0.904   5.151   1.736
10621SOL    HW232763   0.904   5.009   1.816
10622SOL     OW32764   4.715   2.274   1.406
10622SOL    HW132765   4.754   2.201   1.462
10622SOL    HW232766   4.753   2.269   1.314
10623SOL     OW32767   0.330   4.558   5.319
10623SOL    HW132768   0.237   4.538   5.287
10623SOL    HW232769   0.387   4.583   5.241
10624SOL     OW32770   0.705   2.367   4.739
10624SOL    HW132771   0.748   2.303   4.676
10624SOL    HW232772   0.648   2.432   4.688
10625SOL     OW32773   0.247   4.553   0.885
10625SOL    HW132774   0.343   4.526   0.889
10625SOL    HW232775   0.240   4.647   0.851
10626SOL     OW32776   2.652   2.806   0.176
10626SOL    HW132777   2.555   2.793   0.157
10626SOL    HW232778   2.664   2.869   0.252
10627SOL     OW32779   5.282   0.178   1.338
10627SOL    HW132780   5.345   0.189   1.261
10627SOL    HW232781   5.213   0.110   1.315
10628SOL     OW32782   4.920   6.469   0.183
10628SOL    HW132783   4.879   6.504   0.098
10628SOL    HW232784   5.015   6.500   0.189
10629SOL     OW32785   2.482   4.960   5.050
10629SOL    HW132786   2.390   4.938   5.018
10629SOL    HW232787   2.544   4.885   5.026
10630SOL     OW32788   5.977   1.594   3.881
10630SOL    HW132789   5.958   1.502   3.847
10630SOL    HW232790   5.917   1.660   3.834
10631SOL     OW32791   3.192   5.173   5.267
10631SOL    HW132792   3.099   5.209   5.272
10631SOL    HW232793   3.253   5.243   5.231
10632SOL     OW32794   5.479   1.240   3.654
10632SOL    HW132795   5.545   1.315   3.660
10632SOL    HW232796   5.401   1.259   3.714
10633SOL     OW32797   2.327   2.888   0.676
10633SOL    HW132798   2.277   2.897   0.762
10633SOL    HW232799   2.396   2.816   0.684
10634SOL     OW32800   3.275   4.556   0.994
10634SOL    HW132801   3.286   4.644   0.949
10634SOL    HW232802   3.253   4.570   1.090
10635SOL     OW32803   1.876   2.904   0.979
10635SOL    HW132804   1.939   2.937   0.909
10635SOL    HW232805   1.888   2.957   1.063
10636SOL     OW32806   0.752   2.117   1.436
10636SOL    HW132807   0.758   2.181   1.512
10636SOL    HW232808   0.792   2.029   1.462
10637SOL     OW32809   2.317   4.347   6.335
10637SOL    HW132810   2.333   4.438   6.373
10637SOL    HW232811   2.358   4.341   6.244
10638SOL     OW32812   6.457   5.308   2.498
10638SOL    HW132813   6.380   5.343   2.552
10638SOL    HW232814   6.529   5.276   2.559
10639SOL     OW32815   1.121   3.067   3.673
10639SOL    HW132816   1.080   2.988   3.718
10639SOL    HW232817   1.049   3.127   3.639
10640SOL     OW32818   3.734   0.185   5.311
10640SOL    HW132819   3.717   0.207   5.215
10640SOL    HW232820   3.833   0.176   5.326
10641SOL     OW32821   2.442   1.855   1.651
10641SOL    HW132822   2.525   1.905   1.677
10641SOL    HW232823   2.379   1.918   1.606
10642SOL     OW32824   6.388   2.469   1.463
10642SOL    HW132825   6.398   2.569   1.472
10642SOL    HW232826   6.374   2.429   1.554
10643SOL     OW32827   1.899   5.238   5.144
10643SOL    HW132828   1.880   5.232   5.046
10643SOL    HW232829   1.994   5.213   5.161
10644SOL     OW32830   5.746   2.871   2.733
10644SOL    HW132831   5.758   2.955   2.787
10644SOL    HW232832   5.660   2.828   2.758
10645SOL     OW32833   1.859   2.679   4.748
10645SOL    HW132834   1.799   2.685   4.668
10645SOL    HW232835   1.946   2.639   4.722
10646SOL     OW32836   0.529   0.405   6.504
10646SOL    HW132837   0.583   0.384   6.586
10646SOL    HW232838   0.455   0.468   6.529
10647SOL     OW32839   2.937   5.420   4.891
10647SOL    HW132840   2.983   5.386   4.809
10647SOL    HW232841   3.004   5.465   4.950
10648SOL     OW32842   6.011   4.218   6.131
10648SOL    HW132843   6.078   4.234   6.204
10648SOL    HW232844   5.967   4.129   6.144
10649SOL     OW32845   0.003   4.708   2.405
10649SOL    HW132846   0.001   4.647   2.484
10649SOL    HW232847   0.075   4.776   2.417
10650SOL     OW32848   0.952   0.288   3.925
10650SOL    HW132849   0.894   0.370   3.916
10650SOL    HW232850   0.945   0.234   3.841
10651SOL     OW32851   5.520   6.104   6.804
10651SOL    HW132852   5.612   6.067   6.815
10651SOL    HW232853   5.458   6.059   6.868
10652SOL     OW32854   3.497   0.017   5.635
10652SOL    HW132855   3.513   0.038   5.731
10652SOL    HW232856   3.451   6.957   5.628
10653SOL     OW32857   3.988   4.817   3.329
10653SOL    HW132858   3.966   4.777   3.240
10653SOL    HW232859   3.907   4.862   3.366
10654SOL     OW32860   5.296   0.983   0.715
10654SOL    HW132861   5.271   1.033   0.632
10654SOL    HW232862   5.304   0.886   0.695
10655SOL     OW32863   2.123   5.425   0.802
10655SOL    HW132864   2.145   5.328   0.790
10655SOL    HW232865   2.024   5.437   0.800
10656SOL     OW32866   6.682   2.358   2.875
10656SOL    HW132867   6.731   2.291   2.819
10656SOL    HW232868   6.650   2.433   2.817
10657SOL     OW32869   6.390   0.120   6.148
10657SOL    HW132870   6.410   0.072   6.234
10657SOL    HW232871   6.392   0.055   6.072
10658SOL     OW32872   6.442   4.594   5.033
10658SOL    HW132873   6.433   4.585   5.132
10658SOL    HW232874   6.536   4.619   5.011
10659SOL     OW32875   7.028   5.714   0.974
10659SOL    HW132876   0.037   5.624   0.954
10659SOL    HW232877   6.947   5.704   1.031
10660SOL     OW32878   4.858   4.577   6.403
10660SOL    HW132879   4.796   4.519   6.351
10660SOL    HW232880   4.919   4.520   6.458
10661SOL     OW32881   1.568   0.001   2.030
10661SOL    HW132882   1.578   6.933   2.008
10661SOL    HW232883   1.591   0.056   1.950
10662SOL     OW32884   5.772   6.455   2.917
10662SOL    HW132885   5.770   6.555   2.919
10662SOL    HW232886   5.721   6.422   2.838
10663SOL     OW32887   0.474   1.512   1.627
10663SOL    HW132888   0.429   1.595   1.594
10663SOL    HW232889   0.480   1.514   1.727
10664SOL     OW32890   0.029   4.153   4.972
10664SOL    HW132891   6.985   4.209   5.011
10664SOL    HW232892   0.029   4.063   5.016
10665SOL     OW32893   1.352   1.102   0.490
10665SOL    HW132894   1.353   1.199   0.467
10665SOL    HW232895   1.442   1.062   0.472
10666SOL     OW32896   3.172   3.841   1.357
10666SOL    HW132897   3.260   3.819   1.400
10666SOL    HW232898   3.115   3.889   1.423
10667SOL     OW32899   3.984   3.165   5.498
10667SOL    HW132900   4.001   3.263   5.485
10667SOL    HW232901   4.066   3.121   5.533
10668SOL     OW32902   2.211   0.302   4.832
10668SOL    HW132903   2.249   0.225   4.779
10668SOL    HW232904   2.115   0.314   4.809
10669SOL     OW32905   5.820   6.560   0.879
10669SOL    HW132906   5.857   6.652   0.864
10669SOL    HW232907   5.895   6.494   0.877
10670SOL     OW32908   5.308   3.566   5.194
10670SOL    HW132909   5.362   3.543   5.275
10670SOL    HW232910   5.210   3.563   5.217
10671SOL     OW32911   2.532   2.320   3.194
10671SOL    HW132912   2.520   2.396   3.258
10671SOL    HW232913   2.572   2.242   3.242
10672SOL     OW32914   6.151   2.955   0.897
10672SOL    HW132915   6.086   2.909   0.957
10672SOL    HW232916   6.238   2.968   0.944
10673SOL     OW32917   1.187   1.161   6.369
10673SOL    HW132918   1.112   1.114   6.417
10673SOL    HW232919   1.159   1.180   6.275
10674SOL     OW32920   3.608   3.670   1.824
10674SOL    HW132921   3.609   3.645   1.727
10674SOL    HW232922   3.683   3.624   1.871
10675SOL     OW32923   1.616   6.550   6.955
10675SOL    HW132924   1.635   6.590   0.016
10675SOL    HW232925   1.577   6.458   6.967
10676SOL     OW32926   6.582   6.105   6.255
10676SOL    HW132927   6.525   6.095   6.337
10676SOL    HW232928   6.574   6.198   6.220
10677SOL     OW32929   0.970   1.095   2.273
10677SOL    HW132930   1.065   1.070   2.289
10677SOL    HW232931   0.934   1.040   2.197
10678SOL     OW32932   3.216   6.260   4.059
10678SOL    HW132933   3.276   6.337   4.038
10678SOL    HW232934   3.130   6.294   4.098
10679SOL     OW32935   4.209   5.704   6.324
10679SOL    HW132936   4.186   5.735   6.232
10679SOL    HW232937   4.181   5.608   6.334
10680SOL     OW32938   2.695   1.922   2.847
10680SOL    HW132939   2.676   2.020   2.837
10680SOL    HW232940   2.628   1.870   2.794
10681SOL     OW32941   0.966   3.325   6.919
10681SOL    HW132942   0.976   3.376   7.005
10681SOL    HW232943   0.991   3.229   6.935
10682SOL     OW32944   2.131   1.263   4.822
10682SOL    HW132945   2.078   1.342   4.854
10682SOL    HW232946   2.215   1.295   4.778
10683SOL     OW32947   3.343   2.057   3.614
10683SOL    HW132948   3.331   1.964   3.579
10683SOL    HW232949   3.437   2.087   3.600
10684SOL     OW32950   5.344   4.194   1.201
10684SOL    HW132951   5.276   4.121   1.208
10684SOL    HW232952   5.422   4.161   1.147
10685SOL     OW32953   0.515   5.702   2.801
10685SOL    HW132954   0.459   5.692   2.884
10685SOL    HW232955   0.518   5.615   2.753
10686SOL     OW32956   1.413   4.768   6.375
10686SOL    HW132957   1.501   4.768   6.327
10686SOL    HW232958   1.370   4.678   6.365
10687SOL     OW32959   7.006   4.978   1.762
10687SOL    HW132960   0.000   4.992   1.858
10687SOL    HW232961   7.010   5.065   1.713
10688SOL     OW32962   6.188   4.382   3.174
10688SOL    HW132963   6.120   4.453   3.156
10688SOL    HW232964   6.172   4.305   3.112
10689SOL     OW32965   0.326   6.491   3.555
10689SOL    HW132966   0.280   6.402   3.556
10689SOL    HW232967   0.379   6.500   3.471
10690SOL     OW32968   0.029   6.427   2.741
10690SOL    HW132969   0.098   6.453   2.809
10690SOL    HW232970   7.003   6.351   2.777
10691SOL     OW32971   0.102   1.988   2.050
10691SOL    HW132972   0.133   2.082   2.058
10691SOL    HW232973   0.097   1.947   2.141
10692SOL     OW32974   2.773   5.182   3.185
10692SOL    HW132975   2.821   5.133   3.112
10692SOL    HW232976   2.790   5.137   3.272
10693SOL     OW32977   2.691   0.438   0.134
10693SOL    HW132978   2.656   0.532   0.129
10693SOL    HW232979   2.783   0.435   0.094
10694SOL     OW32980   5.393   6.780   1.779
10694SOL    HW132981   5.469   6.791   1.843
10694SOL    HW232982   5.307   6.797   1.826
10695SOL     OW32983   5.107   2.122   2.560
10695SOL    HW132984   5.049   2.060   2.507
10695SOL    HW232985   5.189   2.144   2.507
10696SOL     OW32986   0.055   3.843   3.754
10696SOL    HW132987   0.038   3.856   3.852
10696SOL    HW232988   0.037   3.928   3.706
10697SOL     OW32989   0.686   5.768   4.528
10697SOL    HW132990   0.749   5.697   4.560
10697SOL    HW232991   0.672   5.835   4.601
10698SOL     OW32992   4.181   5.800   4.770
10698SOL    HW132993   4.095   5.776   4.726
10698SOL    HW232994   4.257   5.780   4.708
10699SOL     OW32995   3.744   2.743   1.808
10699SOL    HW132996   3.650   2.759   1.779
10699SOL    HW232997   3.767   2.646   1.796
10700SOL     OW32998   0.462   6.517   0.728
10700SOL    HW132999   0.490   6.612   0.743
10700SOL    HW233000   0.502   6.459   0.800
10701SOL     OW33001   3.239   5.929   0.160
10701SOL    HW133002   3.169   5.914   0.090
10701SOL    HW233003   3.247   5.848   0.217
10702SOL     OW33004   5.945   2.607   2.290
10702SOL    HW133005   6.021   2.585   2.229
10702SOL    HW233006   5.894   2.685   2.254
10703SOL     OW33007   2.899   3.447   4.873
10703SOL    HW133008   2.937   3.538   4.855
10703SOL    HW233009   2.856   3.412   4.790
10704SOL     OW33010   6.416   5.533   1.356
10704SOL    HW133011   6.345   5.466   1.377
10704SOL    HW233012   6.372   5.617   1.322
10705SOL     OW33013   6.307   4.307   2.189
10705SOL    HW133014   6.232   4.359   2.231
10705SOL    HW233015   6.315   4.218   2.234
10706SOL     OW33016   4.595   6.429   2.557
10706SOL    HW133017   4.614   6.371   2.635
10706SOL    HW233018   4.648   6.514   2.565
10707SOL     OW33019   0.168   6.846   3.734
10707SOL    HW133020   0.253   6.828   3.683
10707SOL    HW233021   0.090   6.836   3.672
10708SOL     OW33022   4.586   0.692   2.553
10708SOL    HW133023   4.580   0.744   2.467
10708SOL    HW233024   4.494   0.680   2.591
10709SOL     OW33025   5.964   6.815   5.128
10709SOL    HW133026   6.039   6.864   5.173
10709SOL    HW233027   5.889   6.879   5.110
10710SOL     OW33028   0.309   6.670   4.690
10710SOL    HW133029   0.240   6.708   4.629
10710SOL    HW233030   0.334   6.578   4.658
10711SOL     OW33031   1.635   5.957   3.405
10711SOL    HW133032   1.679   5.890   3.346
10711SOL    HW233033   1.641   6.048   3.363
10712SOL     OW33034   2.514   0.899   1.065
10712SOL    HW133035   2.488   0.828   1.130
10712SOL    HW233036   2.506   0.863   0.972
10713SOL     OW33037   1.315   3.331   1.366
10713SOL    HW133038   1.240   3.396   1.377
10713SOL    HW233039   1.295   3.270   1.289
10714SOL     OW33040   5.913   3.574   5.515
10714SOL    HW133041   5.881   3.571   5.610
10714SOL    HW233042   5.989   3.510   5.503
10715SOL     OW33043   4.609   6.947   2.672
10715SOL    HW133044   4.654   6.977   2.756
10715SOL    HW233045   4.511   6.941   2.686
10716SOL     OW33046   5.703   3.116   4.499
10716SOL    HW133047   5.783   3.056   4.496
10716SOL    HW233048   5.732   3.211   4.505
10717SOL     OW33049   0.886   2.844   0.907
10717SOL    HW133050   0.880   2.944   0.913
10717SOL    HW233051   0.861   2.814   0.815
10718SOL     OW33052   0.477   3.074   6.777
10718SOL    HW133053   0.382   3.062   6.806
10718SOL    HW233054   0.479   3.113   6.685
10719SOL     OW33055   5.378   5.718   0.060
10719SOL    HW133056   5.457   5.729   7.028
10719SOL    HW233057   5.408   5.730   0.155
10720SOL     OW33058   6.603   2.988   5.747
10720SOL    HW133059   6.676   2.935   5.790
10720SOL    HW233060   6.549   2.928   5.688
10721SOL     OW33061   6.195   4.033   5.141
10721SOL    HW133062   6.205   4.125   5.102
10721SOL    HW233063   6.242   4.029   5.229
10722SOL     OW33064   7.013   4.046   0.514
10722SOL    HW133065   7.023   4.143   0.534
10722SOL    HW233066   6.976   3.999   0.594
10723SOL     OW33067   0.178   3.666   6.500
10723SOL    HW133068   0.085   3.696   6.480
10723SOL    HW233069   0.242   3.711   6.437
10724SOL     OW33070   4.717   0.484   0.508
10724SOL    HW133071   4.618   0.495   0.495
10724SOL    HW233072   4.752   0.420   0.439
10725SOL     OW33073   0.020   5.093   3.413
10725SOL    HW133074   0.114   5.066   3.393
10725SOL    HW233075   0.020   5.170   3.477
10726SOL     OW33076   5.791   5.944   5.638
10726SOL    HW133077   5.811   5.973   5.732
10726SOL    HW233078   5.697   5.969   5.615
10727SOL     OW33079   0.670   5.082   4.430
10727SOL    HW133080   0.724   5.034   4.499
10727SOL    HW233081   0.593   5.128   4.474
10728SOL     OW33082   6.285   6.141   1.688
10728SOL    HW133083   6.281   6.241   1.678
10728SOL    HW233084   6.359   6.117   1.751
10729SOL     OW33085   5.976   1.047   3.371
10729SOL    HW133086   6.017   1.126   3.418
10729SOL    HW233087   5.884   1.031   3.408
10730SOL     OW33088   2.542   0.198   0.709
10730SOL    HW133089   2.443   0.185   0.705
10730SOL    HW233090   2.562   0.287   0.749
10731SOL     OW33091   2.407   5.982   6.878
10731SOL    HW133092   2.400   5.943   6.970
10731SOL    HW233093   2.415   6.081   6.884
10732SOL     OW33094   5.199   5.804   2.729
10732SOL    HW133095   5.120   5.812   2.789
10732SOL    HW233096   5.215   5.891   2.682
10733SOL     OW33097   5.061   1.877   6.912
10733SOL    HW133098   5.018   1.805   6.856
10733SOL    HW233099   5.145   1.908   6.867
10734SOL     OW33100   1.182   0.254   6.821
10734SOL    HW133101   1.087   0.249   6.852
10734SOL    HW233102   1.243   0.235   6.898
10735SOL     OW33103   1.423   4.610   2.859
10735SOL    HW133104   1.448   4.519   2.824
10735SOL    HW233105   1.378   4.662   2.786
10736SOL     OW33106   0.512   0.925   3.201
10736SOL    HW133107   0.441   0.898   3.267
10736SOL    HW233108   0.486   1.010   3.156
10737SOL     OW33109   1.198   1.851   0.258
10737SOL    HW133110   1.253   1.844   0.341
10737SOL    HW233111   1.112   1.802   0.270
10738SOL     OW33112   2.349   0.905   2.496
10738SOL    HW133113   2.349   0.828   2.561
10738SOL    HW233114   2.442   0.940   2.486
10739SOL     OW33115   0.733   1.539   1.822
10739SOL    HW133116   0.776   1.458   1.862
10739SOL    HW233117   0.774   1.560   1.734
10740SOL     OW33118   1.273   4.236   6.290
10740SOL    HW133119   1.275   4.234   6.190
10740SOL    HW233120   1.309   4.151   6.327
10741SOL     OW33121   0.287   0.847   3.349
10741SOL    HW133122   0.248   0.804   3.268
10741SOL    HW233123   0.212   0.879   3.408
10742SOL     OW33124   6.197   0.085   1.985
10742SOL    HW133125   6.227   0.162   1.928
10742SOL    HW233126   6.099   0.071   1.972
10743SOL     OW33127   2.695   2.036   3.704
10743SOL    HW133128   2.636   2.034   3.785
10743SOL    HW233129   2.639   2.052   3.623
10744SOL     OW33130   3.400   1.609   2.660
10744SOL    HW133131   3.366   1.530   2.610
10744SOL    HW233132   3.377   1.600   2.757
10745SOL     OW33133   0.504   5.078   0.865
10745SOL    HW133134   0.469   5.122   0.782
10745SOL    HW233135   0.517   5.147   0.936
10746SOL     OW33136   1.812   3.797   1.735
10746SOL    HW133137   1.770   3.850   1.661
10746SOL    HW233138   1.910   3.790   1.721
10747SOL     OW33139   4.637   1.128   3.290
10747SOL    HW133140   4.715   1.070   3.264
10747SOL    HW233141   4.604   1.101   3.381
10748SOL     OW33142   4.405   7.019   0.957
10748SOL    HW133143   4.346   0.024   1.031
10748SOL    HW233144   4.348   6.992   0.879
10749SOL     OW33145   6.710   4.369   3.472
10749SOL    HW133146   6.773   4.342   3.545
10749SOL    HW233147   6.757   4.431   3.408
10750SOL     OW33148   3.969   6.019   4.289
10750SOL    HW133149   4.004   5.927   4.272
10750SOL    HW233150   4.037   6.087   4.261
10751SOL     OW33151   0.875   4.085   5.555
10751SOL    HW133152   0.780   4.054   5.564
10751SOL    HW233153   0.899   4.091   5.458
10752SOL     OW33154   6.436   3.664   6.131
10752SOL    HW133155   6.418   3.734   6.200
10752SOL    HW233156   6.498   3.595   6.169
10753SOL     OW33157   5.171   0.576   3.460
10753SOL    HW133158   5.110   0.559   3.383
10753SOL    HW233159   5.224   0.494   3.480
10754SOL     OW33160   1.707   1.823   3.722
10754SOL    HW133161   1.714   1.747   3.787
10754SOL    HW233162   1.660   1.793   3.639
10755SOL     OW33163   0.612   1.941   0.455
10755SOL    HW133164   0.638   1.963   0.361
10755SOL    HW233165   0.636   2.017   0.515
10756SOL     OW33166   6.387   4.068   6.777
10756SOL    HW133167   6.292   4.044   6.798
10756SOL    HW233168   6.448   4.028   6.845
10757SOL     OW33169   0.565   3.809   0.387
10757SOL    HW133170   0.576   3.713   0.410
10757SOL    HW233171   0.475   3.824   0.345
10758SOL     OW33172   0.932   6.536   4.826
10758SOL    HW133173   0.905   6.626   4.862
10758SOL    HW233174   1.007   6.547   4.761
10759SOL     OW33175   1.687   2.707   6.979
10759SOL    HW133176   1.767   2.692   6.920
10759SOL    HW233177   1.683   2.635   0.019
10760SOL     OW33178   0.071   0.571   0.412
10760SOL    HW133179   0.135   0.497   0.392
10760SOL    HW233180   0.111   0.633   0.479
10761SOL     OW33181   0.983   1.956   6.172
10761SOL    HW133182   1.080   1.967   6.151
10761SOL    HW233183   0.928   1.970   6.089
10762SOL     OW33184   3.820   2.020   4.812
10762SOL    HW133185   3.845   2.086   4.883
10762SOL    HW233186   3.830   1.927   4.848
10763SOL     OW33187   4.946   6.476   0.943
10763SOL    HW133188   5.020   6.524   0.991
10763SOL    HW233189   4.957   6.377   0.957
10764SOL     OW33190   5.641   1.551   5.924
10764SOL    HW133191   5.598   1.493   5.994
10764SOL    HW233192   5.577   1.624   5.899
10765SOL     OW33193   5.679   2.857   1.188
10765SOL    HW133194   5.678   2.805   1.274
10765SOL    HW233195   5.596   2.912   1.182
10766SOL     OW33196   3.346   3.027   0.330
10766SOL    HW133197   3.426   3.077   0.296
10766SOL    HW233198   3.265   3.084   0.323
10767SOL     OW33199   1.268   0.511   6.781
10767SOL    HW133200   1.239   0.548   6.869
10767SOL    HW233201   1.243   0.415   6.775
10768SOL     OW33202   5.087   5.453   1.176
10768SOL    HW133203   5.089   5.513   1.096
10768SOL    HW233204   5.134   5.367   1.153
10769SOL     OW33205   1.810   4.932   4.974
10769SOL    HW133206   1.746   4.917   5.049
10769SOL    HW233207   1.792   4.866   4.901
10770SOL     OW33208   5.291   6.841   5.147
10770SOL    HW133209   5.212   6.786   5.121
10770SOL    HW233210   5.282   6.869   5.243
10771SOL     OW33211   4.558   0.503   5.026
10771SOL    HW133212   4.587   0.416   4.985
10771SOL    HW233213   4.525   0.487   5.119
10772SOL     OW33214   6.180   6.745   4.186
10772SOL    HW133215   6.245   6.771   4.257
10772SOL    HW233216   6.096   6.711   4.228
10773SOL     OW33217   6.665   5.168   6.066
10773SOL    HW133218   6.569   5.174   6.038
10773SOL    HW233219   6.694   5.257   6.103
10774SOL     OW33220   1.851   1.469   6.488
10774SOL    HW133221   1.854   1.540   6.418
10774SOL    HW233222   1.940   1.421   6.491
10775SOL     OW33223   0.871   3.848   1.001
10775SOL    HW133224   0.790   3.793   1.018
10775SOL    HW233225   0.915   3.817   0.917
10776SOL     OW33226   1.624   6.193   0.463
10776SOL    HW133227   1.615   6.252   0.383
10776SOL    HW233228   1.550   6.124   0.462
10777SOL     OW33229   4.222   6.482   3.869
10777SOL    HW133230   4.218   6.412   3.798
10777SOL    HW233231   4.226   6.438   3.959
10778SOL     OW33232   5.506   6.194   5.346
10778SOL    HW133233   5.587   6.217   5.293
10778SOL    HW233234   5.425   6.231   5.300
10779SOL     OW33235   5.883   4.952   2.936
10779SOL    HW133236   5.798   4.995   2.908
10779SOL    HW233237   5.870   4.853   2.940
10780SOL     OW33238   1.350   6.690   3.168
10780SOL    HW133239   1.273   6.680   3.106
10780SOL    HW233240   1.426   6.733   3.119
10781SOL     OW33241   3.797   1.409   3.425
10781SOL    HW133242   3.747   1.395   3.340
10781SOL    HW233243   3.805   1.322   3.474
10782SOL     OW33244   6.798   1.786   3.391
10782SOL    HW133245   6.827   1.878   3.421
10782SOL    HW233246   6.741   1.794   3.310
10783SOL     OW33247   1.531   3.445   3.588
10783SOL    HW133248   1.529   3.422   3.685
10783SOL    HW233249   1.588   3.526   3.573
10784SOL     OW33250   3.101   0.355   2.877
10784SOL    HW133251   3.022   0.415   2.895
10784SOL    HW233252   3.176   0.382   2.937
10785SOL     OW33253   0.830   4.832   0.753
10785SOL    HW133254   0.869   4.865   0.839
10785SOL    HW233255   0.739   4.796   0.770
10786SOL     OW33256   4.987   3.068   2.058
10786SOL    HW133257   4.892   3.039   2.070
10786SOL    HW233258   5.010   3.135   2.129
10787SOL     OW33259   3.086   2.233   4.473
10787SOL    HW133260   3.166   2.178   4.448
10787SOL    HW233261   3.060   2.213   4.567
10788SOL     OW33262   2.241   4.567   0.375
10788SOL    HW133263   2.219   4.480   0.417
10788SOL    HW233264   2.167   4.632   0.393
10789SOL     OW33265   6.247   2.812   0.237
10789SOL    HW133266   6.318   2.765   0.186
10789SOL    HW233267   6.256   2.911   0.222
10790SOL     OW33268   1.311   0.817   3.547
10790SOL    HW133269   1.306   0.854   3.640
10790SOL    HW233270   1.364   0.732   3.547
10791SOL     OW33271   0.308   1.085   1.023
10791SOL    HW133272   0.254   1.162   0.990
10791SOL    HW233273   0.398   1.117   1.053
10792SOL     OW33274   3.827   3.556   1.954
10792SOL    HW133275   3.815   3.457   1.947
10792SOL    HW233276   3.925   3.578   1.949
10793SOL     OW33277   5.507   2.640   4.311
10793SOL    HW133278   5.427   2.699   4.319
10793SOL    HW233279   5.566   2.653   4.390
10794SOL     OW33280   3.022   3.792   3.324
10794SOL    HW133281   2.993   3.791   3.228
10794SOL    HW233282   3.053   3.701   3.351
10795SOL     OW33283   6.771   3.611   3.753
10795SOL    HW133284   6.743   3.531   3.807
10795SOL    HW233285   6.738   3.694   3.797
10796SOL     OW33286   4.590   6.707   0.090
10796SOL    HW133287   4.604   6.687   0.187
10796SOL    HW233288   4.513   6.655   0.055
10797SOL     OW33289   4.187   2.392   1.119
10797SOL    HW133290   4.249   2.380   1.042
10797SOL    HW233291   4.148   2.303   1.144
10798SOL     OW33292   2.077   6.654   0.923
10798SOL    HW133293   2.067   6.572   0.867
10798SOL    HW233294   2.094   6.733   0.864
10799SOL     OW33295   3.401   0.904   2.051
10799SOL    HW133296   3.473   0.974   2.058
10799SOL    HW233297   3.334   0.932   1.982
10800SOL     OW33298   1.113   0.122   0.086
10800SOL    HW133299   1.054   0.041   0.079
10800SOL    HW233300   1.064   0.195   0.135
10801SOL     OW33301   1.091   6.758   5.285
10801SOL    HW133302   1.177   6.745   5.235
10801SOL    HW233303   1.112   6.788   5.378
10802SOL     OW33304   1.935   3.202   4.017
10802SOL    HW133305   2.034   3.206   4.003
10802SOL    HW233306   1.914   3.223   4.113
10803SOL     OW33307   4.160   4.248   5.683
10803SOL    HW133308   4.093   4.196   5.629
10803SOL    HW233309   4.210   4.310   5.623
10804SOL     OW33310   6.734   4.222   1.405
10804SOL    HW133311   6.809   4.176   1.359
10804SOL    HW233312   6.734   4.319   1.381
10805SOL     OW33313   3.386   6.810   6.760
10805SOL    HW133314   3.485   6.808   6.755
10805SOL    HW233315   3.354   6.746   6.831
10806SOL     OW33316   4.922   4.764   6.159
10806SOL    HW133317   4.882   4.737   6.247
10806SOL    HW233318   4.852   4.760   6.088
10807SOL     OW33319   1.707   6.774   3.377
10807SOL    HW133320   1.626   6.815   3.419
10807SOL    HW233321   1.771   6.846   3.350
10808SOL     OW33322   6.610   4.207   6.657
10808SOL    HW133323   6.519   4.172   6.677
10808SOL    HW233324   6.621   4.298   6.698
10809SOL     OW33325   2.367   6.200   3.505
10809SOL    HW133326   2.286   6.251   3.532
10809SOL    HW233327   2.406   6.240   3.422
10810SOL     OW33328   1.991   6.814   4.869
10810SOL    HW133329   1.899   6.851   4.870
10810SOL    HW233330   1.993   6.727   4.919
10811SOL     OW33331   4.550   4.702   5.697
10811SOL    HW133332   4.574   4.791   5.658
10811SOL    HW233333   4.618   4.635   5.669
10812SOL     OW33334   0.861   3.575   1.952
10812SOL    HW133335   0.767   3.562   1.921
10812SOL    HW233336   0.910   3.488   1.945
10813SOL     OW33337   1.856   5.669   0.164
10813SOL    HW133338   1.932   5.720   0.205
10813SOL    HW233339   1.800   5.731   0.109
10814SOL     OW33340   1.165   6.424   0.080
10814SOL    HW133341   1.185   6.330   0.053
10814SOL    HW233342   1.068   6.442   0.070
10815SOL     OW33343   5.018   4.635   3.279
10815SOL    HW133344   4.957   4.692   3.225
10815SOL    HW233345   4.992   4.641   3.376
10816SOL     OW33346   1.287   1.689   1.208
10816SOL    HW133347   1.202   1.701   1.156
10816SOL    HW233348   1.321   1.779   1.235
10817SOL     OW33349   5.233   6.923   2.401
10817SOL    HW133350   5.234   7.021   2.380
10817SOL    HW233351   5.217   6.911   2.499
10818SOL     OW33352   4.487   4.272   5.311
10818SOL    HW133353   4.501   4.173   5.308
10818SOL    HW233354   4.428   4.300   5.235
10819SOL     OW33355   6.743   4.190   0.043
10819SOL    HW133356   6.766   4.102   7.028
10819SOL    HW233357   6.644   4.201   0.045
10820SOL     OW33358   5.741   5.653   3.996
10820SOL    HW133359   5.822   5.594   3.986
10820SOL    HW233360   5.771   5.746   4.016
10821SOL     OW33361   5.807   6.528   2.226
10821SOL    HW133362   5.737   6.553   2.160
10821SOL    HW233363   5.893   6.508   2.179
10822SOL     OW33364   0.975   2.982   3.164
10822SOL    HW133365   0.975   3.077   3.193
10822SOL    HW233366   1.014   2.925   3.237
10823SOL     OW33367   1.753   5.162   2.189
10823SOL    HW133368   1.722   5.076   2.147
10823SOL    HW233369   1.849   5.155   2.215
10824SOL     OW33370   5.177   0.451   4.321
10824SOL    HW133371   5.104   0.474   4.386
10824SOL    HW233372   5.207   0.535   4.275
10825SOL     OW33373   3.229   0.369   6.820
10825SOL    HW133374   3.325   0.395   6.808
10825SOL    HW233375   3.224   0.270   6.836
10826SOL     OW33376   0.777   3.430   3.493
10826SOL    HW133377   0.744   3.433   3.588
10826SOL    HW233378   0.734   3.503   3.441
10827SOL     OW33379   6.099   3.936   4.454
10827SOL    HW133380   6.168   3.903   4.519
10827SOL    HW233381   6.135   3.928   4.361
10828SOL     OW33382   1.292   5.456   2.105
10828SOL    HW133383   1.259   5.396   2.032
10828SOL    HW233384   1.389   5.474   2.092
10829SOL     OW33385   3.379   2.487   0.873
10829SOL    HW133386   3.311   2.467   0.944
10829SOL    HW233387   3.378   2.414   0.805
10830SOL     OW33388   5.396   1.842   3.634
10830SOL    HW133389   5.468   1.895   3.680
10830SOL    HW233390   5.386   1.874   3.540
10831SOL     OW33391   4.059   5.792   1.711
10831SOL    HW133392   4.078   5.748   1.799
10831SOL    HW233393   4.123   5.869   1.699
10832SOL     OW33394   0.496   2.357   0.462
10832SOL    HW133395   0.589   2.390   0.474
10832SOL    HW233396   0.431   2.429   0.487
10833SOL     OW33397   1.427   1.435   2.836
10833SOL    HW133398   1.378   1.453   2.921
10833SOL    HW233399   1.369   1.459   2.758
10834SOL     OW33400   1.534   2.053   6.085
10834SOL    HW133401   1.497   1.982   6.144
10834SOL    HW233402   1.633   2.046   6.082
10835SOL     OW33403   6.308   2.066   0.218
10835SOL    HW133404   6.257   2.028   0.142
10835SOL    HW233405   6.338   2.159   0.195
10836SOL     OW33406   6.828   1.413   5.036
10836SOL    HW133407   6.814   1.315   5.050
10836SOL    HW233408   6.800   1.437   4.943
10837SOL     OW33409   6.992   4.956   0.479
10837SOL    HW133410   6.973   4.875   0.423
10837SOL    HW233411   7.017   5.033   0.420
10838SOL     OW33412   5.539   6.675   5.032
10838SOL    HW133413   5.627   6.651   5.074
10838SOL    HW233414   5.483   6.724   5.098
10839SOL     OW33415   3.170   3.144   0.538
10839SOL    HW133416   3.192   3.051   0.568
10839SOL    HW233417   3.253   3.200   0.539
10840SOL     OW33418   3.849   5.786   1.328
10840SOL    HW133419   3.811   5.829   1.246
10840SOL    HW233420   3.927   5.838   1.361
10841SOL     OW33421   3.688   6.693   0.385
10841SOL    HW133422   3.597   6.653   0.391
10841SOL    HW233423   3.727   6.672   0.295
10842SOL     OW33424   5.163   3.154   1.151
10842SOL    HW133425   5.171   3.057   1.174
10842SOL    HW233426   5.169   3.209   1.235
10843SOL     OW33427   0.191   2.335   1.623
10843SOL    HW133428   0.146   2.246   1.617
10843SOL    HW233429   0.190   2.367   1.718
10844SOL     OW33430   0.251   6.803   4.000
10844SOL    HW133431   0.303   6.880   4.036
10844SOL    HW233432   0.222   6.822   3.906
10845SOL     OW33433   3.681   0.715   6.962
10845SOL    HW133434   3.721   0.625   6.980
10845SOL    HW233435   3.700   0.742   6.868
10846SOL     OW33436   4.794   3.066   1.199
10846SOL    HW133437   4.853   3.100   1.125
10846SOL    HW233438   4.834   3.092   1.287
10847SOL     OW33439   3.813   3.019   6.453
10847SOL    HW133440   3.717   3.036   6.475
10847SOL    HW233441   3.819   2.953   6.378
10848SOL     OW33442   2.800   2.396   0.054
10848SOL    HW133443   2.796   2.319   7.019
10848SOL    HW233444   2.895   2.412   0.080
10849SOL     OW33445   2.461   4.425   2.914
10849SOL    HW133446   2.510   4.338   2.921
10849SOL    HW233447   2.479   4.480   2.995
10850SOL     OW33448   3.601   5.928   0.415
10850SOL    HW133449   3.661   6.009   0.414
10850SOL    HW233450   3.576   5.905   0.321
10851SOL     OW33451   2.769   3.170   6.999
10851SOL    HW133452   2.795   3.229   6.923
10851SOL    HW233453   2.746   3.079   6.963
10852SOL     OW33454   0.645   6.551   6.265
10852SOL    HW133455   0.688   6.470   6.304
10852SOL    HW233456   0.546   6.546   6.278
10853SOL     OW33457   3.740   1.844   5.872
10853SOL    HW133458   3.836   1.870   5.878
10853SOL    HW233459   3.683   1.926   5.866
10854SOL     OW33460   5.614   6.351   5.552
10854SOL    HW133461   5.574   6.295   5.479
10854SOL    HW233462   5.672   6.294   5.610
10855SOL     OW33463   3.053   6.230   2.168
10855SOL    HW133464   3.057   6.175   2.251
10855SOL    HW233465   3.016   6.320   2.189
10856SOL     OW33466   6.168   1.618   2.244
10856SOL    HW133467   6.153   1.544   2.178
10856SOL    HW233468   6.187   1.703   2.195
10857SOL     OW33469   5.673   3.386   3.226
10857SOL    HW133470   5.720   3.298   3.226
10857SOL    HW233471   5.739   3.459   3.241
10858SOL     OW33472   0.733   2.309   6.427
10858SOL    HW133473   0.767   2.381   6.487
10858SOL    HW233474   0.809   2.247   6.404
10859SOL     OW33475   2.120   3.886   3.863
10859SOL    HW133476   2.160   3.879   3.954
10859SOL    HW233477   2.092   3.796   3.831
10860SOL     OW33478   6.590   1.166   6.109
10860SOL    HW133479   6.677   1.131   6.073
10860SOL    HW233480   6.577   1.134   6.202
10861SOL     OW33481   3.730   3.156   3.177
10861SOL    HW133482   3.664   3.084   3.195
10861SOL    HW233483   3.822   3.122   3.196
10862SOL     OW33484   3.072   1.964   6.623
10862SOL    HW133485   3.166   1.934   6.640
10862SOL    HW233486   3.026   1.896   6.566
10863SOL     OW33487   4.161   0.727   2.290
10863SOL    HW133488   4.114   0.754   2.206
10863SOL    HW233489   4.104   0.751   2.369
10864SOL     OW33490   3.156   5.220   0.797
10864SOL    HW133491   3.136   5.149   0.865
10864SOL    HW233492   3.224   5.283   0.833
10865SOL     OW33493   5.770   1.642   3.467
10865SOL    HW133494   5.761   1.730   3.513
10865SOL    HW233495   5.802   1.655   3.374
10866SOL     OW33496   4.992   5.033   0.425
10866SOL    HW133497   5.005   5.119   0.376
10866SOL    HW233498   5.072   4.974   0.412
10867SOL     OW33499   3.343   4.160   0.062
10867SOL    HW133500   3.432   4.128   0.093
10867SOL    HW233501   3.271   4.106   0.105
10868SOL     OW33502   2.072   2.271   3.720
10868SOL    HW133503   2.084   2.219   3.635
10868SOL    HW233504   1.976   2.268   3.748
10869NA      NA33505   0.367   2.142   6.170
10870NA      NA33506   4.441   4.603   5.219
10871NA      NA33507   2.288   4.246   2.108
10872NA      NA33508   4.817   4.019   3.678
10873NA      NA33509   4.198   2.510   5.390
10874NA      NA33510   3.277   4.395   1.533
10875NA      NA33511   0.566   4.633   0.086
10876NA      NA33512   3.834   3.859   2.649
10877NA      NA33513   5.019   4.879   1.090
10878NA      NA33514   3.392   0.167   5.492
10879NA      NA33515   6.015   5.808   0.670
10880NA      NA33516   2.242   0.785   5.235
10881NA      NA33517   4.073   4.778   1.803
10882NA      NA33518   3.919   3.020   1.315
   7.02874   7.02874   7.02874
