Generated by trjconv : CNT in water t= 446.00000
33518
    1C        C    1   2.841   2.769   4.744
    1C        C    2   2.897   2.721   4.864
    1C        C    3   2.843   2.779   4.980
    1C        C    4   2.845   2.775   4.259
    1C        C    5   2.898   2.728   4.381
    1C        C    6   2.846   2.775   4.504
    1C        C    7   3.018   2.648   4.621
    1C        C    8   2.899   2.723   4.624
    1C        C    9   3.076   2.605   4.743
    1C        C   10   3.008   2.633   4.863
    1C        C   11   3.182   2.489   4.972
    1C        C   12   3.060   2.558   4.969
    1C        C   13   2.845   2.769   3.771
    1C        C   14   2.899   2.724   3.893
    1C        C   15   2.845   2.775   4.013
    1C        C   16   3.019   2.655   4.135
    1C        C   17   2.898   2.730   4.136
    1C        C   18   3.078   2.617   4.257
    1C        C   19   3.016   2.651   4.379
    1C        C   20   3.212   2.559   4.502
    1C        C   21   3.082   2.616   4.499
    1C        C   22   3.278   2.532   4.624
    1C        C   23   3.207   2.550   4.744
    1C        C   24   3.412   2.477   4.863
    1C        C   25   3.271   2.499   4.861
    1C        C   26   3.489   2.467   4.980
    1C        C   27   2.849   2.768   3.279
    1C        C   28   2.906   2.729   3.402
    1C        C   29   2.853   2.774   3.525
    1C        C   30   3.019   2.646   3.648
    1C        C   31   2.903   2.728   3.649
    1C        C   32   3.077   2.607   3.770
    1C        C   33   3.015   2.642   3.892
    1C        C   34   3.208   2.555   4.015
    1C        C   35   3.078   2.610   4.015
    1C        C   36   3.276   2.536   4.137
    1C        C   37   3.209   2.563   4.259
    1C        C   38   3.417   2.510   4.380
    1C        C   39   3.279   2.540   4.379
    1C        C   40   3.486   2.499   4.502
    1C        C   41   3.416   2.503   4.625
    1C        C   42   3.631   2.483   4.743
    1C        C   43   3.489   2.477   4.743
    1C        C   44   3.704   2.485   4.864
    1C        C   45   3.628   2.473   4.981
    1C        C   46   2.839   2.756   2.790
    1C        C   47   2.897   2.717   2.913
    1C        C   48   2.839   2.764   3.034
    1C        C   49   3.019   2.647   3.159
    1C        C   50   2.900   2.723   3.155
    1C        C   51   3.081   2.612   3.281
    1C        C   52   3.021   2.646   3.403
    1C        C   53   3.209   2.550   3.525
    1C        C   54   3.081   2.610   3.526
    1C        C   55   3.276   2.533   3.648
    1C        C   56   3.207   2.552   3.769
    1C        C   57   3.413   2.508   3.891
    1C        C   58   3.274   2.533   3.892
    1C        C   59   3.483   2.498   4.013
    1C        C   60   3.414   2.505   4.137
    1C        C   61   3.629   2.503   4.256
    1C        C   62   3.488   2.501   4.257
    1C        C   63   3.696   2.506   4.380
    1C        C   64   3.627   2.499   4.503
    1C        C   65   3.838   2.538   4.622
    1C        C   66   3.703   2.497   4.622
    1C        C   67   3.904   2.561   4.745
    1C        C   68   3.840   2.525   4.865
    1C        C   69   4.051   2.584   4.979
    1C        C   70   3.922   2.528   4.979
    1C        C   71   2.820   2.734   2.308
    1C        C   72   2.884   2.697   2.428
    1C        C   73   2.831   2.748   2.548
    1C        C   74   3.006   2.624   2.671
    1C        C   75   2.888   2.702   2.669
    1C        C   76   3.073   2.599   2.793
    1C        C   77   3.015   2.641   2.915
    1C        C   78   3.208   2.552   3.035
    1C        C   79   3.078   2.607   3.037
    1C        C   80   3.275   2.527   3.156
    1C        C   81   3.209   2.551   3.279
    1C        C   82   3.413   2.501   3.399
    1C        C   83   3.274   2.525   3.402
    1C        C   84   3.482   2.498   3.522
    1C        C   85   3.415   2.510   3.646
    1C        C   86   3.625   2.497   3.768
    1C        C   87   3.483   2.496   3.769
    1C        C   88   3.694   2.507   3.891
    1C        C   89   3.624   2.497   4.014
    1C        C   90   3.836   2.542   4.134
    1C        C   91   3.699   2.507   4.133
    1C        C   92   3.901   2.569   4.256
    1C        C   93   3.833   2.542   4.377
    1C        C   94   4.027   2.630   4.497
    1C        C   95   3.902   2.565   4.499
    1C        C   96   4.089   2.668   4.618
    1C        C   97   4.032   2.623   4.740
    1C        C   98   4.193   2.759   4.863
    1C        C   99   4.097   2.653   4.862
    1C        C  100   4.217   2.839   4.975
    1C        C  101   2.820   2.731   2.070
    1C        C  102   2.985   2.588   2.191
    1C        C  103   2.876   2.681   2.188
    1C        C  104   3.062   2.571   2.309
    1C        C  105   3.000   2.616   2.428
    1C        C  106   3.199   2.537   2.547
    1C        C  107   3.068   2.588   2.549
    1C        C  108   3.272   2.524   2.667
    1C        C  109   3.206   2.551   2.789
    1C        C  110   3.412   2.499   2.912
    1C        C  111   3.274   2.530   2.912
    1C        C  112   3.485   2.494   3.033
    1C        C  113   3.414   2.500   3.155
    1C        C  114   3.625   2.501   3.276
    1C        C  115   3.484   2.493   3.277
    1C        C  116   3.692   2.510   3.400
    1C        C  117   3.623   2.499   3.523
    1C        C  118   3.830   2.543   3.643
    1C        C  119   3.694   2.507   3.645
    1C        C  120   3.896   2.567   3.766
    1C        C  121   3.831   2.541   3.888
    1C        C  122   4.022   2.634   4.010
    1C        C  123   3.899   2.565   4.009
    1C        C  124   4.082   2.675   4.132
    1C        C  125   4.026   2.635   4.255
    1C        C  126   4.196   2.762   4.375
    1C        C  127   4.090   2.669   4.377
    1C        C  128   4.242   2.815   4.498
    1C        C  129   4.192   2.764   4.619
    1C        C  130   4.321   2.934   4.737
    1C        C  131   4.237   2.819   4.741
    1C        C  132   4.354   2.999   4.858
    1C        C  133   4.284   2.961   4.973
    1C        C  134   3.169   2.470   2.076
    1C        C  135   3.034   2.508   2.083
    1C        C  136   3.257   2.476   2.184
    1C        C  137   3.194   2.518   2.303
    1C        C  138   3.402   2.477   2.423
    1C        C  139   3.264   2.504   2.425
    1C        C  140   3.478   2.479   2.543
    1C        C  141   3.410   2.496   2.666
    1C        C  142   3.621   2.495   2.788
    1C        C  143   3.480   2.490   2.788
    1C        C  144   3.695   2.504   2.909
    1C        C  145   3.626   2.497   3.031
    1C        C  146   3.834   2.537   3.154
    1C        C  147   3.696   2.505   3.154
    1C        C  148   3.901   2.555   3.277
    1C        C  149   3.831   2.535   3.398
    1C        C  150   4.025   2.622   3.520
    1C        C  151   3.898   2.560   3.520
    1C        C  152   4.085   2.660   3.643
    1C        C  153   4.023   2.629   3.766
    1C        C  154   4.192   2.760   3.887
    1C        C  155   4.081   2.672   3.887
    1C        C  156   4.240   2.813   4.009
    1C        C  157   4.192   2.764   4.132
    1C        C  158   4.334   2.921   4.250
    1C        C  159   4.251   2.807   4.253
    1C        C  160   4.370   2.983   4.372
    1C        C  161   4.327   2.928   4.495
    1C        C  162   4.437   3.113   4.613
    1C        C  163   4.368   2.989   4.616
    1C        C  164   4.463   3.182   4.733
    1C        C  165   4.428   3.119   4.854
    1C        C  166   4.516   3.315   4.967
    1C        C  167   4.473   3.183   4.970
    1C        C  168   3.474   2.439   2.067
    1C        C  169   3.397   2.456   2.183
    1C        C  170   3.615   2.468   2.302
    1C        C  171   3.473   2.462   2.302
    1C        C  172   3.687   2.489   2.422
    1C        C  173   3.619   2.479   2.545
    1C        C  174   3.828   2.530   2.661
    1C        C  175   3.691   2.497   2.665
    1C        C  176   3.896   2.554   2.782
    1C        C  177   3.832   2.537   2.907
    1C        C  178   4.027   2.615   3.028
    1C        C  179   3.899   2.556   3.031
    1C        C  180   4.086   2.656   3.150
    1C        C  181   4.026   2.621   3.273
    1C        C  182   4.194   2.747   3.395
    1C        C  183   4.084   2.658   3.397
    1C        C  184   4.243   2.797   3.518
    1C        C  185   4.194   2.750   3.642
    1C        C  186   4.332   2.914   3.761
    1C        C  187   4.241   2.806   3.763
    1C        C  188   4.368   2.979   3.881
    1C        C  189   4.328   2.924   4.005
    1C        C  190   4.439   3.104   4.126
    1C        C  191   4.372   2.980   4.127
    1C        C  192   4.464   3.172   4.248
    1C        C  193   4.436   3.107   4.371
    1C        C  194   4.505   3.313   4.489
    1C        C  195   4.464   3.177   4.490
    1C        C  196   4.522   3.386   4.608
    1C        C  197   4.509   3.317   4.731
    1C        C  198   4.552   3.532   4.851
    1C        C  199   4.532   3.390   4.850
    1C        C  200   4.580   3.617   4.963
    1C        C  201   3.613   2.422   2.065
    1C        C  202   3.824   2.509   2.180
    1C        C  203   3.688   2.464   2.180
    1C        C  204   3.896   2.534   2.300
    1C        C  205   3.825   2.521   2.421
    1C        C  206   4.023   2.615   2.540
    1C        C  207   3.896   2.552   2.539
    1C        C  208   4.084   2.653   2.661
    1C        C  209   4.023   2.616   2.784
    1C        C  210   4.194   2.743   2.903
    1C        C  211   4.085   2.653   2.905
    1C        C  212   4.240   2.796   3.026
    1C        C  213   4.196   2.744   3.150
    1C        C  214   4.329   2.907   3.271
    1C        C  215   4.247   2.792   3.273
    1C        C  216   4.365   2.969   3.392
    1C        C  217   4.329   2.910   3.515
    1C        C  218   4.428   3.098   3.635
    1C        C  219   4.366   2.971   3.637
    1C        C  220   4.462   3.164   3.755
    1C        C  221   4.436   3.103   3.880
    1C        C  222   4.501   3.305   4.002
    1C        C  223   4.464   3.168   4.003
    1C        C  224   4.512   3.377   4.122
    1C        C  225   4.505   3.307   4.245
    1C        C  226   4.521   3.520   4.365
    1C        C  227   4.520   3.379   4.365
    1C        C  228   4.517   3.595   4.485
    1C        C  229   4.531   3.527   4.608
    1C        C  230   4.503   3.740   4.724
    1C        C  231   4.535   3.601   4.728
    1C        C  232   4.491   3.811   4.846
    1C        C  233   4.541   3.751   4.962
    1C        C  234   4.013   2.609   2.062
    1C        C  235   3.891   2.542   2.062
    1C        C  236   4.082   2.647   2.178
    1C        C  237   4.019   2.605   2.297
    1C        C  238   4.200   2.728   2.417
    1C        C  239   4.084   2.645   2.416
    1C        C  240   4.252   2.781   2.537
    1C        C  241   4.196   2.739   2.660
    1C        C  242   4.336   2.900   2.780
    1C        C  243   4.245   2.792   2.781
    1C        C  244   4.374   2.959   2.903
    1C        C  245   4.328   2.907   3.027
    1C        C  246   4.431   3.093   3.145
    1C        C  247   4.367   2.967   3.149
    1C        C  248   4.451   3.160   3.268
    1C        C  249   4.424   3.097   3.391
    1C        C  250   4.493   3.300   3.511
    1C        C  251   4.451   3.165   3.513
    1C        C  252   4.508   3.369   3.634
    1C        C  253   4.493   3.302   3.757
    1C        C  254   4.522   3.514   3.877
    1C        C  255   4.510   3.373   3.878
    1C        C  256   4.519   3.588   3.997
    1C        C  257   4.517   3.518   4.121
    1C        C  258   4.489   3.729   4.240
    1C        C  259   4.516   3.590   4.242
    1C        C  260   4.465   3.799   4.360
    1C        C  261   4.483   3.732   4.483
    1C        C  262   4.428   3.939   4.603
    1C        C  263   4.476   3.807   4.603
    1C        C  264   4.392   4.003   4.724
    1C        C  265   4.431   3.939   4.844
    1C        C  266   4.316   4.130   4.957
    1C        C  267   4.393   4.014   4.957
    1C        C  268   4.261   2.776   2.060
    1C        C  269   4.195   2.732   2.175
    1C        C  270   4.345   2.885   2.294
    1C        C  271   4.253   2.777   2.295
    1C        C  272   4.379   2.950   2.415
    1C        C  273   4.338   2.893   2.537
    1C        C  274   4.445   3.080   2.657
    1C        C  275   4.380   2.954   2.657
    1C        C  276   4.467   3.148   2.779
    1C        C  277   4.435   3.086   2.902
    1C        C  278   4.502   3.290   3.022
    1C        C  279   4.463   3.155   3.022
    1C        C  280   4.514   3.362   3.144
    1C        C  281   4.489   3.296   3.266
    1C        C  282   4.511   3.508   3.386
    1C        C  283   4.504   3.367   3.387
    1C        C  284   4.516   3.577   3.509
    1C        C  285   4.522   3.509   3.633
    1C        C  286   4.488   3.721   3.749
    1C        C  287   4.516   3.583   3.754
    1C        C  288   4.474   3.792   3.871
    1C        C  289   4.490   3.726   3.994
    1C        C  290   4.429   3.930   4.115
    1C        C  291   4.474   3.796   4.116
    1C        C  292   4.397   3.996   4.235
    1C        C  293   4.425   3.935   4.360
    1C        C  294   4.327   4.125   4.475
    1C        C  295   4.398   4.003   4.481
    1C        C  296   4.279   4.181   4.596
    1C        C  297   4.321   4.126   4.718
    1C        C  298   4.199   4.311   4.839
    1C        C  299   4.281   4.194   4.837
    1C        C  300   4.168   4.399   4.947
    1C        C  301   4.353   2.881   2.058
    1C        C  302   4.472   3.064   2.174
    1C        C  303   4.400   2.940   2.175
    1C        C  304   4.473   3.143   2.292
    1C        C  305   4.440   3.078   2.413
    1C        C  306   4.505   3.281   2.535
    1C        C  307   4.470   3.144   2.534
    1C        C  308   4.510   3.356   2.654
    1C        C  309   4.501   3.285   2.776
    1C        C  310   4.524   3.497   2.895
    1C        C  311   4.514   3.356   2.898
    1C        C  312   4.520   3.570   3.016
    1C        C  313   4.523   3.503   3.140
    1C        C  314   4.485   3.714   3.263
    1C        C  315   4.511   3.575   3.261
    1C        C  316   4.476   3.785   3.385
    1C        C  317   4.496   3.716   3.507
    1C        C  318   4.430   3.923   3.623
    1C        C  319   4.475   3.789   3.626
    1C        C  320   4.398   3.987   3.745
    1C        C  321   4.424   3.925   3.869
    1C        C  322   4.327   4.113   3.989
    1C        C  323   4.400   3.992   3.991
    1C        C  324   4.284   4.172   4.109
    1C        C  325   4.325   4.117   4.233
    1C        C  326   4.186   4.281   4.352
    1C        C  327   4.284   4.180   4.352
    1C        C  328   4.136   4.336   4.472
    1C        C  329   4.183   4.285   4.595
    1C        C  330   4.022   4.427   4.712
    1C        C  331   4.138   4.345   4.715
    1C        C  332   3.968   4.488   4.827
    1C        C  333   4.051   4.475   4.939
    1C        C  334   4.551   3.264   2.060
    1C        C  335   4.533   3.125   2.060
    1C        C  336   4.539   3.349   2.171
    1C        C  337   4.506   3.281   2.290
    1C        C  338   4.515   3.493   2.410
    1C        C  339   4.513   3.352   2.412
    1C        C  340   4.518   3.567   2.530
    1C        C  341   4.523   3.497   2.652
    1C        C  342   4.493   3.708   2.771
    1C        C  343   4.519   3.569   2.773
    1C        C  344   4.476   3.778   2.893
    1C        C  345   4.492   3.709   3.016
    1C        C  346   4.425   3.910   3.136
    1C        C  347   4.473   3.778   3.138
    1C        C  348   4.393   3.979   3.255
    1C        C  349   4.424   3.916   3.378
    1C        C  350   4.319   4.101   3.499
    1C        C  351   4.397   3.983   3.499
    1C        C  352   4.274   4.156   3.620
    1C        C  353   4.325   4.108   3.743
    1C        C  354   4.177   4.260   3.864
    1C        C  355   4.280   4.164   3.865
    1C        C  356   4.121   4.308   3.985
    1C        C  357   4.178   4.265   4.107
    1C        C  358   4.010   4.396   4.228
    1C        C  359   4.128   4.318   4.228
    1C        C  360   3.952   4.443   4.348
    1C        C  361   4.019   4.415   4.469
    1C        C  362   3.827   4.512   4.592
    1C        C  363   3.955   4.453   4.590
    1C        C  364   3.760   4.552   4.710
    1C        C  365   3.838   4.542   4.827
    1C        C  366   3.628   4.591   4.948
    1C        C  367   3.764   4.561   4.945
    1C        C  368   4.507   3.563   2.051
    1C        C  369   4.527   3.490   2.169
    1C        C  370   4.508   3.705   2.286
    1C        C  371   4.521   3.565   2.288
    1C        C  372   4.488   3.778   2.405
    1C        C  373   4.503   3.707   2.527
    1C        C  374   4.425   3.906   2.646
    1C        C  375   4.478   3.775   2.648
    1C        C  376   4.395   3.971   2.768
    1C        C  377   4.425   3.909   2.892
    1C        C  378   4.318   4.093   3.010
    1C        C  379   4.392   3.973   3.014
    1C        C  380   4.277   4.155   3.130
    1C        C  381   4.320   4.100   3.253
    1C        C  382   4.177   4.255   3.375
    1C        C  383   4.277   4.156   3.375
    1C        C  384   4.122   4.303   3.497
    1C        C  385   4.173   4.255   3.620
    1C        C  386   4.003   4.381   3.741
    1C        C  387   4.120   4.303   3.742
    1C        C  388   3.942   4.421   3.862
    1C        C  389   4.003   4.386   3.984
    1C        C  390   3.816   4.482   4.105
    1C        C  391   3.947   4.429   4.106
    1C        C  392   3.749   4.503   4.228
    1C        C  393   3.820   4.494   4.350
    1C        C  394   3.616   4.551   4.471
    1C        C  395   3.754   4.521   4.472
    1C        C  396   3.543   4.562   4.592
    1C        C  397   3.619   4.566   4.711
    1C        C  398   3.410   4.551   4.836
    1C        C  399   3.549   4.575   4.833
    1C        C  400   3.340   4.523   4.954
    1C        C  401   4.502   3.702   2.048
    1C        C  402   4.454   3.914   2.164
    1C        C  403   4.492   3.778   2.165
    1C        C  404   4.415   3.977   2.284
    1C        C  405   4.437   3.909   2.406
    1C        C  406   4.328   4.096   2.524
    1C        C  407   4.397   3.973   2.525
    1C        C  408   4.276   4.147   2.645
    1C        C  409   4.321   4.091   2.767
    1C        C  410   4.174   4.247   2.888
    1C        C  411   4.278   4.151   2.888
    1C        C  412   4.121   4.295   3.009
    1C        C  413   4.177   4.255   3.132
    1C        C  414   4.000   4.374   3.252
    1C        C  415   4.119   4.298   3.254
    1C        C  416   3.938   4.411   3.374
    1C        C  417   4.001   4.375   3.496
    1C        C  418   3.810   4.467   3.617
    1C        C  419   3.940   4.412   3.618
    1C        C  420   3.744   4.496   3.739
    1C        C  421   3.812   4.476   3.861
    1C        C  422   3.608   4.532   3.985
    1C        C  423   3.745   4.499   3.984
    1C        C  424   3.539   4.540   4.108
    1C        C  425   3.610   4.528   4.230
    1C        C  426   3.400   4.540   4.351
    1C        C  427   3.541   4.542   4.352
    1C        C  428   3.332   4.544   4.475
    1C        C  429   3.402   4.560   4.597
    1C        C  430   3.193   4.521   4.724
    1C        C  431   3.331   4.552   4.719
    1C        C  432   3.122   4.496   4.845
    1C        C  433   3.204   4.495   4.958
    1C        C  434   4.380   4.120   2.050
    1C        C  435   4.443   3.995   2.050
    1C        C  436   4.303   4.162   2.163
    1C        C  437   4.337   4.096   2.284
    1C        C  438   4.184   4.251   2.402
    1C        C  439   4.288   4.156   2.402
    1C        C  440   4.121   4.293   2.521
    1C        C  441   4.175   4.246   2.643
    1C        C  442   4.001   4.367   2.766
    1C        C  443   4.122   4.294   2.765
    1C        C  444   3.936   4.401   2.887
    1C        C  445   4.002   4.371   3.009
    1C        C  446   3.812   4.470   3.129
    1C        C  447   3.941   4.412   3.130
    1C        C  448   3.744   4.495   3.251
    1C        C  449   3.811   4.471   3.373
    1C        C  450   3.605   4.521   3.494
    1C        C  451   3.742   4.491   3.496
    1C        C  452   3.538   4.535   3.618
    1C        C  453   3.607   4.530   3.741
    1C        C  454   3.396   4.548   3.863
    1C        C  455   3.537   4.545   3.863
    1C        C  456   3.327   4.537   3.985
    1C        C  457   3.398   4.541   4.108
    1C        C  458   3.190   4.505   4.235
    1C        C  459   3.328   4.535   4.230
    1C        C  460   3.126   4.485   4.360
    1C        C  461   3.194   4.513   4.481
    1C        C  462   2.996   4.436   4.600
    1C        C  463   3.126   4.491   4.603
    1C        C  464   2.930   4.401   4.720
    1C        C  465   2.988   4.445   4.843
    1C        C  466   2.800   4.337   4.959
    1C        C  467   2.904   4.431   4.957
    1C        C  468   4.122   4.285   2.041
    1C        C  469   4.186   4.245   2.159
    1C        C  470   4.005   4.365   2.277
    1C        C  471   4.128   4.294   2.280
    1C        C  472   3.938   4.398   2.396
    1C        C  473   4.001   4.367   2.519
    1C        C  474   3.810   4.454   2.641
    1C        C  475   3.941   4.400   2.643
    1C        C  476   3.743   4.485   2.761
    1C        C  477   3.809   4.461   2.883
    1C        C  478   3.604   4.510   3.007
    1C        C  479   3.743   4.481   3.007
    1C        C  480   3.534   4.525   3.128
    1C        C  481   3.605   4.516   3.250
    1C        C  482   3.393   4.530   3.377
    1C        C  483   3.534   4.528   3.372
    1C        C  484   3.324   4.534   3.500
    1C        C  485   3.397   4.547   3.620
    1C        C  486   3.188   4.504   3.744
    1C        C  487   3.324   4.541   3.741
    1C        C  488   3.124   4.481   3.867
    1C        C  489   3.191   4.500   3.990
    1C        C  490   2.997   4.416   4.115
    1C        C  491   3.124   4.479   4.113
    1C        C  492   2.938   4.382   4.239
    1C        C  493   2.999   4.424   4.359
    1C        C  494   2.827   4.300   4.482
    1C        C  495   2.935   4.391   4.481
    1C        C  496   2.775   4.250   4.604
    1C        C  497   2.822   4.308   4.724
    1C        C  498   2.668   4.161   4.841
    1C        C  499   2.759   4.269   4.843
    1C        C  500   2.593   4.117   4.951
    1C        C  501   3.998   4.348   2.041
    1C        C  502   3.809   4.457   2.153
    1C        C  503   3.936   4.395   2.157
    1C        C  504   3.740   4.475   2.276
    1C        C  505   3.808   4.452   2.398
    1C        C  506   3.604   4.509   2.520
    1C        C  507   3.741   4.476   2.520
    1C        C  508   3.532   4.518   2.642
    1C        C  509   3.604   4.512   2.763
    1C        C  510   3.392   4.524   2.886
    1C        C  511   3.533   4.517   2.885
    1C        C  512   3.320   4.523   3.008
    1C        C  513   3.393   4.533   3.129
    1C        C  514   3.188   4.496   3.255
    1C        C  515   3.325   4.529   3.253
    1C        C  516   3.123   4.468   3.377
    1C        C  517   3.188   4.495   3.499
    1C        C  518   2.995   4.413   3.625
    1C        C  519   3.122   4.475   3.622
    1C        C  520   2.938   4.374   3.748
    1C        C  521   3.000   4.412   3.869
    1C        C  522   2.837   4.279   3.995
    1C        C  523   2.941   4.374   3.992
    1C        C  524   2.787   4.234   4.119
    1C        C  525   2.828   4.294   4.240
    1C        C  526   2.696   4.130   4.362
    1C        C  527   2.777   4.246   4.362
    1C        C  528   2.653   4.070   4.482
    1C        C  529   2.695   4.134   4.601
    1C        C  530   2.579   3.960   4.729
    1C        C  531   2.641   4.087   4.723
    1C        C  532   2.538   3.899   4.851
    1C        C  533   2.522   3.996   4.955
    1C        C  534   3.613   4.548   2.038
    1C        C  535   3.746   4.503   2.037
    1C        C  536   3.535   4.532   2.156
    1C        C  537   3.602   4.508   2.279
    1C        C  538   3.388   4.516   2.399
    1C        C  539   3.530   4.513   2.400
    1C        C  540   3.318   4.514   2.522
    1C        C  541   3.390   4.517   2.643
    1C        C  542   3.182   4.486   2.766
    1C        C  543   3.320   4.519   2.765
    1C        C  544   3.118   4.461   2.889
    1C        C  545   3.184   4.487   3.011
    1C        C  546   2.992   4.404   3.136
    1C        C  547   3.118   4.469   3.135
    1C        C  548   2.936   4.365   3.260
    1C        C  549   2.999   4.400   3.382
    1C        C  550   2.829   4.276   3.504
    1C        C  551   2.936   4.369   3.504
    1C        C  552   2.782   4.230   3.630
    1C        C  553   2.832   4.281   3.752
    1C        C  554   2.705   4.111   3.876
    1C        C  555   2.786   4.226   3.874
    1C        C  556   2.661   4.058   4.000
    1C        C  557   2.697   4.124   4.120
    1C        C  558   2.600   3.936   4.242
    1C        C  559   2.662   4.063   4.242
    1C        C  560   2.570   3.874   4.365
    1C        C  561   2.592   3.943   4.487
    1C        C  562   2.524   3.747   4.614
    1C        C  563   2.558   3.885   4.611
    1C        C  564   2.510   3.679   4.736
    1C        C  565   2.515   3.757   4.855
    1C        C  566   2.522   3.545   4.973
    1C        C  567   2.522   3.684   4.974
    1C        C  568   3.322   4.470   2.045
    1C        C  569   3.393   4.515   2.156
    1C        C  570   3.181   4.470   2.281
    1C        C  571   3.318   4.508   2.277
    1C        C  572   3.111   4.458   2.403
    1C        C  573   3.180   4.482   2.524
    1C        C  574   2.983   4.406   2.648
    1C        C  575   3.111   4.465   2.646
    1C        C  576   2.929   4.361   2.770
    1C        C  577   2.993   4.395   2.891
    1C        C  578   2.823   4.273   3.016
    1C        C  579   2.934   4.361   3.015
    1C        C  580   2.777   4.223   3.140
    1C        C  581   2.829   4.273   3.261
    1C        C  582   2.699   4.106   3.384
    1C        C  583   2.780   4.222   3.383
    1C        C  584   2.666   4.052   3.511
    1C        C  585   2.701   4.115   3.632
    1C        C  586   2.595   3.929   3.752
    1C        C  587   2.666   4.052   3.754
    1C        C  588   2.567   3.869   3.877
    1C        C  589   2.597   3.933   3.999
    1C        C  590   2.529   3.733   4.124
    1C        C  591   2.573   3.867   4.122
    1C        C  592   2.515   3.667   4.249
    1C        C  593   2.529   3.739   4.369
    1C        C  594   2.502   3.533   4.493
    1C        C  595   2.513   3.674   4.494
    1C        C  596   2.509   3.464   4.617
    1C        C  597   2.506   3.537   4.738
    1C        C  598   2.528   3.324   4.861
    1C        C  599   2.512   3.464   4.859
    1C        C  600   2.530   3.249   4.979
    1C        C  601   3.187   4.442   2.043
    1C        C  602   2.976   4.396   2.159
    1C        C  603   3.111   4.445   2.160
    1C        C  604   2.920   4.360   2.284
    1C        C  605   2.983   4.399   2.404
    1C        C  606   2.819   4.268   2.530
    1C        C  607   2.925   4.362   2.527
    1C        C  608   2.769   4.217   2.652
    1C        C  609   2.825   4.265   2.773
    1C        C  610   2.688   4.106   2.894
    1C        C  611   2.771   4.220   2.896
    1C        C  612   2.660   4.045   3.018
    1C        C  613   2.694   4.108   3.140
    1C        C  614   2.591   3.924   3.262
    1C        C  615   2.656   4.050   3.262
    1C        C  616   2.569   3.862   3.387
    1C        C  617   2.600   3.927   3.508
    1C        C  618   2.527   3.728   3.634
    1C        C  619   2.571   3.863   3.631
    1C        C  620   2.510   3.661   3.757
    1C        C  621   2.530   3.732   3.878
    1C        C  622   2.500   3.524   4.004
    1C        C  623   2.515   3.665   4.001
    1C        C  624   2.506   3.456   4.128
    1C        C  625   2.507   3.526   4.251
    1C        C  626   2.529   3.318   4.377
    1C        C  627   2.508   3.457   4.374
    1C        C  628   2.551   3.252   4.500
    1C        C  629   2.531   3.324   4.619
    1C        C  630   2.594   3.120   4.740
    1C        C  631   2.542   3.252   4.740
    1C        C  632   2.615   3.050   4.863
    1C        C  633   2.562   3.112   4.980
    1C        C  634   2.780   4.294   2.052
    1C        C  635   2.887   4.384   2.047
    1C        C  636   2.746   4.226   2.170
    1C        C  637   2.811   4.269   2.288
    1C        C  638   2.677   4.106   2.409
    1C        C  639   2.761   4.219   2.411
    1C        C  640   2.638   4.045   2.531
    1C        C  641   2.682   4.106   2.650
    1C        C  642   2.587   3.918   2.774
    1C        C  643   2.647   4.046   2.773
    1C        C  644   2.566   3.853   2.898
    1C        C  645   2.596   3.919   3.019
    1C        C  646   2.530   3.718   3.149
    1C        C  647   2.567   3.854   3.141
    1C        C  648   2.515   3.652   3.273
    1C        C  649   2.527   3.727   3.392
    1C        C  650   2.500   3.516   3.514
    1C        C  651   2.511   3.657   3.513
    1C        C  652   2.502   3.447   3.638
    1C        C  653   2.501   3.520   3.759
    1C        C  654   2.529   3.313   3.889
    1C        C  655   2.503   3.452   3.883
    1C        C  656   2.548   3.246   4.012
    1C        C  657   2.529   3.317   4.133
    1C        C  658   2.593   3.116   4.257
    1C        C  659   2.544   3.248   4.255
    1C        C  660   2.624   3.050   4.378
    1C        C  661   2.597   3.118   4.499
    1C        C  662   2.705   2.935   4.623
    1C        C  663   2.628   3.053   4.620
    1C        C  664   2.745   2.874   4.744
    1C        C  665   2.692   2.930   4.864
    1C        C  666   2.742   2.874   4.982
    1C        C  667   2.673   4.020   2.050
    1C        C  668   2.688   4.098   2.166
    1C        C  669   2.588   3.910   2.291
    1C        C  670   2.645   4.041   2.288
    1C        C  671   2.559   3.847   2.413
    1C        C  672   2.582   3.915   2.534
    1C        C  673   2.512   3.714   2.660
    1C        C  674   2.553   3.849   2.656
    1C        C  675   2.507   3.645   2.783
    1C        C  676   2.526   3.717   2.903
    1C        C  677   2.501   3.509   3.028
    1C        C  678   2.514   3.650   3.026
    1C        C  679   2.501   3.440   3.151
    1C        C  680   2.500   3.511   3.274
    1C        C  681   2.522   3.300   3.398
    1C        C  682   2.500   3.440   3.395
    1C        C  683   2.541   3.237   3.523
    1C        C  684   2.522   3.307   3.644
    1C        C  685   2.597   3.111   3.769
    1C        C  686   2.541   3.241   3.768
    1C        C  687   2.627   3.049   3.892
    1C        C  688   2.596   3.114   4.014
    1C        C  689   2.706   2.933   4.135
    1C        C  690   2.628   3.051   4.136
    1C        C  691   2.751   2.880   4.258
    1C        C  692   2.705   2.934   4.380
    1C        C  693   2.750   2.878   4.501
    1C        C  694   2.634   3.886   2.060
    1C        C  695   2.523   3.700   2.173
    1C        C  696   2.575   3.831   2.175
    1C        C  697   2.504   3.636   2.297
    1C        C  698   2.519   3.711   2.416
    1C        C  699   2.486   3.503   2.540
    1C        C  700   2.496   3.644   2.538
    1C        C  701   2.497   3.433   2.662
    1C        C  702   2.492   3.505   2.784
    1C        C  703   2.522   3.297   2.907
    1C        C  704   2.498   3.436   2.907
    1C        C  705   2.541   3.231   3.031
    1C        C  706   2.527   3.301   3.153
    1C        C  707   2.586   3.100   3.279
    1C        C  708   2.539   3.233   3.275
    1C        C  709   2.622   3.040   3.402
    1C        C  710   2.590   3.105   3.524
    1C        C  711   2.709   2.932   3.645
    1C        C  712   2.623   3.044   3.647
    1C        C  713   2.752   2.875   3.767
    1C        C  714   2.706   2.932   3.888
    1C        C  715   2.748   2.878   4.011
    1C        C  716   2.449   3.495   2.058
    1C        C  717   2.497   3.627   2.057
    1C        C  718   2.462   3.421   2.180
    1C        C  719   2.480   3.496   2.299
    1C        C  720   2.506   3.287   2.421
    1C        C  721   2.483   3.426   2.422
    1C        C  722   2.527   3.220   2.544
    1C        C  723   2.514   3.292   2.665
    1C        C  724   2.588   3.094   2.789
    1C        C  725   2.534   3.224   2.787
    1C        C  726   2.615   3.031   2.913
    1C        C  727   2.585   3.097   3.035
    1C        C  728   2.702   2.922   3.159
    1C        C  729   2.619   3.035   3.157
    1C        C  730   2.752   2.871   3.281
    1C        C  731   2.705   2.926   3.402
    1C        C  732   2.752   2.873   3.524
    1C        C  733   2.482   3.193   2.070
    1C        C  734   2.482   3.279   2.180
    1C        C  735   2.579   3.085   2.304
    1C        C  736   2.519   3.214   2.301
    1C        C  737   2.607   3.018   2.425
    1C        C  738   2.583   3.091   2.543
    1C        C  739   2.688   2.909   2.670
    1C        C  740   2.614   3.029   2.667
    1C        C  741   2.738   2.854   2.791
    1C        C  742   2.697   2.916   2.911
    1C        C  743   2.743   2.867   3.035
    1C        C  744   2.539   3.066   2.071
    1C        C  745   2.681   2.896   2.184
    1C        C  746   2.605   3.016   2.184
    1C        C  747   2.727   2.841   2.305
    1C        C  748   2.683   2.899   2.426
    1C        C  749   2.732   2.850   2.549
    1C        C  750   2.725   2.833   2.067
    1C        C  751   3.659   2.310   1.979
    1C        O  752   3.667   2.191   2.019
    1C        O  753   3.646   2.305   1.839
    1C        C  754   4.626   3.044   1.978
    1C        O  755   4.598   3.035   1.855
    1C        O  756   4.765   3.027   1.985
    1C        C  757   4.441   4.215   1.954
    1C        O  758   4.544   4.277   1.993
    1C        O  759   4.406   4.226   1.819
    1C        C  760   3.587   4.657   1.941
    1C        O  761   3.620   4.777   1.962
    1C        O  762   3.613   4.637   1.805
    1C        C  763   2.887   4.476   1.932
    1C        O  764   2.930   4.430   1.822
    1C        O  765   2.777   4.561   1.916
    1C        C  766   2.339   3.472   1.962
    1C        O  767   2.360   3.493   1.839
    1C        O  768   2.209   3.513   1.996
    1C        C  769   4.669   3.586   5.077
    1C        O  770   4.629   3.559   5.194
    1C        O  771   4.808   3.585   5.060
    1C        C  772   4.281   4.473   5.009
    1C        O  773   4.308   4.481   5.131
    1C        O  774   4.360   4.568   4.943
    1C        C  775   4.148   2.522   5.072
    1C        O  776   4.206   2.413   5.045
    1C        O  777   4.149   2.557   5.207
    1C        C  778   2.880   4.543   5.051
    1C        O  779   2.819   4.646   5.010
    1C        O  780   2.903   4.537   5.189
    1C        C  781   2.467   3.034   5.062
    1C        O  782   2.353   3.006   5.014
    1C        O  783   2.454   3.048   5.200
    1C        C  784   2.415   3.982   5.057
    1C        O  785   2.295   3.956   5.031
    1C        O  786   2.446   3.943   5.188
    1C        C  787   2.946   2.414   2.011
    1C        O  788   2.965   2.387   1.889
    1C        O  789   2.889   2.304   2.074
    1C        C  790   3.175   2.353   5.030
    1C        O  791   3.085   2.271   4.996
    1C        O  792   3.183   2.353   5.170
    1C        H  793   4.295   3.014   5.066
    1C        H  794   4.179   2.810   5.071
    1C        H  795   4.498   3.131   5.060
    1C        H  796   4.494   3.376   5.053
    1C        H  797   4.544   3.806   5.054
    1C        H  798   4.389   3.962   5.050
    1C        H  799   4.260   4.155   5.044
    1C        H  800   4.040   4.557   5.008
    1C        H  801   3.823   4.588   5.030
    1C        H  802   3.597   4.663   5.021
    1C        H  803   3.384   4.551   5.048
    1C        H  804   3.169   4.452   5.049
    1C        H  805   3.905   2.451   5.051
    1C        H  806   3.673   2.430   5.067
    1C        H  807   3.004   2.554   5.060
    1C        H  808   3.442   2.449   5.074
    1C        H  809   2.872   2.732   5.072
    1C        H  810   2.690   2.892   5.074
    1C        H  811   2.474   3.288   5.062
    1C        H  812   2.486   3.501   5.063
    1C        H  813   2.490   3.724   5.068
    1C        H  814   2.585   4.171   5.043
    1C        H  815   2.738   4.336   5.046
    1C        H  816   2.694   2.866   1.970
    1C        H  817   2.829   2.676   1.979
    1C        H  818   3.205   2.437   1.980
    1C        H  819   3.421   2.443   1.975
    1C        H  820   3.841   2.546   1.968
    1C        H  821   4.053   2.635   1.966
    1C        H  822   4.264   2.711   1.975
    1C        H  823   4.379   2.919   1.961
    1C        H  824   4.609   3.305   1.980
    1C        H  825   4.502   3.514   1.955
    1C        H  826   4.487   3.743   1.951
    1C        H  827   3.803   4.525   1.950
    1C        H  828   3.964   4.380   1.945
    1C        H  829   4.189   4.330   1.970
    1C        H  830   4.526   3.982   1.984
    1C        H  831   2.698   3.821   2.004
    1C        H  832   2.640   4.071   1.962
    1C        H  833   2.704   4.313   1.979
    1C        H  834   3.374   4.425   1.962
    1C        H  835   3.140   4.430   1.947
    1C        H  836   2.495   2.990   2.011
    1C        H  837   2.470   3.237   1.973
    1C        H  838   2.491   3.676   1.962
    2V3OU   H29  839   2.806   3.553   5.074
    2V3OU   C27  840   2.779   3.507   5.172
    2V3OU   H27  841   2.716   3.576   5.233
    2V3OU   H28  842   2.730   3.409   5.149
    2V3OU   O11  843   2.904   3.483   5.238
    2V3OU   C15  844   2.917   3.403   5.349
    2V3OU   C13  845   3.047   3.378   5.398
    2V3OU   C14  846   3.074   3.270   5.483
    2V3OU   C16  847   2.968   3.189   5.521
    2V3OU    H6  848   2.987   3.099   5.581
    2V3OU   C12  849   3.211   3.235   5.526
    2V3OU    O2  850   3.235   3.128   5.587
    2V3OU   C10  851   3.324   3.309   5.470
    2V3OU    C8  852   3.457   3.267   5.480
    2V3OU   O10  853   3.487   3.147   5.537
    2V3OU   H26  854   3.402   3.100   5.541
    2V3OU    C6  855   3.567   3.344   5.431
    2V3OU    C5  856   3.538   3.463   5.366
    2V3OU    C4  857   3.707   3.293   5.431
    2V3OU    H4  858   3.725   3.224   5.519
    2V3OU    H5  859   3.713   3.219   5.346
    2V3OU    C2  860   3.816   3.399   5.417
    2V3OU    O6  861   3.808   3.468   5.543
    2V3OU   H21  862   3.765   3.550   5.516
    2V3OU    C3  863   3.784   3.498   5.305
    2V3OU    H2  864   3.861   3.579   5.300
    2V3OU    H3  865   3.784   3.431   5.215
    2V3OU   C25  866   3.950   3.328   5.403
    2V3OU    O7  867   4.002   3.292   5.297
    2V3OU   C26  868   4.028   3.292   5.528
    2V3OU   H22  869   4.059   3.382   5.587
    2V3OU   H23  870   4.121   3.236   5.500
    2V3OU    O8  871   3.964   3.212   5.625
    2V3OU   H24  872   3.921   3.264   5.694
    2V3OU    C1  873   3.647   3.559   5.329
    2V3OU    H1  874   3.623   3.617   5.235
    2V3OU    O3  875   3.660   3.654   5.435
    2V3OU   C19  876   3.620   3.791   5.422
    2V3OU    H9  877   3.519   3.795   5.373
    2V3OU    O4  878   3.713   3.855   5.337
    2V3OU   C20  879   3.844   3.874   5.392
    2V3OU   H10  880   3.895   3.775   5.410
    2V3OU   C24  881   3.609   3.856   5.560
    2V3OU   H16  882   3.543   3.797   5.629
    2V3OU   H17  883   3.564   3.957   5.541
    2V3OU   C23  884   3.747   3.876   5.622
    2V3OU   H15  885   3.786   3.772   5.651
    2V3OU    N1  886   3.735   3.959   5.740
    2V3OU   H19  887   3.805   3.926   5.803
    2V3OU   H20  888   3.647   3.925   5.774
    2V3OU   C21  889   3.846   3.949   5.525
    2V3OU   H11  890   3.951   3.928   5.561
    2V3OU    O5  891   3.823   4.089   5.532
    2V3OU   H18  892   3.773   4.106   5.614
    2V3OU   C22  893   3.913   3.946   5.278
    2V3OU   H12  894   3.861   4.043   5.257
    2V3OU   H13  895   3.904   3.887   5.183
    2V3OU   H14  896   4.023   3.960   5.296
    2V3OU   C11  897   3.160   3.469   5.373
    2V3OU    O1  898   3.134   3.591   5.359
    2V3OU    C9  899   3.300   3.425   5.392
    2V3OU    C7  900   3.403   3.506   5.346
    2V3OU    O9  901   3.384   3.611   5.257
    2V3OU   H25  902   3.288   3.621   5.256
    2V3OU   C17  903   2.815   3.313   5.387
    2V3OU    H7  904   2.713   3.343   5.360
    2V3OU   C18  905   2.838   3.208   5.476
    2V3OU    H8  906   2.755   3.151   5.521
    3SOL     OW  907   3.788   4.012   4.099
    3SOL    HW1  908   3.812   4.052   4.011
    3SOL    HW2  909   3.718   4.068   4.143
    4SOL     OW  910   6.845   0.119   0.626
    4SOL    HW1  911   6.859   0.062   0.707
    4SOL    HW2  912   6.783   0.194   0.649
    5SOL     OW  913   4.937   1.769   1.396
    5SOL    HW1  914   4.911   1.786   1.491
    5SOL    HW2  915   5.036   1.758   1.391
    6SOL     OW  916   5.757   0.581   2.551
    6SOL    HW1  917   5.681   0.521   2.576
    6SOL    HW2  918   5.791   0.627   2.632
    7SOL     OW  919   2.168   4.113   4.235
    7SOL    HW1  920   2.156   4.045   4.162
    7SOL    HW2  921   2.226   4.188   4.201
    8SOL     OW  922   2.000   3.519   5.320
    8SOL    HW1  923   2.016   3.584   5.394
    8SOL    HW2  924   1.901   3.511   5.304
    9SOL     OW  925   6.852   1.038   6.580
    9SOL    HW1  926   6.932   1.095   6.561
    9SOL    HW2  927   6.789   1.043   6.502
   10SOL     OW  928   4.934   4.517   2.762
   10SOL    HW1  929   4.864   4.477   2.822
   10SOL    HW2  930   4.955   4.454   2.688
   11SOL     OW  931   2.521   1.506   0.075
   11SOL    HW1  932   2.510   1.424   0.018
   11SOL    HW2  933   2.473   1.492   0.162
   12SOL     OW  934   3.037   4.865   3.048
   12SOL    HW1  935   3.115   4.927   3.040
   12SOL    HW2  936   2.969   4.906   3.110
   13SOL     OW  937   4.889   6.408   1.228
   13SOL    HW1  938   4.954   6.358   1.286
   13SOL    HW2  939   4.932   6.491   1.194
   14SOL     OW  940   4.382   5.248   4.919
   14SOL    HW1  941   4.444   5.296   4.981
   14SOL    HW2  942   4.289   5.282   4.932
   15SOL     OW  943   6.537   5.970   6.014
   15SOL    HW1  944   6.451   5.958   5.964
   15SOL    HW2  945   6.576   5.880   6.034
   16SOL     OW  946   1.034   3.872   5.156
   16SOL    HW1  947   1.066   3.876   5.061
   16SOL    HW2  948   0.956   3.810   5.162
   17SOL     OW  949   6.253   1.901   5.262
   17SOL    HW1  950   6.191   1.959   5.210
   17SOL    HW2  951   6.232   1.804   5.244
   18SOL     OW  952   2.570   1.239   5.647
   18SOL    HW1  953   2.562   1.230   5.746
   18SOL    HW2  954   2.660   1.276   5.624
   19SOL     OW  955   2.304   0.898   3.026
   19SOL    HW1  956   2.389   0.894   2.973
   19SOL    HW2  957   2.231   0.934   2.968
   20SOL     OW  958   6.328   1.626   5.440
   20SOL    HW1  959   6.305   1.723   5.428
   20SOL    HW2  960   6.252   1.580   5.484
   21SOL     OW  961   2.690   4.653   3.038
   21SOL    HW1  962   2.763   4.710   2.998
   21SOL    HW2  963   2.648   4.598   2.966
   22SOL     OW  964   1.745   6.914   6.566
   22SOL    HW1  965   1.797   6.873   6.641
   22SOL    HW2  966   1.763   6.862   6.482
   23SOL     OW  967   5.934   4.634   1.421
   23SOL    HW1  968   5.841   4.627   1.458
   23SOL    HW2  969   5.957   4.549   1.373
   24SOL     OW  970   4.382   1.159   0.869
   24SOL    HW1  971   4.455   1.100   0.836
   24SOL    HW2  972   4.412   1.255   0.863
   25SOL     OW  973   1.453   0.859   4.592
   25SOL    HW1  974   1.432   0.931   4.658
   25SOL    HW2  975   1.499   0.899   4.512
   26SOL     OW  976   1.049   2.806   6.856
   26SOL    HW1  977   0.986   2.802   6.934
   26SOL    HW2  978   1.100   2.720   6.849
   27SOL     OW  979   6.188   0.853   1.127
   27SOL    HW1  980   6.230   0.943   1.121
   27SOL    HW2  981   6.131   0.837   1.047
   28SOL     OW  982   2.790   0.790   5.186
   28SOL    HW1  983   2.766   0.775   5.089
   28SOL    HW2  984   2.723   0.742   5.243
   29SOL     OW  985   0.680   0.565   1.037
   29SOL    HW1  986   0.632   0.653   1.036
   29SOL    HW2  987   0.774   0.578   1.007
   30SOL     OW  988   4.376   0.340   5.242
   30SOL    HW1  989   4.431   0.404   5.295
   30SOL    HW2  990   4.342   0.386   5.160
   31SOL     OW  991   1.052   4.018   5.764
   31SOL    HW1  992   1.030   3.951   5.694
   31SOL    HW2  993   0.983   4.014   5.837
   32SOL     OW  994   3.153   0.685   1.185
   32SOL    HW1  995   3.071   0.696   1.242
   32SOL    HW2  996   3.139   0.607   1.123
   33SOL     OW  997   0.946   5.275   5.749
   33SOL    HW1  998   0.904   5.292   5.838
   33SOL    HW2  999   0.981   5.361   5.712
   34SOL     OW 1000   1.924   5.359   5.592
   34SOL    HW1 1001   1.954   5.282   5.649
   34SOL    HW2 1002   1.943   5.340   5.496
   35SOL     OW 1003   2.846   3.475   6.828
   35SOL    HW1 1004   2.757   3.505   6.795
   35SOL    HW2 1005   2.837   3.386   6.873
   36SOL     OW 1006   4.542   1.062   4.921
   36SOL    HW1 1007   4.511   1.069   4.826
   36SOL    HW2 1008   4.470   1.018   4.976
   37SOL     OW 1009   3.038   0.677   4.294
   37SOL    HW1 1010   2.979   0.695   4.373
   37SOL    HW2 1011   3.102   0.753   4.282
   38SOL     OW 1012   0.018   4.171   2.757
   38SOL    HW1 1013   0.102   4.118   2.756
   38SOL    HW2 1014   7.002   4.175   2.851
   39SOL     OW 1015   6.779   5.649   6.653
   39SOL    HW1 1016   6.826   5.730   6.688
   39SOL    HW2 1017   6.692   5.638   6.700
   40SOL     OW 1018   4.034   1.079   6.224
   40SOL    HW1 1019   4.110   1.023   6.256
   40SOL    HW2 1020   3.961   1.020   6.189
   41SOL     OW 1021   5.956   4.190   1.536
   41SOL    HW1 1022   5.957   4.154   1.443
   41SOL    HW2 1023   5.887   4.263   1.543
   42SOL     OW 1024   2.223   5.542   6.215
   42SOL    HW1 1025   2.255   5.473   6.280
   42SOL    HW2 1026   2.125   5.530   6.200
   43SOL     OW 1027   3.682   0.088   4.424
   43SOL    HW1 1028   3.635   0.151   4.486
   43SOL    HW2 1029   3.762   0.134   4.384
   44SOL     OW 1030   6.809   1.195   6.011
   44SOL    HW1 1031   6.729   1.238   6.053
   44SOL    HW2 1032   6.783   1.157   5.922
   45SOL     OW 1033   2.815   5.372   0.041
   45SOL    HW1 1034   2.810   5.274   0.059
   45SOL    HW2 1035   2.876   5.389   6.984
   46SOL     OW 1036   0.716   2.827   4.232
   46SOL    HW1 1037   0.669   2.802   4.147
   46SOL    HW2 1038   0.734   2.925   4.233
   47SOL     OW 1039   5.437   3.039   0.768
   47SOL    HW1 1040   5.428   3.083   0.858
   47SOL    HW2 1041   5.503   2.964   0.775
   48SOL     OW 1042   0.142   3.593   0.943
   48SOL    HW1 1043   0.182   3.563   1.030
   48SOL    HW2 1044   0.044   3.607   0.955
   49SOL     OW 1045   3.992   3.992   0.195
   49SOL    HW1 1046   3.990   3.892   0.199
   49SOL    HW2 1047   4.083   4.022   0.166
   50SOL     OW 1048   6.097   3.178   0.273
   50SOL    HW1 1049   6.163   3.239   0.316
   50SOL    HW2 1050   6.006   3.194   0.312
   51SOL     OW 1051   2.620   6.004   3.100
   51SOL    HW1 1052   2.584   5.917   3.134
   51SOL    HW2 1053   2.674   5.988   3.018
   52SOL     OW 1054   5.576   2.643   1.196
   52SOL    HW1 1055   5.590   2.648   1.098
   52SOL    HW2 1056   5.634   2.710   1.242
   53SOL     OW 1057   4.242   0.223   2.280
   53SOL    HW1 1058   4.267   0.192   2.189
   53SOL    HW2 1059   4.317   0.206   2.343
   54SOL     OW 1060   5.570   6.736   6.545
   54SOL    HW1 1061   5.653   6.687   6.574
   54SOL    HW2 1062   5.568   6.826   6.588
   55SOL     OW 1063   0.807   3.421   6.795
   55SOL    HW1 1064   0.863   3.422   6.712
   55SOL    HW2 1065   0.825   3.502   6.849
   56SOL     OW 1066   0.649   2.915   6.886
   56SOL    HW1 1067   0.626   2.822   6.916
   56SOL    HW2 1068   0.701   2.961   6.958
   57SOL     OW 1069   4.591   6.904   6.992
   57SOL    HW1 1070   4.609   6.844   6.914
   57SOL    HW2 1071   4.503   6.949   6.981
   58SOL     OW 1072   1.089   0.251   6.550
   58SOL    HW1 1073   1.164   0.199   6.509
   58SOL    HW2 1074   1.119   0.345   6.567
   59SOL     OW 1075   5.262   3.007   5.670
   59SOL    HW1 1076   5.306   3.042   5.588
   59SOL    HW2 1077   5.165   3.033   5.669
   60SOL     OW 1078   5.450   0.712   3.253
   60SOL    HW1 1079   5.547   0.722   3.273
   60SOL    HW2 1080   5.401   0.688   3.337
   61SOL     OW 1081   6.371   5.947   4.821
   61SOL    HW1 1082   6.447   5.885   4.802
   61SOL    HW2 1083   6.388   5.996   4.907
   62SOL     OW 1084   6.196   2.446   2.008
   62SOL    HW1 1085   6.253   2.408   1.936
   62SOL    HW2 1086   6.212   2.397   2.094
   63SOL     OW 1087   4.398   6.258   5.244
   63SOL    HW1 1088   4.413   6.266   5.145
   63SOL    HW2 1089   4.366   6.346   5.280
   64SOL     OW 1090   0.521   4.494   6.082
   64SOL    HW1 1091   0.599   4.449   6.040
   64SOL    HW2 1092   0.541   4.515   6.177
   65SOL     OW 1093   0.692   6.856   5.562
   65SOL    HW1 1094   0.701   6.864   5.661
   65SOL    HW2 1095   0.779   6.826   5.522
   66SOL     OW 1096   4.465   0.935   2.085
   66SOL    HW1 1097   4.454   0.984   2.171
   66SOL    HW2 1098   4.410   0.978   2.014
   67SOL     OW 1099   0.580   2.810   1.236
   67SOL    HW1 1100   0.490   2.781   1.269
   67SOL    HW2 1101   0.652   2.761   1.286
   68SOL     OW 1102   0.049   1.935   4.944
   68SOL    HW1 1103   6.976   1.951   4.979
   68SOL    HW2 1104   0.103   1.887   5.013
   69SOL     OW 1105   0.919   6.339   6.104
   69SOL    HW1 1106   0.828   6.305   6.130
   69SOL    HW2 1107   0.943   6.416   6.163
   70SOL     OW 1108   4.926   3.399   4.074
   70SOL    HW1 1109   5.025   3.401   4.090
   70SOL    HW2 1110   4.892   3.305   4.085
   71SOL     OW 1111   4.674   1.892   4.852
   71SOL    HW1 1112   4.763   1.936   4.856
   71SOL    HW2 1113   4.608   1.954   4.809
   72SOL     OW 1114   0.226   0.923   3.428
   72SOL    HW1 1115   0.237   1.022   3.415
   72SOL    HW2 1116   0.286   0.875   3.364
   73SOL     OW 1117   3.029   0.934   1.128
   73SOL    HW1 1118   3.097   0.862   1.117
   73SOL    HW2 1119   3.001   0.939   1.224
   74SOL     OW 1120   1.770   2.232   0.544
   74SOL    HW1 1121   1.729   2.303   0.486
   74SOL    HW2 1122   1.773   2.145   0.494
   75SOL     OW 1123   3.552   3.631   0.305
   75SOL    HW1 1124   3.457   3.633   0.276
   75SOL    HW2 1125   3.563   3.688   0.387
   76SOL     OW 1126   3.498   4.869   5.206
   76SOL    HW1 1127   3.555   4.790   5.230
   76SOL    HW2 1128   3.404   4.852   5.233
   77SOL     OW 1129   1.066   4.411   4.512
   77SOL    HW1 1130   1.156   4.448   4.489
   77SOL    HW2 1131   1.010   4.405   4.429
   78SOL     OW 1132   4.700   1.637   0.913
   78SOL    HW1 1133   4.706   1.695   0.993
   78SOL    HW2 1134   4.733   1.545   0.935
   79SOL     OW 1135   1.503   4.745   3.214
   79SOL    HW1 1136   1.577   4.812   3.227
   79SOL    HW2 1137   1.486   4.699   3.301
   80SOL     OW 1138   4.354   0.968   5.066
   80SOL    HW1 1139   4.287   1.039   5.089
   80SOL    HW2 1140   4.385   0.923   5.150
   81SOL     OW 1141   4.186   5.865   1.306
   81SOL    HW1 1142   4.126   5.925   1.358
   81SOL    HW2 1143   4.133   5.789   1.269
   82SOL     OW 1144   2.378   6.090   1.845
   82SOL    HW1 1145   2.407   6.042   1.928
   82SOL    HW2 1146   2.314   6.162   1.869
   83SOL     OW 1147   5.345   0.745   4.935
   83SOL    HW1 1148   5.398   0.820   4.973
   83SOL    HW2 1149   5.397   0.660   4.944
   84SOL     OW 1150   5.395   2.228   1.678
   84SOL    HW1 1151   5.402   2.139   1.725
   84SOL    HW2 1152   5.369   2.213   1.583
   85SOL     OW 1153   1.986   0.276   4.031
   85SOL    HW1 1154   1.994   0.184   3.992
   85SOL    HW2 1155   1.981   0.271   4.130
   86SOL     OW 1156   6.190   0.154   6.294
   86SOL    HW1 1157   6.251   0.219   6.340
   86SOL    HW2 1158   6.116   0.203   6.249
   87SOL     OW 1159   2.518   4.578   6.805
   87SOL    HW1 1160   2.614   4.556   6.787
   87SOL    HW2 1161   2.460   4.528   6.740
   88SOL     OW 1162   3.270   4.029   6.924
   88SOL    HW1 1163   3.215   4.000   6.846
   88SOL    HW2 1164   3.305   3.948   6.973
   89SOL     OW 1165   3.065   3.644   3.968
   89SOL    HW1 1166   3.017   3.724   3.932
   89SOL    HW2 1167   3.157   3.670   3.997
   90SOL     OW 1168   4.948   3.906   2.632
   90SOL    HW1 1169   4.910   3.814   2.643
   90SOL    HW2 1170   4.898   3.955   2.560
   91SOL     OW 1171   4.535   4.984   5.520
   91SOL    HW1 1172   4.521   5.007   5.423
   91SOL    HW2 1173   4.486   5.049   5.577
   92SOL     OW 1174   5.867   3.395   6.253
   92SOL    HW1 1175   5.789   3.341   6.286
   92SOL    HW2 1176   5.841   3.491   6.249
   93SOL     OW 1177   2.980   3.706   2.248
   93SOL    HW1 1178   2.958   3.616   2.211
   93SOL    HW2 1179   2.915   3.773   2.212
   94SOL     OW 1180   2.684   1.821   5.272
   94SOL    HW1 1181   2.754   1.825   5.202
   94SOL    HW2 1182   2.726   1.834   5.362
   95SOL     OW 1183   0.617   0.910   4.090
   95SOL    HW1 1184   0.599   0.817   4.058
   95SOL    HW2 1185   0.603   0.974   4.016
   96SOL     OW 1186   6.193   4.980   0.645
   96SOL    HW1 1187   6.118   4.913   0.641
   96SOL    HW2 1188   6.272   4.945   0.594
   97SOL     OW 1189   2.033   5.189   6.024
   97SOL    HW1 1190   2.086   5.234   6.096
   97SOL    HW2 1191   1.943   5.163   6.060
   98SOL     OW 1192   1.621   2.130   3.374
   98SOL    HW1 1193   1.682   2.199   3.412
   98SOL    HW2 1194   1.556   2.173   3.312
   99SOL     OW 1195   4.109   3.242   5.042
   99SOL    HW1 1196   4.163   3.166   5.006
   99SOL    HW2 1197   4.067   3.216   5.129
  100SOL     OW 1198   6.823   1.001   4.696
  100SOL    HW1 1199   6.814   0.918   4.641
  100SOL    HW2 1200   6.859   1.075   4.639
  101SOL     OW 1201   6.503   3.579   2.584
  101SOL    HW1 1202   6.450   3.536   2.657
  101SOL    HW2 1203   6.578   3.519   2.558
  102SOL     OW 1204   3.821   0.179   0.034
  102SOL    HW1 1205   3.918   0.194   0.052
  102SOL    HW2 1206   3.773   0.162   0.120
  103SOL     OW 1207   3.242   1.034   2.199
  103SOL    HW1 1208   3.144   1.053   2.199
  103SOL    HW2 1209   3.289   1.100   2.140
  104SOL     OW 1210   6.848   4.222   1.941
  104SOL    HW1 1211   6.876   4.141   1.890
  104SOL    HW2 1212   6.869   4.209   2.038
  105SOL     OW 1213   5.745   0.911   5.459
  105SOL    HW1 1214   5.693   0.973   5.518
  105SOL    HW2 1215   5.843   0.929   5.469
  106SOL     OW 1216   5.411   4.685   1.790
  106SOL    HW1 1217   5.349   4.752   1.830
  106SOL    HW2 1218   5.425   4.610   1.854
  107SOL     OW 1219   5.957   6.864   1.214
  107SOL    HW1 1220   6.017   6.930   1.260
  107SOL    HW2 1221   5.906   6.812   1.282
  108SOL     OW 1222   1.927   1.186   4.803
  108SOL    HW1 1223   1.882   1.098   4.792
  108SOL    HW2 1224   2.016   1.184   4.757
  109SOL     OW 1225   1.792   0.808   3.979
  109SOL    HW1 1226   1.763   0.793   4.074
  109SOL    HW2 1227   1.777   0.724   3.927
  110SOL     OW 1228   3.445   4.333   5.485
  110SOL    HW1 1229   3.522   4.286   5.444
  110SOL    HW2 1230   3.385   4.368   5.413
  111SOL     OW 1231   6.523   2.006   1.458
  111SOL    HW1 1232   6.426   2.006   1.438
  111SOL    HW2 1233   6.543   2.073   1.530
  112SOL     OW 1234   4.899   6.193   7.003
  112SOL    HW1 1235   4.995   6.169   6.992
  112SOL    HW2 1236   4.876   6.270   6.944
  113SOL     OW 1237   0.367   6.127   2.460
  113SOL    HW1 1238   0.312   6.211   2.458
  113SOL    HW2 1239   0.330   6.064   2.527
  114SOL     OW 1240   0.317   3.575   3.114
  114SOL    HW1 1241   0.284   3.642   3.181
  114SOL    HW2 1242   0.369   3.623   3.043
  115SOL     OW 1243   5.676   0.321   3.912
  115SOL    HW1 1244   5.642   0.389   3.978
  115SOL    HW2 1245   5.622   0.237   3.921
  116SOL     OW 1246   0.219   4.907   0.297
  116SOL    HW1 1247   0.171   4.989   0.269
  116SOL    HW2 1248   0.241   4.912   0.395
  117SOL     OW 1249   2.200   2.504   0.190
  117SOL    HW1 1250   2.232   2.598   0.175
  117SOL    HW2 1251   2.258   2.460   0.258
  118SOL     OW 1252   1.466   1.854   3.946
  118SOL    HW1 1253   1.370   1.845   3.919
  118SOL    HW2 1254   1.525   1.827   3.870
  119SOL     OW 1255   6.500   6.452   6.379
  119SOL    HW1 1256   6.558   6.436   6.299
  119SOL    HW2 1257   6.521   6.542   6.418
  120SOL     OW 1258   4.868   2.417   4.950
  120SOL    HW1 1259   4.774   2.453   4.948
  120SOL    HW2 1260   4.866   2.318   4.945
  121SOL     OW 1261   1.398   4.873   6.822
  121SOL    HW1 1262   1.380   4.810   6.897
  121SOL    HW2 1263   1.395   4.967   6.856
  122SOL     OW 1264   0.268   4.316   6.463
  122SOL    HW1 1265   0.356   4.352   6.494
  122SOL    HW2 1266   0.270   4.303   6.364
  123SOL     OW 1267   1.557   1.458   1.598
  123SOL    HW1 1268   1.547   1.557   1.610
  123SOL    HW2 1269   1.540   1.412   1.685
  124SOL     OW 1270   2.135   2.403   0.691
  124SOL    HW1 1271   2.167   2.313   0.721
  124SOL    HW2 1272   2.212   2.467   0.689
  125SOL     OW 1273   3.973   3.723   0.239
  125SOL    HW1 1274   4.006   3.704   0.331
  125SOL    HW2 1275   3.982   3.640   0.183
  126SOL     OW 1276   4.040   3.850   4.568
  126SOL    HW1 1277   3.968   3.781   4.574
  126SOL    HW2 1278   4.114   3.817   4.510
  127SOL     OW 1279   0.620   5.654   5.294
  127SOL    HW1 1280   0.682   5.731   5.286
  127SOL    HW2 1281   0.528   5.682   5.267
  128SOL     OW 1282   4.293   3.102   6.812
  128SOL    HW1 1283   4.325   3.098   6.906
  128SOL    HW2 1284   4.202   3.143   6.809
  129SOL     OW 1285   1.211   5.666   1.430
  129SOL    HW1 1286   1.187   5.741   1.368
  129SOL    HW2 1287   1.294   5.689   1.480
  130SOL     OW 1288   6.193   3.142   4.821
  130SOL    HW1 1289   6.119   3.138   4.754
  130SOL    HW2 1290   6.155   3.147   4.913
  131SOL     OW 1291   0.458   2.394   3.823
  131SOL    HW1 1292   0.501   2.472   3.776
  131SOL    HW2 1293   0.384   2.358   3.766
  132SOL     OW 1294   4.044   3.671   2.256
  132SOL    HW1 1295   4.054   3.760   2.213
  132SOL    HW2 1296   3.976   3.677   2.330
  133SOL     OW 1297   5.611   6.049   6.484
  133SOL    HW1 1298   5.698   6.019   6.522
  133SOL    HW2 1299   5.623   6.075   6.388
  134SOL     OW 1300   5.169   1.570   1.758
  134SOL    HW1 1301   5.079   1.577   1.716
  134SOL    HW2 1302   5.163   1.513   1.840
  135SOL     OW 1303   4.844   3.047   3.438
  135SOL    HW1 1304   4.937   3.073   3.465
  135SOL    HW2 1305   4.824   2.954   3.468
  136SOL     OW 1306   3.553   0.181   6.191
  136SOL    HW1 1307   3.557   0.103   6.253
  136SOL    HW2 1308   3.459   0.212   6.181
  137SOL     OW 1309   3.323   2.782   5.823
  137SOL    HW1 1310   3.279   2.839   5.892
  137SOL    HW2 1311   3.286   2.804   5.733
  138SOL     OW 1312   0.615   5.386   6.193
  138SOL    HW1 1313   0.676   5.353   6.265
  138SOL    HW2 1314   0.633   5.482   6.175
  139SOL     OW 1315   2.331   5.895   0.631
  139SOL    HW1 1316   2.407   5.838   0.602
  139SOL    HW2 1317   2.348   5.990   0.603
  140SOL     OW 1318   3.092   0.285   1.427
  140SOL    HW1 1319   3.018   0.232   1.388
  140SOL    HW2 1320   3.055   0.366   1.474
  141SOL     OW 1321   6.730   2.887   0.664
  141SOL    HW1 1322   6.681   2.918   0.746
  141SOL    HW2 1323   6.714   2.789   0.651
  142SOL     OW 1324   1.450   4.106   2.357
  142SOL    HW1 1325   1.514   4.167   2.403
  142SOL    HW2 1326   1.500   4.039   2.302
  143SOL     OW 1327   4.977   6.451   2.127
  143SOL    HW1 1328   4.987   6.428   2.224
  143SOL    HW2 1329   5.061   6.493   2.093
  144SOL     OW 1330   3.416   5.293   3.952
  144SOL    HW1 1331   3.476   5.213   3.950
  144SOL    HW2 1332   3.390   5.317   3.858
  145SOL     OW 1333   6.575   4.981   3.279
  145SOL    HW1 1334   6.669   5.010   3.296
  145SOL    HW2 1335   6.574   4.907   3.211
  146SOL     OW 1336   5.924   1.262   6.344
  146SOL    HW1 1337   5.974   1.328   6.400
  146SOL    HW2 1338   5.946   1.277   6.247
  147SOL     OW 1339   5.127   0.861   5.053
  147SOL    HW1 1340   5.150   0.957   5.035
  147SOL    HW2 1341   5.198   0.802   5.015
  148SOL     OW 1342   1.006   5.498   0.702
  148SOL    HW1 1343   1.069   5.533   0.633
  148SOL    HW2 1344   0.998   5.399   0.694
  149SOL     OW 1345   2.145   2.512   5.484
  149SOL    HW1 1346   2.191   2.425   5.500
  149SOL    HW2 1347   2.203   2.587   5.516
  150SOL     OW 1348   4.169   1.806   4.945
  150SOL    HW1 1349   4.188   1.765   4.856
  150SOL    HW2 1350   4.213   1.752   5.016
  151SOL     OW 1351   3.541   2.538   0.702
  151SOL    HW1 1352   3.579   2.462   0.649
  151SOL    HW2 1353   3.585   2.542   0.791
  152SOL     OW 1354   0.949   1.940   0.586
  152SOL    HW1 1355   1.026   2.003   0.575
  152SOL    HW2 1356   0.927   1.898   0.499
  153SOL     OW 1357   3.273   1.235   3.615
  153SOL    HW1 1358   3.363   1.192   3.605
  153SOL    HW2 1359   3.202   1.168   3.595
  154SOL     OW 1360   6.561   1.589   2.253
  154SOL    HW1 1361   6.546   1.496   2.218
  154SOL    HW2 1362   6.495   1.609   2.325
  155SOL     OW 1363   0.894   6.865   2.087
  155SOL    HW1 1364   0.807   6.883   2.040
  155SOL    HW2 1365   0.969   6.870   2.021
  156SOL     OW 1366   5.021   2.149   0.381
  156SOL    HW1 1367   5.020   2.077   0.450
  156SOL    HW2 1368   4.927   2.170   0.353
  157SOL     OW 1369   4.207   5.122   0.246
  157SOL    HW1 1370   4.170   5.159   0.161
  157SOL    HW2 1371   4.272   5.049   0.225
  158SOL     OW 1372   0.331   2.555   3.370
  158SOL    HW1 1373   0.360   2.631   3.312
  158SOL    HW2 1374   0.311   2.589   3.462
  159SOL     OW 1375   6.020   5.058   0.916
  159SOL    HW1 1376   6.045   5.064   1.012
  159SOL    HW2 1377   6.095   5.093   0.859
  160SOL     OW 1378   6.436   0.037   1.832
  160SOL    HW1 1379   6.336   0.037   1.830
  160SOL    HW2 1380   6.471   0.068   1.743
  161SOL     OW 1381   0.063   6.736   0.721
  161SOL    HW1 1382   0.137   6.805   0.721
  161SOL    HW2 1383   0.027   6.727   0.628
  162SOL     OW 1384   4.624   0.003   0.238
  162SOL    HW1 1385   4.645   6.999   0.143
  162SOL    HW2 1386   4.525   0.005   0.251
  163SOL     OW 1387   0.036   3.731   3.088
  163SOL    HW1 1388   0.045   3.704   3.183
  163SOL    HW2 1389   6.991   3.670   3.042
  164SOL     OW 1390   2.359   2.388   3.716
  164SOL    HW1 1391   2.292   2.352   3.652
  164SOL    HW2 1392   2.391   2.477   3.684
  165SOL     OW 1393   0.348   6.290   3.517
  165SOL    HW1 1394   0.427   6.259   3.464
  165SOL    HW2 1395   0.285   6.339   3.457
  166SOL     OW 1396   6.892   4.216   3.647
  166SOL    HW1 1397   6.898   4.315   3.657
  166SOL    HW2 1398   6.828   4.193   3.573
  167SOL     OW 1399   3.455   1.835   0.130
  167SOL    HW1 1400   3.454   1.931   0.158
  167SOL    HW2 1401   3.368   1.811   0.088
  168SOL     OW 1402   5.177   4.003   1.921
  168SOL    HW1 1403   5.260   4.008   1.976
  168SOL    HW2 1404   5.197   3.958   1.834
  169SOL     OW 1405   4.979   2.542   0.999
  169SOL    HW1 1406   5.020   2.633   0.985
  169SOL    HW2 1407   4.921   2.544   1.081
  170SOL     OW 1408   0.511   6.361   2.733
  170SOL    HW1 1409   0.540   6.427   2.665
  170SOL    HW2 1410   0.413   6.372   2.752
  171SOL     OW 1411   3.423   3.825   0.507
  171SOL    HW1 1412   3.465   3.911   0.478
  171SOL    HW2 1413   3.489   3.773   0.561
  172SOL     OW 1414   6.810   2.429   6.753
  172SOL    HW1 1415   6.831   2.335   6.725
  172SOL    HW2 1416   6.887   2.488   6.730
  173SOL     OW 1417   6.955   1.619   4.267
  173SOL    HW1 1418   0.010   1.634   4.332
  173SOL    HW2 1419   6.897   1.701   4.265
  174SOL     OW 1420   5.474   5.097   5.193
  174SOL    HW1 1421   5.478   5.019   5.255
  174SOL    HW2 1422   5.547   5.090   5.125
  175SOL     OW 1423   0.579   0.302   0.986
  175SOL    HW1 1424   0.563   0.398   1.006
  175SOL    HW2 1425   0.677   0.283   0.985
  176SOL     OW 1426   5.610   4.298   1.801
  176SOL    HW1 1427   5.678   4.334   1.864
  176SOL    HW2 1428   5.625   4.335   1.710
  177SOL     OW 1429   5.949   2.902   4.303
  177SOL    HW1 1430   6.037   2.867   4.336
  177SOL    HW2 1431   5.948   2.904   4.203
  178SOL     OW 1432   1.998   5.944   5.113
  178SOL    HW1 1433   1.974   5.848   5.095
  178SOL    HW2 1434   2.083   5.967   5.065
  179SOL     OW 1435   3.609   5.008   1.395
  179SOL    HW1 1436   3.558   4.921   1.394
  179SOL    HW2 1437   3.544   5.084   1.392
  180SOL     OW 1438   3.883   1.412   0.596
  180SOL    HW1 1439   3.941   1.450   0.524
  180SOL    HW2 1440   3.848   1.487   0.652
  181SOL     OW 1441   3.092   2.598   5.571
  181SOL    HW1 1442   3.077   2.604   5.472
  181SOL    HW2 1443   3.126   2.686   5.605
  182SOL     OW 1444   4.282   2.170   0.312
  182SOL    HW1 1445   4.214   2.223   0.261
  182SOL    HW2 1446   4.239   2.130   0.393
  183SOL     OW 1447   3.488   1.342   3.318
  183SOL    HW1 1448   3.510   1.393   3.235
  183SOL    HW2 1449   3.528   1.251   3.313
  184SOL     OW 1450   5.392   5.989   3.505
  184SOL    HW1 1451   5.407   6.006   3.408
  184SOL    HW2 1452   5.477   5.957   3.547
  185SOL     OW 1453   6.557   0.988   4.162
  185SOL    HW1 1454   6.532   0.921   4.092
  185SOL    HW2 1455   6.588   1.072   4.118
  186SOL     OW 1456   4.851   6.252   4.075
  186SOL    HW1 1457   4.784   6.258   4.001
  186SOL    HW2 1458   4.940   6.286   4.043
  187SOL     OW 1459   4.609   6.305   1.810
  187SOL    HW1 1460   4.606   6.386   1.752
  187SOL    HW2 1461   4.517   6.267   1.820
  188SOL     OW 1462   1.260   3.372   3.650
  188SOL    HW1 1463   1.267   3.385   3.551
  188SOL    HW2 1464   1.315   3.293   3.677
  189SOL     OW 1465   6.138   4.994   6.344
  189SOL    HW1 1466   6.225   4.948   6.325
  189SOL    HW2 1467   6.153   5.093   6.346
  190SOL     OW 1468   5.935   0.316   0.188
  190SOL    HW1 1469   6.010   0.354   0.242
  190SOL    HW2 1470   5.947   0.343   0.092
  191SOL     OW 1471   6.895   1.489   5.117
  191SOL    HW1 1472   6.815   1.446   5.160
  191SOL    HW2 1473   6.978   1.462   5.166
  192SOL     OW 1474   0.667   5.393   0.930
  192SOL    HW1 1475   0.689   5.473   0.874
  192SOL    HW2 1476   0.574   5.363   0.909
  193SOL     OW 1477   2.344   6.139   6.944
  193SOL    HW1 1478   2.344   6.062   6.880
  193SOL    HW2 1479   2.429   6.140   6.995
  194SOL     OW 1480   3.971   6.694   2.295
  194SOL    HW1 1481   4.048   6.631   2.296
  194SOL    HW2 1482   3.997   6.779   2.251
  195SOL     OW 1483   3.666   0.835   0.811
  195SOL    HW1 1484   3.607   0.755   0.820
  195SOL    HW2 1485   3.651   0.896   0.888
  196SOL     OW 1486   2.631   1.527   0.449
  196SOL    HW1 1487   2.727   1.519   0.421
  196SOL    HW2 1488   2.572   1.498   0.373
  197SOL     OW 1489   2.172   6.615   0.637
  197SOL    HW1 1490   2.093   6.602   0.697
  197SOL    HW2 1491   2.192   6.713   0.628
  198SOL     OW 1492   4.672   0.396   6.513
  198SOL    HW1 1493   4.574   0.386   6.525
  198SOL    HW2 1494   4.711   0.308   6.486
  199SOL     OW 1495   6.974   0.102   3.361
  199SOL    HW1 1496   6.986   0.011   3.322
  199SOL    HW2 1497   0.022   0.117   3.433
  200SOL     OW 1498   0.413   4.419   3.228
  200SOL    HW1 1499   0.377   4.474   3.303
  200SOL    HW2 1500   0.487   4.361   3.262
  201SOL     OW 1501   3.964   0.694   6.058
  201SOL    HW1 1502   3.968   0.688   6.158
  201SOL    HW2 1503   3.904   0.622   6.023
  202SOL     OW 1504   3.010   0.303   2.673
  202SOL    HW1 1505   3.004   0.236   2.747
  202SOL    HW2 1506   3.106   0.322   2.652
  203SOL     OW 1507   5.671   3.243   6.350
  203SOL    HW1 1508   5.614   3.282   6.423
  203SOL    HW2 1509   5.672   3.144   6.358
  204SOL     OW 1510   2.280   6.917   1.253
  204SOL    HW1 1511   2.225   6.843   1.293
  204SOL    HW2 1512   2.318   6.886   1.166
  205SOL     OW 1513   6.234   1.582   0.346
  205SOL    HW1 1514   6.181   1.651   0.397
  205SOL    HW2 1515   6.175   1.542   0.275
  206SOL     OW 1516   1.209   4.116   1.927
  206SOL    HW1 1517   1.158   4.127   1.841
  206SOL    HW2 1518   1.175   4.037   1.976
  207SOL     OW 1519   4.631   0.337   5.582
  207SOL    HW1 1520   4.720   0.295   5.570
  207SOL    HW2 1521   4.610   0.394   5.503
  208SOL     OW 1522   3.955   4.918   6.296
  208SOL    HW1 1523   3.870   4.965   6.275
  208SOL    HW2 1524   4.030   4.984   6.298
  209SOL     OW 1525   0.011   5.654   5.548
  209SOL    HW1 1526   0.052   5.563   5.562
  209SOL    HW2 1527   6.950   5.645   5.489
  210SOL     OW 1528   3.845   3.211   1.208
  210SOL    HW1 1529   3.843   3.226   1.307
  210SOL    HW2 1530   3.937   3.184   1.180
  211SOL     OW 1531   1.474   1.641   1.085
  211SOL    HW1 1532   1.569   1.625   1.111
  211SOL    HW2 1533   1.421   1.558   1.099
  212SOL     OW 1534   0.301   5.411   3.638
  212SOL    HW1 1535   0.270   5.458   3.721
  212SOL    HW2 1536   0.232   5.344   3.609
  213SOL     OW 1537   4.741   2.124   0.265
  213SOL    HW1 1538   4.808   2.170   0.207
  213SOL    HW2 1539   4.660   2.102   0.210
  214SOL     OW 1540   1.107   0.600   3.128
  214SOL    HW1 1541   1.133   0.633   3.037
  214SOL    HW2 1542   1.013   0.565   3.125
  215SOL     OW 1543   3.626   3.262   2.572
  215SOL    HW1 1544   3.612   3.229   2.479
  215SOL    HW2 1545   3.666   3.354   2.568
  216SOL     OW 1546   0.704   6.871   5.838
  216SOL    HW1 1547   0.720   6.892   5.934
  216SOL    HW2 1548   0.756   6.790   5.811
  217SOL     OW 1549   1.070   2.807   3.037
  217SOL    HW1 1550   1.032   2.717   3.059
  217SOL    HW2 1551   1.026   2.842   2.954
  218SOL     OW 1552   1.477   4.077   5.239
  218SOL    HW1 1553   1.380   4.060   5.258
  218SOL    HW2 1554   1.523   4.107   5.322
  219SOL     OW 1555   4.819   5.130   0.130
  219SOL    HW1 1556   4.861   5.077   0.057
  219SOL    HW2 1557   4.825   5.079   0.216
  220SOL     OW 1558   3.035   4.847   0.609
  220SOL    HW1 1559   3.122   4.896   0.617
  220SOL    HW2 1560   2.961   4.906   0.640
  221SOL     OW 1561   5.678   2.419   4.754
  221SOL    HW1 1562   5.673   2.328   4.714
  221SOL    HW2 1563   5.590   2.465   4.744
  222SOL     OW 1564   1.241   6.571   5.397
  222SOL    HW1 1565   1.195   6.568   5.485
  222SOL    HW2 1566   1.201   6.502   5.336
  223SOL     OW 1567   6.671   3.596   1.669
  223SOL    HW1 1568   6.715   3.625   1.754
  223SOL    HW2 1569   6.610   3.519   1.687
  224SOL     OW 1570   3.064   2.163   1.779
  224SOL    HW1 1571   3.084   2.101   1.856
  224SOL    HW2 1572   3.025   2.248   1.814
  225SOL     OW 1573   6.334   0.357   6.420
  225SOL    HW1 1574   6.380   0.431   6.371
  225SOL    HW2 1575   6.289   0.394   6.502
  226SOL     OW 1576   6.550   6.109   0.954
  226SOL    HW1 1577   6.610   6.178   0.913
  226SOL    HW2 1578   6.530   6.038   0.886
  227SOL     OW 1579   1.455   3.214   3.718
  227SOL    HW1 1580   1.464   3.172   3.808
  227SOL    HW2 1581   1.543   3.210   3.670
  228SOL     OW 1582   4.269   7.010   3.999
  228SOL    HW1 1583   4.211   6.960   3.934
  228SOL    HW2 1584   4.344   0.034   3.950
  229SOL     OW 1585   5.917   5.384   2.572
  229SOL    HW1 1586   5.974   5.392   2.654
  229SOL    HW2 1587   5.936   5.297   2.526
  230SOL     OW 1588   2.120   4.273   4.902
  230SOL    HW1 1589   2.145   4.196   4.843
  230SOL    HW2 1590   2.071   4.239   4.982
  231SOL     OW 1591   0.304   2.051   6.372
  231SOL    HW1 1592   0.207   2.066   6.392
  231SOL    HW2 1593   0.357   2.131   6.399
  232SOL     OW 1594   1.754   4.858   6.901
  232SOL    HW1 1595   1.821   4.871   6.827
  232SOL    HW2 1596   1.700   4.775   6.883
  233SOL     OW 1597   2.096   0.866   6.000
  233SOL    HW1 1598   2.075   0.906   6.089
  233SOL    HW2 1599   2.011   0.847   5.951
  234SOL     OW 1600   2.667   5.717   0.262
  234SOL    HW1 1601   2.607   5.718   0.342
  234SOL    HW2 1602   2.628   5.775   0.190
  235SOL     OW 1603   3.242   3.502   4.989
  235SOL    HW1 1604   3.212   3.591   5.022
  235SOL    HW2 1605   3.164   3.440   4.980
  236SOL     OW 1606   7.011   2.197   5.188
  236SOL    HW1 1607   6.964   2.164   5.270
  236SOL    HW2 1608   0.085   2.162   5.186
  237SOL     OW 1609   0.369   0.497   1.281
  237SOL    HW1 1610   0.445   0.528   1.337
  237SOL    HW2 1611   0.377   0.398   1.267
  238SOL     OW 1612   5.768   2.400   2.560
  238SOL    HW1 1613   5.690   2.406   2.623
  238SOL    HW2 1614   5.813   2.489   2.554
  239SOL     OW 1615   6.976   5.892   0.226
  239SOL    HW1 1616   0.042   5.910   0.275
  239SOL    HW2 1617   6.902   5.947   0.265
  240SOL     OW 1618   6.980   3.533   5.747
  240SOL    HW1 1619   6.948   3.454   5.801
  240SOL    HW2 1620   6.977   3.615   5.804
  241SOL     OW 1621   0.607   0.828   3.454
  241SOL    HW1 1622   0.658   0.770   3.518
  241SOL    HW2 1623   0.571   0.908   3.503
  242SOL     OW 1624   1.715   3.977   4.178
  242SOL    HW1 1625   1.665   3.915   4.118
  242SOL    HW2 1626   1.660   4.058   4.196
  243SOL     OW 1627   4.794   0.120   5.064
  243SOL    HW1 1628   4.812   0.070   4.980
  243SOL    HW2 1629   4.776   0.055   5.138
  244SOL     OW 1630   6.477   2.095   5.867
  244SOL    HW1 1631   6.381   2.068   5.877
  244SOL    HW2 1632   6.483   2.177   5.811
  245SOL     OW 1633   6.070   1.372   3.992
  245SOL    HW1 1634   6.022   1.327   4.067
  245SOL    HW2 1635   6.165   1.388   4.017
  246SOL     OW 1636   5.543   3.254   3.396
  246SOL    HW1 1637   5.520   3.188   3.467
  246SOL    HW2 1638   5.575   3.339   3.439
  247SOL     OW 1639   2.502   1.580   3.416
  247SOL    HW1 1640   2.575   1.619   3.473
  247SOL    HW2 1641   2.417   1.579   3.468
  248SOL     OW 1642   5.991   1.312   2.988
  248SOL    HW1 1643   6.061   1.271   2.929
  248SOL    HW2 1644   5.948   1.388   2.939
  249SOL     OW 1645   3.476   0.129   3.948
  249SOL    HW1 1646   3.543   0.090   3.884
  249SOL    HW2 1647   3.484   0.084   4.037
  250SOL     OW 1648   4.958   2.663   5.818
  250SOL    HW1 1649   5.053   2.651   5.787
  250SOL    HW2 1650   4.895   2.635   5.745
  251SOL     OW 1651   3.135   2.382   1.008
  251SOL    HW1 1652   3.126   2.332   0.922
  251SOL    HW2 1653   3.125   2.480   0.991
  252SOL     OW 1654   0.263   1.286   5.870
  252SOL    HW1 1655   0.329   1.348   5.827
  252SOL    HW2 1656   0.285   1.192   5.844
  253SOL     OW 1657   3.054   3.768   6.310
  253SOL    HW1 1658   3.015   3.706   6.242
  253SOL    HW2 1659   3.150   3.787   6.288
  254SOL     OW 1660   5.574   3.160   5.037
  254SOL    HW1 1661   5.671   3.151   5.061
  254SOL    HW2 1662   5.526   3.076   5.061
  255SOL     OW 1663   3.074   2.129   4.364
  255SOL    HW1 1664   2.979   2.113   4.339
  255SOL    HW2 1665   3.116   2.044   4.394
  256SOL     OW 1666   6.184   5.160   6.746
  256SOL    HW1 1667   6.268   5.112   6.721
  256SOL    HW2 1668   6.119   5.157   6.670
  257SOL     OW 1669   3.318   6.136   6.047
  257SOL    HW1 1670   3.397   6.082   6.075
  257SOL    HW2 1671   3.238   6.077   6.040
  258SOL     OW 1672   5.034   4.309   4.037
  258SOL    HW1 1673   5.049   4.369   4.115
  258SOL    HW2 1674   4.990   4.225   4.067
  259SOL     OW 1675   1.345   2.211   2.636
  259SOL    HW1 1676   1.392   2.251   2.714
  259SOL    HW2 1677   1.377   2.253   2.552
  260SOL     OW 1678   5.637   0.451   5.871
  260SOL    HW1 1679   5.697   0.526   5.902
  260SOL    HW2 1680   5.686   0.395   5.804
  261SOL     OW 1681   0.647   3.059   2.302
  261SOL    HW1 1682   0.553   3.090   2.317
  261SOL    HW2 1683   0.685   3.023   2.387
  262SOL     OW 1684   0.457   4.798   1.967
  262SOL    HW1 1685   0.449   4.870   2.036
  262SOL    HW2 1686   0.449   4.709   2.011
  263SOL     OW 1687   1.479   2.002   4.232
  263SOL    HW1 1688   1.427   2.086   4.219
  263SOL    HW2 1689   1.492   1.957   4.144
  264SOL     OW 1690   2.630   4.674   6.156
  264SOL    HW1 1691   2.705   4.612   6.135
  264SOL    HW2 1692   2.656   4.734   6.232
  265SOL     OW 1693   5.272   4.346   4.985
  265SOL    HW1 1694   5.276   4.255   5.026
  265SOL    HW2 1695   5.331   4.350   4.905
  266SOL     OW 1696   3.692   1.952   0.471
  266SOL    HW1 1697   3.733   1.934   0.382
  266SOL    HW2 1698   3.758   1.929   0.543
  267SOL     OW 1699   1.110   2.372   5.688
  267SOL    HW1 1700   1.050   2.423   5.626
  267SOL    HW2 1701   1.063   2.357   5.775
  268SOL     OW 1702   3.584   4.916   4.439
  268SOL    HW1 1703   3.544   4.922   4.531
  268SOL    HW2 1704   3.566   4.825   4.402
  269SOL     OW 1705   1.095   1.332   5.348
  269SOL    HW1 1706   1.148   1.249   5.332
  269SOL    HW2 1707   1.014   1.310   5.402
  270SOL     OW 1708   4.853   1.184   3.756
  270SOL    HW1 1709   4.933   1.144   3.711
  270SOL    HW2 1710   4.770   1.149   3.712
  271SOL     OW 1711   1.935   0.703   0.147
  271SOL    HW1 1712   1.935   0.648   0.064
  271SOL    HW2 1713   2.028   0.738   0.164
  272SOL     OW 1714   3.820   5.373   3.126
  272SOL    HW1 1715   3.779   5.451   3.172
  272SOL    HW2 1716   3.883   5.405   3.055
  273SOL     OW 1717   2.863   6.578   5.407
  273SOL    HW1 1718   2.765   6.586   5.389
  273SOL    HW2 1719   2.893   6.485   5.386
  274SOL     OW 1720   5.948   2.228   1.263
  274SOL    HW1 1721   5.946   2.328   1.263
  274SOL    HW2 1722   5.855   2.192   1.273
  275SOL     OW 1723   6.195   6.158   5.491
  275SOL    HW1 1724   6.230   6.173   5.583
  275SOL    HW2 1725   6.099   6.185   5.487
  276SOL     OW 1726   6.610   6.120   3.826
  276SOL    HW1 1727   6.700   6.164   3.823
  276SOL    HW2 1728   6.564   6.132   3.738
  277SOL     OW 1729   5.232   0.995   5.278
  277SOL    HW1 1730   5.274   1.070   5.227
  277SOL    HW2 1731   5.204   0.923   5.214
  278SOL     OW 1732   6.122   2.842   2.744
  278SOL    HW1 1733   6.158   2.908   2.678
  278SOL    HW2 1734   6.164   2.857   2.833
  279SOL     OW 1735   0.037   3.136   4.083
  279SOL    HW1 1736   0.043   3.048   4.036
  279SOL    HW2 1737   6.989   3.131   4.157
  280SOL     OW 1738   3.401   0.997   3.790
  280SOL    HW1 1739   3.440   0.907   3.807
  280SOL    HW2 1740   3.475   1.063   3.773
  281SOL     OW 1741   4.985   5.904   3.650
  281SOL    HW1 1742   4.971   5.831   3.716
  281SOL    HW2 1743   5.046   5.872   3.577
  282SOL     OW 1744   3.170   1.616   0.374
  282SOL    HW1 1745   3.208   1.604   0.282
  282SOL    HW2 1746   3.157   1.713   0.392
  283SOL     OW 1747   6.529   1.626   4.874
  283SOL    HW1 1748   6.617   1.578   4.881
  283SOL    HW2 1749   6.498   1.625   4.778
  284SOL     OW 1750   5.582   5.646   3.591
  284SOL    HW1 1751   5.597   5.666   3.494
  284SOL    HW2 1752   5.582   5.732   3.643
  285SOL     OW 1753   4.510   6.928   6.065
  285SOL    HW1 1754   4.584   6.964   6.007
  285SOL    HW2 1755   4.549   6.881   6.144
  286SOL     OW 1756   2.310   5.361   5.174
  286SOL    HW1 1757   2.369   5.432   5.212
  286SOL    HW2 1758   2.310   5.281   5.234
  287SOL     OW 1759   3.296   0.518   6.188
  287SOL    HW1 1760   3.313   0.441   6.127
  287SOL    HW2 1761   3.336   0.601   6.148
  288SOL     OW 1762   3.954   0.931   1.116
  288SOL    HW1 1763   4.034   0.979   1.080
  288SOL    HW2 1764   3.978   0.886   1.203
  289SOL     OW 1765   6.079   5.894   3.607
  289SOL    HW1 1766   6.146   5.913   3.679
  289SOL    HW2 1767   6.092   5.959   3.532
  290SOL     OW 1768   3.850   0.652   5.650
  290SOL    HW1 1769   3.777   0.716   5.672
  290SOL    HW2 1770   3.934   0.681   5.695
  291SOL     OW 1771   3.417   6.758   4.984
  291SOL    HW1 1772   3.455   6.808   4.906
  291SOL    HW2 1773   3.425   6.815   5.066
  292SOL     OW 1774   4.792   6.891   3.591
  292SOL    HW1 1775   4.819   6.978   3.632
  292SOL    HW2 1776   4.774   6.824   3.664
  293SOL     OW 1777   6.018   6.760   2.401
  293SOL    HW1 1778   6.076   6.706   2.463
  293SOL    HW2 1779   6.050   6.854   2.398
  294SOL     OW 1780   6.169   0.741   5.845
  294SOL    HW1 1781   6.134   0.660   5.892
  294SOL    HW2 1782   6.260   0.723   5.809
  295SOL     OW 1783   1.655   1.516   5.132
  295SOL    HW1 1784   1.735   1.472   5.173
  295SOL    HW2 1785   1.609   1.452   5.071
  296SOL     OW 1786   6.854   2.429   1.169
  296SOL    HW1 1787   6.832   2.331   1.174
  296SOL    HW2 1788   6.930   2.443   1.105
  297SOL     OW 1789   5.191   3.117   3.918
  297SOL    HW1 1790   5.125   3.055   3.876
  297SOL    HW2 1791   5.256   3.064   3.972
  298SOL     OW 1792   4.184   0.801   6.460
  298SOL    HW1 1793   4.241   0.726   6.496
  298SOL    HW2 1794   4.232   0.844   6.384
  299SOL     OW 1795   1.545   0.737   6.993
  299SOL    HW1 1796   1.585   0.727   0.064
  299SOL    HW2 1797   1.481   0.814   6.993
  300SOL     OW 1798   3.954   6.969   3.605
  300SOL    HW1 1799   3.968   0.039   3.649
  300SOL    HW2 1800   4.033   6.910   3.625
  301SOL     OW 1801   6.700   5.498   1.023
  301SOL    HW1 1802   6.781   5.508   1.081
  301SOL    HW2 1803   6.624   5.463   1.077
  302SOL     OW 1804   0.045   5.745   1.889
  302SOL    HW1 1805   0.091   5.659   1.867
  302SOL    HW2 1806   0.106   5.821   1.867
  303SOL     OW 1807   5.253   5.434   2.540
  303SOL    HW1 1808   5.341   5.467   2.508
  303SOL    HW2 1809   5.245   5.451   2.639
  304SOL     OW 1810   2.498   5.600   4.567
  304SOL    HW1 1811   2.582   5.576   4.518
  304SOL    HW2 1812   2.503   5.695   4.598
  305SOL     OW 1813   1.045   3.418   1.874
  305SOL    HW1 1814   1.106   3.498   1.865
  305SOL    HW2 1815   1.094   3.345   1.922
  306SOL     OW 1816   6.847   6.584   2.610
  306SOL    HW1 1817   6.864   6.679   2.584
  306SOL    HW2 1818   6.783   6.580   2.686
  307SOL     OW 1819   3.103   3.036   3.312
  307SOL    HW1 1820   3.062   3.107   3.255
  307SOL    HW2 1821   3.092   3.061   3.408
  308SOL     OW 1822   5.283   2.065   4.000
  308SOL    HW1 1823   5.273   2.075   3.901
  308SOL    HW2 1824   5.352   2.130   4.033
  309SOL     OW 1825   1.197   6.326   6.283
  309SOL    HW1 1826   1.279   6.347   6.337
  309SOL    HW2 1827   1.177   6.228   6.291
  310SOL     OW 1828   5.317   6.431   4.867
  310SOL    HW1 1829   5.231   6.468   4.902
  310SOL    HW2 1830   5.392   6.490   4.896
  311SOL     OW 1831   2.072   5.697   2.847
  311SOL    HW1 1832   2.031   5.636   2.915
  311SOL    HW2 1833   2.144   5.648   2.797
  312SOL     OW 1834   4.652   2.040   2.857
  312SOL    HW1 1835   4.692   2.076   2.942
  312SOL    HW2 1836   4.659   1.940   2.857
  313SOL     OW 1837   4.077   3.808   2.948
  313SOL    HW1 1838   4.154   3.747   2.929
  313SOL    HW2 1839   4.031   3.832   2.863
  314SOL     OW 1840   2.594   6.017   5.829
  314SOL    HW1 1841   2.573   5.987   5.736
  314SOL    HW2 1842   2.600   6.117   5.832
  315SOL     OW 1843   6.282   1.509   3.088
  315SOL    HW1 1844   6.370   1.500   3.042
  315SOL    HW2 1845   6.218   1.556   3.028
  316SOL     OW 1846   3.647   1.343   5.371
  316SOL    HW1 1847   3.599   1.398   5.439
  316SOL    HW2 1848   3.606   1.359   5.281
  317SOL     OW 1849   1.393   1.580   1.931
  317SOL    HW1 1850   1.471   1.643   1.934
  317SOL    HW2 1851   1.323   1.617   1.870
  318SOL     OW 1852   0.560   0.775   5.334
  318SOL    HW1 1853   0.613   0.827   5.400
  318SOL    HW2 1854   0.573   0.677   5.350
  319SOL     OW 1855   1.624   1.505   2.550
  319SOL    HW1 1856   1.640   1.412   2.581
  319SOL    HW2 1857   1.650   1.513   2.453
  320SOL     OW 1858   6.009   1.839   6.124
  320SOL    HW1 1859   5.993   1.915   6.187
  320SOL    HW2 1860   6.106   1.815   6.124
  321SOL     OW 1861   4.303   3.326   0.649
  321SOL    HW1 1862   4.208   3.302   0.627
  321SOL    HW2 1863   4.353   3.242   0.671
  322SOL     OW 1864   3.386   3.074   5.865
  322SOL    HW1 1865   3.313   3.021   5.910
  322SOL    HW2 1866   3.352   3.165   5.843
  323SOL     OW 1867   0.277   3.471   2.813
  323SOL    HW1 1868   0.296   3.383   2.769
  323SOL    HW2 1869   0.302   3.466   2.909
  324SOL     OW 1870   6.845   6.668   3.882
  324SOL    HW1 1871   6.888   6.584   3.915
  324SOL    HW2 1872   6.877   6.688   3.790
  325SOL     OW 1873   0.525   4.012   2.645
  325SOL    HW1 1874   0.608   4.043   2.598
  325SOL    HW2 1875   0.533   3.914   2.665
  326SOL     OW 1876   1.011   6.508   6.323
  326SOL    HW1 1877   0.978   6.483   6.414
  326SOL    HW2 1878   1.100   6.465   6.307
  327SOL     OW 1879   4.429   5.191   3.875
  327SOL    HW1 1880   4.396   5.108   3.919
  327SOL    HW2 1881   4.505   5.169   3.814
  328SOL     OW 1882   2.129   3.846   2.656
  328SOL    HW1 1883   2.103   3.778   2.588
  328SOL    HW2 1884   2.164   3.928   2.611
  329SOL     OW 1885   3.433   4.109   2.153
  329SOL    HW1 1886   3.519   4.100   2.205
  329SOL    HW2 1887   3.454   4.117   2.056
  330SOL     OW 1888   3.657   5.449   0.787
  330SOL    HW1 1889   3.628   5.359   0.821
  330SOL    HW2 1890   3.698   5.501   0.862
  331SOL     OW 1891   5.428   4.978   0.174
  331SOL    HW1 1892   5.429   5.038   0.094
  331SOL    HW2 1893   5.333   4.954   0.196
  332SOL     OW 1894   5.271   2.278   3.004
  332SOL    HW1 1895   5.344   2.209   3.006
  332SOL    HW2 1896   5.255   2.312   3.096
  333SOL     OW 1897   3.356   1.179   5.889
  333SOL    HW1 1898   3.435   1.199   5.831
  333SOL    HW2 1899   3.381   1.108   5.955
  334SOL     OW 1900   3.996   3.549   3.024
  334SOL    HW1 1901   3.934   3.499   3.084
  334SOL    HW2 1902   3.949   3.629   2.987
  335SOL     OW 1903   3.742   0.371   6.166
  335SOL    HW1 1904   3.689   0.290   6.191
  335SOL    HW2 1905   3.698   0.453   6.202
  336SOL     OW 1906   2.480   2.029   3.807
  336SOL    HW1 1907   2.477   2.059   3.902
  336SOL    HW2 1908   2.395   2.055   3.761
  337SOL     OW 1909   2.273   0.072   5.814
  337SOL    HW1 1910   2.240   0.158   5.773
  337SOL    HW2 1911   2.358   0.089   5.863
  338SOL     OW 1912   4.406   1.897   1.214
  338SOL    HW1 1913   4.440   1.972   1.269
  338SOL    HW2 1914   4.320   1.863   1.253
  339SOL     OW 1915   4.192   5.272   5.182
  339SOL    HW1 1916   4.203   5.202   5.111
  339SOL    HW2 1917   4.105   5.319   5.168
  340SOL     OW 1918   4.792   2.308   3.664
  340SOL    HW1 1919   4.761   2.215   3.682
  340SOL    HW2 1920   4.819   2.352   3.750
  341SOL     OW 1921   5.632   6.774   3.265
  341SOL    HW1 1922   5.658   6.700   3.327
  341SOL    HW2 1923   5.618   6.858   3.319
  342SOL     OW 1924   4.459   2.295   2.322
  342SOL    HW1 1925   4.522   2.226   2.286
  342SOL    HW2 1926   4.511   2.377   2.348
  343SOL     OW 1927   0.385   5.977   2.996
  343SOL    HW1 1928   0.331   6.058   3.016
  343SOL    HW2 1929   0.362   5.944   2.905
  344SOL     OW 1930   2.353   1.675   1.381
  344SOL    HW1 1931   2.395   1.706   1.466
  344SOL    HW2 1932   2.272   1.731   1.361
  345SOL     OW 1933   6.108   3.959   4.359
  345SOL    HW1 1934   6.112   4.055   4.387
  345SOL    HW2 1935   6.197   3.917   4.373
  346SOL     OW 1936   1.889   6.971   3.504
  346SOL    HW1 1937   1.974   6.957   3.453
  346SOL    HW2 1938   1.812   6.974   3.440
  347SOL     OW 1939   2.835   5.050   0.650
  347SOL    HW1 1940   2.835   5.111   0.729
  347SOL    HW2 1941   2.746   5.052   0.605
  348SOL     OW 1942   4.483   5.433   2.254
  348SOL    HW1 1943   4.439   5.473   2.173
  348SOL    HW2 1944   4.517   5.506   2.313
  349SOL     OW 1945   6.007   4.412   1.291
  349SOL    HW1 1946   5.975   4.327   1.333
  349SOL    HW2 1947   6.034   4.394   1.197
  350SOL     OW 1948   3.241   3.057   0.578
  350SOL    HW1 1949   3.317   3.101   0.626
  350SOL    HW2 1950   3.156   3.105   0.601
  351SOL     OW 1951   3.134   4.295   0.799
  351SOL    HW1 1952   3.181   4.326   0.717
  351SOL    HW2 1953   3.078   4.370   0.836
  352SOL     OW 1954   3.835   7.011   3.340
  352SOL    HW1 1955   3.879   6.958   3.267
  352SOL    HW2 1956   3.864   6.974   3.429
  353SOL     OW 1957   1.792   6.257   6.961
  353SOL    HW1 1958   1.822   6.233   6.868
  353SOL    HW2 1959   1.693   6.257   6.965
  354SOL     OW 1960   6.775   2.587   0.320
  354SOL    HW1 1961   6.757   2.565   0.224
  354SOL    HW2 1962   6.789   2.502   0.371
  355SOL     OW 1963   2.154   1.808   2.490
  355SOL    HW1 1964   2.160   1.807   2.590
  355SOL    HW2 1965   2.143   1.715   2.456
  356SOL     OW 1966   0.853   6.645   5.775
  356SOL    HW1 1967   0.902   6.604   5.698
  356SOL    HW2 1968   0.917   6.664   5.849
  357SOL     OW 1969   5.876   6.424   4.777
  357SOL    HW1 1970   5.861   6.523   4.766
  357SOL    HW2 1971   5.805   6.375   4.728
  358SOL     OW 1972   4.496   5.465   0.433
  358SOL    HW1 1973   4.437   5.542   0.407
  358SOL    HW2 1974   4.526   5.417   0.350
  359SOL     OW 1975   2.727   2.207   2.533
  359SOL    HW1 1976   2.646   2.190   2.589
  359SOL    HW2 1977   2.702   2.203   2.436
  360SOL     OW 1978   1.393   4.683   4.250
  360SOL    HW1 1979   1.384   4.777   4.216
  360SOL    HW2 1980   1.421   4.623   4.175
  361SOL     OW 1981   6.588   6.870   3.213
  361SOL    HW1 1982   6.663   6.859   3.148
  361SOL    HW2 1983   6.578   6.787   3.268
  362SOL     OW 1984   3.855   4.711   1.271
  362SOL    HW1 1985   3.933   4.653   1.295
  362SOL    HW2 1986   3.770   4.667   1.301
  363SOL     OW 1987   5.345   5.439   2.081
  363SOL    HW1 1988   5.300   5.354   2.054
  363SOL    HW2 1989   5.378   5.486   1.999
  364SOL     OW 1990   0.342   5.855   6.469
  364SOL    HW1 1991   0.244   5.857   6.447
  364SOL    HW2 1992   0.392   5.817   6.391
  365SOL     OW 1993   4.883   2.060   2.705
  365SOL    HW1 1994   4.791   2.065   2.742
  365SOL    HW2 1995   4.942   2.127   2.750
  366SOL     OW 1996   6.106   2.509   0.541
  366SOL    HW1 1997   6.185   2.454   0.568
  366SOL    HW2 1998   6.053   2.459   0.472
  367SOL     OW 1999   4.463   2.164   5.413
  367SOL    HW1 2000   4.417   2.092   5.466
  367SOL    HW2 2001   4.394   2.218   5.365
  368SOL     OW 2002   6.436   2.289   6.080
  368SOL    HW1 2003   6.458   2.203   6.033
  368SOL    HW2 2004   6.518   2.345   6.087
  369SOL     OW 2005   5.605   3.107   2.287
  369SOL    HW1 2006   5.541   3.183   2.277
  369SOL    HW2 2007   5.563   3.023   2.252
  370SOL     OW 2008   2.062   3.319   4.313
  370SOL    HW1 2009   2.087   3.255   4.386
  370SOL    HW2 2010   2.054   3.411   4.350
  371SOL     OW 2011   1.261   4.245   6.428
  371SOL    HW1 2012   1.255   4.146   6.415
  371SOL    HW2 2013   1.298   4.264   6.519
  372SOL     OW 2014   3.083   6.607   6.735
  372SOL    HW1 2015   3.015   6.537   6.756
  372SOL    HW2 2016   3.129   6.584   6.649
  373SOL     OW 2017   5.746   6.125   4.099
  373SOL    HW1 2018   5.813   6.090   4.165
  373SOL    HW2 2019   5.712   6.050   4.043
  374SOL     OW 2020   2.715   1.812   2.924
  374SOL    HW1 2021   2.705   1.889   2.987
  374SOL    HW2 2022   2.625   1.782   2.894
  375SOL     OW 2023   1.338   4.788   5.083
  375SOL    HW1 2024   1.305   4.763   5.173
  375SOL    HW2 2025   1.347   4.707   5.026
  376SOL     OW 2026   2.358   0.746   4.746
  376SOL    HW1 2027   2.334   0.671   4.685
  376SOL    HW2 2028   2.275   0.787   4.784
  377SOL     OW 2029   1.186   2.427   6.251
  377SOL    HW1 2030   1.214   2.359   6.318
  377SOL    HW2 2031   1.243   2.418   6.169
  378SOL     OW 2032   3.629   1.812   1.799
  378SOL    HW1 2033   3.549   1.774   1.844
  378SOL    HW2 2034   3.601   1.862   1.718
  379SOL     OW 2035   6.048   1.675   5.837
  379SOL    HW1 2036   5.986   1.647   5.911
  379SOL    HW2 2037   6.050   1.775   5.832
  380SOL     OW 2038   4.013   1.766   0.991
  380SOL    HW1 2039   4.043   1.677   0.955
  380SOL    HW2 2040   3.944   1.752   1.062
  381SOL     OW 2041   1.203   4.405   3.304
  381SOL    HW1 2042   1.260   4.463   3.361
  381SOL    HW2 2043   1.142   4.462   3.249
  382SOL     OW 2044   5.648   0.568   0.408
  382SOL    HW1 2045   5.579   0.533   0.345
  382SOL    HW2 2046   5.724   0.607   0.356
  383SOL     OW 2047   4.156   2.990   0.869
  383SOL    HW1 2048   4.149   2.890   0.871
  383SOL    HW2 2049   4.241   3.018   0.912
  384SOL     OW 2050   6.213   4.210   4.916
  384SOL    HW1 2051   6.178   4.186   5.006
  384SOL    HW2 2052   6.137   4.228   4.854
  385SOL     OW 2053   4.838   4.954   0.341
  385SOL    HW1 2054   4.874   4.997   0.424
  385SOL    HW2 2055   4.844   4.855   0.350
  386SOL     OW 2056   3.095   6.988   3.875
  386SOL    HW1 2057   3.083   7.014   3.971
  386SOL    HW2 2058   3.029   0.017   3.819
  387SOL     OW 2059   2.128   5.861   4.057
  387SOL    HW1 2060   2.197   5.790   4.043
  387SOL    HW2 2061   2.138   5.899   4.150
  388SOL     OW 2062   2.377   2.854   6.391
  388SOL    HW1 2063   2.343   2.772   6.436
  388SOL    HW2 2064   2.308   2.926   6.396
  389SOL     OW 2065   2.876   3.590   3.708
  389SOL    HW1 2066   2.891   3.689   3.707
  389SOL    HW2 2067   2.858   3.558   3.615
  390SOL     OW 2068   1.775   1.595   4.122
  390SOL    HW1 2069   1.808   1.610   4.216
  390SOL    HW2 2070   1.808   1.506   4.089
  391SOL     OW 2071   0.709   2.679   0.167
  391SOL    HW1 2072   0.809   2.688   0.169
  391SOL    HW2 2073   0.668   2.761   0.207
  392SOL     OW 2074   2.522   5.135   2.474
  392SOL    HW1 2075   2.512   5.186   2.389
  392SOL    HW2 2076   2.616   5.144   2.508
  393SOL     OW 2077   6.123   4.295   5.488
  393SOL    HW1 2078   6.189   4.227   5.456
  393SOL    HW2 2079   6.032   4.253   5.494
  394SOL     OW 2080   0.607   6.474   0.827
  394SOL    HW1 2081   0.665   6.454   0.748
  394SOL    HW2 2082   0.537   6.403   0.836
  395SOL     OW 2083   5.275   3.923   1.678
  395SOL    HW1 2084   5.358   3.966   1.713
  395SOL    HW2 2085   5.278   3.824   1.697
  396SOL     OW 2086   2.975   3.877   3.887
  396SOL    HW1 2087   2.935   3.954   3.935
  396SOL    HW2 2088   2.956   3.884   3.789
  397SOL     OW 2089   4.135   2.340   5.555
  397SOL    HW1 2090   4.187   2.298   5.481
  397SOL    HW2 2091   4.051   2.381   5.518
  398SOL     OW 2092   1.050   4.957   2.286
  398SOL    HW1 2093   1.112   4.949   2.209
  398SOL    HW2 2094   1.098   4.932   2.370
  399SOL     OW 2095   5.203   5.624   1.223
  399SOL    HW1 2096   5.233   5.701   1.168
  399SOL    HW2 2097   5.204   5.649   1.320
  400SOL     OW 2098   0.385   6.266   5.223
  400SOL    HW1 2099   0.470   6.287   5.174
  400SOL    HW2 2100   0.367   6.338   5.291
  401SOL     OW 2101   5.009   1.600   6.569
  401SOL    HW1 2102   5.008   1.554   6.480
  401SOL    HW2 2103   4.997   1.699   6.556
  402SOL     OW 2104   6.214   5.930   2.227
  402SOL    HW1 2105   6.310   5.907   2.216
  402SOL    HW2 2106   6.200   5.979   2.313
  403SOL     OW 2107   4.923   2.184   5.954
  403SOL    HW1 2108   4.986   2.139   5.890
  403SOL    HW2 2109   4.958   2.274   5.978
  404SOL     OW 2110   0.893   0.218   4.554
  404SOL    HW1 2111   0.801   0.248   4.578
  404SOL    HW2 2112   0.914   0.131   4.601
  405SOL     OW 2113   1.622   1.832   0.654
  405SOL    HW1 2114   1.668   1.744   0.650
  405SOL    HW2 2115   1.547   1.828   0.720
  406SOL     OW 2116   1.656   2.428   4.527
  406SOL    HW1 2117   1.687   2.483   4.605
  406SOL    HW2 2118   1.564   2.392   4.546
  407SOL     OW 2119   3.145   0.383   5.434
  407SOL    HW1 2120   3.054   0.376   5.473
  407SOL    HW2 2121   3.164   0.478   5.409
  408SOL     OW 2122   1.789   7.018   4.012
  408SOL    HW1 2123   1.745   0.052   3.941
  408SOL    HW2 2124   1.725   6.949   4.046
  409SOL     OW 2125   6.038   2.693   3.086
  409SOL    HW1 2126   6.062   2.603   3.051
  409SOL    HW2 2127   5.987   2.684   3.171
  410SOL     OW 2128   2.532   0.302   6.881
  410SOL    HW1 2129   2.535   0.296   6.781
  410SOL    HW2 2130   2.546   0.211   6.920
  411SOL     OW 2131   5.927   4.354   5.930
  411SOL    HW1 2132   5.960   4.292   5.859
  411SOL    HW2 2133   5.848   4.313   5.976
  412SOL     OW 2134   3.215   6.708   2.602
  412SOL    HW1 2135   3.149   6.673   2.536
  412SOL    HW2 2136   3.291   6.752   2.554
  413SOL     OW 2137   3.334   5.898   0.977
  413SOL    HW1 2138   3.337   5.997   0.983
  413SOL    HW2 2139   3.376   5.858   1.059
  414SOL     OW 2140   4.687   4.924   1.189
  414SOL    HW1 2141   4.684   4.936   1.090
  414SOL    HW2 2142   4.766   4.867   1.213
  415SOL     OW 2143   1.334   6.066   1.342
  415SOL    HW1 2144   1.320   6.072   1.243
  415SOL    HW2 2145   1.253   6.100   1.389
  416SOL     OW 2146   4.106   6.245   4.548
  416SOL    HW1 2147   4.144   6.262   4.639
  416SOL    HW2 2148   4.036   6.315   4.529
  417SOL     OW 2149   3.486   6.375   2.540
  417SOL    HW1 2150   3.458   6.337   2.452
  417SOL    HW2 2151   3.491   6.475   2.534
  418SOL     OW 2152   4.970   5.750   0.378
  418SOL    HW1 2153   4.940   5.655   0.373
  418SOL    HW2 2154   5.009   5.769   0.468
  419SOL     OW 2155   0.413   0.233   1.295
  419SOL    HW1 2156   0.433   0.140   1.327
  419SOL    HW2 2157   0.405   0.233   1.196
  420SOL     OW 2158   5.378   3.840   0.680
  420SOL    HW1 2159   5.477   3.850   0.690
  420SOL    HW2 2160   5.355   3.742   0.682
  421SOL     OW 2161   2.460   5.677   6.732
  421SOL    HW1 2162   2.531   5.609   6.753
  421SOL    HW2 2163   2.429   5.664   6.638
  422SOL     OW 2164   6.398   4.607   0.117
  422SOL    HW1 2165   6.441   4.639   0.032
  422SOL    HW2 2166   6.319   4.665   0.137
  423SOL     OW 2167   6.009   3.074   0.015
  423SOL    HW1 2168   6.078   3.075   6.962
  423SOL    HW2 2169   6.042   3.128   0.093
  424SOL     OW 2170   3.075   4.209   0.425
  424SOL    HW1 2171   3.146   4.279   0.436
  424SOL    HW2 2172   3.108   4.123   0.464
  425SOL     OW 2173   5.176   1.831   0.786
  425SOL    HW1 2174   5.203   1.857   0.879
  425SOL    HW2 2175   5.226   1.887   0.720
  426SOL     OW 2176   4.995   2.307   5.456
  426SOL    HW1 2177   4.931   2.300   5.532
  426SOL    HW2 2178   5.072   2.366   5.483
  427SOL     OW 2179   5.268   3.952   1.315
  427SOL    HW1 2180   5.215   3.987   1.238
  427SOL    HW2 2181   5.207   3.909   1.381
  428SOL     OW 2182   4.252   0.641   5.380
  428SOL    HW1 2183   4.180   0.572   5.376
  428SOL    HW2 2184   4.248   0.689   5.467
  429SOL     OW 2185   1.632   5.041   0.309
  429SOL    HW1 2186   1.648   5.017   0.214
  429SOL    HW2 2187   1.573   5.121   0.314
  430SOL     OW 2188   1.267   6.965   4.502
  430SOL    HW1 2189   1.234   6.900   4.570
  430SOL    HW2 2190   1.356   6.936   4.467
  431SOL     OW 2191   3.834   1.382   0.066
  431SOL    HW1 2192   3.810   1.415   0.157
  431SOL    HW2 2193   3.786   1.437   7.017
  432SOL     OW 2194   6.343   1.883   0.268
  432SOL    HW1 2195   6.361   1.911   0.174
  432SOL    HW2 2196   6.344   1.783   0.274
  433SOL     OW 2197   2.936   6.696   4.662
  433SOL    HW1 2198   2.870   6.639   4.712
  433SOL    HW2 2199   3.026   6.689   4.706
  434SOL     OW 2200   6.063   3.953   0.845
  434SOL    HW1 2201   6.111   3.980   0.929
  434SOL    HW2 2202   5.966   3.976   0.853
  435SOL     OW 2203   3.177   3.293   5.860
  435SOL    HW1 2204   3.167   3.297   5.959
  435SOL    HW2 2205   3.125   3.215   5.825
  436SOL     OW 2206   1.700   0.164   1.850
  436SOL    HW1 2207   1.760   0.091   1.816
  436SOL    HW2 2208   1.693   0.236   1.781
  437SOL     OW 2209   0.199   0.091   6.295
  437SOL    HW1 2210   0.262   0.023   6.334
  437SOL    HW2 2211   0.236   0.124   6.208
  438SOL     OW 2212   1.742   2.651   1.800
  438SOL    HW1 2213   1.809   2.577   1.810
  438SOL    HW2 2214   1.748   2.712   1.879
  439SOL     OW 2215   6.514   4.817   2.470
  439SOL    HW1 2216   6.580   4.797   2.397
  439SOL    HW2 2217   6.540   4.901   2.516
  440SOL     OW 2218   0.974   2.351   4.168
  440SOL    HW1 2219   1.036   2.423   4.201
  440SOL    HW2 2220   0.899   2.393   4.116
  441SOL     OW 2221   2.070   1.503   3.276
  441SOL    HW1 2222   2.148   1.520   3.216
  441SOL    HW2 2223   2.083   1.554   3.362
  442SOL     OW 2224   0.271   3.969   6.809
  442SOL    HW1 2225   0.354   3.930   6.769
  442SOL    HW2 2226   0.225   4.028   6.742
  443SOL     OW 2227   1.616   4.793   4.849
  443SOL    HW1 2228   1.585   4.804   4.754
  443SOL    HW2 2229   1.575   4.864   4.906
  444SOL     OW 2230   4.206   2.763   6.181
  444SOL    HW1 2231   4.119   2.771   6.133
  444SOL    HW2 2232   4.203   2.683   6.241
  445SOL     OW 2233   1.818   5.542   3.375
  445SOL    HW1 2234   1.761   5.476   3.422
  445SOL    HW2 2235   1.912   5.534   3.408
  446SOL     OW 2236   3.743   4.930   3.748
  446SOL    HW1 2237   3.668   4.916   3.683
  446SOL    HW2 2238   3.825   4.885   3.714
  447SOL     OW 2239   0.045   4.503   6.861
  447SOL    HW1 2240   0.096   4.439   6.918
  447SOL    HW2 2241   7.008   4.561   6.919
  448SOL     OW 2242   3.856   0.740   5.253
  448SOL    HW1 2243   3.939   0.707   5.298
  448SOL    HW2 2244   3.880   0.787   5.169
  449SOL     OW 2245   5.911   1.202   4.946
  449SOL    HW1 2246   5.935   1.124   5.003
  449SOL    HW2 2247   5.854   1.171   4.869
  450SOL     OW 2248   0.059   6.031   3.741
  450SOL    HW1 2249   0.032   6.010   3.647
  450SOL    HW2 2250   0.152   6.068   3.741
  451SOL     OW 2251   0.699   1.947   2.497
  451SOL    HW1 2252   0.622   1.922   2.438
  451SOL    HW2 2253   0.682   2.036   2.539
  452SOL     OW 2254   6.685   5.187   0.554
  452SOL    HW1 2255   6.678   5.284   0.577
  452SOL    HW2 2256   6.712   5.177   0.458
  453SOL     OW 2257   3.437   0.928   6.794
  453SOL    HW1 2258   3.527   0.887   6.808
  453SOL    HW2 2259   3.425   1.006   6.855
  454SOL     OW 2260   0.459   5.977   6.034
  454SOL    HW1 2261   0.556   5.971   6.009
  454SOL    HW2 2262   0.425   5.885   6.056
  455SOL     OW 2263   5.462   6.968   4.115
  455SOL    HW1 2264   5.462   0.014   4.191
  455SOL    HW2 2265   5.462   7.018   4.029
  456SOL     OW 2266   3.857   5.695   6.275
  456SOL    HW1 2267   3.940   5.646   6.303
  456SOL    HW2 2268   3.879   5.753   6.197
  457SOL     OW 2269   2.201   3.983   3.428
  457SOL    HW1 2270   2.222   4.037   3.510
  457SOL    HW2 2271   2.162   3.896   3.455
  458SOL     OW 2272   5.372   5.418   5.578
  458SOL    HW1 2273   5.343   5.323   5.584
  458SOL    HW2 2274   5.340   5.458   5.493
  459SOL     OW 2275   1.257   0.035   3.041
  459SOL    HW1 2276   1.183   0.021   3.107
  459SOL    HW2 2277   1.324   0.099   3.079
  460SOL     OW 2278   0.418   1.770   1.816
  460SOL    HW1 2279   0.400   1.739   1.722
  460SOL    HW2 2280   0.482   1.707   1.860
  461SOL     OW 2281   4.499   0.044   4.704
  461SOL    HW1 2282   4.546   0.002   4.627
  461SOL    HW2 2283   4.517   7.009   4.787
  462SOL     OW 2284   3.502   2.360   5.958
  462SOL    HW1 2285   3.528   2.433   5.895
  462SOL    HW2 2286   3.495   2.398   6.051
  463SOL     OW 2287   6.068   5.477   3.076
  463SOL    HW1 2288   6.059   5.378   3.083
  463SOL    HW2 2289   6.161   5.503   3.102
  464SOL     OW 2290   2.241   1.151   6.562
  464SOL    HW1 2291   2.262   1.249   6.556
  464SOL    HW2 2292   2.295   1.110   6.635
  465SOL     OW 2293   0.976   1.737   4.779
  465SOL    HW1 2294   1.072   1.730   4.808
  465SOL    HW2 2295   0.970   1.796   4.699
  466SOL     OW 2296   6.899   6.746   3.620
  466SOL    HW1 2297   6.961   6.690   3.566
  466SOL    HW2 2298   6.804   6.720   3.599
  467SOL     OW 2299   1.094   0.256   6.217
  467SOL    HW1 2300   1.006   0.303   6.223
  467SOL    HW2 2301   1.087   0.167   6.263
  468SOL     OW 2302   4.101   5.679   0.823
  468SOL    HW1 2303   4.179   5.719   0.774
  468SOL    HW2 2304   4.048   5.621   0.761
  469SOL     OW 2305   2.133   5.206   0.378
  469SOL    HW1 2306   2.098   5.114   0.364
  469SOL    HW2 2307   2.199   5.206   0.453
  470SOL     OW 2308   4.342   0.461   2.016
  470SOL    HW1 2309   4.335   0.526   2.091
  470SOL    HW2 2310   4.408   0.389   2.040
  471SOL     OW 2311   1.634   2.679   3.979
  471SOL    HW1 2312   1.701   2.611   3.951
  471SOL    HW2 2313   1.653   2.707   4.073
  472SOL     OW 2314   4.671   4.037   6.196
  472SOL    HW1 2315   4.684   4.121   6.248
  472SOL    HW2 2316   4.595   4.049   6.132
  473SOL     OW 2317   0.537   2.900   1.704
  473SOL    HW1 2318   0.507   2.825   1.763
  473SOL    HW2 2319   0.475   2.908   1.627
  474SOL     OW 2320   4.353   4.972   4.047
  474SOL    HW1 2321   4.316   4.880   4.057
  474SOL    HW2 2322   4.401   4.998   4.131
  475SOL     OW 2323   6.752   0.178   6.597
  475SOL    HW1 2324   6.653   0.187   6.602
  475SOL    HW2 2325   6.779   0.149   6.505
  476SOL     OW 2326   6.506   3.856   2.572
  476SOL    HW1 2327   6.504   3.757   2.564
  476SOL    HW2 2328   6.412   3.891   2.580
  477SOL     OW 2329   2.130   5.158   4.574
  477SOL    HW1 2330   2.198   5.222   4.609
  477SOL    HW2 2331   2.129   5.076   4.631
  478SOL     OW 2332   3.090   6.406   2.662
  478SOL    HW1 2333   3.040   6.449   2.737
  478SOL    HW2 2334   3.078   6.460   2.579
  479SOL     OW 2335   3.182   2.041   0.296
  479SOL    HW1 2336   3.092   2.084   0.299
  479SOL    HW2 2337   3.253   2.109   0.312
  480SOL     OW 2338   1.500   0.194   1.378
  480SOL    HW1 2339   1.505   0.116   1.440
  480SOL    HW2 2340   1.440   0.264   1.417
  481SOL     OW 2341   2.248   0.870   1.179
  481SOL    HW1 2342   2.185   0.944   1.156
  481SOL    HW2 2343   2.325   0.906   1.232
  482SOL     OW 2344   4.723   4.659   2.513
  482SOL    HW1 2345   4.711   4.753   2.481
  482SOL    HW2 2346   4.705   4.656   2.611
  483SOL     OW 2347   5.573   2.376   1.799
  483SOL    HW1 2348   5.638   2.300   1.798
  483SOL    HW2 2349   5.497   2.357   1.737
  484SOL     OW 2350   0.865   2.936   4.667
  484SOL    HW1 2351   0.880   2.854   4.611
  484SOL    HW2 2352   0.944   2.997   4.658
  485SOL     OW 2353   3.309   5.129   2.120
  485SOL    HW1 2354   3.274   5.071   2.046
  485SOL    HW2 2355   3.405   5.107   2.138
  486SOL     OW 2356   0.798   1.443   0.988
  486SOL    HW1 2357   0.753   1.358   0.961
  486SOL    HW2 2358   0.728   1.509   1.017
  487SOL     OW 2359   0.688   2.103   6.528
  487SOL    HW1 2360   0.681   2.170   6.453
  487SOL    HW2 2361   0.783   2.099   6.559
  488SOL     OW 2362   1.099   1.356   1.436
  488SOL    HW1 2363   1.049   1.317   1.513
  488SOL    HW2 2364   1.197   1.340   1.448
  489SOL     OW 2365   3.418   5.770   0.503
  489SOL    HW1 2366   3.506   5.729   0.531
  489SOL    HW2 2367   3.363   5.788   0.584
  490SOL     OW 2368   6.304   6.021   4.189
  490SOL    HW1 2369   6.386   6.052   4.141
  490SOL    HW2 2370   6.294   6.071   4.274
  491SOL     OW 2371   0.118   2.421   2.855
  491SOL    HW1 2372   0.079   2.460   2.772
  491SOL    HW2 2373   0.217   2.426   2.852
  492SOL     OW 2374   3.310   0.531   5.703
  492SOL    HW1 2375   3.326   0.605   5.769
  492SOL    HW2 2376   3.241   0.469   5.740
  493SOL     OW 2377   6.322   4.829   6.635
  493SOL    HW1 2378   6.352   4.787   6.549
  493SOL    HW2 2379   6.223   4.823   6.642
  494SOL     OW 2380   0.072   6.221   6.832
  494SOL    HW1 2381   0.029   6.203   6.920
  494SOL    HW2 2382   0.144   6.289   6.843
  495SOL     OW 2383   5.054   5.353   2.860
  495SOL    HW1 2384   5.117   5.303   2.918
  495SOL    HW2 2385   5.052   5.311   2.769
  496SOL     OW 2386   5.333   2.692   2.830
  496SOL    HW1 2387   5.332   2.740   2.743
  496SOL    HW2 2388   5.271   2.613   2.826
  497SOL     OW 2389   3.512   1.358   5.114
  497SOL    HW1 2390   3.426   1.394   5.150
  497SOL    HW2 2391   3.520   1.380   5.017
  498SOL     OW 2392   1.390   3.480   1.952
  498SOL    HW1 2393   1.346   3.399   1.992
  498SOL    HW2 2394   1.451   3.521   2.019
  499SOL     OW 2395   3.050   0.971   4.225
  499SOL    HW1 2396   2.998   1.025   4.291
  499SOL    HW2 2397   3.017   0.989   4.133
  500SOL     OW 2398   0.578   4.516   3.958
  500SOL    HW1 2399   0.526   4.446   4.007
  500SOL    HW2 2400   0.530   4.542   3.875
  501SOL     OW 2401   2.766   1.992   0.074
  501SOL    HW1 2402   2.719   1.978   7.007
  501SOL    HW2 2403   2.739   2.080   0.114
  502SOL     OW 2404   5.523   4.208   5.680
  502SOL    HW1 2405   5.466   4.287   5.701
  502SOL    HW2 2406   5.558   4.169   5.765
  503SOL     OW 2407   6.455   4.191   5.813
  503SOL    HW1 2408   6.373   4.136   5.831
  503SOL    HW2 2409   6.444   4.281   5.853
  504SOL     OW 2410   2.360   6.330   4.170
  504SOL    HW1 2411   2.283   6.388   4.143
  504SOL    HW2 2412   2.388   6.354   4.263
  505SOL     OW 2413   3.672   0.549   5.308
  505SOL    HW1 2414   3.720   0.635   5.294
  505SOL    HW2 2415   3.574   0.562   5.288
  506SOL     OW 2416   1.863   5.268   4.562
  506SOL    HW1 2417   1.861   5.317   4.649
  506SOL    HW2 2418   1.951   5.221   4.552
  507SOL     OW 2419   2.856   0.058   4.366
  507SOL    HW1 2420   2.909   0.143   4.368
  507SOL    HW2 2421   2.832   0.032   4.460
  508SOL     OW 2422   5.911   3.295   2.526
  508SOL    HW1 2423   6.010   3.277   2.533
  508SOL    HW2 2424   5.897   3.391   2.500
  509SOL     OW 2425   3.800   1.090   1.359
  509SOL    HW1 2426   3.773   1.084   1.263
  509SOL    HW2 2427   3.897   1.116   1.365
  510SOL     OW 2428   6.777   4.612   5.749
  510SOL    HW1 2429   6.726   4.689   5.787
  510SOL    HW2 2430   6.873   4.636   5.741
  511SOL     OW 2431   6.949   6.779   6.784
  511SOL    HW1 2432   6.932   6.847   6.713
  511SOL    HW2 2433   6.971   6.691   6.741
  512SOL     OW 2434   0.212   3.049   0.272
  512SOL    HW1 2435   0.275   3.052   0.350
  512SOL    HW2 2436   0.175   2.957   0.262
  513SOL     OW 2437   5.852   6.277   2.711
  513SOL    HW1 2438   5.932   6.220   2.731
  513SOL    HW2 2439   5.880   6.354   2.654
  514SOL     OW 2440   6.335   2.187   4.122
  514SOL    HW1 2441   6.402   2.200   4.048
  514SOL    HW2 2442   6.243   2.190   4.084
  515SOL     OW 2443   2.613   6.400   6.193
  515SOL    HW1 2444   2.644   6.441   6.279
  515SOL    HW2 2445   2.680   6.332   6.162
  516SOL     OW 2446   2.871   4.613   1.634
  516SOL    HW1 2447   2.866   4.574   1.726
  516SOL    HW2 2448   2.797   4.576   1.578
  517SOL     OW 2449   4.956   6.069   2.409
  517SOL    HW1 2450   5.017   6.014   2.466
  517SOL    HW2 2451   4.937   6.156   2.454
  518SOL     OW 2452   2.751   2.291   1.393
  518SOL    HW1 2453   2.788   2.266   1.482
  518SOL    HW2 2454   2.751   2.391   1.384
  519SOL     OW 2455   6.945   0.605   4.899
  519SOL    HW1 2456   0.025   0.613   4.896
  519SOL    HW2 2457   6.905   0.691   4.929
  520SOL     OW 2458   5.530   4.616   6.397
  520SOL    HW1 2459   5.581   4.624   6.311
  520SOL    HW2 2460   5.573   4.546   6.455
  521SOL     OW 2461   6.046   2.039   6.333
  521SOL    HW1 2462   5.980   1.989   6.389
  521SOL    HW2 2463   6.138   2.008   6.356
  522SOL     OW 2464   3.960   2.999   5.258
  522SOL    HW1 2465   3.976   2.903   5.280
  522SOL    HW2 2466   3.976   3.055   5.340
  523SOL     OW 2467   6.474   5.429   3.670
  523SOL    HW1 2468   6.493   5.446   3.766
  523SOL    HW2 2469   6.399   5.364   3.662
  524SOL     OW 2470   2.787   0.967   6.837
  524SOL    HW1 2471   2.854   0.993   6.906
  524SOL    HW2 2472   2.708   1.028   6.842
  525SOL     OW 2473   2.248   3.801   6.559
  525SOL    HW1 2474   2.301   3.840   6.483
  525SOL    HW2 2475   2.227   3.874   6.624
  526SOL     OW 2476   2.432   5.760   4.979
  526SOL    HW1 2477   2.367   5.752   4.903
  526SOL    HW2 2478   2.473   5.671   4.997
  527SOL     OW 2479   6.244   1.973   5.978
  527SOL    HW1 2480   6.271   1.989   6.072
  527SOL    HW2 2481   6.164   2.030   5.957
  528SOL     OW 2482   1.546   1.367   4.150
  528SOL    HW1 2483   1.497   1.300   4.094
  528SOL    HW2 2484   1.521   1.460   4.122
  529SOL     OW 2485   1.071   5.084   4.581
  529SOL    HW1 2486   0.988   5.031   4.601
  529SOL    HW2 2487   1.072   5.110   4.485
  530SOL     OW 2488   2.557   2.871   5.385
  530SOL    HW1 2489   2.513   2.784   5.362
  530SOL    HW2 2490   2.537   2.938   5.313
  531SOL     OW 2491   0.478   0.853   1.216
  531SOL    HW1 2492   0.547   0.882   1.283
  531SOL    HW2 2493   0.521   0.839   1.127
  532SOL     OW 2494   0.673   2.214   6.262
  532SOL    HW1 2495   0.589   2.255   6.295
  532SOL    HW2 2496   0.651   2.133   6.207
  533SOL     OW 2497   4.908   5.862   4.352
  533SOL    HW1 2498   4.990   5.884   4.404
  533SOL    HW2 2499   4.859   5.787   4.396
  534SOL     OW 2500   4.661   5.643   4.137
  534SOL    HW1 2501   4.642   5.729   4.089
  534SOL    HW2 2502   4.583   5.619   4.195
  535SOL     OW 2503   1.053   4.620   4.153
  535SOL    HW1 2504   1.051   4.587   4.248
  535SOL    HW2 2505   1.137   4.589   4.110
  536SOL     OW 2506   0.347   5.603   1.562
  536SOL    HW1 2507   0.400   5.586   1.479
  536SOL    HW2 2508   0.325   5.700   1.568
  537SOL     OW 2509   2.267   6.369   3.525
  537SOL    HW1 2510   2.263   6.330   3.617
  537SOL    HW2 2511   2.328   6.448   3.524
  538SOL     OW 2512   1.133   5.840   3.354
  538SOL    HW1 2513   1.159   5.758   3.304
  538SOL    HW2 2514   1.170   5.921   3.307
  539SOL     OW 2515   1.105   5.035   1.335
  539SOL    HW1 2516   1.098   5.079   1.424
  539SOL    HW2 2517   1.016   4.997   1.309
  540SOL     OW 2518   0.527   2.188   2.275
  540SOL    HW1 2519   0.430   2.204   2.254
  540SOL    HW2 2520   0.541   2.199   2.374
  541SOL     OW 2521   3.197   6.687   4.766
  541SOL    HW1 2522   3.224   6.659   4.859
  541SOL    HW2 2523   3.180   6.606   4.711
  542SOL     OW 2524   6.740   6.613   0.354
  542SOL    HW1 2525   6.749   6.653   0.262
  542SOL    HW2 2526   6.795   6.667   0.418
  543SOL     OW 2527   0.755   5.000   6.515
  543SOL    HW1 2528   0.824   4.932   6.488
  543SOL    HW2 2529   0.748   5.001   6.615
  544SOL     OW 2530   1.180   4.422   1.240
  544SOL    HW1 2531   1.215   4.512   1.216
  544SOL    HW2 2532   1.103   4.399   1.181
  545SOL     OW 2533   3.741   1.622   3.263
  545SOL    HW1 2534   3.688   1.686   3.319
  545SOL    HW2 2535   3.684   1.589   3.187
  546SOL     OW 2536   1.569   3.703   1.539
  546SOL    HW1 2537   1.634   3.690   1.614
  546SOL    HW2 2538   1.539   3.614   1.505
  547SOL     OW 2539   2.159   2.017   6.726
  547SOL    HW1 2540   2.248   2.031   6.770
  547SOL    HW2 2541   2.164   1.938   6.665
  548SOL     OW 2542   4.117   3.697   3.225
  548SOL    HW1 2543   4.149   3.766   3.160
  548SOL    HW2 2544   4.054   3.635   3.178
  549SOL     OW 2545   4.756   3.624   1.298
  549SOL    HW1 2546   4.703   3.577   1.227
  549SOL    HW2 2547   4.694   3.658   1.369
  550SOL     OW 2548   6.845   3.025   3.045
  550SOL    HW1 2549   6.832   3.101   2.981
  550SOL    HW2 2550   6.765   3.017   3.104
  551SOL     OW 2551   6.632   1.652   0.528
  551SOL    HW1 2552   6.584   1.738   0.512
  551SOL    HW2 2553   6.565   1.581   0.551
  552SOL     OW 2554   4.154   5.176   0.955
  552SOL    HW1 2555   4.158   5.079   0.932
  552SOL    HW2 2556   4.069   5.197   1.002
  553SOL     OW 2557   1.776   0.310   2.638
  553SOL    HW1 2558   1.754   0.238   2.572
  553SOL    HW2 2559   1.859   0.358   2.609
  554SOL     OW 2560   5.459   5.840   6.173
  554SOL    HW1 2561   5.501   5.749   6.171
  554SOL    HW2 2562   5.489   5.889   6.255
  555SOL     OW 2563   2.130   5.125   4.283
  555SOL    HW1 2564   2.138   5.125   4.383
  555SOL    HW2 2565   2.143   5.217   4.248
  556SOL     OW 2566   6.114   1.936   4.186
  556SOL    HW1 2567   6.081   1.960   4.277
  556SOL    HW2 2568   6.107   2.015   4.126
  557SOL     OW 2569   6.690   5.715   6.392
  557SOL    HW1 2570   6.730   5.696   6.482
  557SOL    HW2 2571   6.683   5.814   6.380
  558SOL     OW 2572   4.197   3.516   5.107
  558SOL    HW1 2573   4.168   3.425   5.077
  558SOL    HW2 2574   4.164   3.585   5.042
  559SOL     OW 2575   6.908   6.106   6.640
  559SOL    HW1 2576   6.965   6.175   6.684
  559SOL    HW2 2577   6.885   6.035   6.707
  560SOL     OW 2578   4.239   6.397   0.279
  560SOL    HW1 2579   4.318   6.346   0.310
  560SOL    HW2 2580   4.254   6.495   0.294
  561SOL     OW 2581   5.982   6.632   0.424
  561SOL    HW1 2582   6.009   6.728   0.422
  561SOL    HW2 2583   6.030   6.585   0.499
  562SOL     OW 2584   5.058   0.985   6.003
  562SOL    HW1 2585   5.121   1.015   5.930
  562SOL    HW2 2586   4.966   0.976   5.965
  563SOL     OW 2587   2.611   6.675   3.657
  563SOL    HW1 2588   2.615   6.752   3.594
  563SOL    HW2 2589   2.668   6.694   3.736
  564SOL     OW 2590   2.088   2.266   6.183
  564SOL    HW1 2591   2.169   2.322   6.199
  564SOL    HW2 2592   2.040   2.252   6.269
  565SOL     OW 2593   4.197   3.408   5.806
  565SOL    HW1 2594   4.099   3.399   5.789
  565SOL    HW2 2595   4.241   3.446   5.725
  566SOL     OW 2596   4.202   4.681   3.256
  566SOL    HW1 2597   4.158   4.594   3.231
  566SOL    HW2 2598   4.259   4.713   3.180
  567SOL     OW 2599   3.372   3.428   4.092
  567SOL    HW1 2600   3.341   3.374   4.013
  567SOL    HW2 2601   3.398   3.366   4.166
  568SOL     OW 2602   3.200   2.496   0.252
  568SOL    HW1 2603   3.137   2.570   0.227
  568SOL    HW2 2604   3.149   2.420   0.291
  569SOL     OW 2605   1.683   2.918   0.521
  569SOL    HW1 2606   1.725   2.839   0.565
  569SOL    HW2 2607   1.600   2.889   0.473
  570SOL     OW 2608   1.260   6.491   0.697
  570SOL    HW1 2609   1.356   6.510   0.718
  570SOL    HW2 2610   1.211   6.466   0.781
  571SOL     OW 2611   3.664   5.217   2.960
  571SOL    HW1 2612   3.724   5.282   3.008
  571SOL    HW2 2613   3.590   5.188   3.022
  572SOL     OW 2614   2.262   4.379   5.545
  572SOL    HW1 2615   2.198   4.434   5.492
  572SOL    HW2 2616   2.347   4.368   5.494
  573SOL     OW 2617   4.408   1.277   5.812
  573SOL    HW1 2618   4.443   1.308   5.724
  573SOL    HW2 2619   4.355   1.350   5.855
  574SOL     OW 2620   2.186   1.751   4.451
  574SOL    HW1 2621   2.182   1.747   4.550
  574SOL    HW2 2622   2.205   1.661   4.414
  575SOL     OW 2623   6.496   3.466   0.492
  575SOL    HW1 2624   6.493   3.543   0.555
  575SOL    HW2 2625   6.404   3.428   0.481
  576SOL     OW 2626   1.214   2.482   1.892
  576SOL    HW1 2627   1.231   2.445   1.800
  576SOL    HW2 2628   1.210   2.406   1.957
  577SOL     OW 2629   2.269   1.801   3.857
  577SOL    HW1 2630   2.268   1.896   3.890
  577SOL    HW2 2631   2.191   1.752   3.895
  578SOL     OW 2632   0.636   3.295   3.093
  578SOL    HW1 2633   0.539   3.273   3.082
  578SOL    HW2 2634   0.648   3.355   3.172
  579SOL     OW 2635   3.700   2.128   0.864
  579SOL    HW1 2636   3.611   2.083   0.852
  579SOL    HW2 2637   3.694   2.193   0.939
  580SOL     OW 2638   1.015   5.067   6.681
  580SOL    HW1 2639   0.990   5.087   6.586
  580SOL    HW2 2640   0.934   5.073   6.739
  581SOL     OW 2641   3.813   2.893   3.020
  581SOL    HW1 2642   3.758   2.941   3.088
  581SOL    HW2 2643   3.794   2.795   3.023
  582SOL     OW 2644   5.683   3.925   2.410
  582SOL    HW1 2645   5.715   3.833   2.388
  582SOL    HW2 2646   5.585   3.922   2.431
  583SOL     OW 2647   2.382   4.678   0.363
  583SOL    HW1 2648   2.312   4.671   0.291
  583SOL    HW2 2649   2.346   4.733   0.438
  584SOL     OW 2650   0.410   4.901   4.973
  584SOL    HW1 2651   0.315   4.885   5.000
  584SOL    HW2 2652   0.471   4.864   5.043
  585SOL     OW 2653   0.355   2.404   5.751
  585SOL    HW1 2654   0.350   2.417   5.850
  585SOL    HW2 2655   0.418   2.471   5.712
  586SOL     OW 2656   2.667   6.746   0.956
  586SOL    HW1 2657   2.716   6.791   1.030
  586SOL    HW2 2658   2.570   6.773   0.959
  587SOL     OW 2659   1.332   2.928   5.702
  587SOL    HW1 2660   1.368   2.971   5.619
  587SOL    HW2 2661   1.406   2.913   5.767
  588SOL     OW 2662   3.813   6.906   1.662
  588SOL    HW1 2663   3.810   6.968   1.740
  588SOL    HW2 2664   3.906   6.870   1.651
  589SOL     OW 2665   3.147   5.356   2.236
  589SOL    HW1 2666   3.194   5.295   2.173
  589SOL    HW2 2667   3.154   5.450   2.203
  590SOL     OW 2668   6.858   2.682   2.116
  590SOL    HW1 2669   6.928   2.733   2.167
  590SOL    HW2 2670   6.890   2.589   2.101
  591SOL     OW 2671   3.852   0.221   3.767
  591SOL    HW1 2672   3.790   0.274   3.709
  591SOL    HW2 2673   3.947   0.249   3.749
  592SOL     OW 2674   5.106   0.868   0.774
  592SOL    HW1 2675   5.116   0.881   0.675
  592SOL    HW2 2676   5.046   0.790   0.791
  593SOL     OW 2677   4.544   2.478   4.039
  593SOL    HW1 2678   4.577   2.456   4.131
  593SOL    HW2 2679   4.474   2.413   4.012
  594SOL     OW 2680   4.103   3.741   0.511
  594SOL    HW1 2681   4.022   3.798   0.494
  594SOL    HW2 2682   4.093   3.695   0.600
  595SOL     OW 2683   3.954   6.107   3.662
  595SOL    HW1 2684   4.023   6.064   3.721
  595SOL    HW2 2685   3.940   6.050   3.581
  596SOL     OW 2686   0.791   4.554   2.477
  596SOL    HW1 2687   0.729   4.631   2.495
  596SOL    HW2 2688   0.871   4.587   2.428
  597SOL     OW 2689   4.422   0.307   6.558
  597SOL    HW1 2690   4.373   0.286   6.643
  597SOL    HW2 2691   4.355   0.331   6.487
  598SOL     OW 2692   3.797   5.017   0.583
  598SOL    HW1 2693   3.837   5.029   0.674
  598SOL    HW2 2694   3.834   5.086   0.521
  599SOL     OW 2695   6.579   0.556   2.932
  599SOL    HW1 2696   6.550   0.573   2.838
  599SOL    HW2 2697   6.673   0.588   2.944
  600SOL     OW 2698   1.371   0.036   0.621
  600SOL    HW1 2699   1.319   0.049   0.705
  600SOL    HW2 2700   1.370   6.959   0.594
  601SOL     OW 2701   2.405   5.628   3.564
  601SOL    HW1 2702   2.420   5.561   3.492
  601SOL    HW2 2703   2.337   5.695   3.533
  602SOL     OW 2704   1.718   0.281   1.242
  602SOL    HW1 2705   1.684   0.306   1.152
  602SOL    HW2 2706   1.642   0.254   1.301
  603SOL     OW 2707   4.428   2.134   3.584
  603SOL    HW1 2708   4.472   2.116   3.673
  603SOL    HW2 2709   4.354   2.200   3.596
  604SOL     OW 2710   0.931   3.262   6.212
  604SOL    HW1 2711   1.028   3.256   6.236
  604SOL    HW2 2712   0.885   3.177   6.238
  605SOL     OW 2713   6.692   6.052   3.394
  605SOL    HW1 2714   6.613   5.997   3.367
  605SOL    HW2 2715   6.728   6.100   3.314
  606SOL     OW 2716   3.908   0.675   4.297
  606SOL    HW1 2717   3.928   0.630   4.210
  606SOL    HW2 2718   3.990   0.722   4.329
  607SOL     OW 2719   5.126   1.240   4.144
  607SOL    HW1 2720   5.119   1.147   4.181
  607SOL    HW2 2721   5.202   1.245   4.080
  608SOL     OW 2722   3.782   0.886   0.537
  608SOL    HW1 2723   3.747   0.842   0.619
  608SOL    HW2 2724   3.824   0.974   0.561
  609SOL     OW 2725   3.644   2.923   3.807
  609SOL    HW1 2726   3.570   2.930   3.875
  609SOL    HW2 2727   3.604   2.921   3.716
  610SOL     OW 2728   5.192   1.874   4.194
  610SOL    HW1 2729   5.228   1.935   4.124
  610SOL    HW2 2730   5.257   1.801   4.212
  611SOL     OW 2731   0.339   0.555   0.479
  611SOL    HW1 2732   0.242   0.560   0.501
  611SOL    HW2 2733   0.388   0.627   0.529
  612SOL     OW 2734   3.588   5.671   6.246
  612SOL    HW1 2735   3.558   5.615   6.168
  612SOL    HW2 2736   3.688   5.673   6.249
  613SOL     OW 2737   4.475   1.194   6.240
  613SOL    HW1 2738   4.448   1.283   6.277
  613SOL    HW2 2739   4.510   1.136   6.313
  614SOL     OW 2740   6.497   4.507   0.542
  614SOL    HW1 2741   6.540   4.578   0.598
  614SOL    HW2 2742   6.518   4.523   0.445
  615SOL     OW 2743   0.726   0.326   0.553
  615SOL    HW1 2744   0.772   0.410   0.581
  615SOL    HW2 2745   0.771   0.247   0.595
  616SOL     OW 2746   5.553   1.832   4.677
  616SOL    HW1 2747   5.602   1.745   4.677
  616SOL    HW2 2748   5.479   1.830   4.744
  617SOL     OW 2749   6.875   5.143   5.169
  617SOL    HW1 2750   6.941   5.127   5.095
  617SOL    HW2 2751   6.918   5.123   5.257
  618SOL     OW 2752   5.670   3.814   0.499
  618SOL    HW1 2753   5.653   3.764   0.584
  618SOL    HW2 2754   5.748   3.774   0.451
  619SOL     OW 2755   3.320   0.608   0.744
  619SOL    HW1 2756   3.268   0.692   0.729
  619SOL    HW2 2757   3.258   0.530   0.742
  620SOL     OW 2758   5.834   3.112   1.994
  620SOL    HW1 2759   5.921   3.111   2.042
  620SOL    HW2 2760   5.793   3.020   1.997
  621SOL     OW 2761   2.681   0.717   6.920
  621SOL    HW1 2762   2.727   0.804   6.900
  621SOL    HW2 2763   2.731   0.642   6.877
  622SOL     OW 2764   0.943   2.505   5.515
  622SOL    HW1 2765   0.979   2.530   5.425
  622SOL    HW2 2766   0.867   2.566   5.538
  623SOL     OW 2767   6.040   6.491   4.105
  623SOL    HW1 2768   6.023   6.574   4.052
  623SOL    HW2 2769   6.133   6.459   4.088
  624SOL     OW 2770   6.434   1.208   6.564
  624SOL    HW1 2771   6.359   1.240   6.505
  624SOL    HW2 2772   6.496   1.284   6.583
  625SOL     OW 2773   2.869   0.960   0.352
  625SOL    HW1 2774   2.851   0.953   0.450
  625SOL    HW2 2775   2.832   0.880   0.305
  626SOL     OW 2776   0.979   5.318   3.570
  626SOL    HW1 2777   0.975   5.226   3.608
  626SOL    HW2 2778   0.890   5.344   3.534
  627SOL     OW 2779   6.177   0.255   6.684
  627SOL    HW1 2780   6.136   0.330   6.632
  627SOL    HW2 2781   6.214   0.290   6.770
  628SOL     OW 2782   5.136   4.255   5.513
  628SOL    HW1 2783   5.196   4.330   5.485
  628SOL    HW2 2784   5.185   4.195   5.576
  629SOL     OW 2785   6.932   0.579   6.724
  629SOL    HW1 2786   0.004   0.620   6.726
  629SOL    HW2 2787   6.917   0.527   6.808
  630SOL     OW 2788   6.706   1.884   1.264
  630SOL    HW1 2789   6.650   1.935   1.330
  630SOL    HW2 2790   6.781   1.838   1.313
  631SOL     OW 2791   1.922   2.810   4.877
  631SOL    HW1 2792   1.921   2.717   4.914
  631SOL    HW2 2793   2.006   2.856   4.906
  632SOL     OW 2794   4.065   3.171   0.116
  632SOL    HW1 2795   4.056   3.240   0.187
  632SOL    HW2 2796   4.156   3.176   0.076
  633SOL     OW 2797   1.309   5.703   1.813
  633SOL    HW1 2798   1.307   5.621   1.870
  633SOL    HW2 2799   1.371   5.689   1.736
  634SOL     OW 2800   2.980   3.168   4.070
  634SOL    HW1 2801   2.895   3.135   4.111
  634SOL    HW2 2802   2.961   3.249   4.015
  635SOL     OW 2803   5.798   1.059   6.488
  635SOL    HW1 2804   5.850   1.126   6.435
  635SOL    HW2 2805   5.768   1.101   6.574
  636SOL     OW 2806   3.285   0.199   6.363
  636SOL    HW1 2807   3.258   0.293   6.343
  636SOL    HW2 2808   3.242   0.170   6.448
  637SOL     OW 2809   6.529   1.281   1.812
  637SOL    HW1 2810   6.587   1.202   1.830
  637SOL    HW2 2811   6.569   1.363   1.853
  638SOL     OW 2812   6.242   3.521   4.407
  638SOL    HW1 2813   6.180   3.445   4.393
  638SOL    HW2 2814   6.214   3.572   4.489
  639SOL     OW 2815   4.877   5.044   3.417
  639SOL    HW1 2816   4.830   5.088   3.341
  639SOL    HW2 2817   4.864   5.098   3.500
  640SOL     OW 2818   0.420   2.782   2.744
  640SOL    HW1 2819   0.328   2.778   2.705
  640SOL    HW2 2820   0.430   2.863   2.801
  641SOL     OW 2821   2.203   4.757   5.166
  641SOL    HW1 2822   2.208   4.662   5.194
  641SOL    HW2 2823   2.285   4.781   5.114
  642SOL     OW 2824   0.763   3.480   4.938
  642SOL    HW1 2825   0.806   3.566   4.966
  642SOL    HW2 2826   0.723   3.491   4.847
  643SOL     OW 2827   4.523   5.623   6.564
  643SOL    HW1 2828   4.622   5.621   6.569
  643SOL    HW2 2829   4.494   5.613   6.468
  644SOL     OW 2830   6.644   6.969   4.530
  644SOL    HW1 2831   6.587   6.925   4.600
  644SOL    HW2 2832   6.722   7.014   4.575
  645SOL     OW 2833   3.756   5.211   2.419
  645SOL    HW1 2834   3.705   5.292   2.447
  645SOL    HW2 2835   3.758   5.205   2.319
  646SOL     OW 2836   4.150   0.695   4.914
  646SOL    HW1 2837   4.124   0.602   4.888
  646SOL    HW2 2838   4.176   0.697   5.010
  647SOL     OW 2839   5.023   2.198   4.738
  647SOL    HW1 2840   5.018   2.174   4.641
  647SOL    HW2 2841   4.931   2.220   4.771
  648SOL     OW 2842   5.945   2.044   2.926
  648SOL    HW1 2843   5.924   1.991   3.008
  648SOL    HW2 2844   5.932   2.141   2.945
  649SOL     OW 2845   2.422   4.874   0.609
  649SOL    HW1 2846   2.498   4.930   0.577
  649SOL    HW2 2847   2.340   4.930   0.618
  650SOL     OW 2848   6.852   5.804   0.949
  650SOL    HW1 2849   6.879   5.853   0.866
  650SOL    HW2 2850   6.764   5.759   0.934
  651SOL     OW 2851   1.313   0.213   5.473
  651SOL    HW1 2852   1.327   0.307   5.504
  651SOL    HW2 2853   1.234   0.209   5.413
  652SOL     OW 2854   4.138   0.312   1.907
  652SOL    HW1 2855   4.139   0.215   1.932
  652SOL    HW2 2856   4.214   0.358   1.951
  653SOL     OW 2857   0.185   6.748   1.370
  653SOL    HW1 2858   0.267   6.722   1.420
  653SOL    HW2 2859   0.127   6.667   1.358
  654SOL     OW 2860   6.859   0.190   5.540
  654SOL    HW1 2861   6.908   0.202   5.454
  654SOL    HW2 2862   6.906   0.121   5.596
  655SOL     OW 2863   0.154   4.801   1.505
  655SOL    HW1 2864   0.078   4.844   1.457
  655SOL    HW2 2865   0.221   4.767   1.439
  656SOL     OW 2866   3.055   6.388   0.846
  656SOL    HW1 2867   2.997   6.342   0.778
  656SOL    HW2 2868   3.151   6.380   0.818
  657SOL     OW 2869   3.841   2.764   1.751
  657SOL    HW1 2870   3.801   2.679   1.719
  657SOL    HW2 2871   3.782   2.806   1.820
  658SOL     OW 2872   1.887   4.710   4.110
  658SOL    HW1 2873   1.818   4.716   4.037
  658SOL    HW2 2874   1.878   4.788   4.171
  659SOL     OW 2875   2.820   6.307   5.886
  659SOL    HW1 2876   2.866   6.272   5.804
  659SOL    HW2 2877   2.880   6.373   5.932
  660SOL     OW 2878   4.491   4.447   2.249
  660SOL    HW1 2879   4.452   4.357   2.225
  660SOL    HW2 2880   4.502   4.501   2.165
  661SOL     OW 2881   4.500   4.519   4.373
  661SOL    HW1 2882   4.556   4.507   4.291
  661SOL    HW2 2883   4.409   4.552   4.347
  662SOL     OW 2884   4.673   3.397   0.117
  662SOL    HW1 2885   4.654   3.353   0.205
  662SOL    HW2 2886   4.696   3.493   0.133
  663SOL     OW 2887   7.011   4.409   0.117
  663SOL    HW1 2888   6.931   4.412   0.177
  663SOL    HW2 2889   0.028   4.502   0.107
  664SOL     OW 2890   1.584   6.598   6.266
  664SOL    HW1 2891   1.492   6.559   6.259
  664SOL    HW2 2892   1.639   6.567   6.189
  665SOL     OW 2893   3.760   5.887   0.956
  665SOL    HW1 2894   3.715   5.943   0.886
  665SOL    HW2 2895   3.844   5.932   0.986
  666SOL     OW 2896   3.741   1.551   0.289
  666SOL    HW1 2897   3.827   1.554   0.340
  666SOL    HW2 2898   3.733   1.634   0.234
  667SOL     OW 2899   0.762   3.672   2.842
  667SOL    HW1 2900   0.737   3.575   2.839
  667SOL    HW2 2901   0.733   3.712   2.928
  668SOL     OW 2902   5.164   6.405   0.356
  668SOL    HW1 2903   5.262   6.398   0.373
  668SOL    HW2 2904   5.137   6.341   0.284
  669SOL     OW 2905   0.959   6.517   3.896
  669SOL    HW1 2906   1.039   6.525   3.956
  669SOL    HW2 2907   0.921   6.607   3.879
  670SOL     OW 2908   3.262   3.557   3.365
  670SOL    HW1 2909   3.315   3.554   3.451
  670SOL    HW2 2910   3.206   3.475   3.359
  671SOL     OW 2911   2.263   7.019   6.088
  671SOL    HW1 2912   2.216   6.950   6.143
  671SOL    HW2 2913   2.220   0.004   5.998
  672SOL     OW 2914   1.919   3.622   4.152
  672SOL    HW1 2915   1.933   3.711   4.195
  672SOL    HW2 2916   1.889   3.634   4.058
  673SOL     OW 2917   5.104   0.453   0.249
  673SOL    HW1 2918   5.015   0.497   0.232
  673SOL    HW2 2919   5.092   0.354   0.251
  674SOL     OW 2920   0.845   2.128   3.297
  674SOL    HW1 2921   0.913   2.098   3.364
  674SOL    HW2 2922   0.762   2.159   3.345
  675SOL     OW 2923   0.407   2.384   4.299
  675SOL    HW1 2924   0.435   2.290   4.321
  675SOL    HW2 2925   0.414   2.440   4.381
  676SOL     OW 2926   2.638   4.704   4.488
  676SOL    HW1 2927   2.665   4.692   4.584
  676SOL    HW2 2928   2.597   4.620   4.454
  677SOL     OW 2929   6.573   0.568   0.806
  677SOL    HW1 2930   6.662   0.522   0.804
  677SOL    HW2 2931   6.503   0.505   0.774
  678SOL     OW 2932   2.376   0.582   6.186
  678SOL    HW1 2933   2.428   0.501   6.161
  678SOL    HW2 2934   2.421   0.664   6.150
  679SOL     OW 2935   4.159   0.509   2.574
  679SOL    HW1 2936   4.165   0.529   2.671
  679SOL    HW2 2937   4.246   0.471   2.542
  680SOL     OW 2938   5.015   3.821   6.012
  680SOL    HW1 2939   4.994   3.917   6.030
  680SOL    HW2 2940   5.008   3.769   6.097
  681SOL     OW 2941   0.435   6.539   1.211
  681SOL    HW1 2942   0.343   6.513   1.182
  681SOL    HW2 2943   0.459   6.489   1.294
  682SOL     OW 2944   1.522   5.985   0.351
  682SOL    HW1 2945   1.547   5.936   0.268
  682SOL    HW2 2946   1.529   5.923   0.429
  683SOL     OW 2947   4.023   1.287   6.388
  683SOL    HW1 2948   4.019   1.200   6.341
  683SOL    HW2 2949   4.039   1.272   6.486
  684SOL     OW 2950   0.425   6.129   5.560
  684SOL    HW1 2951   0.486   6.060   5.522
  684SOL    HW2 2952   0.462   6.220   5.541
  685SOL     OW 2953   4.927   6.854   5.638
  685SOL    HW1 2954   4.972   6.826   5.553
  685SOL    HW2 2955   4.975   6.932   5.677
  686SOL     OW 2956   5.234   3.403   2.821
  686SOL    HW1 2957   5.332   3.392   2.836
  686SOL    HW2 2958   5.200   3.328   2.763
  687SOL     OW 2959   6.671   3.154   5.556
  687SOL    HW1 2960   6.615   3.224   5.601
  687SOL    HW2 2961   6.734   3.196   5.492
  688SOL     OW 2962   1.087   4.173   6.108
  688SOL    HW1 2963   1.106   4.132   6.197
  688SOL    HW2 2964   1.172   4.208   6.068
  689SOL     OW 2965   6.753   3.634   5.910
  689SOL    HW1 2966   6.656   3.647   5.932
  689SOL    HW2 2967   6.765   3.635   5.811
  690SOL     OW 2968   1.801   2.207   3.795
  690SOL    HW1 2969   1.852   2.128   3.761
  690SOL    HW2 2970   1.750   2.182   3.877
  691SOL     OW 2971   0.667   2.373   6.886
  691SOL    HW1 2972   0.761   2.389   6.855
  691SOL    HW2 2973   0.664   2.376   6.986
  692SOL     OW 2974   2.405   0.249   2.714
  692SOL    HW1 2975   2.503   0.251   2.693
  692SOL    HW2 2976   2.376   0.338   2.749
  693SOL     OW 2977   6.718   2.699   2.604
  693SOL    HW1 2978   6.666   2.719   2.687
  693SOL    HW2 2979   6.668   2.632   2.548
  694SOL     OW 2980   2.384   5.875   1.016
  694SOL    HW1 2981   2.419   5.934   0.943
  694SOL    HW2 2982   2.381   5.927   1.102
  695SOL     OW 2983   5.116   5.082   5.305
  695SOL    HW1 2984   5.100   4.983   5.306
  695SOL    HW2 2985   5.033   5.129   5.337
  696SOL     OW 2986   4.136   5.058   2.562
  696SOL    HW1 2987   4.190   5.020   2.638
  696SOL    HW2 2988   4.108   5.151   2.584
  697SOL     OW 2989   0.852   3.998   4.861
  697SOL    HW1 2990   0.811   3.984   4.770
  697SOL    HW2 2991   0.894   4.088   4.865
  698SOL     OW 2992   4.396   0.581   3.689
  698SOL    HW1 2993   4.321   0.540   3.636
  698SOL    HW2 2994   4.383   0.560   3.786
  699SOL     OW 2995   0.947   4.048   1.098
  699SOL    HW1 2996   0.858   4.018   1.132
  699SOL    HW2 2997   0.938   4.138   1.056
  700SOL     OW 2998   2.516   2.513   4.282
  700SOL    HW1 2999   2.497   2.481   4.189
  700SOL    HW2 3000   2.517   2.613   4.283
  701SOL     OW 3001   0.541   4.200   6.334
  701SOL    HW1 3002   0.576   4.262   6.404
  701SOL    HW2 3003   0.481   4.132   6.377
  702SOL     OW 3004   5.103   6.616   4.357
  702SOL    HW1 3005   5.105   6.688   4.288
  702SOL    HW2 3006   5.160   6.642   4.435
  703SOL     OW 3007   4.405   3.819   6.127
  703SOL    HW1 3008   4.493   3.802   6.083
  703SOL    HW2 3009   4.393   3.918   6.139
  704SOL     OW 3010   1.379   0.339   6.892
  704SOL    HW1 3011   1.301   0.292   6.934
  704SOL    HW2 3012   1.430   0.389   6.962
  705SOL     OW 3013   5.252   1.235   3.304
  705SOL    HW1 3014   5.305   1.318   3.290
  705SOL    HW2 3015   5.250   1.182   3.220
  706SOL     OW 3016   3.654   2.072   3.687
  706SOL    HW1 3017   3.556   2.076   3.704
  706SOL    HW2 3018   3.678   2.142   3.618
  707SOL     OW 3019   5.501   0.708   1.622
  707SOL    HW1 3020   5.491   0.634   1.688
  707SOL    HW2 3021   5.411   0.730   1.583
  708SOL     OW 3022   4.318   0.554   1.095
  708SOL    HW1 3023   4.241   0.543   1.159
  708SOL    HW2 3024   4.317   0.647   1.059
  709SOL     OW 3025   1.074   4.816   0.714
  709SOL    HW1 3026   0.989   4.864   0.737
  709SOL    HW2 3027   1.147   4.847   0.775
  710SOL     OW 3028   2.979   3.851   2.765
  710SOL    HW1 3029   3.054   3.906   2.729
  710SOL    HW2 3030   2.902   3.911   2.788
  711SOL     OW 3031   6.421   1.557   4.629
  711SOL    HW1 3032   6.360   1.482   4.605
  711SOL    HW2 3033   6.367   1.637   4.654
  712SOL     OW 3034   1.209   3.629   1.791
  712SOL    HW1 3035   1.231   3.712   1.740
  712SOL    HW2 3036   1.293   3.589   1.827
  713SOL     OW 3037   3.678   2.897   2.613
  713SOL    HW1 3038   3.699   2.876   2.518
  713SOL    HW2 3039   3.633   2.986   2.619
  714SOL     OW 3040   5.940   4.325   5.201
  714SOL    HW1 3041   5.984   4.235   5.208
  714SOL    HW2 3042   5.950   4.373   5.288
  715SOL     OW 3043   4.068   6.223   6.129
  715SOL    HW1 3044   4.007   6.145   6.117
  715SOL    HW2 3045   4.084   6.238   6.227
  716SOL     OW 3046   0.410   5.126   1.582
  716SOL    HW1 3047   0.406   5.063   1.505
  716SOL    HW2 3048   0.500   5.121   1.625
  717SOL     OW 3049   6.080   3.855   6.844
  717SOL    HW1 3050   6.151   3.835   6.911
  717SOL    HW2 3051   5.991   3.854   6.889
  718SOL     OW 3052   3.264   3.133   6.362
  718SOL    HW1 3053   3.313   3.129   6.450
  718SOL    HW2 3054   3.166   3.126   6.378
  719SOL     OW 3055   0.085   3.713   1.335
  719SOL    HW1 3056   0.075   3.808   1.367
  719SOL    HW2 3057   0.167   3.672   1.376
  720SOL     OW 3058   2.277   2.219   5.974
  720SOL    HW1 3059   2.204   2.210   6.041
  720SOL    HW2 3060   2.304   2.315   5.966
  721SOL     OW 3061   1.964   0.277   5.829
  721SOL    HW1 3062   2.004   0.369   5.824
  721SOL    HW2 3063   1.998   0.221   5.753
  722SOL     OW 3064   3.908   0.244   4.322
  722SOL    HW1 3065   3.872   0.227   4.231
  722SOL    HW2 3066   4.007   0.255   4.318
  723SOL     OW 3067   1.830   2.571   2.157
  723SOL    HW1 3068   1.873   2.591   2.069
  723SOL    HW2 3069   1.883   2.613   2.231
  724SOL     OW 3070   0.406   1.148   4.735
  724SOL    HW1 3071   0.455   1.141   4.648
  724SOL    HW2 3072   0.403   1.058   4.779
  725SOL     OW 3073   2.436   4.864   2.530
  725SOL    HW1 3074   2.489   4.942   2.495
  725SOL    HW2 3075   2.465   4.781   2.484
  726SOL     OW 3076   3.137   5.690   6.960
  726SOL    HW1 3077   3.139   5.790   6.965
  726SOL    HW2 3078   3.219   5.653   7.005
  727SOL     OW 3079   3.395   5.234   4.344
  727SOL    HW1 3080   3.365   5.214   4.251
  727SOL    HW2 3081   3.359   5.164   4.407
  728SOL     OW 3082   0.181   3.648   5.135
  728SOL    HW1 3083   0.261   3.647   5.195
  728SOL    HW2 3084   0.206   3.687   5.046
  729SOL     OW 3085   2.445   0.691   0.595
  729SOL    HW1 3086   2.540   0.721   0.586
  729SOL    HW2 3087   2.408   0.671   0.505
  730SOL     OW 3088   6.076   0.682   3.685
  730SOL    HW1 3089   6.105   0.680   3.781
  730SOL    HW2 3090   6.156   0.683   3.626
  731SOL     OW 3091   5.383   3.279   4.495
  731SOL    HW1 3092   5.458   3.329   4.452
  731SOL    HW2 3093   5.419   3.218   4.566
  732SOL     OW 3094   0.268   2.765   1.201
  732SOL    HW1 3095   0.218   2.721   1.277
  732SOL    HW2 3096   0.286   2.697   1.130
  733SOL     OW 3097   4.992   4.029   3.781
  733SOL    HW1 3098   5.002   3.969   3.702
  733SOL    HW2 3099   5.012   4.124   3.753
  734SOL     OW 3100   6.643   4.223   1.355
  734SOL    HW1 3101   6.666   4.319   1.369
  734SOL    HW2 3102   6.691   4.189   1.274
  735SOL     OW 3103   1.485   3.542   6.948
  735SOL    HW1 3104   1.407   3.572   7.002
  735SOL    HW2 3105   1.569   3.581   6.986
  736SOL     OW 3106   6.624   0.389   3.289
  736SOL    HW1 3107   6.613   0.487   3.276
  736SOL    HW2 3108   6.562   0.357   3.361
  737SOL     OW 3109   4.972   3.488   1.234
  737SOL    HW1 3110   4.914   3.559   1.274
  737SOL    HW2 3111   4.927   3.399   1.245
  738SOL     OW 3112   6.989   3.830   4.116
  738SOL    HW1 3113   6.998   3.755   4.181
  738SOL    HW2 3114   6.992   3.917   4.165
  739SOL     OW 3115   4.218   6.340   5.731
  739SOL    HW1 3116   4.296   6.386   5.774
  739SOL    HW2 3117   4.142   6.336   5.796
  740SOL     OW 3118   5.629   0.009   1.343
  740SOL    HW1 3119   5.645   0.106   1.327
  740SOL    HW2 3120   5.567   6.993   1.273
  741SOL     OW 3121   1.479   6.513   3.044
  741SOL    HW1 3122   1.573   6.494   3.015
  741SOL    HW2 3123   1.474   6.510   3.144
  742SOL     OW 3124   1.180   6.564   3.511
  742SOL    HW1 3125   1.256   6.617   3.472
  742SOL    HW2 3126   1.217   6.491   3.569
  743SOL     OW 3127   1.495   4.177   4.314
  743SOL    HW1 3128   1.511   4.235   4.234
  743SOL    HW2 3129   1.527   4.224   4.396
  744SOL     OW 3130   6.729   6.046   7.000
  744SOL    HW1 3131   6.662   6.119   7.014
  744SOL    HW2 3132   6.721   5.979   0.054
  745SOL     OW 3133   1.042   5.618   2.784
  745SOL    HW1 3134   1.126   5.564   2.784
  745SOL    HW2 3135   0.990   5.598   2.867
  746SOL     OW 3136   0.933   0.081   5.083
  746SOL    HW1 3137   1.017   0.063   5.030
  746SOL    HW2 3138   0.854   0.077   5.022
  747SOL     OW 3139   4.548   4.751   3.350
  747SOL    HW1 3140   4.632   4.792   3.314
  747SOL    HW2 3141   4.472   4.815   3.340
  748SOL     OW 3142   4.509   3.992   0.578
  748SOL    HW1 3143   4.444   3.991   0.503
  748SOL    HW2 3144   4.601   4.008   0.543
  749SOL     OW 3145   0.303   2.049   4.859
  749SOL    HW1 3146   0.282   2.143   4.831
  749SOL    HW2 3147   0.220   2.007   4.897
  750SOL     OW 3148   2.042   3.382   0.507
  750SOL    HW1 3149   2.125   3.438   0.509
  750SOL    HW2 3150   2.023   3.354   0.413
  751SOL     OW 3151   4.594   1.034   0.556
  751SOL    HW1 3152   4.637   1.125   0.546
  751SOL    HW2 3153   4.566   1.001   0.466
  752SOL     OW 3154   4.250   2.578   1.728
  752SOL    HW1 3155   4.194   2.648   1.685
  752SOL    HW2 3156   4.196   2.496   1.744
  753SOL     OW 3157   1.847   3.441   4.925
  753SOL    HW1 3158   1.889   3.420   4.837
  753SOL    HW2 3159   1.756   3.480   4.910
  754SOL     OW 3160   4.813   4.087   6.551
  754SOL    HW1 3161   4.881   4.043   6.608
  754SOL    HW2 3162   4.837   4.184   6.539
  755SOL     OW 3163   0.542   5.785   6.851
  755SOL    HW1 3164   0.451   5.827   6.842
  755SOL    HW2 3165   0.601   5.817   6.777
  756SOL     OW 3166   5.079   0.504   1.867
  756SOL    HW1 3167   5.151   0.476   1.930
  756SOL    HW2 3168   5.117   0.567   1.799
  757SOL     OW 3169   0.620   6.677   3.840
  757SOL    HW1 3170   0.631   6.630   3.928
  757SOL    HW2 3171   0.585   6.614   3.772
  758SOL     OW 3172   3.636   2.355   1.343
  758SOL    HW1 3173   3.557   2.409   1.315
  758SOL    HW2 3174   3.607   2.275   1.394
  759SOL     OW 3175   1.154   1.537   0.068
  759SOL    HW1 3176   1.143   1.555   6.990
  759SOL    HW2 3177   1.246   1.562   0.096
  760SOL     OW 3178   5.259   1.630   0.129
  760SOL    HW1 3179   5.296   1.540   0.108
  760SOL    HW2 3180   5.192   1.656   0.060
  761SOL     OW 3181   6.086   2.835   0.549
  761SOL    HW1 3182   6.114   2.741   0.571
  761SOL    HW2 3183   6.164   2.896   0.561
  762SOL     OW 3184   2.614   5.974   3.662
  762SOL    HW1 3185   2.598   5.921   3.579
  762SOL    HW2 3186   2.560   6.058   3.659
  763SOL     OW 3187   4.225   5.653   0.166
  763SOL    HW1 3188   4.283   5.588   0.116
  763SOL    HW2 3189   4.142   5.670   0.114
  764SOL     OW 3190   3.218   1.317   2.493
  764SOL    HW1 3191   3.202   1.317   2.592
  764SOL    HW2 3192   3.254   1.406   2.465
  765SOL     OW 3193   0.441   6.507   2.198
  765SOL    HW1 3194   0.348   6.481   2.170
  765SOL    HW2 3195   0.461   6.599   2.166
  766SOL     OW 3196   6.886   0.068   6.824
  766SOL    HW1 3197   6.832   0.100   6.746
  766SOL    HW2 3198   6.982   0.058   6.796
  767SOL     OW 3199   0.185   6.427   2.122
  767SOL    HW1 3200   0.104   6.446   2.178
  767SOL    HW2 3201   0.206   6.330   2.125
  768SOL     OW 3202   2.665   0.317   2.584
  768SOL    HW1 3203   2.712   0.235   2.552
  768SOL    HW2 3204   2.733   0.387   2.607
  769SOL     OW 3205   4.224   0.143   4.718
  769SOL    HW1 3206   4.165   0.064   4.703
  769SOL    HW2 3207   4.320   0.113   4.717
  770SOL     OW 3208   3.297   5.321   3.698
  770SOL    HW1 3209   3.348   5.326   3.613
  770SOL    HW2 3210   3.207   5.280   3.681
  771SOL     OW 3211   1.941   5.526   2.998
  771SOL    HW1 3212   2.012   5.470   3.041
  771SOL    HW2 3213   1.873   5.552   3.067
  772SOL     OW 3214   7.017   4.116   0.054
  772SOL    HW1 3215   6.945   4.068   0.004
  772SOL    HW2 3216   7.004   4.215   0.044
  773SOL     OW 3217   0.246   2.941   3.404
  773SOL    HW1 3218   0.251   2.871   3.475
  773SOL    HW2 3219   0.155   2.984   3.405
  774SOL     OW 3220   1.666   1.692   1.950
  774SOL    HW1 3221   1.764   1.683   1.967
  774SOL    HW2 3222   1.651   1.717   1.854
  775SOL     OW 3223   1.237   1.791   3.833
  775SOL    HW1 3224   1.284   1.718   3.784
  775SOL    HW2 3225   1.149   1.810   3.789
  776SOL     OW 3226   1.796   6.970   6.141
  776SOL    HW1 3227   1.817   0.045   6.115
  776SOL    HW2 3228   1.724   6.934   6.081
  777SOL     OW 3229   4.370   1.079   1.127
  777SOL    HW1 3230   4.366   1.100   1.029
  777SOL    HW2 3231   4.464   1.056   1.152
  778SOL     OW 3232   4.370   0.860   3.713
  778SOL    HW1 3233   4.379   0.764   3.738
  778SOL    HW2 3234   4.402   0.918   3.787
  779SOL     OW 3235   1.071   2.046   1.898
  779SOL    HW1 3236   0.994   2.097   1.860
  779SOL    HW2 3237   1.099   2.087   1.984
  780SOL     OW 3238   6.166   2.636   4.192
  780SOL    HW1 3239   6.185   2.719   4.244
  780SOL    HW2 3240   6.219   2.560   4.229
  781SOL     OW 3241   6.644   1.098   6.394
  781SOL    HW1 3242   6.607   1.050   6.315
  781SOL    HW2 3243   6.571   1.116   6.460
  782SOL     OW 3244   0.816   3.308   0.985
  782SOL    HW1 3245   0.820   3.404   0.959
  782SOL    HW2 3246   0.731   3.291   1.036
  783SOL     OW 3247   2.555   5.333   0.635
  783SOL    HW1 3248   2.644   5.377   0.621
  783SOL    HW2 3249   2.500   5.389   0.696
  784SOL     OW 3250   4.111   0.263   5.267
  784SOL    HW1 3251   4.063   0.339   5.311
  784SOL    HW2 3252   4.205   0.290   5.248
  785SOL     OW 3253   6.300   1.890   2.493
  785SOL    HW1 3254   6.328   1.902   2.398
  785SOL    HW2 3255   6.210   1.930   2.507
  786SOL     OW 3256   6.916   0.176   0.342
  786SOL    HW1 3257   6.988   0.122   0.299
  786SOL    HW2 3258   6.878   0.126   0.420
  787SOL     OW 3259   2.572   1.386   6.203
  787SOL    HW1 3260   2.660   1.380   6.250
  787SOL    HW2 3261   2.531   1.295   6.197
  788SOL     OW 3262   2.110   3.760   4.738
  788SOL    HW1 3263   2.121   3.664   4.715
  788SOL    HW2 3264   2.162   3.816   4.673
  789SOL     OW 3265   5.665   3.958   1.521
  789SOL    HW1 3266   5.704   3.868   1.543
  789SOL    HW2 3267   5.626   3.998   1.603
  790SOL     OW 3268   2.121   1.397   4.224
  790SOL    HW1 3269   2.097   1.302   4.202
  790SOL    HW2 3270   2.112   1.453   4.141
  791SOL     OW 3271   4.172   0.772   4.042
  791SOL    HW1 3272   4.073   0.758   4.032
  791SOL    HW2 3273   4.195   0.865   4.014
  792SOL     OW 3274   6.211   0.445   2.097
  792SOL    HW1 3275   6.280   0.374   2.091
  792SOL    HW2 3276   6.220   0.494   2.184
  793SOL     OW 3277   5.190   6.828   1.117
  793SOL    HW1 3278   5.185   6.902   1.050
  793SOL    HW2 3279   5.204   6.741   1.069
  794SOL     OW 3280   2.574   5.064   5.494
  794SOL    HW1 3281   2.478   5.052   5.518
  794SOL    HW2 3282   2.586   5.053   5.396
  795SOL     OW 3283   3.822   5.206   6.006
  795SOL    HW1 3284   3.746   5.208   5.941
  795SOL    HW2 3285   3.900   5.159   5.965
  796SOL     OW 3286   0.291   2.212   5.543
  796SOL    HW1 3287   0.232   2.135   5.565
  796SOL    HW2 3288   0.290   2.278   5.618
  797SOL     OW 3289   5.493   2.018   3.323
  797SOL    HW1 3290   5.557   2.092   3.304
  797SOL    HW2 3291   5.482   1.961   3.241
  798SOL     OW 3292   4.962   0.287   0.598
  798SOL    HW1 3293   4.981   0.282   0.500
  798SOL    HW2 3294   4.899   0.362   0.616
  799SOL     OW 3295   6.456   2.052   3.208
  799SOL    HW1 3296   6.367   2.010   3.229
  799SOL    HW2 3297   6.441   2.142   3.166
  800SOL     OW 3298   5.375   0.708   2.127
  800SOL    HW1 3299   5.410   0.764   2.053
  800SOL    HW2 3300   5.356   0.765   2.207
  801SOL     OW 3301   1.343   2.309   3.658
  801SOL    HW1 3302   1.394   2.267   3.732
  801SOL    HW2 3303   1.283   2.241   3.615
  802SOL     OW 3304   5.268   2.056   6.977
  802SOL    HW1 3305   5.252   2.055   0.056
  802SOL    HW2 3306   5.358   2.015   6.958
  803SOL     OW 3307   5.885   5.538   4.234
  803SOL    HW1 3308   5.805   5.529   4.174
  803SOL    HW2 3309   5.887   5.629   4.274
  804SOL     OW 3310   0.039   6.695   0.465
  804SOL    HW1 3311   0.091   6.716   0.382
  804SOL    HW2 3312   0.036   6.596   0.479
  805SOL     OW 3313   3.768   2.528   5.814
  805SOL    HW1 3314   3.804   2.550   5.904
  805SOL    HW2 3315   3.685   2.582   5.797
  806SOL     OW 3316   4.742   1.552   6.431
  806SOL    HW1 3317   4.806   1.479   6.407
  806SOL    HW2 3318   4.700   1.532   6.520
  807SOL     OW 3319   0.762   0.678   3.611
  807SOL    HW1 3320   0.705   0.597   3.609
  807SOL    HW2 3321   0.859   0.651   3.616
  808SOL     OW 3322   5.422   2.606   5.923
  808SOL    HW1 3323   5.519   2.610   5.899
  808SOL    HW2 3324   5.406   2.531   5.987
  809SOL     OW 3325   1.300   4.665   1.482
  809SOL    HW1 3326   1.370   4.594   1.473
  809SOL    HW2 3327   1.231   4.636   1.548
  810SOL     OW 3328   4.763   3.696   0.735
  810SOL    HW1 3329   4.699   3.621   0.751
  810SOL    HW2 3330   4.855   3.659   0.725
  811SOL     OW 3331   5.060   5.403   3.506
  811SOL    HW1 3332   5.128   5.475   3.520
  811SOL    HW2 3333   5.046   5.389   3.408
  812SOL     OW 3334   0.132   0.652   1.392
  812SOL    HW1 3335   0.045   0.625   1.350
  812SOL    HW2 3336   0.203   0.587   1.367
  813SOL     OW 3337   4.142   6.119   3.307
  813SOL    HW1 3338   4.141   6.023   3.277
  813SOL    HW2 3339   4.048   6.154   3.308
  814SOL     OW 3340   5.597   6.440   2.468
  814SOL    HW1 3341   5.557   6.509   2.407
  814SOL    HW2 3342   5.694   6.462   2.483
  815SOL     OW 3343   6.218   2.686   1.297
  815SOL    HW1 3344   6.253   2.705   1.389
  815SOL    HW2 3345   6.165   2.765   1.266
  816SOL     OW 3346   6.990   6.617   0.950
  816SOL    HW1 3347   0.013   6.679   1.017
  816SOL    HW2 3348   7.007   6.651   0.858
  817SOL     OW 3349   1.655   3.690   2.000
  817SOL    HW1 3350   1.559   3.692   2.028
  817SOL    HW2 3351   1.682   3.781   1.970
  818SOL     OW 3352   6.119   2.109   0.718
  818SOL    HW1 3353   6.117   2.059   0.805
  818SOL    HW2 3354   6.180   2.187   0.726
  819SOL     OW 3355   6.540   2.170   3.918
  819SOL    HW1 3356   6.624   2.117   3.906
  819SOL    HW2 3357   6.517   2.216   3.833
  820SOL     OW 3358   1.048   2.749   4.514
  820SOL    HW1 3359   0.983   2.700   4.457
  820SOL    HW2 3360   1.103   2.810   4.456
  821SOL     OW 3361   1.564   3.919   0.726
  821SOL    HW1 3362   1.547   4.014   0.753
  821SOL    HW2 3363   1.488   3.862   0.758
  822SOL     OW 3364   0.501   4.108   4.886
  822SOL    HW1 3365   0.458   4.063   4.808
  822SOL    HW2 3366   0.530   4.039   4.952
  823SOL     OW 3367   5.507   3.777   6.083
  823SOL    HW1 3368   5.597   3.776   6.038
  823SOL    HW2 3369   5.449   3.847   6.041
  824SOL     OW 3370   4.553   1.909   5.143
  824SOL    HW1 3371   4.549   1.980   5.072
  824SOL    HW2 3372   4.608   1.832   5.109
  825SOL     OW 3373   2.032   3.201   2.053
  825SOL    HW1 3374   2.073   3.274   2.108
  825SOL    HW2 3375   2.070   3.113   2.083
  826SOL     OW 3376   5.594   3.489   6.967
  826SOL    HW1 3377   5.677   3.473   6.914
  826SOL    HW2 3378   5.582   3.414   0.014
  827SOL     OW 3379   3.387   5.379   6.901
  827SOL    HW1 3380   3.437   5.293   6.910
  827SOL    HW2 3381   3.393   5.431   6.986
  828SOL     OW 3382   6.084   0.750   5.357
  828SOL    HW1 3383   6.110   0.702   5.441
  828SOL    HW2 3384   6.033   0.833   5.381
  829SOL     OW 3385   3.182   3.092   3.867
  829SOL    HW1 3386   3.249   3.166   3.868
  829SOL    HW2 3387   3.122   3.100   3.947
  830SOL     OW 3388   4.644   4.278   5.712
  830SOL    HW1 3389   4.698   4.200   5.679
  830SOL    HW2 3390   4.567   4.245   5.766
  831SOL     OW 3391   6.309   0.436   5.031
  831SOL    HW1 3392   6.301   0.492   5.113
  831SOL    HW2 3393   6.339   0.493   4.955
  832SOL     OW 3394   2.061   1.746   0.109
  832SOL    HW1 3395   2.158   1.733   0.131
  832SOL    HW2 3396   2.052   1.802   0.026
  833SOL     OW 3397   6.781   6.684   6.171
  833SOL    HW1 3398   6.776   6.624   6.091
  833SOL    HW2 3399   6.829   6.768   6.148
  834SOL     OW 3400   3.326   3.338   3.822
  834SOL    HW1 3401   3.247   3.395   3.800
  834SOL    HW2 3402   3.389   3.335   3.744
  835SOL     OW 3403   3.520   6.222   3.874
  835SOL    HW1 3404   3.538   6.167   3.793
  835SOL    HW2 3405   3.589   6.204   3.943
  836SOL     OW 3406   3.407   0.128   0.161
  836SOL    HW1 3407   3.340   0.098   0.229
  836SOL    HW2 3408   3.430   0.051   0.101
  837SOL     OW 3409   5.496   6.813   6.826
  837SOL    HW1 3410   5.426   6.866   6.778
  837SOL    HW2 3411   5.469   6.801   6.921
  838SOL     OW 3412   1.469   6.091   4.327
  838SOL    HW1 3413   1.434   6.134   4.410
  838SOL    HW2 3414   1.422   6.129   4.247
  839SOL     OW 3415   2.604   1.437   4.050
  839SOL    HW1 3416   2.567   1.523   4.017
  839SOL    HW2 3417   2.676   1.454   4.117
  840SOL     OW 3418   1.078   1.028   6.461
  840SOL    HW1 3419   1.095   1.126   6.448
  840SOL    HW2 3420   1.016   0.995   6.390
  841SOL     OW 3421   6.666   3.624   0.130
  841SOL    HW1 3422   6.715   3.560   0.189
  841SOL    HW2 3423   6.725   3.651   0.053
  842SOL     OW 3424   3.658   5.566   3.276
  842SOL    HW1 3425   3.580   5.619   3.241
  842SOL    HW2 3426   3.680   5.598   3.368
  843SOL     OW 3427   6.331   2.284   1.814
  843SOL    HW1 3428   6.259   2.236   1.764
  843SOL    HW2 3429   6.420   2.244   1.791
  844SOL     OW 3430   5.101   6.017   0.329
  844SOL    HW1 3431   5.064   5.932   0.366
  844SOL    HW2 3432   5.029   6.086   0.325
  845SOL     OW 3433   6.645   3.923   4.724
  845SOL    HW1 3434   6.725   3.982   4.727
  845SOL    HW2 3435   6.562   3.979   4.727
  846SOL     OW 3436   5.826   1.135   0.040
  846SOL    HW1 3437   5.859   1.190   0.116
  846SOL    HW2 3438   5.747   1.179   7.017
  847SOL     OW 3439   6.605   3.426   0.929
  847SOL    HW1 3440   6.514   3.423   0.888
  847SOL    HW2 3441   6.672   3.391   0.863
  848SOL     OW 3442   6.512   0.098   5.737
  848SOL    HW1 3443   6.542   0.151   5.657
  848SOL    HW2 3444   6.414   0.113   5.751
  849SOL     OW 3445   0.336   5.597   4.843
  849SOL    HW1 3446   0.397   5.676   4.835
  849SOL    HW2 3447   0.333   5.549   4.755
  850SOL     OW 3448   4.592   1.338   3.596
  850SOL    HW1 3449   4.641   1.422   3.574
  850SOL    HW2 3450   4.612   1.312   3.690
  851SOL     OW 3451   0.379   1.356   0.236
  851SOL    HW1 3452   0.391   1.454   0.219
  851SOL    HW2 3453   0.294   1.341   0.285
  852SOL     OW 3454   2.316   3.270   6.578
  852SOL    HW1 3455   2.313   3.292   6.675
  852SOL    HW2 3456   2.351   3.348   6.526
  853SOL     OW 3457   1.039   2.674   1.950
  853SOL    HW1 3458   1.128   2.632   1.935
  853SOL    HW2 3459   0.999   2.700   1.862
  854SOL     OW 3460   5.503   5.730   2.770
  854SOL    HW1 3461   5.497   5.792   2.849
  854SOL    HW2 3462   5.595   5.692   2.765
  855SOL     OW 3463   6.157   0.040   1.578
  855SOL    HW1 3464   6.218   6.998   1.528
  855SOL    HW2 3465   6.063   0.007   1.571
  856SOL     OW 3466   2.020   6.227   5.153
  856SOL    HW1 3467   2.004   6.130   5.135
  856SOL    HW2 3468   2.049   6.238   5.248
  857SOL     OW 3469   6.467   3.766   0.929
  857SOL    HW1 3470   6.439   3.738   1.021
  857SOL    HW2 3471   6.562   3.796   0.930
  858SOL     OW 3472   3.078   4.795   1.730
  858SOL    HW1 3473   3.067   4.797   1.830
  858SOL    HW2 3474   3.012   4.731   1.691
  859SOL     OW 3475   0.071   4.866   6.609
  859SOL    HW1 3476   0.076   4.951   6.556
  859SOL    HW2 3477   0.039   4.886   6.701
  860SOL     OW 3478   3.240   4.396   0.469
  860SOL    HW1 3479   3.321   4.364   0.517
  860SOL    HW2 3480   3.195   4.467   0.522
  861SOL     OW 3481   2.701   6.036   5.395
  861SOL    HW1 3482   2.676   6.011   5.301
  861SOL    HW2 3483   2.633   6.001   5.459
  862SOL     OW 3484   5.155   4.588   4.985
  862SOL    HW1 3485   5.111   4.590   4.895
  862SOL    HW2 3486   5.209   4.504   4.994
  863SOL     OW 3487   0.461   1.391   0.831
  863SOL    HW1 3488   0.539   1.403   0.769
  863SOL    HW2 3489   0.391   1.335   0.786
  864SOL     OW 3490   5.301   4.565   2.550
  864SOL    HW1 3491   5.362   4.588   2.473
  864SOL    HW2 3492   5.303   4.639   2.617
  865SOL     OW 3493   1.491   6.789   4.026
  865SOL    HW1 3494   1.394   6.782   4.003
  865SOL    HW2 3495   1.543   6.810   3.943
  866SOL     OW 3496   3.399   2.112   1.885
  866SOL    HW1 3497   3.495   2.138   1.893
  866SOL    HW2 3498   3.352   2.175   1.824
  867SOL     OW 3499   2.724   2.969   6.534
  867SOL    HW1 3500   2.792   2.922   6.479
  867SOL    HW2 3501   2.684   3.044   6.482
  868SOL     OW 3502   6.043   0.512   3.017
  868SOL    HW1 3503   6.105   0.453   2.966
  868SOL    HW2 3504   6.085   0.601   3.031
  869SOL     OW 3505   5.782   6.002   1.841
  869SOL    HW1 3506   5.818   6.059   1.767
  869SOL    HW2 3507   5.784   6.054   1.926
  870SOL     OW 3508   7.015   2.728   1.838
  870SOL    HW1 3509   0.047   2.647   1.812
  870SOL    HW2 3510   0.010   2.747   1.935
  871SOL     OW 3511   5.686   2.841   1.779
  871SOL    HW1 3512   5.761   2.893   1.739
  871SOL    HW2 3513   5.697   2.837   1.879
  872SOL     OW 3514   6.476   2.515   4.110
  872SOL    HW1 3515   6.529   2.430   4.113
  872SOL    HW2 3516   6.378   2.493   4.113
  873SOL     OW 3517   3.307   0.005   3.710
  873SOL    HW1 3518   3.303   0.104   3.696
  873SOL    HW2 3519   3.237   6.998   3.776
  874SOL     OW 3520   1.728   4.331   5.121
  874SOL    HW1 3521   1.756   4.254   5.063
  874SOL    HW2 3522   1.682   4.400   5.064
  875SOL     OW 3523   5.265   3.679   0.093
  875SOL    HW1 3524   5.317   3.718   0.169
  875SOL    HW2 3525   5.223   3.593   0.121
  876SOL     OW 3526   6.815   3.164   2.779
  876SOL    HW1 3527   6.829   3.102   2.702
  876SOL    HW2 3528   6.899   3.215   2.798
  877SOL     OW 3529   5.466   5.268   6.938
  877SOL    HW1 3530   5.451   5.354   6.889
  877SOL    HW2 3531   5.449   5.191   6.877
  878SOL     OW 3532   2.504   5.106   0.825
  878SOL    HW1 3533   2.543   5.015   0.840
  878SOL    HW2 3534   2.552   5.151   0.750
  879SOL     OW 3535   4.255   2.329   2.704
  879SOL    HW1 3536   4.185   2.315   2.634
  879SOL    HW2 3537   4.309   2.410   2.681
  880SOL     OW 3538   3.583   5.187   0.850
  880SOL    HW1 3539   3.622   5.139   0.929
  880SOL    HW2 3540   3.583   5.126   0.771
  881SOL     OW 3541   3.837   4.910   4.680
  881SOL    HW1 3542   3.936   4.891   4.679
  881SOL    HW2 3543   3.802   4.907   4.587
  882SOL     OW 3544   1.316   0.716   4.788
  882SOL    HW1 3545   1.322   0.618   4.769
  882SOL    HW2 3546   1.357   0.767   4.712
  883SOL     OW 3547   3.043   5.344   6.646
  883SOL    HW1 3548   3.052   5.378   6.552
  883SOL    HW2 3549   3.114   5.274   6.662
  884SOL     OW 3550   5.914   3.273   1.256
  884SOL    HW1 3551   5.860   3.188   1.257
  884SOL    HW2 3552   5.853   3.351   1.274
  885SOL     OW 3553   5.793   6.028   0.250
  885SOL    HW1 3554   5.841   6.113   0.273
  885SOL    HW2 3555   5.700   6.031   0.286
  886SOL     OW 3556   4.348   1.298   6.879
  886SOL    HW1 3557   4.334   1.258   6.788
  886SOL    HW2 3558   4.278   1.263   6.942
  887SOL     OW 3559   3.990   0.110   5.878
  887SOL    HW1 3560   4.061   0.044   5.854
  887SOL    HW2 3561   4.032   0.195   5.910
  888SOL     OW 3562   6.352   6.148   3.248
  888SOL    HW1 3563   6.306   6.200   3.320
  888SOL    HW2 3564   6.380   6.059   3.284
  889SOL     OW 3565   0.513   6.488   5.031
  889SOL    HW1 3566   0.469   6.568   5.072
  889SOL    HW2 3567   0.603   6.475   5.073
  890SOL     OW 3568   2.742   4.764   2.078
  890SOL    HW1 3569   2.646   4.763   2.105
  890SOL    HW2 3570   2.766   4.678   2.034
  891SOL     OW 3571   5.219   2.675   0.376
  891SOL    HW1 3572   5.225   2.634   0.466
  891SOL    HW2 3573   5.165   2.759   0.380
  892SOL     OW 3574   3.086   4.023   0.768
  892SOL    HW1 3575   3.072   3.975   0.854
  892SOL    HW2 3576   3.116   4.117   0.786
  893SOL     OW 3577   1.277   0.775   0.192
  893SOL    HW1 3578   1.352   0.831   0.225
  893SOL    HW2 3579   1.302   0.678   0.198
  894SOL     OW 3580   1.475   5.624   4.226
  894SOL    HW1 3581   1.376   5.615   4.242
  894SOL    HW2 3582   1.513   5.692   4.288
  895SOL     OW 3583   1.992   0.276   4.311
  895SOL    HW1 3584   2.042   0.230   4.384
  895SOL    HW2 3585   1.894   0.259   4.322
  896SOL     OW 3586   5.968   6.567   3.020
  896SOL    HW1 3587   5.873   6.595   3.014
  896SOL    HW2 3588   6.025   6.646   3.044
  897SOL     OW 3589   4.746   2.608   6.537
  897SOL    HW1 3590   4.749   2.563   6.448
  897SOL    HW2 3591   4.757   2.540   6.610
  898SOL     OW 3592   5.757   6.321   2.959
  898SOL    HW1 3593   5.828   6.323   2.889
  898SOL    HW2 3594   5.675   6.368   2.925
  899SOL     OW 3595   0.240   4.658   6.184
  899SOL    HW1 3596   0.224   4.676   6.282
  899SOL    HW2 3597   0.319   4.710   6.153
  900SOL     OW 3598   0.347   6.132   3.737
  900SOL    HW1 3599   0.321   6.190   3.660
  900SOL    HW2 3600   0.444   6.147   3.758
  901SOL     OW 3601   5.934   1.224   4.199
  901SOL    HW1 3602   5.905   1.130   4.214
  901SOL    HW2 3603   5.882   1.285   4.258
  902SOL     OW 3604   0.518   6.587   0.220
  902SOL    HW1 3605   0.534   6.655   0.149
  902SOL    HW2 3606   0.605   6.549   0.251
  903SOL     OW 3607   0.521   5.031   0.578
  903SOL    HW1 3608   0.488   5.124   0.568
  903SOL    HW2 3609   0.573   5.004   0.497
  904SOL     OW 3610   2.052   1.630   3.532
  904SOL    HW1 3611   2.131   1.659   3.585
  904SOL    HW2 3612   1.980   1.599   3.594
  905SOL     OW 3613   5.315   1.414   5.514
  905SOL    HW1 3614   5.238   1.477   5.512
  905SOL    HW2 3615   5.286   1.327   5.553
  906SOL     OW 3616   6.995   3.814   5.792
  906SOL    HW1 3617   7.014   3.820   5.694
  906SOL    HW2 3618   6.973   3.905   5.828
  907SOL     OW 3619   5.961   2.132   2.214
  907SOL    HW1 3620   6.042   2.143   2.272
  907SOL    HW2 3621   5.989   2.127   2.119
  908SOL     OW 3622   1.952   0.538   3.970
  908SOL    HW1 3623   1.949   0.572   4.064
  908SOL    HW2 3624   1.966   0.439   3.971
  909SOL     OW 3625   4.078   1.389   1.451
  909SOL    HW1 3626   4.070   1.299   1.409
  909SOL    HW2 3627   4.100   1.457   1.381
  910SOL     OW 3628   2.176   1.129   0.668
  910SOL    HW1 3629   2.211   1.222   0.682
  910SOL    HW2 3630   2.128   1.099   0.751
  911SOL     OW 3631   0.543   4.604   1.763
  911SOL    HW1 3632   0.449   4.638   1.763
  911SOL    HW2 3633   0.553   4.534   1.834
  912SOL     OW 3634   0.379   0.074   5.833
  912SOL    HW1 3635   0.454   0.098   5.771
  912SOL    HW2 3636   0.298   0.128   5.810
  913SOL     OW 3637   3.393   0.986   2.429
  913SOL    HW1 3638   3.324   1.008   2.360
  913SOL    HW2 3639   3.437   0.899   2.406
  914SOL     OW 3640   2.712   5.865   2.891
  914SOL    HW1 3641   2.715   5.817   2.804
  914SOL    HW2 3642   2.799   5.854   2.939
  915SOL     OW 3643   0.927   2.671   0.743
  915SOL    HW1 3644   0.912   2.714   0.654
  915SOL    HW2 3645   1.000   2.602   0.734
  916SOL     OW 3646   2.152   2.659   2.886
  916SOL    HW1 3647   2.106   2.576   2.854
  916SOL    HW2 3648   2.247   2.659   2.854
  917SOL     OW 3649   4.308   1.771   0.979
  917SOL    HW1 3650   4.213   1.774   1.010
  917SOL    HW2 3651   4.367   1.812   1.049
  918SOL     OW 3652   2.329   6.747   6.246
  918SOL    HW1 3653   2.407   6.781   6.299
  918SOL    HW2 3654   2.273   6.824   6.217
  919SOL     OW 3655   1.522   6.108   2.089
  919SOL    HW1 3656   1.440   6.054   2.067
  919SOL    HW2 3657   1.564   6.141   2.004
  920SOL     OW 3658   2.588   0.909   4.170
  920SOL    HW1 3659   2.664   0.848   4.147
  920SOL    HW2 3660   2.554   0.953   4.087
  921SOL     OW 3661   5.588   5.041   4.342
  921SOL    HW1 3662   5.687   5.047   4.336
  921SOL    HW2 3663   5.559   5.064   4.435
  922SOL     OW 3664   2.999   3.313   0.164
  922SOL    HW1 3665   2.909   3.302   0.124
  922SOL    HW2 3666   3.068   3.316   0.091
  923SOL     OW 3667   2.956   0.007   6.546
  923SOL    HW1 3668   2.945   6.993   6.453
  923SOL    HW2 3669   2.973   0.106   6.545
  924SOL     OW 3670   5.702   3.472   2.397
  924SOL    HW1 3671   5.729   3.398   2.336
  924SOL    HW2 3672   5.618   3.447   2.445
  925SOL     OW 3673   0.380   1.607   4.221
  925SOL    HW1 3674   0.374   1.638   4.316
  925SOL    HW2 3675   0.463   1.554   4.209
  926SOL     OW 3676   5.581   5.898   0.439
  926SOL    HW1 3677   5.520   5.947   0.377
  926SOL    HW2 3678   5.530   5.827   0.487
  927SOL     OW 3679   4.146   4.768   4.235
  927SOL    HW1 3680   4.103   4.851   4.198
  927SOL    HW2 3681   4.203   4.726   4.165
  928SOL     OW 3682   2.287   1.150   1.451
  928SOL    HW1 3683   2.340   1.223   1.493
  928SOL    HW2 3684   2.325   1.061   1.477
  929SOL     OW 3685   0.031   2.640   3.351
  929SOL    HW1 3686   0.026   2.585   3.268
  929SOL    HW2 3687   0.127   2.665   3.369
  930SOL     OW 3688   4.763   5.211   4.330
  930SOL    HW1 3689   4.741   5.156   4.249
  930SOL    HW2 3690   4.852   5.254   4.318
  931SOL     OW 3691   1.396   2.419   2.825
  931SOL    HW1 3692   1.478   2.402   2.880
  931SOL    HW2 3693   1.319   2.438   2.885
  932SOL     OW 3694   4.667   6.674   0.891
  932SOL    HW1 3695   4.718   6.748   0.935
  932SOL    HW2 3696   4.572   6.675   0.924
  933SOL     OW 3697   1.511   5.918   3.163
  933SOL    HW1 3698   1.554   6.001   3.128
  933SOL    HW2 3699   1.437   5.890   3.102
  934SOL     OW 3700   3.281   1.419   5.549
  934SOL    HW1 3701   3.222   1.438   5.627
  934SOL    HW2 3702   3.251   1.335   5.504
  935SOL     OW 3703   3.710   3.480   6.018
  935SOL    HW1 3704   3.689   3.445   6.110
  935SOL    HW2 3705   3.661   3.566   6.004
  936SOL     OW 3706   0.595   0.826   0.953
  936SOL    HW1 3707   0.543   0.899   0.910
  936SOL    HW2 3708   0.670   0.865   1.007
  937SOL     OW 3709   4.027   1.887   4.346
  937SOL    HW1 3710   4.088   1.839   4.410
  937SOL    HW2 3711   3.933   1.880   4.378
  938SOL     OW 3712   0.419   3.144   6.864
  938SOL    HW1 3713   0.504   3.092   6.862
  938SOL    HW2 3714   0.348   3.091   6.911
  939SOL     OW 3715   5.770   1.439   5.624
  939SOL    HW1 3716   5.719   1.375   5.565
  939SOL    HW2 3717   5.808   1.389   5.702
  940SOL     OW 3718   6.769   1.589   3.840
  940SOL    HW1 3719   6.858   1.588   3.796
  940SOL    HW2 3720   6.755   1.677   3.885
  941SOL     OW 3721   5.208   1.969   4.449
  941SOL    HW1 3722   5.296   1.967   4.497
  941SOL    HW2 3723   5.220   1.937   4.356
  942SOL     OW 3724   5.358   6.460   5.418
  942SOL    HW1 3725   5.365   6.467   5.518
  942SOL    HW2 3726   5.411   6.381   5.387
  943SOL     OW 3727   5.740   2.012   1.263
  943SOL    HW1 3728   5.687   1.960   1.329
  943SOL    HW2 3729   5.679   2.065   1.205
  944SOL     OW 3730   5.334   4.091   4.035
  944SOL    HW1 3731   5.377   4.024   4.095
  944SOL    HW2 3732   5.247   4.054   4.002
  945SOL     OW 3733   5.303   4.432   4.419
  945SOL    HW1 3734   5.348   4.378   4.349
  945SOL    HW2 3735   5.210   4.455   4.388
  946SOL     OW 3736   5.999   2.509   5.679
  946SOL    HW1 3737   5.943   2.575   5.628
  946SOL    HW2 3738   5.946   2.474   5.756
  947SOL     OW 3739   2.441   2.731   5.839
  947SOL    HW1 3740   2.540   2.733   5.829
  947SOL    HW2 3741   2.405   2.824   5.830
  948SOL     OW 3742   4.008   1.686   0.406
  948SOL    HW1 3743   4.009   1.726   0.314
  948SOL    HW2 3744   4.101   1.684   0.442
  949SOL     OW 3745   6.312   5.589   6.348
  949SOL    HW1 3746   6.347   5.525   6.417
  949SOL    HW2 3747   6.374   5.667   6.341
  950SOL     OW 3748   4.731   5.424   1.136
  950SOL    HW1 3749   4.734   5.324   1.131
  950SOL    HW2 3750   4.816   5.462   1.101
  951SOL     OW 3751   1.214   1.164   2.110
  951SOL    HW1 3752   1.222   1.168   2.209
  951SOL    HW2 3753   1.224   1.256   2.072
  952SOL     OW 3754   5.713   0.737   3.276
  952SOL    HW1 3755   5.791   0.675   3.288
  952SOL    HW2 3756   5.715   0.807   3.347
  953SOL     OW 3757   4.080   6.344   6.451
  953SOL    HW1 3758   4.085   6.320   6.548
  953SOL    HW2 3759   4.170   6.374   6.418
  954SOL     OW 3760   6.498   0.491   1.081
  954SOL    HW1 3761   6.445   0.552   1.140
  954SOL    HW2 3762   6.508   0.532   0.990
  955SOL     OW 3763   0.828   6.080   2.568
  955SOL    HW1 3764   0.841   6.168   2.523
  955SOL    HW2 3765   0.755   6.087   2.636
  956SOL     OW 3766   2.031   2.188   0.887
  956SOL    HW1 3767   2.030   2.100   0.839
  956SOL    HW2 3768   1.943   2.233   0.875
  957SOL     OW 3769   1.617   5.184   4.431
  957SOL    HW1 3770   1.566   5.165   4.515
  957SOL    HW2 3771   1.698   5.238   4.452
  958SOL     OW 3772   4.615   2.388   1.540
  958SOL    HW1 3773   4.600   2.426   1.632
  958SOL    HW2 3774   4.712   2.393   1.518
  959SOL     OW 3775   2.426   4.789   3.048
  959SOL    HW1 3776   2.517   4.762   3.016
  959SOL    HW2 3777   2.362   4.713   3.036
  960SOL     OW 3778   1.881   5.694   4.715
  960SOL    HW1 3779   1.901   5.791   4.726
  960SOL    HW2 3780   1.797   5.683   4.662
  961SOL     OW 3781   4.429   6.802   1.838
  961SOL    HW1 3782   4.404   6.769   1.929
  961SOL    HW2 3783   4.528   6.795   1.826
  962SOL     OW 3784   1.789   0.530   3.529
  962SOL    HW1 3785   1.712   0.537   3.593
  962SOL    HW2 3786   1.754   0.529   3.435
  963SOL     OW 3787   6.635   0.501   1.360
  963SOL    HW1 3788   6.609   0.527   1.267
  963SOL    HW2 3789   6.600   0.569   1.425
  964SOL     OW 3790   5.089   3.566   0.993
  964SOL    HW1 3791   5.041   3.521   1.068
  964SOL    HW2 3792   5.080   3.665   1.003
  965SOL     OW 3793   0.026   2.247   0.483
  965SOL    HW1 3794   0.097   2.309   0.518
  965SOL    HW2 3795   0.069   2.172   0.433
  966SOL     OW 3796   6.671   2.075   2.486
  966SOL    HW1 3797   6.671   2.117   2.395
  966SOL    HW2 3798   6.720   1.988   2.483
  967SOL     OW 3799   1.273   5.499   1.163
  967SOL    HW1 3800   1.253   5.512   1.260
  967SOL    HW2 3801   1.205   5.437   1.123
  968SOL     OW 3802   5.120   2.738   2.429
  968SOL    HW1 3803   5.132   2.644   2.459
  968SOL    HW2 3804   5.089   2.739   2.334
  969SOL     OW 3805   4.586   5.919   5.826
  969SOL    HW1 3806   4.571   5.997   5.887
  969SOL    HW2 3807   4.658   5.941   5.760
  970SOL     OW 3808   4.237   2.263   5.302
  970SOL    HW1 3809   4.203   2.337   5.242
  970SOL    HW2 3810   4.178   2.183   5.293
  971SOL     OW 3811   6.768   2.043   1.742
  971SOL    HW1 3812   6.755   2.021   1.839
  971SOL    HW2 3813   6.715   2.124   1.718
  972SOL     OW 3814   6.650   5.472   0.582
  972SOL    HW1 3815   6.552   5.492   0.586
  972SOL    HW2 3816   6.683   5.488   0.489
  973SOL     OW 3817   6.341   4.826   5.624
  973SOL    HW1 3818   6.415   4.770   5.660
  973SOL    HW2 3819   6.306   4.786   5.540
  974SOL     OW 3820   2.766   1.055   3.523
  974SOL    HW1 3821   2.790   0.962   3.495
  974SOL    HW2 3822   2.845   1.098   3.567
  975SOL     OW 3823   3.171   5.891   5.974
  975SOL    HW1 3824   3.154   5.837   6.056
  975SOL    HW2 3825   3.086   5.903   5.923
  976SOL     OW 3826   0.004   3.065   3.432
  976SOL    HW1 3827   6.950   3.071   3.365
  976SOL    HW2 3828   6.997   3.004   3.506
  977SOL     OW 3829   1.776   1.082   3.949
  977SOL    HW1 3830   1.763   0.983   3.956
  977SOL    HW2 3831   1.769   1.122   4.040
  978SOL     OW 3832   5.389   4.278   4.731
  978SOL    HW1 3833   5.368   4.318   4.642
  978SOL    HW2 3834   5.375   4.179   4.727
  979SOL     OW 3835   5.977   0.986   3.119
  979SOL    HW1 3836   6.038   1.060   3.089
  979SOL    HW2 3837   5.946   1.004   3.212
  980SOL     OW 3838   5.432   2.194   4.330
  980SOL    HW1 3839   5.461   2.112   4.378
  980SOL    HW2 3840   5.335   2.211   4.348
  981SOL     OW 3841   1.246   2.050   4.597
  981SOL    HW1 3842   1.279   1.955   4.593
  981SOL    HW2 3843   1.149   2.050   4.623
  982SOL     OW 3844   0.832   2.318   1.752
  982SOL    HW1 3845   0.823   2.385   1.826
  982SOL    HW2 3846   0.809   2.227   1.787
  983SOL     OW 3847   6.281   1.888   2.879
  983SOL    HW1 3848   6.341   1.890   2.799
  983SOL    HW2 3849   6.209   1.957   2.867
  984SOL     OW 3850   4.957   1.241   5.024
  984SOL    HW1 3851   5.047   1.198   5.030
  984SOL    HW2 3852   4.887   1.175   5.051
  985SOL     OW 3853   2.991   5.424   0.963
  985SOL    HW1 3854   3.020   5.511   0.924
  985SOL    HW2 3855   2.930   5.441   1.040
  986SOL     OW 3856   4.754   5.067   6.511
  986SOL    HW1 3857   4.712   5.030   6.594
  986SOL    HW2 3858   4.805   4.995   6.465
  987SOL     OW 3859   3.265   6.598   2.015
  987SOL    HW1 3860   3.344   6.641   2.060
  987SOL    HW2 3861   3.196   6.667   1.996
  988SOL     OW 3862   4.112   3.086   0.610
  988SOL    HW1 3863   4.133   3.051   0.701
  988SOL    HW2 3864   4.156   3.028   0.541
  989SOL     OW 3865   0.356   0.158   5.477
  989SOL    HW1 3866   0.281   0.224   5.468
  989SOL    HW2 3867   0.426   0.195   5.538
  990SOL     OW 3868   4.419   0.428   4.176
  990SOL    HW1 3869   4.513   0.401   4.195
  990SOL    HW2 3870   4.392   0.502   4.238
  991SOL     OW 3871   0.836   2.129   4.645
  991SOL    HW1 3872   0.899   2.189   4.693
  991SOL    HW2 3873   0.747   2.130   4.690
  992SOL     OW 3874   0.441   3.218   0.194
  992SOL    HW1 3875   0.438   3.297   0.132
  992SOL    HW2 3876   0.378   3.148   0.162
  993SOL     OW 3877   2.917   4.888   2.617
  993SOL    HW1 3878   3.017   4.892   2.616
  993SOL    HW2 3879   2.884   4.888   2.523
  994SOL     OW 3880   3.398   3.039   2.423
  994SOL    HW1 3881   3.299   3.034   2.411
  994SOL    HW2 3882   3.443   3.039   2.333
  995SOL     OW 3883   1.340   2.403   6.029
  995SOL    HW1 3884   1.348   2.429   5.932
  995SOL    HW2 3885   1.415   2.342   6.053
  996SOL     OW 3886   2.121   3.687   2.894
  996SOL    HW1 3887   2.161   3.750   2.827
  996SOL    HW2 3888   2.146   3.593   2.870
  997SOL     OW 3889   0.657   0.539   1.346
  997SOL    HW1 3890   0.650   0.543   1.247
  997SOL    HW2 3891   0.753   0.536   1.373
  998SOL     OW 3892   4.505   0.263   2.106
  998SOL    HW1 3893   4.512   0.233   2.201
  998SOL    HW2 3894   4.594   0.299   2.076
  999SOL     OW 3895   6.824   5.416   1.483
  999SOL    HW1 3896   6.840   5.380   1.575
  999SOL    HW2 3897   6.806   5.340   1.421
 1000SOL     OW 3898   2.558   2.552   3.888
 1000SOL    HW1 3899   2.650   2.515   3.904
 1000SOL    HW2 3900   2.491   2.497   3.937
 1001SOL     OW 3901   4.699   6.364   6.362
 1001SOL    HW1 3902   4.670   6.411   6.278
 1001SOL    HW2 3903   4.711   6.267   6.343
 1002SOL     OW 3904   5.737   1.455   0.223
 1002SOL    HW1 3905   5.647   1.468   0.264
 1002SOL    HW2 3906   5.777   1.545   0.201
 1003SOL     OW 3907   2.770   6.181   2.492
 1003SOL    HW1 3908   2.739   6.238   2.569
 1003SOL    HW2 3909   2.866   6.157   2.505
 1004SOL     OW 3910   0.318   0.100   6.885
 1004SOL    HW1 3911   0.278   0.181   6.929
 1004SOL    HW2 3912   0.410   0.122   6.854
 1005SOL     OW 3913   0.760   0.276   3.161
 1005SOL    HW1 3914   0.821   0.198   3.178
 1005SOL    HW2 3915   0.811   0.350   3.119
 1006SOL     OW 3916   2.322   5.156   1.042
 1006SOL    HW1 3917   2.335   5.057   1.053
 1006SOL    HW2 3918   2.359   5.184   0.953
 1007SOL     OW 3919   6.820   1.242   3.408
 1007SOL    HW1 3920   6.752   1.200   3.468
 1007SOL    HW2 3921   6.792   1.334   3.384
 1008SOL     OW 3922   1.328   3.544   4.172
 1008SOL    HW1 3923   1.373   3.605   4.107
 1008SOL    HW2 3924   1.303   3.596   4.254
 1009SOL     OW 3925   0.225   5.891   4.288
 1009SOL    HW1 3926   0.133   5.929   4.299
 1009SOL    HW2 3927   0.270   5.888   4.378
 1010SOL     OW 3928   4.264   1.709   0.501
 1010SOL    HW1 3929   4.289   1.787   0.443
 1010SOL    HW2 3930   4.325   1.632   0.482
 1011SOL     OW 3931   2.697   5.398   3.936
 1011SOL    HW1 3932   2.789   5.360   3.934
 1011SOL    HW2 3933   2.647   5.369   3.855
 1012SOL     OW 3934   6.138   5.195   0.437
 1012SOL    HW1 3935   6.042   5.222   0.435
 1012SOL    HW2 3936   6.151   5.113   0.381
 1013SOL     OW 3937   1.026   0.763   0.304
 1013SOL    HW1 3938   0.989   0.741   0.214
 1013SOL    HW2 3939   1.126   0.774   0.296
 1014SOL     OW 3940   4.279   6.085   5.899
 1014SOL    HW1 3941   4.268   6.169   5.845
 1014SOL    HW2 3942   4.205   6.022   5.877
 1015SOL     OW 3943   3.582   6.413   4.588
 1015SOL    HW1 3944   3.556   6.498   4.633
 1015SOL    HW2 3945   3.546   6.336   4.642
 1016SOL     OW 3946   3.542   2.827   1.138
 1016SOL    HW1 3947   3.542   2.926   1.141
 1016SOL    HW2 3948   3.613   2.791   1.198
 1017SOL     OW 3949   4.230   2.631   0.539
 1017SOL    HW1 3950   4.203   2.550   0.590
 1017SOL    HW2 3951   4.299   2.606   0.471
 1018SOL     OW 3952   1.014   3.283   3.852
 1018SOL    HW1 3953   1.036   3.348   3.925
 1018SOL    HW2 3954   1.047   3.319   3.765
 1019SOL     OW 3955   0.020   1.564   0.155
 1019SOL    HW1 3956   0.095   1.608   0.106
 1019SOL    HW2 3957   6.970   1.633   0.178
 1020SOL     OW 3958   2.793   1.011   0.661
 1020SOL    HW1 3959   2.713   1.069   0.674
 1020SOL    HW2 3960   2.850   1.013   0.742
 1021SOL     OW 3961   0.063   1.288   1.295
 1021SOL    HW1 3962   0.000   1.319   1.223
 1021SOL    HW2 3963   0.049   1.190   1.310
 1022SOL     OW 3964   4.470   2.861   6.155
 1022SOL    HW1 3965   4.375   2.830   6.148
 1022SOL    HW2 3966   4.531   2.782   6.156
 1023SOL     OW 3967   5.881   0.633   2.324
 1023SOL    HW1 3968   5.835   0.599   2.406
 1023SOL    HW2 3969   5.838   0.592   2.243
 1024SOL     OW 3970   6.398   1.753   4.028
 1024SOL    HW1 3971   6.491   1.784   4.006
 1024SOL    HW2 3972   6.332   1.806   3.975
 1025SOL     OW 3973   3.113   4.580   0.622
 1025SOL    HW1 3974   3.020   4.544   0.612
 1025SOL    HW2 3975   3.109   4.680   0.630
 1026SOL     OW 3976   2.147   1.753   6.609
 1026SOL    HW1 3977   2.174   1.722   6.700
 1026SOL    HW2 3978   2.212   1.718   6.541
 1027SOL     OW 3979   2.879   5.138   1.627
 1027SOL    HW1 3980   2.828   5.068   1.678
 1027SOL    HW2 3981   2.954   5.173   1.685
 1028SOL     OW 3982   1.582   6.067   1.235
 1028SOL    HW1 3983   1.495   6.053   1.282
 1028SOL    HW2 3984   1.596   5.993   1.169
 1029SOL     OW 3985   2.181   0.215   0.120
 1029SOL    HW1 3986   2.176   0.178   0.213
 1029SOL    HW2 3987   2.135   0.153   0.057
 1030SOL     OW 3988   4.111   3.689   4.913
 1030SOL    HW1 3989   4.155   3.686   4.824
 1030SOL    HW2 3990   4.104   3.784   4.944
 1031SOL     OW 3991   2.508   5.217   1.736
 1031SOL    HW1 3992   2.545   5.143   1.680
 1031SOL    HW2 3993   2.467   5.287   1.677
 1032SOL     OW 3994   1.991   1.644   4.960
 1032SOL    HW1 3995   1.982   1.711   5.033
 1032SOL    HW2 3996   2.000   1.552   5.000
 1033SOL     OW 3997   2.037   5.329   1.717
 1033SOL    HW1 3998   1.983   5.412   1.734
 1033SOL    HW2 3999   2.127   5.339   1.760
 1034SOL     OW 4000   2.622   5.712   3.856
 1034SOL    HW1 4001   2.613   5.620   3.894
 1034SOL    HW2 4002   2.667   5.707   3.767
 1035SOL     OW 4003   2.831   1.360   4.461
 1035SOL    HW1 4004   2.743   1.312   4.460
 1035SOL    HW2 4005   2.905   1.293   4.455
 1036SOL     OW 4006   4.351   2.492   0.972
 1036SOL    HW1 4007   4.392   2.447   0.892
 1036SOL    HW2 4008   4.278   2.435   1.009
 1037SOL     OW 4009   2.326   1.004   0.321
 1037SOL    HW1 4010   2.235   1.010   0.361
 1037SOL    HW2 4011   2.382   1.081   0.353
 1038SOL     OW 4012   1.625   1.116   5.548
 1038SOL    HW1 4013   1.586   1.207   5.534
 1038SOL    HW2 4014   1.553   1.048   5.539
 1039SOL     OW 4015   3.765   1.755   4.394
 1039SOL    HW1 4016   3.741   1.753   4.297
 1039SOL    HW2 4017   3.682   1.757   4.450
 1040SOL     OW 4018   5.967   3.893   2.191
 1040SOL    HW1 4019   5.913   3.974   2.215
 1040SOL    HW2 4020   6.058   3.900   2.234
 1041SOL     OW 4021   6.832   0.894   4.257
 1041SOL    HW1 4022   6.837   0.810   4.311
 1041SOL    HW2 4023   6.736   0.919   4.244
 1042SOL     OW 4024   5.408   5.323   0.772
 1042SOL    HW1 4025   5.403   5.225   0.793
 1042SOL    HW2 4026   5.317   5.357   0.747
 1043SOL     OW 4027   3.354   1.665   6.524
 1043SOL    HW1 4028   3.277   1.602   6.535
 1043SOL    HW2 4029   3.328   1.740   6.464
 1044SOL     OW 4030   3.608   3.173   1.933
 1044SOL    HW1 4031   3.537   3.142   1.870
 1044SOL    HW2 4032   3.697   3.143   1.900
 1045SOL     OW 4033   3.095   1.248   2.880
 1045SOL    HW1 4034   3.112   1.232   2.977
 1045SOL    HW2 4035   3.179   1.280   2.836
 1046SOL     OW 4036   3.247   6.705   0.929
 1046SOL    HW1 4037   3.347   6.699   0.935
 1046SOL    HW2 4038   3.215   6.650   0.852
 1047SOL     OW 4039   0.836   5.254   2.653
 1047SOL    HW1 4040   0.771   5.204   2.596
 1047SOL    HW2 4041   0.895   5.189   2.701
 1048SOL     OW 4042   5.081   5.258   4.719
 1048SOL    HW1 4043   5.071   5.246   4.620
 1048SOL    HW2 4044   5.036   5.343   4.747
 1049SOL     OW 4045   6.982   3.734   4.707
 1049SOL    HW1 4046   0.019   3.803   4.753
 1049SOL    HW2 4047   6.944   3.772   4.623
 1050SOL     OW 4048   4.000   0.413   6.279
 1050SOL    HW1 4049   3.915   0.380   6.237
 1050SOL    HW2 4050   3.982   0.500   6.325
 1051SOL     OW 4051   5.111   4.649   0.379
 1051SOL    HW1 4052   5.160   4.730   0.410
 1051SOL    HW2 4053   5.154   4.566   0.416
 1052SOL     OW 4054   3.946   0.214   5.066
 1052SOL    HW1 4055   4.011   0.247   5.135
 1052SOL    HW2 4056   3.861   0.267   5.072
 1053SOL     OW 4057   4.664   5.108   3.736
 1053SOL    HW1 4058   4.644   5.014   3.710
 1053SOL    HW2 4059   4.760   5.129   3.715
 1054SOL     OW 4060   3.407   5.220   5.554
 1054SOL    HW1 4061   3.501   5.202   5.585
 1054SOL    HW2 4062   3.361   5.133   5.536
 1055SOL     OW 4063   4.750   5.947   4.963
 1055SOL    HW1 4064   4.705   5.858   4.964
 1055SOL    HW2 4065   4.765   5.978   5.056
 1056SOL     OW 4066   1.872   6.069   5.581
 1056SOL    HW1 4067   1.940   5.996   5.588
 1056SOL    HW2 4068   1.806   6.046   5.509
 1057SOL     OW 4069   3.342   3.325   2.896
 1057SOL    HW1 4070   3.269   3.393   2.896
 1057SOL    HW2 4071   3.343   3.276   2.809
 1058SOL     OW 4072   3.518   1.267   2.495
 1058SOL    HW1 4073   3.419   1.254   2.508
 1058SOL    HW2 4074   3.540   1.364   2.509
 1059SOL     OW 4075   4.477   1.314   1.937
 1059SOL    HW1 4076   4.416   1.247   1.981
 1059SOL    HW2 4077   4.462   1.312   1.838
 1060SOL     OW 4078   0.973   2.962   5.482
 1060SOL    HW1 4079   1.013   3.053   5.491
 1060SOL    HW2 4080   0.888   2.958   5.535
 1061SOL     OW 4081   3.175   5.268   1.661
 1061SOL    HW1 4082   3.187   5.177   1.621
 1061SOL    HW2 4083   3.160   5.335   1.588
 1062SOL     OW 4084   6.301   5.620   5.610
 1062SOL    HW1 4085   6.265   5.553   5.545
 1062SOL    HW2 4086   6.400   5.606   5.621
 1063SOL     OW 4087   1.784   3.300   1.027
 1063SOL    HW1 4088   1.830   3.389   1.027
 1063SOL    HW2 4089   1.764   3.273   0.933
 1064SOL     OW 4090   0.838   3.256   2.268
 1064SOL    HW1 4091   0.915   3.217   2.218
 1064SOL    HW2 4092   0.779   3.181   2.301
 1065SOL     OW 4093   5.564   6.795   3.816
 1065SOL    HW1 4094   5.610   6.864   3.872
 1065SOL    HW2 4095   5.473   6.776   3.854
 1066SOL     OW 4096   4.795   0.350   3.442
 1066SOL    HW1 4097   4.737   0.362   3.361
 1066SOL    HW2 4098   4.806   0.438   3.488
 1067SOL     OW 4099   2.229   2.713   2.142
 1067SOL    HW1 4100   2.312   2.683   2.191
 1067SOL    HW2 4101   2.253   2.734   2.047
 1068SOL     OW 4102   0.149   3.360   2.483
 1068SOL    HW1 4103   0.073   3.323   2.429
 1068SOL    HW2 4104   0.173   3.451   2.449
 1069SOL     OW 4105   4.156   4.726   1.102
 1069SOL    HW1 4106   4.181   4.702   1.196
 1069SOL    HW2 4107   4.238   4.734   1.046
 1070SOL     OW 4108   2.325   0.588   0.261
 1070SOL    HW1 4109   2.292   0.524   0.192
 1070SOL    HW2 4110   2.248   0.637   0.301
 1071SOL     OW 4111   3.981   6.694   3.200
 1071SOL    HW1 4112   3.998   6.616   3.260
 1071SOL    HW2 4113   3.963   6.662   3.107
 1072SOL     OW 4114   2.864   6.581   2.759
 1072SOL    HW1 4115   2.814   6.658   2.719
 1072SOL    HW2 4116   2.813   6.497   2.745
 1073SOL     OW 4117   2.659   4.991   2.773
 1073SOL    HW1 4118   2.598   4.985   2.694
 1073SOL    HW2 4119   2.753   4.971   2.745
 1074SOL     OW 4120   0.842   4.908   1.993
 1074SOL    HW1 4121   0.817   4.914   2.090
 1074SOL    HW2 4122   0.759   4.901   1.938
 1075SOL     OW 4123   4.827   4.406   3.625
 1075SOL    HW1 4124   4.895   4.351   3.674
 1075SOL    HW2 4125   4.784   4.351   3.554
 1076SOL     OW 4126   0.628   4.180   4.197
 1076SOL    HW1 4127   0.676   4.225   4.121
 1076SOL    HW2 4128   0.581   4.098   4.163
 1077SOL     OW 4129   4.908   0.092   1.174
 1077SOL    HW1 4130   4.837   0.148   1.217
 1077SOL    HW2 4131   4.971   0.151   1.124
 1078SOL     OW 4132   1.839   2.021   1.168
 1078SOL    HW1 4133   1.799   1.930   1.171
 1078SOL    HW2 4134   1.774   2.085   1.127
 1079SOL     OW 4135   2.698   5.672   3.546
 1079SOL    HW1 4136   2.715   5.750   3.485
 1079SOL    HW2 4137   2.601   5.673   3.572
 1080SOL     OW 4138   2.284   5.473   3.882
 1080SOL    HW1 4139   2.319   5.562   3.911
 1080SOL    HW2 4140   2.222   5.485   3.805
 1081SOL     OW 4141   2.014   0.509   6.998
 1081SOL    HW1 4142   1.960   0.496   6.915
 1081SOL    HW2 4143   2.037   0.419   0.018
 1082SOL     OW 4144   1.455   0.135   5.907
 1082SOL    HW1 4145   1.412   0.108   5.821
 1082SOL    HW2 4146   1.390   0.187   5.962
 1083SOL     OW 4147   3.716   3.766   2.017
 1083SOL    HW1 4148   3.757   3.708   1.947
 1083SOL    HW2 4149   3.746   3.860   2.005
 1084SOL     OW 4150   5.912   4.382   0.911
 1084SOL    HW1 4151   5.899   4.482   0.912
 1084SOL    HW2 4152   6.004   4.360   0.942
 1085SOL     OW 4153   1.829   4.501   3.664
 1085SOL    HW1 4154   1.885   4.436   3.714
 1085SOL    HW2 4155   1.733   4.481   3.679
 1086SOL     OW 4156   4.679   5.154   2.559
 1086SOL    HW1 4157   4.579   5.156   2.559
 1086SOL    HW2 4158   4.711   5.067   2.523
 1087SOL     OW 4159   4.543   2.890   5.339
 1087SOL    HW1 4160   4.522   2.985   5.362
 1087SOL    HW2 4161   4.462   2.833   5.353
 1088SOL     OW 4162   4.692   4.379   3.868
 1088SOL    HW1 4163   4.743   4.296   3.889
 1088SOL    HW2 4164   4.722   4.414   3.779
 1089SOL     OW 4165   0.255   0.069   4.719
 1089SOL    HW1 4166   0.320   0.137   4.752
 1089SOL    HW2 4167   0.279   6.999   4.756
 1090SOL     OW 4168   1.836   1.253   6.327
 1090SOL    HW1 4169   1.920   1.274   6.277
 1090SOL    HW2 4170   1.852   1.176   6.388
 1091SOL     OW 4171   1.581   1.797   5.093
 1091SOL    HW1 4172   1.564   1.834   5.184
 1091SOL    HW2 4173   1.620   1.705   5.100
 1092SOL     OW 4174   2.421   4.069   1.775
 1092SOL    HW1 4175   2.369   4.074   1.690
 1092SOL    HW2 4176   2.399   3.984   1.823
 1093SOL     OW 4177   1.024   2.150   2.197
 1093SOL    HW1 4178   0.965   2.075   2.228
 1093SOL    HW2 4179   0.976   2.237   2.209
 1094SOL     OW 4180   0.529   7.014   1.736
 1094SOL    HW1 4181   0.489   0.085   1.755
 1094SOL    HW2 4182   0.613   0.006   1.684
 1095SOL     OW 4183   6.186   3.069   6.535
 1095SOL    HW1 4184   6.226   3.021   6.457
 1095SOL    HW2 4185   6.149   3.157   6.505
 1096SOL     OW 4186   3.273   4.487   1.690
 1096SOL    HW1 4187   3.205   4.442   1.747
 1096SOL    HW2 4188   3.360   4.439   1.697
 1097SOL     OW 4189   1.441   4.988   4.924
 1097SOL    HW1 4190   1.368   5.047   4.890
 1097SOL    HW2 4191   1.400   4.906   4.965
 1098SOL     OW 4192   4.803   2.378   2.163
 1098SOL    HW1 4193   4.768   2.324   2.086
 1098SOL    HW2 4194   4.902   2.384   2.157
 1099SOL     OW 4195   4.262   2.023   3.968
 1099SOL    HW1 4196   4.325   1.994   4.041
 1099SOL    HW2 4197   4.269   1.959   3.891
 1100SOL     OW 4198   0.834   0.841   6.379
 1100SOL    HW1 4199   0.819   0.793   6.465
 1100SOL    HW2 4200   0.906   0.796   6.327
 1101SOL     OW 4201   4.819   3.347   0.592
 1101SOL    HW1 4202   4.725   3.320   0.574
 1101SOL    HW2 4203   4.825   3.390   0.682
 1102SOL     OW 4204   0.267   4.081   4.090
 1102SOL    HW1 4205   0.205   4.080   4.169
 1102SOL    HW2 4206   0.218   4.050   4.009
 1103SOL     OW 4207   1.974   1.898   1.822
 1103SOL    HW1 4208   1.874   1.904   1.814
 1103SOL    HW2 4209   2.013   1.990   1.822
 1104SOL     OW 4210   3.586   4.645   6.254
 1104SOL    HW1 4211   3.600   4.556   6.209
 1104SOL    HW2 4212   3.568   4.715   6.185
 1105SOL     OW 4213   5.261   4.157   6.589
 1105SOL    HW1 4214   5.358   4.170   6.569
 1105SOL    HW2 4215   5.238   4.060   6.581
 1106SOL     OW 4216   0.170   2.489   5.348
 1106SOL    HW1 4217   0.267   2.513   5.353
 1106SOL    HW2 4218   0.144   2.442   5.432
 1107SOL     OW 4219   1.224   0.419   0.827
 1107SOL    HW1 4220   1.289   0.429   0.752
 1107SOL    HW2 4221   1.133   0.400   0.790
 1108SOL     OW 4222   1.620   0.660   5.949
 1108SOL    HW1 4223   1.581   0.751   5.936
 1108SOL    HW2 4224   1.649   0.649   6.044
 1109SOL     OW 4225   4.318   5.864   4.516
 1109SOL    HW1 4226   4.414   5.871   4.488
 1109SOL    HW2 4227   4.313   5.853   4.615
 1110SOL     OW 4228   3.022   3.603   1.873
 1110SOL    HW1 4229   2.948   3.557   1.922
 1110SOL    HW2 4230   3.099   3.618   1.936
 1111SOL     OW 4231   5.459   0.502   0.245
 1111SOL    HW1 4232   5.404   0.559   0.184
 1111SOL    HW2 4233   5.499   0.427   0.192
 1112SOL     OW 4234   6.763   0.893   2.124
 1112SOL    HW1 4235   6.743   0.835   2.045
 1112SOL    HW2 4236   6.859   0.881   2.150
 1113SOL     OW 4237   6.290   3.072   2.905
 1113SOL    HW1 4238   6.224   3.137   2.867
 1113SOL    HW2 4239   6.336   3.024   2.831
 1114SOL     OW 4240   4.874   0.907   5.802
 1114SOL    HW1 4241   4.806   0.836   5.786
 1114SOL    HW2 4242   4.889   0.959   5.718
 1115SOL     OW 4243   3.115   3.411   0.822
 1115SOL    HW1 4244   3.190   3.413   0.888
 1115SOL    HW2 4245   3.092   3.505   0.796
 1116SOL     OW 4246   4.152   6.238   4.257
 1116SOL    HW1 4247   4.162   6.266   4.353
 1116SOL    HW2 4248   4.060   6.202   4.243
 1117SOL     OW 4249   2.702   2.899   1.489
 1117SOL    HW1 4250   2.789   2.880   1.444
 1117SOL    HW2 4251   2.705   2.863   1.582
 1118SOL     OW 4252   2.241   4.541   3.080
 1118SOL    HW1 4253   2.291   4.462   3.044
 1118SOL    HW2 4254   2.170   4.568   3.015
 1119SOL     OW 4255   4.256   4.051   1.702
 1119SOL    HW1 4256   4.300   4.036   1.614
 1119SOL    HW2 4257   4.304   4.123   1.752
 1120SOL     OW 4258   4.135   6.599   6.231
 1120SOL    HW1 4259   4.123   6.576   6.328
 1120SOL    HW2 4260   4.106   6.694   6.216
 1121SOL     OW 4261   5.044   3.110   1.650
 1121SOL    HW1 4262   4.946   3.118   1.668
 1121SOL    HW2 4263   5.069   3.014   1.639
 1122SOL     OW 4264   5.130   3.216   6.277
 1122SOL    HW1 4265   5.069   3.285   6.238
 1122SOL    HW2 4266   5.174   3.252   6.360
 1123SOL     OW 4267   4.532   0.968   2.350
 1123SOL    HW1 4268   4.508   1.019   2.433
 1123SOL    HW2 4269   4.516   0.871   2.364
 1124SOL     OW 4270   6.831   4.149   4.646
 1124SOL    HW1 4271   6.810   4.247   4.651
 1124SOL    HW2 4272   6.860   4.126   4.553
 1125SOL     OW 4273   3.408   3.264   4.974
 1125SOL    HW1 4274   3.488   3.284   4.918
 1125SOL    HW2 4275   3.362   3.349   4.998
 1126SOL     OW 4276   4.726   6.715   1.467
 1126SOL    HW1 4277   4.722   6.814   1.464
 1126SOL    HW2 4278   4.808   6.686   1.516
 1127SOL     OW 4279   2.017   4.961   0.359
 1127SOL    HW1 4280   1.991   4.950   0.455
 1127SOL    HW2 4281   2.052   4.875   0.323
 1128SOL     OW 4282   3.271   1.864   4.106
 1128SOL    HW1 4283   3.321   1.938   4.062
 1128SOL    HW2 4284   3.335   1.800   4.148
 1129SOL     OW 4285   5.354   0.421   6.851
 1129SOL    HW1 4286   5.394   0.381   6.934
 1129SOL    HW2 4287   5.389   0.513   6.838
 1130SOL     OW 4288   0.699   4.028   6.751
 1130SOL    HW1 4289   0.745   4.007   6.838
 1130SOL    HW2 4290   0.684   4.126   6.744
 1131SOL     OW 4291   0.529   6.240   4.869
 1131SOL    HW1 4292   0.543   6.175   4.944
 1131SOL    HW2 4293   0.532   6.333   4.905
 1132SOL     OW 4294   4.667   6.736   5.304
 1132SOL    HW1 4295   4.730   6.666   5.340
 1132SOL    HW2 4296   4.672   6.737   5.205
 1133SOL     OW 4297   0.740   3.358   1.931
 1133SOL    HW1 4298   0.713   3.265   1.907
 1133SOL    HW2 4299   0.839   3.362   1.945
 1134SOL     OW 4300   5.203   2.554   6.799
 1134SOL    HW1 4301   5.188   2.635   6.741
 1134SOL    HW2 4302   5.301   2.534   6.801
 1135SOL     OW 4303   2.764   2.254   3.388
 1135SOL    HW1 4304   2.707   2.172   3.393
 1135SOL    HW2 4305   2.830   2.253   3.463
 1136SOL     OW 4306   2.859   5.459   3.567
 1136SOL    HW1 4307   2.786   5.527   3.554
 1136SOL    HW2 4308   2.881   5.453   3.664
 1137SOL     OW 4309   1.405   1.367   6.559
 1137SOL    HW1 4310   1.503   1.388   6.562
 1137SOL    HW2 4311   1.368   1.370   6.652
 1138SOL     OW 4312   1.705   3.640   5.255
 1138SOL    HW1 4313   1.766   3.705   5.210
 1138SOL    HW2 4314   1.673   3.679   5.342
 1139SOL     OW 4315   1.549   6.800   2.755
 1139SOL    HW1 4316   1.649   6.811   2.755
 1139SOL    HW2 4317   1.506   6.889   2.764
 1140SOL     OW 4318   3.270   1.854   3.445
 1140SOL    HW1 4319   3.173   1.865   3.424
 1140SOL    HW2 4320   3.294   1.757   3.438
 1141SOL     OW 4321   6.247   5.718   4.939
 1141SOL    HW1 4322   6.283   5.810   4.923
 1141SOL    HW2 4323   6.277   5.657   4.865
 1142SOL     OW 4324   4.938   0.236   4.093
 1142SOL    HW1 4325   5.013   0.242   4.159
 1142SOL    HW2 4326   4.947   0.307   4.024
 1143SOL     OW 4327   3.917   2.192   3.038
 1143SOL    HW1 4328   4.003   2.222   2.997
 1143SOL    HW2 4329   3.871   2.129   2.975
 1144SOL     OW 4330   0.456   4.917   4.411
 1144SOL    HW1 4331   0.484   4.837   4.358
 1144SOL    HW2 4332   0.477   4.903   4.508
 1145SOL     OW 4333   6.979   5.693   4.304
 1145SOL    HW1 4334   6.981   5.791   4.326
 1145SOL    HW2 4335   6.895   5.653   4.340
 1146SOL     OW 4336   5.658   2.367   1.493
 1146SOL    HW1 4337   5.716   2.298   1.536
 1146SOL    HW2 4338   5.656   2.450   1.549
 1147SOL     OW 4339   0.056   3.812   2.204
 1147SOL    HW1 4340   0.022   3.868   2.280
 1147SOL    HW2 4341   0.132   3.859   2.159
 1148SOL     OW 4342   4.019   6.819   6.885
 1148SOL    HW1 4343   4.030   6.731   6.840
 1148SOL    HW2 4344   4.032   6.809   6.983
 1149SOL     OW 4345   6.641   3.358   2.827
 1149SOL    HW1 4346   6.690   3.271   2.816
 1149SOL    HW2 4347   6.699   3.433   2.798
 1150SOL     OW 4348   1.764   4.711   0.724
 1150SOL    HW1 4349   1.768   4.747   0.817
 1150SOL    HW2 4350   1.745   4.785   0.660
 1151SOL     OW 4351   6.051   4.904   6.591
 1151SOL    HW1 4352   6.063   4.922   6.493
 1151SOL    HW2 4353   5.976   4.960   6.626
 1152SOL     OW 4354   1.984   0.439   4.988
 1152SOL    HW1 4355   1.901   0.470   4.942
 1152SOL    HW2 4356   1.960   0.401   5.078
 1153SOL     OW 4357   2.227   5.464   2.821
 1153SOL    HW1 4358   2.216   5.364   2.822
 1153SOL    HW2 4359   2.308   5.488   2.769
 1154SOL     OW 4360   0.410   3.742   2.290
 1154SOL    HW1 4361   0.378   3.835   2.304
 1154SOL    HW2 4362   0.353   3.679   2.343
 1155SOL     OW 4363   3.823   6.288   1.867
 1155SOL    HW1 4364   3.813   6.203   1.919
 1155SOL    HW2 4365   3.901   6.279   1.804
 1156SOL     OW 4366   1.994   0.551   4.254
 1156SOL    HW1 4367   2.006   0.456   4.282
 1156SOL    HW2 4368   2.075   0.604   4.278
 1157SOL     OW 4369   0.574   3.091   4.044
 1157SOL    HW1 4370   0.614   3.113   4.133
 1157SOL    HW2 4371   0.477   3.115   4.044
 1158SOL     OW 4372   5.627   5.213   5.574
 1158SOL    HW1 4373   5.584   5.194   5.662
 1158SOL    HW2 4374   5.566   5.184   5.500
 1159SOL     OW 4375   3.481   5.047   3.184
 1159SOL    HW1 4376   3.461   5.143   3.206
 1159SOL    HW2 4377   3.515   5.001   3.266
 1160SOL     OW 4378   4.156   3.424   2.232
 1160SOL    HW1 4379   4.169   3.369   2.314
 1160SOL    HW2 4380   4.105   3.507   2.255
 1161SOL     OW 4381   5.540   0.806   3.677
 1161SOL    HW1 4382   5.524   0.843   3.768
 1161SOL    HW2 4383   5.637   0.787   3.664
 1162SOL     OW 4384   3.708   4.103   2.256
 1162SOL    HW1 4385   3.749   4.195   2.256
 1162SOL    HW2 4386   3.751   4.047   2.186
 1163SOL     OW 4387   5.100   2.550   2.028
 1163SOL    HW1 4388   5.014   2.581   1.988
 1163SOL    HW2 4389   5.160   2.515   1.956
 1164SOL     OW 4390   5.707   2.908   3.120
 1164SOL    HW1 4391   5.678   2.900   3.024
 1164SOL    HW2 4392   5.723   3.004   3.142
 1165SOL     OW 4393   0.599   4.206   3.355
 1165SOL    HW1 4394   0.659   4.172   3.427
 1165SOL    HW2 4395   0.518   4.147   3.347
 1166SOL     OW 4396   4.279   2.454   6.053
 1166SOL    HW1 4397   4.313   2.515   5.982
 1166SOL    HW2 4398   4.288   2.359   6.023
 1167SOL     OW 4399   4.776   1.036   5.058
 1167SOL    HW1 4400   4.827   0.963   5.012
 1167SOL    HW2 4401   4.687   1.047   5.012
 1168SOL     OW 4402   6.590   0.275   3.565
 1168SOL    HW1 4403   6.686   0.297   3.584
 1168SOL    HW2 4404   6.586   0.193   3.507
 1169SOL     OW 4405   0.837   3.506   1.273
 1169SOL    HW1 4406   0.833   3.519   1.174
 1169SOL    HW2 4407   0.788   3.581   1.318
 1170SOL     OW 4408   3.336   1.222   2.028
 1170SOL    HW1 4409   3.255   1.271   1.999
 1170SOL    HW2 4410   3.411   1.238   1.963
 1171SOL     OW 4411   2.801   5.566   1.126
 1171SOL    HW1 4412   2.810   5.625   1.206
 1171SOL    HW2 4413   2.787   5.622   1.045
 1172SOL     OW 4414   2.917   3.488   4.483
 1172SOL    HW1 4415   2.960   3.400   4.462
 1172SOL    HW2 4416   2.871   3.523   4.401
 1173SOL     OW 4417   2.978   1.105   6.185
 1173SOL    HW1 4418   2.978   1.191   6.234
 1173SOL    HW2 4419   2.982   1.122   6.087
 1174SOL     OW 4420   2.712   5.892   1.143
 1174SOL    HW1 4421   2.628   5.858   1.102
 1174SOL    HW2 4422   2.749   5.965   1.085
 1175SOL     OW 4423   6.361   4.828   6.140
 1175SOL    HW1 4424   6.372   4.739   6.096
 1175SOL    HW2 4425   6.304   4.887   6.083
 1176SOL     OW 4426   5.455   4.643   1.020
 1176SOL    HW1 4427   5.516   4.687   1.086
 1176SOL    HW2 4428   5.489   4.551   1.001
 1177SOL     OW 4429   6.727   3.156   5.857
 1177SOL    HW1 4430   6.684   3.245   5.842
 1177SOL    HW2 4431   6.776   3.128   5.775
 1178SOL     OW 4432   5.429   3.703   1.405
 1178SOL    HW1 4433   5.452   3.687   1.309
 1178SOL    HW2 4434   5.408   3.799   1.419
 1179SOL     OW 4435   1.776   5.305   6.857
 1179SOL    HW1 4436   1.719   5.308   6.775
 1179SOL    HW2 4437   1.867   5.272   6.832
 1180SOL     OW 4438   1.391   2.277   4.597
 1180SOL    HW1 4439   1.375   2.179   4.608
 1180SOL    HW2 4440   1.305   2.322   4.570
 1181SOL     OW 4441   1.869   3.905   3.622
 1181SOL    HW1 4442   1.874   3.982   3.558
 1181SOL    HW2 4443   1.941   3.839   3.601
 1182SOL     OW 4444   2.394   4.339   3.806
 1182SOL    HW1 4445   2.368   4.403   3.734
 1182SOL    HW2 4446   2.493   4.341   3.818
 1183SOL     OW 4447   3.877   6.244   0.980
 1183SOL    HW1 4448   3.910   6.277   1.068
 1183SOL    HW2 4449   3.947   6.258   0.910
 1184SOL     OW 4450   3.023   2.977   5.231
 1184SOL    HW1 4451   3.120   2.982   5.256
 1184SOL    HW2 4452   3.015   2.941   5.137
 1185SOL     OW 4453   2.043   0.036   6.977
 1185SOL    HW1 4454   2.119   6.991   6.979
 1185SOL    HW2 4455   1.957   7.005   6.983
 1186SOL     OW 4456   5.500   0.223   4.772
 1186SOL    HW1 4457   5.494   0.166   4.854
 1186SOL    HW2 4458   5.553   0.305   4.791
 1187SOL     OW 4459   5.799   6.865   5.267
 1187SOL    HW1 4460   5.700   6.851   5.270
 1187SOL    HW2 4461   5.823   6.944   5.323
 1188SOL     OW 4462   2.013   0.008   5.926
 1188SOL    HW1 4463   2.065   0.008   5.841
 1188SOL    HW2 4464   1.951   0.086   5.927
 1189SOL     OW 4465   5.913   0.733   1.529
 1189SOL    HW1 4466   5.942   0.639   1.507
 1189SOL    HW2 4467   5.952   0.796   1.462
 1190SOL     OW 4468   4.407   5.025   2.467
 1190SOL    HW1 4469   4.351   5.097   2.507
 1190SOL    HW2 4470   4.378   4.936   2.503
 1191SOL     OW 4471   3.153   5.768   6.225
 1191SOL    HW1 4472   3.184   5.674   6.212
 1191SOL    HW2 4473   3.060   5.768   6.261
 1192SOL     OW 4474   5.792   5.197   3.068
 1192SOL    HW1 4475   5.726   5.138   3.114
 1192SOL    HW2 4476   5.772   5.200   2.970
 1193SOL     OW 4477   5.038   0.425   3.925
 1193SOL    HW1 4478   5.023   0.489   4.001
 1193SOL    HW2 4479   5.034   0.475   3.838
 1194SOL     OW 4480   6.251   0.508   0.554
 1194SOL    HW1 4481   6.328   0.566   0.524
 1194SOL    HW2 4482   6.282   0.448   0.628
 1195SOL     OW 4483   5.672   0.331   6.122
 1195SOL    HW1 4484   5.749   0.348   6.183
 1195SOL    HW2 4485   5.700   0.350   6.028
 1196SOL     OW 4486   0.306   5.089   2.336
 1196SOL    HW1 4487   0.281   5.061   2.429
 1196SOL    HW2 4488   0.340   5.183   2.337
 1197SOL     OW 4489   3.680   5.854   5.799
 1197SOL    HW1 4490   3.633   5.770   5.825
 1197SOL    HW2 4491   3.622   5.933   5.819
 1198SOL     OW 4492   3.109   2.159   3.426
 1198SOL    HW1 4493   3.207   2.165   3.445
 1198SOL    HW2 4494   3.058   2.204   3.499
 1199SOL     OW 4495   3.524   4.383   1.728
 1199SOL    HW1 4496   3.574   4.469   1.740
 1199SOL    HW2 4497   3.588   4.311   1.698
 1200SOL     OW 4498   4.190   4.419   6.696
 1200SOL    HW1 4499   4.118   4.350   6.691
 1200SOL    HW2 4500   4.279   4.375   6.706
 1201SOL     OW 4501   1.211   1.696   4.941
 1201SOL    HW1 4502   1.304   1.662   4.926
 1201SOL    HW2 4503   1.167   1.642   5.013
 1202SOL     OW 4504   5.774   6.928   4.896
 1202SOL    HW1 4505   5.813   6.879   4.974
 1202SOL    HW2 4506   5.753   0.003   4.922
 1203SOL     OW 4507   5.370   0.078   1.229
 1203SOL    HW1 4508   5.308   0.006   1.197
 1203SOL    HW2 4509   5.373   0.078   1.329
 1204SOL     OW 4510   3.763   0.568   0.513
 1204SOL    HW1 4511   3.826   0.524   0.449
 1204SOL    HW2 4512   3.769   0.667   0.502
 1205SOL     OW 4513   5.708   1.830   5.228
 1205SOL    HW1 4514   5.644   1.759   5.257
 1205SOL    HW2 4515   5.802   1.803   5.249
 1206SOL     OW 4516   2.221   1.718   5.403
 1206SOL    HW1 4517   2.309   1.677   5.377
 1206SOL    HW2 4518   2.171   1.655   5.462
 1207SOL     OW 4519   5.798   7.017   6.735
 1207SOL    HW1 4520   5.793   6.948   6.807
 1207SOL    HW2 4521   5.711   0.003   6.688
 1208SOL     OW 4522   3.707   4.092   2.868
 1208SOL    HW1 4523   3.752   4.093   2.779
 1208SOL    HW2 4524   3.769   4.054   2.936
 1209SOL     OW 4525   5.620   5.318   4.265
 1209SOL    HW1 4526   5.616   5.278   4.357
 1209SOL    HW2 4527   5.664   5.253   4.203
 1210SOL     OW 4528   4.307   6.844   2.473
 1210SOL    HW1 4529   4.333   6.840   2.376
 1210SOL    HW2 4530   4.368   6.906   2.521
 1211SOL     OW 4531   0.987   4.241   4.772
 1211SOL    HW1 4532   1.068   4.209   4.822
 1211SOL    HW2 4533   0.947   4.319   4.820
 1212SOL     OW 4534   1.469   4.523   4.737
 1212SOL    HW1 4535   1.401   4.453   4.759
 1212SOL    HW2 4536   1.552   4.505   4.790
 1213SOL     OW 4537   6.582   2.495   5.309
 1213SOL    HW1 4538   6.544   2.491   5.217
 1213SOL    HW2 4539   6.636   2.579   5.319
 1214SOL     OW 4540   2.135   3.494   3.961
 1214SOL    HW1 4541   2.201   3.446   4.019
 1214SOL    HW2 4542   2.105   3.434   3.887
 1215SOL     OW 4543   1.481   4.618   2.600
 1215SOL    HW1 4544   1.572   4.600   2.637
 1215SOL    HW2 4545   1.475   4.584   2.506
 1216SOL     OW 4546   1.320   0.536   1.968
 1216SOL    HW1 4547   1.384   0.489   2.029
 1216SOL    HW2 4548   1.365   0.551   1.879
 1217SOL     OW 4549   1.250   6.868   1.610
 1217SOL    HW1 4550   1.274   6.964   1.625
 1217SOL    HW2 4551   1.301   6.811   1.674
 1218SOL     OW 4552   0.277   3.534   4.600
 1218SOL    HW1 4553   0.255   3.631   4.588
 1218SOL    HW2 4554   0.292   3.492   4.510
 1219SOL     OW 4555   3.780   6.390   1.363
 1219SOL    HW1 4556   3.722   6.325   1.412
 1219SOL    HW2 4557   3.844   6.433   1.428
 1220SOL     OW 4558   6.005   3.009   3.206
 1220SOL    HW1 4559   6.011   2.913   3.179
 1220SOL    HW2 4560   5.971   3.063   3.130
 1221SOL     OW 4561   4.821   3.737   0.140
 1221SOL    HW1 4562   4.737   3.702   0.181
 1221SOL    HW2 4563   4.803   3.764   0.045
 1222SOL     OW 4564   6.982   0.009   1.119
 1222SOL    HW1 4565   0.019   6.948   1.100
 1222SOL    HW2 4566   0.016   0.076   1.172
 1223SOL     OW 4567   6.500   6.982   6.046
 1223SOL    HW1 4568   6.548   0.048   6.025
 1223SOL    HW2 4569   6.402   6.999   6.047
 1224SOL     OW 4570   4.794   5.471   1.403
 1224SOL    HW1 4571   4.737   5.531   1.460
 1224SOL    HW2 4572   4.750   5.458   1.314
 1225SOL     OW 4573   5.023   1.928   0.546
 1225SOL    HW1 4574   4.988   1.877   0.625
 1225SOL    HW2 4575   5.077   1.866   0.489
 1226SOL     OW 4576   6.259   6.266   0.924
 1226SOL    HW1 4577   6.228   6.188   0.979
 1226SOL    HW2 4578   6.329   6.235   0.860
 1227SOL     OW 4579   5.993   3.711   5.261
 1227SOL    HW1 4580   6.042   3.793   5.231
 1227SOL    HW2 4581   6.010   3.636   5.196
 1228SOL     OW 4582   3.941   3.100   2.527
 1228SOL    HW1 4583   3.939   3.079   2.624
 1228SOL    HW2 4584   3.917   3.019   2.474
 1229SOL     OW 4585   2.109   6.037   2.549
 1229SOL    HW1 4586   2.060   5.983   2.481
 1229SOL    HW2 4587   2.208   6.032   2.531
 1230SOL     OW 4588   5.064   4.975   1.574
 1230SOL    HW1 4589   5.143   5.036   1.580
 1230SOL    HW2 4590   4.997   4.999   1.644
 1231SOL     OW 4591   1.634   2.292   6.356
 1231SOL    HW1 4592   1.666   2.335   6.440
 1231SOL    HW2 4593   1.655   2.194   6.358
 1232SOL     OW 4594   3.289   0.909   5.680
 1232SOL    HW1 4595   3.213   0.944   5.625
 1232SOL    HW2 4596   3.375   0.929   5.634
 1233SOL     OW 4597   0.268   5.604   3.871
 1233SOL    HW1 4598   0.231   5.697   3.881
 1233SOL    HW2 4599   0.367   5.609   3.859
 1234SOL     OW 4600   6.649   3.147   6.746
 1234SOL    HW1 4601   6.712   3.104   6.812
 1234SOL    HW2 4602   6.572   3.085   6.729
 1235SOL     OW 4603   6.318   5.163   0.143
 1235SOL    HW1 4604   6.403   5.208   0.169
 1235SOL    HW2 4605   6.273   5.215   0.070
 1236SOL     OW 4606   2.346   1.379   1.618
 1236SOL    HW1 4607   2.422   1.443   1.630
 1236SOL    HW2 4608   2.267   1.427   1.581
 1237SOL     OW 4609   1.015   0.438   4.956
 1237SOL    HW1 4610   1.023   0.434   5.055
 1237SOL    HW2 4611   1.018   0.534   4.926
 1238SOL     OW 4612   6.593   0.499   3.983
 1238SOL    HW1 4613   6.522   0.444   3.939
 1238SOL    HW2 4614   6.585   0.490   4.082
 1239SOL     OW 4615   5.627   4.548   4.078
 1239SOL    HW1 4616   5.641   4.642   4.112
 1239SOL    HW2 4617   5.688   4.532   4.001
 1240SOL     OW 4618   5.835   4.620   3.437
 1240SOL    HW1 4619   5.855   4.529   3.474
 1240SOL    HW2 4620   5.752   4.655   3.481
 1241SOL     OW 4621   5.282   5.030   4.447
 1241SOL    HW1 4622   5.327   5.055   4.533
 1241SOL    HW2 4623   5.277   4.930   4.440
 1242SOL     OW 4624   1.350   4.698   0.127
 1242SOL    HW1 4625   1.268   4.659   0.085
 1242SOL    HW2 4626   1.430   4.643   0.103
 1243SOL     OW 4627   0.952   4.640   4.981
 1243SOL    HW1 4628   1.045   4.663   4.952
 1243SOL    HW2 4629   0.914   4.716   5.034
 1244SOL     OW 4630   5.400   6.334   4.576
 1244SOL    HW1 4631   5.300   6.330   4.568
 1244SOL    HW2 4632   5.430   6.429   4.573
 1245SOL     OW 4633   5.373   6.440   2.204
 1245SOL    HW1 4634   5.359   6.391   2.118
 1245SOL    HW2 4635   5.333   6.388   2.279
 1246SOL     OW 4636   4.709   1.522   0.606
 1246SOL    HW1 4637   4.704   1.612   0.563
 1246SOL    HW2 4638   4.773   1.525   0.682
 1247SOL     OW 4639   6.738   6.650   3.325
 1247SOL    HW1 4640   6.689   6.576   3.279
 1247SOL    HW2 4641   6.722   6.644   3.424
 1248SOL     OW 4642   1.144   6.980   4.951
 1248SOL    HW1 4643   1.113   6.908   4.889
 1248SOL    HW2 4644   1.185   0.035   4.897
 1249SOL     OW 4645   6.800   4.578   0.017
 1249SOL    HW1 4646   6.755   4.525   6.965
 1249SOL    HW2 4647   6.781   4.537   0.106
 1250SOL     OW 4648   6.425   3.012   4.810
 1250SOL    HW1 4649   6.355   3.080   4.785
 1250SOL    HW2 4650   6.468   3.040   4.896
 1251SOL     OW 4651   2.861   0.534   2.694
 1251SOL    HW1 4652   2.933   0.465   2.695
 1251SOL    HW2 4653   2.880   0.602   2.623
 1252SOL     OW 4654   1.653   5.611   0.468
 1252SOL    HW1 4655   1.705   5.567   0.541
 1252SOL    HW2 4656   1.595   5.683   0.507
 1253SOL     OW 4657   3.736   0.615   1.300
 1253SOL    HW1 4658   3.686   0.698   1.273
 1253SOL    HW2 4659   3.678   0.559   1.359
 1254SOL     OW 4660   6.831   1.716   2.214
 1254SOL    HW1 4661   6.880   1.629   2.203
 1254SOL    HW2 4662   6.733   1.700   2.205
 1255SOL     OW 4663   5.639   1.305   4.723
 1255SOL    HW1 4664   5.565   1.244   4.750
 1255SOL    HW2 4665   5.702   1.257   4.662
 1256SOL     OW 4666   0.411   5.980   4.499
 1256SOL    HW1 4667   0.454   6.066   4.470
 1256SOL    HW2 4668   0.477   5.906   4.490
 1257SOL     OW 4669   0.735   5.494   3.925
 1257SOL    HW1 4670   0.721   5.409   3.977
 1257SOL    HW2 4671   0.658   5.555   3.941
 1258SOL     OW 4672   3.201   6.208   4.551
 1258SOL    HW1 4673   3.228   6.184   4.644
 1258SOL    HW2 4674   3.275   6.182   4.488
 1259SOL     OW 4675   5.138   6.786   4.117
 1259SOL    HW1 4676   5.133   6.775   4.018
 1259SOL    HW2 4677   5.217   6.736   4.153
 1260SOL     OW 4678   1.747   0.677   1.731
 1260SOL    HW1 4679   1.745   0.745   1.657
 1260SOL    HW2 4680   1.767   0.723   1.818
 1261SOL     OW 4681   6.626   4.409   6.564
 1261SOL    HW1 4682   6.632   4.315   6.531
 1261SOL    HW2 4683   6.637   4.472   6.488
 1262SOL     OW 4684   5.867   5.248   0.761
 1262SOL    HW1 4685   5.925   5.173   0.792
 1262SOL    HW2 4686   5.777   5.213   0.737
 1263SOL     OW 4687   0.523   2.650   1.470
 1263SOL    HW1 4688   0.518   2.550   1.465
 1263SOL    HW2 4689   0.512   2.679   1.565
 1264SOL     OW 4690   0.591   3.722   3.564
 1264SOL    HW1 4691   0.608   3.653   3.635
 1264SOL    HW2 4692   0.666   3.788   3.564
 1265SOL     OW 4693   6.870   4.877   4.849
 1265SOL    HW1 4694   6.838   4.827   4.929
 1265SOL    HW2 4695   6.931   4.818   4.796
 1266SOL     OW 4696   3.030   1.834   5.635
 1266SOL    HW1 4697   3.099   1.832   5.562
 1266SOL    HW2 4698   3.076   1.827   5.723
 1267SOL     OW 4699   6.829   5.587   3.301
 1267SOL    HW1 4700   6.829   5.681   3.268
 1267SOL    HW2 4701   6.899   5.535   3.252
 1268SOL     OW 4702   5.326   2.812   6.517
 1268SOL    HW1 4703   5.264   2.891   6.522
 1268SOL    HW2 4704   5.276   2.734   6.480
 1269SOL     OW 4705   6.767   5.584   5.380
 1269SOL    HW1 4706   6.684   5.631   5.350
 1269SOL    HW2 4707   6.750   5.485   5.383
 1270SOL     OW 4708   1.860   3.882   4.385
 1270SOL    HW1 4709   1.809   3.918   4.307
 1270SOL    HW2 4710   1.831   3.929   4.468
 1271SOL     OW 4711   3.308   1.705   2.693
 1271SOL    HW1 4712   3.369   1.775   2.729
 1271SOL    HW2 4713   3.223   1.747   2.663
 1272SOL     OW 4714   0.032   5.203   1.238
 1272SOL    HW1 4715   0.071   5.170   1.324
 1272SOL    HW2 4716   6.966   5.252   1.257
 1273SOL     OW 4717   2.701   5.013   6.624
 1273SOL    HW1 4718   2.795   5.041   6.645
 1273SOL    HW2 4719   2.638   5.082   6.660
 1274SOL     OW 4720   6.985   2.689   2.478
 1274SOL    HW1 4721   6.991   2.728   2.386
 1274SOL    HW2 4722   6.895   2.708   2.517
 1275SOL     OW 4723   4.236   1.493   4.845
 1275SOL    HW1 4724   4.256   1.518   4.751
 1275SOL    HW2 4725   4.301   1.424   4.876
 1276SOL     OW 4726   0.503   0.569   2.609
 1276SOL    HW1 4727   0.408   0.540   2.593
 1276SOL    HW2 4728   0.511   0.607   2.701
 1277SOL     OW 4729   6.860   0.615   4.630
 1277SOL    HW1 4730   6.922   0.544   4.596
 1277SOL    HW2 4731   6.861   0.615   4.730
 1278SOL     OW 4732   1.990   1.718   5.239
 1278SOL    HW1 4733   1.954   1.803   5.277
 1278SOL    HW2 4734   2.060   1.681   5.299
 1279SOL     OW 4735   3.055   6.030   0.420
 1279SOL    HW1 4736   3.110   5.972   0.359
 1279SOL    HW2 4737   3.021   6.108   0.369
 1280SOL     OW 4738   2.277   0.371   3.363
 1280SOL    HW1 4739   2.228   0.309   3.301
 1280SOL    HW2 4740   2.322   0.318   3.434
 1281SOL     OW 4741   1.255   6.288   3.439
 1281SOL    HW1 4742   1.235   6.355   3.368
 1281SOL    HW2 4743   1.248   6.196   3.400
 1282SOL     OW 4744   0.573   1.435   1.186
 1282SOL    HW1 4745   0.641   1.419   1.257
 1282SOL    HW2 4746   0.487   1.465   1.227
 1283SOL     OW 4747   5.695   4.702   5.315
 1283SOL    HW1 4748   5.764   4.651   5.366
 1283SOL    HW2 4749   5.739   4.766   5.253
 1284SOL     OW 4750   3.223   2.762   1.865
 1284SOL    HW1 4751   3.168   2.827   1.812
 1284SOL    HW2 4752   3.199   2.669   1.838
 1285SOL     OW 4753   4.921   2.463   6.013
 1285SOL    HW1 4754   4.827   2.427   6.006
 1285SOL    HW2 4755   4.928   2.548   5.961
 1286SOL     OW 4756   5.502   4.048   1.782
 1286SOL    HW1 4757   5.535   3.978   1.846
 1286SOL    HW2 4758   5.545   4.135   1.805
 1287SOL     OW 4759   6.530   5.581   6.784
 1287SOL    HW1 4760   6.484   5.631   6.857
 1287SOL    HW2 4761   6.530   5.483   6.805
 1288SOL     OW 4762   6.852   3.095   0.200
 1288SOL    HW1 4763   6.855   3.081   0.299
 1288SOL    HW2 4764   6.942   3.123   0.167
 1289SOL     OW 4765   6.737   5.816   2.344
 1289SOL    HW1 4766   6.794   5.889   2.383
 1289SOL    HW2 4767   6.788   5.768   2.274
 1290SOL     OW 4768   1.055   6.572   0.157
 1290SOL    HW1 4769   1.062   6.637   0.081
 1290SOL    HW2 4770   1.111   6.492   0.138
 1291SOL     OW 4771   0.941   6.191   6.427
 1291SOL    HW1 4772   1.025   6.151   6.465
 1291SOL    HW2 4773   0.952   6.205   6.329
 1292SOL     OW 4774   0.213   4.884   1.202
 1292SOL    HW1 4775   0.116   4.905   1.188
 1292SOL    HW2 4776   0.224   4.786   1.215
 1293SOL     OW 4777   1.146   1.887   6.955
 1293SOL    HW1 4778   1.127   1.860   0.029
 1293SOL    HW2 4779   1.062   1.881   6.901
 1294SOL     OW 4780   0.561   3.210   2.545
 1294SOL    HW1 4781   0.616   3.293   2.536
 1294SOL    HW2 4782   0.622   3.130   2.551
 1295SOL     OW 4783   5.622   3.161   1.639
 1295SOL    HW1 4784   5.714   3.123   1.652
 1295SOL    HW2 4785   5.555   3.087   1.637
 1296SOL     OW 4786   3.298   2.326   6.322
 1296SOL    HW1 4787   3.216   2.350   6.374
 1296SOL    HW2 4788   3.341   2.410   6.288
 1297SOL     OW 4789   6.547   1.262   5.411
 1297SOL    HW1 4790   6.593   1.294   5.328
 1297SOL    HW2 4791   6.509   1.341   5.460
 1298SOL     OW 4792   5.779   2.904   2.349
 1298SOL    HW1 4793   5.701   2.857   2.389
 1298SOL    HW2 4794   5.753   2.997   2.324
 1299SOL     OW 4795   1.184   4.665   4.821
 1299SOL    HW1 4796   1.279   4.646   4.797
 1299SOL    HW2 4797   1.131   4.679   4.738
 1300SOL     OW 4798   2.917   3.278   1.909
 1300SOL    HW1 4799   2.937   3.284   1.811
 1300SOL    HW2 4800   2.873   3.190   1.929
 1301SOL     OW 4801   0.577   6.543   4.090
 1301SOL    HW1 4802   0.491   6.582   4.123
 1301SOL    HW2 4803   0.583   6.447   4.117
 1302SOL     OW 4804   2.799   0.130   5.146
 1302SOL    HW1 4805   2.870   0.085   5.200
 1302SOL    HW2 4806   2.800   0.094   5.053
 1303SOL     OW 4807   3.563   1.481   0.797
 1303SOL    HW1 4808   3.537   1.487   0.700
 1303SOL    HW2 4809   3.488   1.515   0.853
 1304SOL     OW 4810   1.940   0.491   6.495
 1304SOL    HW1 4811   2.024   0.449   6.531
 1304SOL    HW2 4812   1.860   0.445   6.532
 1305SOL     OW 4813   4.370   0.066   4.385
 1305SOL    HW1 4814   4.392   6.999   4.340
 1305SOL    HW2 4815   4.332   0.048   4.476
 1306SOL     OW 4816   0.620   4.065   4.444
 1306SOL    HW1 4817   0.635   4.102   4.352
 1306SOL    HW2 4818   0.660   4.126   4.511
 1307SOL     OW 4819   0.954   3.265   4.916
 1307SOL    HW1 4820   0.998   3.265   4.826
 1307SOL    HW2 4821   0.893   3.344   4.923
 1308SOL     OW 4822   4.346   5.704   4.208
 1308SOL    HW1 4823   4.315   5.651   4.130
 1308SOL    HW2 4824   4.292   5.788   4.214
 1309SOL     OW 4825   5.559   2.907   4.825
 1309SOL    HW1 4826   5.644   2.878   4.780
 1309SOL    HW2 4827   5.553   2.864   4.915
 1310SOL     OW 4828   5.629   4.044   4.156
 1310SOL    HW1 4829   5.628   3.945   4.146
 1310SOL    HW2 4830   5.713   4.082   4.116
 1311SOL     OW 4831   6.044   6.956   4.689
 1311SOL    HW1 4832   5.957   6.937   4.645
 1311SOL    HW2 4833   6.028   6.997   4.779
 1312SOL     OW 4834   0.735   6.754   0.075
 1312SOL    HW1 4835   0.814   6.695   0.091
 1312SOL    HW2 4836   0.747   6.839   0.128
 1313SOL     OW 4837   3.367   5.394   5.354
 1313SOL    HW1 4838   3.331   5.483   5.382
 1313SOL    HW2 4839   3.374   5.334   5.433
 1314SOL     OW 4840   1.325   1.551   5.501
 1314SOL    HW1 4841   1.249   1.524   5.560
 1314SOL    HW2 4842   1.360   1.640   5.529
 1315SOL     OW 4843   2.283   1.196   1.168
 1315SOL    HW1 4844   2.278   1.187   1.267
 1315SOL    HW2 4845   2.378   1.212   1.140
 1316SOL     OW 4846   2.642   0.263   3.724
 1316SOL    HW1 4847   2.623   0.225   3.633
 1316SOL    HW2 4848   2.704   0.203   3.774
 1317SOL     OW 4849   0.186   4.901   4.268
 1317SOL    HW1 4850   0.253   4.945   4.328
 1317SOL    HW2 4851   0.223   4.895   4.175
 1318SOL     OW 4852   6.675   0.504   0.302
 1318SOL    HW1 4853   6.703   0.470   0.213
 1318SOL    HW2 4854   6.629   0.432   0.353
 1319SOL     OW 4855   6.612   1.021   0.755
 1319SOL    HW1 4856   6.556   1.090   0.711
 1319SOL    HW2 4857   6.677   0.983   0.688
 1320SOL     OW 4858   5.925   4.601   6.271
 1320SOL    HW1 4859   6.021   4.615   6.294
 1320SOL    HW2 4860   5.878   4.689   6.271
 1321SOL     OW 4861   4.024   3.123   6.466
 1321SOL    HW1 4862   4.123   3.132   6.462
 1321SOL    HW2 4863   3.990   3.090   6.378
 1322SOL     OW 4864   6.199   1.299   3.506
 1322SOL    HW1 4865   6.169   1.357   3.581
 1322SOL    HW2 4866   6.270   1.347   3.454
 1323SOL     OW 4867   7.013   1.448   5.399
 1323SOL    HW1 4868   0.013   1.397   5.315
 1323SOL    HW2 4869   7.005   1.545   5.379
 1324SOL     OW 4870   1.538   2.999   1.496
 1324SOL    HW1 4871   1.601   2.929   1.464
 1324SOL    HW2 4872   1.576   3.045   1.577
 1325SOL     OW 4873   1.650   6.310   3.243
 1325SOL    HW1 4874   1.712   6.292   3.319
 1325SOL    HW2 4875   1.584   6.380   3.270
 1326SOL     OW 4876   5.401   2.710   4.507
 1326SOL    HW1 4877   5.452   2.774   4.449
 1326SOL    HW2 4878   5.312   2.750   4.530
 1327SOL     OW 4879   2.877   4.752   2.858
 1327SOL    HW1 4880   2.938   4.781   2.932
 1327SOL    HW2 4881   2.922   4.767   2.770
 1328SOL     OW 4882   1.814   1.846   6.753
 1328SOL    HW1 4883   1.851   1.939   6.751
 1328SOL    HW2 4884   1.838   1.799   6.668
 1329SOL     OW 4885   0.616   1.345   0.584
 1329SOL    HW1 4886   0.695   1.406   0.589
 1329SOL    HW2 4887   0.538   1.395   0.548
 1330SOL     OW 4888   6.815   0.862   1.342
 1330SOL    HW1 4889   6.855   0.774   1.317
 1330SOL    HW2 4890   6.731   0.876   1.289
 1331SOL     OW 4891   5.885   0.477   1.693
 1331SOL    HW1 4892   5.949   0.469   1.770
 1331SOL    HW2 4893   5.883   0.572   1.661
 1332SOL     OW 4894   4.171   1.828   1.389
 1332SOL    HW1 4895   4.151   1.783   1.477
 1332SOL    HW2 4896   4.149   1.925   1.396
 1333SOL     OW 4897   4.014   3.935   4.975
 1333SOL    HW1 4898   3.955   3.971   4.903
 1333SOL    HW2 4899   4.002   3.988   5.058
 1334SOL     OW 4900   1.626   4.001   5.010
 1334SOL    HW1 4901   1.711   3.969   5.053
 1334SOL    HW2 4902   1.573   4.053   5.077
 1335SOL     OW 4903   1.834   6.150   2.928
 1335SOL    HW1 4904   1.878   6.238   2.947
 1335SOL    HW2 4905   1.898   6.091   2.878
 1336SOL     OW 4906   1.292   1.411   5.849
 1336SOL    HW1 4907   1.383   1.451   5.849
 1336SOL    HW2 4908   1.275   1.368   5.938
 1337SOL     OW 4909   1.978   2.268   6.434
 1337SOL    HW1 4910   2.047   2.269   6.506
 1337SOL    HW2 4911   1.910   2.197   6.454
 1338SOL     OW 4912   4.105   4.793   6.598
 1338SOL    HW1 4913   4.142   4.876   6.641
 1338SOL    HW2 4914   4.095   4.722   6.667
 1339SOL     OW 4915   0.052   4.187   6.140
 1339SOL    HW1 4916   0.125   4.254   6.131
 1339SOL    HW2 4917   7.016   4.209   6.221
 1340SOL     OW 4918   1.127   2.163   7.007
 1340SOL    HW1 4919   1.150   2.213   6.924
 1340SOL    HW2 4920   1.147   2.066   6.994
 1341SOL     OW 4921   3.364   1.402   3.810
 1341SOL    HW1 4922   3.325   1.337   3.744
 1341SOL    HW2 4923   3.311   1.399   3.894
 1342SOL     OW 4924   0.955   5.976   5.824
 1342SOL    HW1 4925   0.997   6.066   5.827
 1342SOL    HW2 4926   0.868   5.981   5.775
 1343SOL     OW 4927   3.906   6.107   2.344
 1343SOL    HW1 4928   3.933   6.027   2.398
 1343SOL    HW2 4929   3.968   6.118   2.266
 1344SOL     OW 4930   6.111   1.638   2.905
 1344SOL    HW1 4931   6.034   1.667   2.847
 1344SOL    HW2 4932   6.188   1.701   2.892
 1345SOL     OW 4933   0.472   0.906   3.025
 1345SOL    HW1 4934   0.497   0.995   3.062
 1345SOL    HW2 4935   0.502   0.834   3.088
 1346SOL     OW 4936   0.013   0.182   3.847
 1346SOL    HW1 4937   0.040   0.086   3.850
 1346SOL    HW2 4938   6.955   0.197   3.909
 1347SOL     OW 4939   6.681   6.433   3.147
 1347SOL    HW1 4940   6.693   6.439   3.048
 1347SOL    HW2 4941   6.748   6.369   3.185
 1348SOL     OW 4942   5.044   4.306   3.749
 1348SOL    HW1 4943   5.137   4.331   3.724
 1348SOL    HW2 4944   5.037   4.301   3.848
 1349SOL     OW 4945   3.823   2.165   6.905
 1349SOL    HW1 4946   3.765   2.155   6.824
 1349SOL    HW2 4947   3.908   2.211   6.879
 1350SOL     OW 4948   2.993   6.290   0.293
 1350SOL    HW1 4949   2.930   6.258   0.223
 1350SOL    HW2 4950   3.045   6.368   0.258
 1351SOL     OW 4951   0.032   1.362   3.944
 1351SOL    HW1 4952   0.023   1.326   3.851
 1351SOL    HW2 4953   6.960   1.375   3.983
 1352SOL     OW 4954   6.694   1.159   2.486
 1352SOL    HW1 4955   6.790   1.133   2.492
 1352SOL    HW2 4956   6.638   1.093   2.536
 1353SOL     OW 4957   0.298   4.545   4.643
 1353SOL    HW1 4958   0.366   4.566   4.714
 1353SOL    HW2 4959   0.243   4.467   4.673
 1354SOL     OW 4960   0.291   0.819   1.567
 1354SOL    HW1 4961   0.249   0.753   1.504
 1354SOL    HW2 4962   0.267   0.911   1.539
 1355SOL     OW 4963   4.775   3.697   6.846
 1355SOL    HW1 4964   4.870   3.683   6.818
 1355SOL    HW2 4965   4.725   3.742   6.773
 1356SOL     OW 4966   3.244   3.580   2.895
 1356SOL    HW1 4967   3.173   3.600   2.828
 1356SOL    HW2 4968   3.334   3.589   2.853
 1357SOL     OW 4969   2.459   3.270   6.209
 1357SOL    HW1 4970   2.380   3.235   6.259
 1357SOL    HW2 4971   2.540   3.217   6.234
 1358SOL     OW 4972   2.208   3.126   6.291
 1358SOL    HW1 4973   2.174   3.046   6.241
 1358SOL    HW2 4974   2.158   3.136   6.377
 1359SOL     OW 4975   6.094   3.574   1.547
 1359SOL    HW1 4976   6.173   3.594   1.488
 1359SOL    HW2 4977   6.106   3.619   1.635
 1360SOL     OW 4978   3.734   3.689   3.110
 1360SOL    HW1 4979   3.638   3.708   3.131
 1360SOL    HW2 4980   3.793   3.734   3.176
 1361SOL     OW 4981   0.763   6.671   6.291
 1361SOL    HW1 4982   0.676   6.633   6.258
 1361SOL    HW2 4983   0.838   6.614   6.259
 1362SOL     OW 4984   2.914   3.591   6.150
 1362SOL    HW1 4985   2.843   3.586   6.080
 1362SOL    HW2 4986   2.921   3.502   6.196
 1363SOL     OW 4987   6.382   5.562   2.779
 1363SOL    HW1 4988   6.336   5.645   2.811
 1363SOL    HW2 4989   6.360   5.486   2.840
 1364SOL     OW 4990   6.747   3.208   1.129
 1364SOL    HW1 4991   6.741   3.213   1.228
 1364SOL    HW2 4992   6.671   3.257   1.088
 1365SOL     OW 4993   0.619   3.415   5.885
 1365SOL    HW1 4994   0.675   3.458   5.815
 1365SOL    HW2 4995   0.638   3.456   5.974
 1366SOL     OW 4996   6.670   2.617   0.618
 1366SOL    HW1 4997   6.725   2.544   0.578
 1366SOL    HW2 4998   6.576   2.609   0.584
 1367SOL     OW 4999   0.056   5.253   3.707
 1367SOL    HW1 5000   0.038   5.329   3.770
 1367SOL    HW2 5001   6.992   5.228   3.659
 1368SOL     OW 5002   6.941   0.609   4.082
 1368SOL    HW1 5003   6.930   0.642   4.176
 1368SOL    HW2 5004   6.855   0.573   4.049
 1369SOL     OW 5005   2.400   5.870   2.400
 1369SOL    HW1 5006   2.486   5.894   2.445
 1369SOL    HW2 5007   2.384   5.772   2.407
 1370SOL     OW 5008   6.544   2.410   3.427
 1370SOL    HW1 5009   6.537   2.326   3.481
 1370SOL    HW2 5010   6.477   2.408   3.353
 1371SOL     OW 5011   5.542   1.033   4.419
 1371SOL    HW1 5012   5.536   0.954   4.480
 1371SOL    HW2 5013   5.516   1.005   4.326
 1372SOL     OW 5014   6.501   2.620   0.252
 1372SOL    HW1 5015   6.578   2.620   0.316
 1372SOL    HW2 5016   6.503   2.535   0.199
 1373SOL     OW 5017   4.640   2.788   1.757
 1373SOL    HW1 5018   4.636   2.867   1.818
 1373SOL    HW2 5019   4.709   2.803   1.687
 1374SOL     OW 5020   5.085   3.899   0.233
 1374SOL    HW1 5021   5.067   3.801   0.228
 1374SOL    HW2 5022   5.142   3.919   0.312
 1375SOL     OW 5023   5.948   5.996   4.950
 1375SOL    HW1 5024   5.985   6.005   5.042
 1375SOL    HW2 5025   5.852   5.970   4.955
 1376SOL     OW 5026   2.576   4.929   6.388
 1376SOL    HW1 5027   2.637   4.953   6.464
 1376SOL    HW2 5028   2.487   4.901   6.424
 1377SOL     OW 5029   1.569   2.453   3.127
 1377SOL    HW1 5030   1.552   2.357   3.150
 1377SOL    HW2 5031   1.636   2.492   3.191
 1378SOL     OW 5032   3.877   2.126   4.494
 1378SOL    HW1 5033   3.926   2.147   4.409
 1378SOL    HW2 5034   3.801   2.064   4.473
 1379SOL     OW 5035   5.650   5.460   1.479
 1379SOL    HW1 5036   5.699   5.509   1.407
 1379SOL    HW2 5037   5.600   5.383   1.438
 1380SOL     OW 5038   6.880   5.761   1.664
 1380SOL    HW1 5039   6.919   5.710   1.588
 1380SOL    HW2 5040   6.935   5.746   1.746
 1381SOL     OW 5041   6.510   1.927   5.647
 1381SOL    HW1 5042   6.415   1.915   5.617
 1381SOL    HW2 5043   6.511   1.977   5.734
 1382SOL     OW 5044   4.158   2.473   1.400
 1382SOL    HW1 5045   4.175   2.571   1.405
 1382SOL    HW2 5046   4.228   2.425   1.454
 1383SOL     OW 5047   1.113   0.923   1.796
 1383SOL    HW1 5048   1.068   0.879   1.873
 1383SOL    HW2 5049   1.132   0.856   1.725
 1384SOL     OW 5050   5.482   0.216   0.373
 1384SOL    HW1 5051   5.577   0.217   0.404
 1384SOL    HW2 5052   5.435   0.298   0.406
 1385SOL     OW 5053   1.377   5.047   3.477
 1385SOL    HW1 5054   1.389   5.069   3.381
 1385SOL    HW2 5055   1.411   5.123   3.533
 1386SOL     OW 5056   2.633   6.213   4.452
 1386SOL    HW1 5057   2.602   6.308   4.450
 1386SOL    HW2 5058   2.711   6.203   4.390
 1387SOL     OW 5059   3.575   5.937   1.443
 1387SOL    HW1 5060   3.491   5.957   1.494
 1387SOL    HW2 5061   3.635   5.879   1.498
 1388SOL     OW 5062   6.284   0.480   1.346
 1388SOL    HW1 5063   6.341   0.561   1.329
 1388SOL    HW2 5064   6.328   0.423   1.415
 1389SOL     OW 5065   6.561   1.005   2.655
 1389SOL    HW1 5066   6.573   0.914   2.615
 1389SOL    HW2 5067   6.601   1.006   2.747
 1390SOL     OW 5068   0.809   3.010   6.243
 1390SOL    HW1 5069   0.785   2.927   6.294
 1390SOL    HW2 5070   0.733   3.075   6.247
 1391SOL     OW 5071   6.596   1.804   3.664
 1391SOL    HW1 5072   6.559   1.890   3.628
 1391SOL    HW2 5073   6.606   1.812   3.763
 1392SOL     OW 5074   5.391   4.786   5.601
 1392SOL    HW1 5075   5.440   4.699   5.604
 1392SOL    HW2 5076   5.294   4.770   5.623
 1393SOL     OW 5077   5.403   6.184   5.367
 1393SOL    HW1 5078   5.461   6.114   5.408
 1393SOL    HW2 5079   5.413   6.181   5.268
 1394SOL     OW 5080   2.983   6.053   5.451
 1394SOL    HW1 5081   2.895   6.035   5.405
 1394SOL    HW2 5082   3.058   6.034   5.387
 1395SOL     OW 5083   3.131   4.652   5.829
 1395SOL    HW1 5084   3.054   4.590   5.838
 1395SOL    HW2 5085   3.216   4.604   5.852
 1396SOL     OW 5086   0.189   0.537   4.009
 1396SOL    HW1 5087   0.092   0.546   4.034
 1396SOL    HW2 5088   0.244   0.534   4.093
 1397SOL     OW 5089   6.074   0.059   4.958
 1397SOL    HW1 5090   6.162   0.020   4.986
 1397SOL    HW2 5091   6.089   0.145   4.909
 1398SOL     OW 5092   1.503   1.060   5.109
 1398SOL    HW1 5093   1.432   1.106   5.162
 1398SOL    HW2 5094   1.586   1.116   5.110
 1399SOL     OW 5095   3.237   6.407   1.512
 1399SOL    HW1 5096   3.212   6.491   1.464
 1399SOL    HW2 5097   3.206   6.412   1.607
 1400SOL     OW 5098   6.591   1.628   2.740
 1400SOL    HW1 5099   6.575   1.548   2.798
 1400SOL    HW2 5100   6.565   1.711   2.790
 1401SOL     OW 5101   0.332   1.828   5.523
 1401SOL    HW1 5102   0.306   1.830   5.426
 1401SOL    HW2 5103   0.430   1.811   5.530
 1402SOL     OW 5104   6.705   3.400   6.669
 1402SOL    HW1 5105   6.703   3.300   6.678
 1402SOL    HW2 5106   6.758   3.425   6.588
 1403SOL     OW 5107   3.288   0.805   1.952
 1403SOL    HW1 5108   3.344   0.887   1.937
 1403SOL    HW2 5109   3.198   0.819   1.910
 1404SOL     OW 5110   5.370   0.376   0.654
 1404SOL    HW1 5111   5.382   0.286   0.697
 1404SOL    HW2 5112   5.446   0.435   0.678
 1405SOL     OW 5113   1.870   3.895   0.731
 1405SOL    HW1 5114   1.798   3.834   0.765
 1405SOL    HW2 5115   1.874   3.889   0.631
 1406SOL     OW 5116   1.304   4.936   1.659
 1406SOL    HW1 5117   1.281   4.940   1.756
 1406SOL    HW2 5118   1.254   4.860   1.616
 1407SOL     OW 5119   0.074   1.333   1.902
 1407SOL    HW1 5120   0.076   1.275   1.821
 1407SOL    HW2 5121   0.163   1.376   1.915
 1408SOL     OW 5122   5.442   0.393   6.260
 1408SOL    HW1 5123   5.357   0.387   6.208
 1408SOL    HW2 5124   5.518   0.416   6.198
 1409SOL     OW 5125   0.125   0.242   5.049
 1409SOL    HW1 5126   0.064   0.245   5.128
 1409SOL    HW2 5127   0.202   0.304   5.063
 1410SOL     OW 5128   1.635   3.255   6.461
 1410SOL    HW1 5129   1.650   3.352   6.480
 1410SOL    HW2 5130   1.543   3.230   6.490
 1411SOL     OW 5131   2.351   6.360   2.900
 1411SOL    HW1 5132   2.254   6.383   2.894
 1411SOL    HW2 5133   2.405   6.427   2.849
 1412SOL     OW 5134   1.177   3.016   0.492
 1412SOL    HW1 5135   1.212   2.979   0.578
 1412SOL    HW2 5136   1.249   3.068   0.445
 1413SOL     OW 5137   2.120   0.670   5.123
 1413SOL    HW1 5138   2.220   0.677   5.124
 1413SOL    HW2 5139   2.091   0.609   5.049
 1414SOL     OW 5140   2.963   1.473   1.798
 1414SOL    HW1 5141   2.930   1.453   1.890
 1414SOL    HW2 5142   3.026   1.401   1.768
 1415SOL     OW 5143   2.200   6.976   4.222
 1415SOL    HW1 5144   2.297   6.957   4.239
 1415SOL    HW2 5145   2.145   6.905   4.266
 1416SOL     OW 5146   4.862   4.426   3.020
 1416SOL    HW1 5147   4.892   4.339   2.979
 1416SOL    HW2 5148   4.776   4.412   3.068
 1417SOL     OW 5149   2.472   2.356   6.601
 1417SOL    HW1 5150   2.498   2.352   6.697
 1417SOL    HW2 5151   2.373   2.347   6.594
 1418SOL     OW 5152   2.914   3.556   3.418
 1418SOL    HW1 5153   2.897   3.525   3.325
 1418SOL    HW2 5154   2.941   3.478   3.475
 1419SOL     OW 5155   3.180   6.531   4.330
 1419SOL    HW1 5156   3.254   6.479   4.287
 1419SOL    HW2 5157   3.218   6.585   4.405
 1420SOL     OW 5158   1.471   6.521   1.892
 1420SOL    HW1 5159   1.379   6.558   1.881
 1420SOL    HW2 5160   1.476   6.470   1.978
 1421SOL     OW 5161   1.629   2.950   3.005
 1421SOL    HW1 5162   1.532   2.946   3.025
 1421SOL    HW2 5163   1.650   3.037   2.959
 1422SOL     OW 5164   2.506   4.544   1.990
 1422SOL    HW1 5165   2.466   4.454   2.006
 1422SOL    HW2 5166   2.598   4.534   1.953
 1423SOL     OW 5167   5.739   6.373   2.190
 1423SOL    HW1 5168   5.683   6.395   2.269
 1423SOL    HW2 5169   5.742   6.451   2.128
 1424SOL     OW 5170   5.633   4.744   4.292
 1424SOL    HW1 5171   5.618   4.839   4.323
 1424SOL    HW2 5172   5.619   4.682   4.369
 1425SOL     OW 5173   1.365   6.187   4.101
 1425SOL    HW1 5174   1.394   6.120   4.033
 1425SOL    HW2 5175   1.338   6.272   4.056
 1426SOL     OW 5176   1.171   2.736   5.596
 1426SOL    HW1 5177   1.200   2.827   5.626
 1426SOL    HW2 5178   1.072   2.736   5.581
 1427SOL     OW 5179   0.089   6.820   3.043
 1427SOL    HW1 5180   0.064   6.901   2.990
 1427SOL    HW2 5181   0.168   6.775   3.000
 1428SOL     OW 5182   5.548   2.590   0.930
 1428SOL    HW1 5183   5.486   2.511   0.925
 1428SOL    HW2 5184   5.642   2.559   0.918
 1429SOL     OW 5185   6.245   2.201   0.346
 1429SOL    HW1 5186   6.294   2.122   0.309
 1429SOL    HW2 5187   6.243   2.274   0.278
 1430SOL     OW 5188   1.335   3.956   4.244
 1430SOL    HW1 5189   1.376   4.041   4.276
 1430SOL    HW2 5190   1.397   3.880   4.264
 1431SOL     OW 5191   2.345   2.035   1.705
 1431SOL    HW1 5192   2.356   2.101   1.630
 1431SOL    HW2 5193   2.289   1.958   1.673
 1432SOL     OW 5194   2.482   1.661   3.954
 1432SOL    HW1 5195   2.517   1.730   4.017
 1432SOL    HW2 5196   2.399   1.695   3.910
 1433SOL     OW 5197   4.239   1.557   4.577
 1433SOL    HW1 5198   4.281   1.473   4.542
 1433SOL    HW2 5199   4.149   1.568   4.536
 1434SOL     OW 5200   0.058   1.013   5.531
 1434SOL    HW1 5201   0.072   0.926   5.579
 1434SOL    HW2 5202   0.064   1.088   5.596
 1435SOL     OW 5203   6.111   1.143   2.220
 1435SOL    HW1 5204   6.034   1.081   2.235
 1435SOL    HW2 5205   6.195   1.090   2.211
 1436SOL     OW 5206   5.000   3.951   6.697
 1436SOL    HW1 5207   5.085   3.929   6.648
 1436SOL    HW2 5208   5.014   3.942   6.795
 1437SOL     OW 5209   2.528   2.169   4.063
 1437SOL    HW1 5210   2.463   2.244   4.056
 1437SOL    HW2 5211   2.521   2.128   4.154
 1438SOL     OW 5212   3.445   6.325   1.350
 1438SOL    HW1 5213   3.493   6.285   1.428
 1438SOL    HW2 5214   3.367   6.379   1.381
 1439SOL     OW 5215   6.872   6.271   1.989
 1439SOL    HW1 5216   6.794   6.275   1.926
 1439SOL    HW2 5217   6.861   6.194   2.051
 1440SOL     OW 5218   3.487   4.026   1.557
 1440SOL    HW1 5219   3.450   3.957   1.619
 1440SOL    HW2 5220   3.463   4.003   1.463
 1441SOL     OW 5221   6.467   0.912   1.979
 1441SOL    HW1 5222   6.547   0.972   1.980
 1441SOL    HW2 5223   6.490   0.826   1.932
 1442SOL     OW 5224   6.384   6.422   6.956
 1442SOL    HW1 5225   6.424   6.396   6.868
 1442SOL    HW2 5226   6.404   6.518   6.976
 1443SOL     OW 5227   0.641   2.762   2.582
 1443SOL    HW1 5228   0.637   2.786   2.485
 1443SOL    HW2 5229   0.555   2.786   2.626
 1444SOL     OW 5230   5.167   7.019   0.900
 1444SOL    HW1 5231   5.133   0.008   0.806
 1444SOL    HW2 5232   5.168   0.090   0.943
 1445SOL     OW 5233   0.722   3.421   2.832
 1445SOL    HW1 5234   0.696   3.370   2.750
 1445SOL    HW2 5235   0.697   3.368   2.913
 1446SOL     OW 5236   6.752   0.488   6.926
 1446SOL    HW1 5237   6.725   0.416   6.990
 1446SOL    HW2 5238   6.741   0.578   6.970
 1447SOL     OW 5239   5.538   5.011   2.889
 1447SOL    HW1 5240   5.546   5.005   2.988
 1447SOL    HW2 5241   5.545   5.107   2.861
 1448SOL     OW 5242   6.858   2.945   4.498
 1448SOL    HW1 5243   6.819   2.853   4.500
 1448SOL    HW2 5244   6.908   2.963   4.583
 1449SOL     OW 5245   1.695   3.953   5.416
 1449SOL    HW1 5246   1.692   4.043   5.459
 1449SOL    HW2 5247   1.787   3.935   5.382
 1450SOL     OW 5248   0.832   2.658   6.120
 1450SOL    HW1 5249   0.788   2.674   6.208
 1450SOL    HW2 5250   0.901   2.729   6.104
 1451SOL     OW 5251   0.988   6.220   1.935
 1451SOL    HW1 5252   1.008   6.124   1.954
 1451SOL    HW2 5253   0.987   6.272   2.021
 1452SOL     OW 5254   4.520   2.299   5.649
 1452SOL    HW1 5255   4.436   2.336   5.688
 1452SOL    HW2 5256   4.500   2.254   5.563
 1453SOL     OW 5257   0.768   4.638   5.361
 1453SOL    HW1 5258   0.682   4.600   5.325
 1453SOL    HW2 5259   0.835   4.565   5.372
 1454SOL     OW 5260   2.394   2.000   3.222
 1454SOL    HW1 5261   2.414   2.090   3.185
 1454SOL    HW2 5262   2.450   1.931   3.176
 1455SOL     OW 5263   1.637   6.314   2.715
 1455SOL    HW1 5264   1.570   6.245   2.744
 1455SOL    HW2 5265   1.636   6.321   2.615
 1456SOL     OW 5266   6.750   6.322   6.570
 1456SOL    HW1 5267   6.783   6.229   6.584
 1456SOL    HW2 5268   6.756   6.344   6.472
 1457SOL     OW 5269   0.287   4.213   0.926
 1457SOL    HW1 5270   0.267   4.222   0.829
 1457SOL    HW2 5271   0.271   4.118   0.955
 1458SOL     OW 5272   5.769   4.583   5.684
 1458SOL    HW1 5273   5.721   4.666   5.710
 1458SOL    HW2 5274   5.833   4.557   5.757
 1459SOL     OW 5275   4.159   6.710   5.955
 1459SOL    HW1 5276   4.117   6.619   5.962
 1459SOL    HW2 5277   4.247   6.710   6.003
 1460SOL     OW 5278   1.505   6.443   4.981
 1460SOL    HW1 5279   1.582   6.480   5.033
 1460SOL    HW2 5280   1.431   6.511   4.980
 1461SOL     OW 5281   0.634   3.444   3.315
 1461SOL    HW1 5282   0.671   3.529   3.277
 1461SOL    HW2 5283   0.616   3.457   3.413
 1462SOL     OW 5284   0.587   0.754   6.705
 1462SOL    HW1 5285   0.663   0.722   6.649
 1462SOL    HW2 5286   0.618   0.768   6.799
 1463SOL     OW 5287   1.206   5.247   6.125
 1463SOL    HW1 5288   1.262   5.326   6.100
 1463SOL    HW2 5289   1.196   5.244   6.225
 1464SOL     OW 5290   6.570   4.011   3.270
 1464SOL    HW1 5291   6.554   3.970   3.180
 1464SOL    HW2 5292   6.515   3.965   3.338
 1465SOL     OW 5293   1.633   1.745   3.719
 1465SOL    HW1 5294   1.723   1.708   3.743
 1465SOL    HW2 5295   1.636   1.782   3.626
 1466SOL     OW 5296   3.721   2.524   1.666
 1466SOL    HW1 5297   3.785   2.479   1.604
 1466SOL    HW2 5298   3.688   2.458   1.733
 1467SOL     OW 5299   1.755   1.185   4.184
 1467SOL    HW1 5300   1.661   1.220   4.194
 1467SOL    HW2 5301   1.803   1.194   4.272
 1468SOL     OW 5302   1.930   5.101   1.595
 1468SOL    HW1 5303   1.901   5.102   1.499
 1468SOL    HW2 5304   1.969   5.191   1.618
 1469SOL     OW 5305   6.863   6.225   3.174
 1469SOL    HW1 5306   6.889   6.142   3.125
 1469SOL    HW2 5307   6.945   6.281   3.190
 1470SOL     OW 5308   0.005   3.167   1.106
 1470SOL    HW1 5309   6.930   3.196   1.121
 1470SOL    HW2 5310   0.066   3.222   1.161
 1471SOL     OW 5311   0.413   0.333   0.638
 1471SOL    HW1 5312   0.510   0.355   0.646
 1471SOL    HW2 5313   0.372   0.384   0.563
 1472SOL     OW 5314   2.528   6.401   6.745
 1472SOL    HW1 5315   2.470   6.442   6.675
 1472SOL    HW2 5316   2.477   6.394   6.831
 1473SOL     OW 5317   3.354   5.223   4.744
 1473SOL    HW1 5318   3.331   5.233   4.841
 1473SOL    HW2 5319   3.302   5.289   4.690
 1474SOL     OW 5320   3.858   5.250   1.753
 1474SOL    HW1 5321   3.930   5.266   1.687
 1474SOL    HW2 5322   3.865   5.317   1.827
 1475SOL     OW 5323   5.132   1.735   0.398
 1475SOL    HW1 5324   5.124   1.636   0.407
 1475SOL    HW2 5325   5.171   1.757   0.308
 1476SOL     OW 5326   3.027   1.222   1.413
 1476SOL    HW1 5327   3.067   1.293   1.471
 1476SOL    HW2 5328   3.014   1.256   1.320
 1477SOL     OW 5329   4.364   0.043   0.336
 1477SOL    HW1 5330   4.329   6.973   0.309
 1477SOL    HW2 5331   4.370   0.047   0.436
 1478SOL     OW 5332   5.793   6.471   5.543
 1478SOL    HW1 5333   5.749   6.553   5.579
 1478SOL    HW2 5334   5.867   6.497   5.481
 1479SOL     OW 5335   3.603   3.891   2.475
 1479SOL    HW1 5336   3.584   3.866   2.570
 1479SOL    HW2 5337   3.527   3.944   2.438
 1480SOL     OW 5338   2.244   0.277   6.181
 1480SOL    HW1 5339   2.156   0.318   6.202
 1480SOL    HW2 5340   2.229   0.188   6.138
 1481SOL     OW 5341   5.671   2.356   5.508
 1481SOL    HW1 5342   5.578   2.332   5.533
 1481SOL    HW2 5343   5.716   2.277   5.467
 1482SOL     OW 5344   4.217   0.393   0.869
 1482SOL    HW1 5345   4.263   0.459   0.928
 1482SOL    HW2 5346   4.153   0.338   0.923
 1483SOL     OW 5347   4.931   1.839   5.570
 1483SOL    HW1 5348   4.978   1.920   5.533
 1483SOL    HW2 5349   4.838   1.837   5.535
 1484SOL     OW 5350   3.235   4.889   4.277
 1484SOL    HW1 5351   3.279   4.807   4.312
 1484SOL    HW2 5352   3.207   4.948   4.353
 1485SOL     OW 5353   5.119   1.122   3.548
 1485SOL    HW1 5354   5.145   1.168   3.463
 1485SOL    HW2 5355   5.071   1.037   3.526
 1486SOL     OW 5356   4.627   6.539   3.557
 1486SOL    HW1 5357   4.692   6.554   3.483
 1486SOL    HW2 5358   4.618   6.623   3.611
 1487SOL     OW 5359   0.142   0.769   0.274
 1487SOL    HW1 5360   0.238   0.785   0.251
 1487SOL    HW2 5361   0.109   0.842   0.334
 1488SOL     OW 5362   6.174   0.561   2.362
 1488SOL    HW1 5363   6.139   0.518   2.445
 1488SOL    HW2 5364   6.099   0.602   2.311
 1489SOL     OW 5365   3.628   4.596   6.780
 1489SOL    HW1 5366   3.626   4.675   6.718
 1489SOL    HW2 5367   3.699   4.532   6.751
 1490SOL     OW 5368   0.363   2.687   1.859
 1490SOL    HW1 5369   0.436   2.625   1.831
 1490SOL    HW2 5370   0.275   2.643   1.846
 1491SOL     OW 5371   6.514   3.727   2.110
 1491SOL    HW1 5372   6.447   3.697   2.177
 1491SOL    HW2 5373   6.532   3.825   2.123
 1492SOL     OW 5374   6.571   0.332   2.483
 1492SOL    HW1 5375   6.650   0.371   2.436
 1492SOL    HW2 5376   6.523   0.270   2.421
 1493SOL     OW 5377   4.454   1.064   5.997
 1493SOL    HW1 5378   4.428   1.137   5.934
 1493SOL    HW2 5379   4.479   1.104   6.085
 1494SOL     OW 5380   5.611   2.335   6.601
 1494SOL    HW1 5381   5.686   2.269   6.602
 1494SOL    HW2 5382   5.646   2.426   6.581
 1495SOL     OW 5383   6.238   3.538   3.611
 1495SOL    HW1 5384   6.225   3.629   3.571
 1495SOL    HW2 5385   6.273   3.476   3.541
 1496SOL     OW 5386   6.761   0.031   0.027
 1496SOL    HW1 5387   6.792   6.958   0.046
 1496SOL    HW2 5388   6.798   0.062   6.959
 1497SOL     OW 5389   5.162   2.499   2.531
 1497SOL    HW1 5390   5.137   2.404   2.516
 1497SOL    HW2 5391   5.221   2.506   2.611
 1498SOL     OW 5392   2.821   4.501   1.227
 1498SOL    HW1 5393   2.808   4.599   1.217
 1498SOL    HW2 5394   2.740   4.461   1.270
 1499SOL     OW 5395   0.610   3.768   5.630
 1499SOL    HW1 5396   0.551   3.718   5.567
 1499SOL    HW2 5397   0.556   3.800   5.708
 1500SOL     OW 5398   0.882   5.841   6.999
 1500SOL    HW1 5399   0.856   5.928   6.956
 1500SOL    HW2 5400   0.956   5.798   6.946
 1501SOL     OW 5401   6.299   1.691   6.642
 1501SOL    HW1 5402   6.366   1.661   6.574
 1501SOL    HW2 5403   6.341   1.689   6.733
 1502SOL     OW 5404   6.437   1.389   6.034
 1502SOL    HW1 5405   6.496   1.364   6.111
 1502SOL    HW2 5406   6.491   1.441   5.967
 1503SOL     OW 5407   0.771   3.026   2.539
 1503SOL    HW1 5408   0.734   2.950   2.592
 1503SOL    HW2 5409   0.864   3.005   2.510
 1504SOL     OW 5410   0.550   0.255   3.792
 1504SOL    HW1 5411   0.546   0.177   3.729
 1504SOL    HW2 5412   0.462   0.267   3.837
 1505SOL     OW 5413   5.970   6.178   5.855
 1505SOL    HW1 5414   5.941   6.083   5.857
 1505SOL    HW2 5415   6.070   6.182   5.861
 1506SOL     OW 5416   1.288   0.485   1.097
 1506SOL    HW1 5417   1.364   0.421   1.093
 1506SOL    HW2 5418   1.250   0.499   1.005
 1507SOL     OW 5419   1.377   1.807   4.573
 1507SOL    HW1 5420   1.426   1.780   4.656
 1507SOL    HW2 5421   1.373   1.729   4.510
 1508SOL     OW 5422   0.810   1.509   0.695
 1508SOL    HW1 5423   0.867   1.492   0.776
 1508SOL    HW2 5424   0.868   1.533   0.617
 1509SOL     OW 5425   5.213   1.149   4.994
 1509SOL    HW1 5426   5.288   1.150   4.928
 1509SOL    HW2 5427   5.216   1.233   5.050
 1510SOL     OW 5428   4.136   6.812   3.825
 1510SOL    HW1 5429   4.207   6.747   3.853
 1510SOL    HW2 5430   4.050   6.788   3.870
 1511SOL     OW 5431   3.089   3.830   4.327
 1511SOL    HW1 5432   2.997   3.811   4.361
 1511SOL    HW2 5433   3.129   3.904   4.381
 1512SOL     OW 5434   5.883   5.938   1.168
 1512SOL    HW1 5435   5.887   5.846   1.207
 1512SOL    HW2 5436   5.878   6.006   1.241
 1513SOL     OW 5437   3.459   6.965   5.541
 1513SOL    HW1 5438   3.414   0.035   5.550
 1513SOL    HW2 5439   3.392   6.897   5.512
 1514SOL     OW 5440   3.202   2.347   5.594
 1514SOL    HW1 5441   3.139   2.425   5.590
 1514SOL    HW2 5442   3.250   2.348   5.682
 1515SOL     OW 5443   6.488   1.945   2.663
 1515SOL    HW1 5444   6.569   1.982   2.617
 1515SOL    HW2 5445   6.417   1.927   2.596
 1516SOL     OW 5446   5.710   5.525   4.979
 1516SOL    HW1 5447   5.737   5.583   5.055
 1516SOL    HW2 5448   5.710   5.578   4.894
 1517SOL     OW 5449   3.677   6.552   3.456
 1517SOL    HW1 5450   3.730   6.634   3.479
 1517SOL    HW2 5451   3.701   6.477   3.517
 1518SOL     OW 5452   6.211   2.920   0.209
 1518SOL    HW1 5453   6.291   2.905   0.267
 1518SOL    HW2 5454   6.155   2.993   0.249
 1519SOL     OW 5455   0.136   5.157   0.778
 1519SOL    HW1 5456   0.109   5.204   0.694
 1519SOL    HW2 5457   0.190   5.076   0.755
 1520SOL     OW 5458   0.864   4.784   1.517
 1520SOL    HW1 5459   0.887   4.838   1.436
 1520SOL    HW2 5460   0.766   4.792   1.536
 1521SOL     OW 5461   2.602   4.601   0.084
 1521SOL    HW1 5462   2.531   4.530   0.082
 1521SOL    HW2 5463   2.644   4.602   0.175
 1522SOL     OW 5464   5.164   5.685   5.004
 1522SOL    HW1 5465   5.235   5.652   5.066
 1522SOL    HW2 5466   5.127   5.608   4.952
 1523SOL     OW 5467   3.655   0.010   6.587
 1523SOL    HW1 5468   3.620   6.944   6.625
 1523SOL    HW2 5469   3.735   0.039   6.640
 1524SOL     OW 5470   2.585   2.500   2.866
 1524SOL    HW1 5471   2.643   2.423   2.891
 1524SOL    HW2 5472   2.596   2.573   2.933
 1525SOL     OW 5473   5.878   2.939   1.011
 1525SOL    HW1 5474   5.843   2.950   1.104
 1525SOL    HW2 5475   5.970   2.976   1.005
 1526SOL     OW 5476   0.487   1.618   0.238
 1526SOL    HW1 5477   0.567   1.589   0.185
 1526SOL    HW2 5478   0.492   1.716   0.253
 1527SOL     OW 5479   3.799   1.179   4.796
 1527SOL    HW1 5480   3.831   1.103   4.740
 1527SOL    HW2 5481   3.877   1.220   4.844
 1528SOL     OW 5482   4.419   4.751   1.027
 1528SOL    HW1 5483   4.458   4.762   0.936
 1528SOL    HW2 5484   4.484   4.785   1.096
 1529SOL     OW 5485   5.365   1.396   0.040
 1529SOL    HW1 5486   5.290   1.408   6.995
 1529SOL    HW2 5487   5.346   1.318   0.099
 1530SOL     OW 5488   3.569   0.422   1.838
 1530SOL    HW1 5489   3.537   0.391   1.748
 1530SOL    HW2 5490   3.631   0.499   1.827
 1531SOL     OW 5491   4.192   0.233   4.261
 1531SOL    HW1 5492   4.242   0.286   4.193
 1531SOL    HW2 5493   4.257   0.180   4.316
 1532SOL     OW 5494   3.463   4.872   6.021
 1532SOL    HW1 5495   3.425   4.902   5.934
 1532SOL    HW2 5496   3.414   4.791   6.053
 1533SOL     OW 5497   6.033   5.711   0.759
 1533SOL    HW1 5498   5.937   5.706   0.731
 1533SOL    HW2 5499   6.049   5.795   0.810
 1534SOL     OW 5500   3.807   5.762   0.234
 1534SOL    HW1 5501   3.865   5.737   0.311
 1534SOL    HW2 5502   3.716   5.720   0.246
 1535SOL     OW 5503   5.775   6.360   4.457
 1535SOL    HW1 5504   5.680   6.384   4.435
 1535SOL    HW2 5505   5.810   6.298   4.386
 1536SOL     OW 5506   4.199   4.592   0.391
 1536SOL    HW1 5507   4.155   4.512   0.432
 1536SOL    HW2 5508   4.135   4.635   0.326
 1537SOL     OW 5509   3.569   5.661   3.588
 1537SOL    HW1 5510   3.598   5.651   3.683
 1537SOL    HW2 5511   3.470   5.651   3.582
 1538SOL     OW 5512   3.511   1.138   6.964
 1538SOL    HW1 5513   3.489   1.204   0.017
 1538SOL    HW2 5514   3.552   1.057   7.005
 1539SOL     OW 5515   4.841   3.268   1.896
 1539SOL    HW1 5516   4.787   3.186   1.914
 1539SOL    HW2 5517   4.934   3.256   1.930
 1540SOL     OW 5518   1.543   6.811   5.329
 1540SOL    HW1 5519   1.549   6.905   5.361
 1540SOL    HW2 5520   1.634   6.779   5.301
 1541SOL     OW 5521   3.745   3.417   4.511
 1541SOL    HW1 5522   3.804   3.360   4.568
 1541SOL    HW2 5523   3.730   3.372   4.423
 1542SOL     OW 5524   6.640   6.615   2.145
 1542SOL    HW1 5525   6.654   6.677   2.068
 1542SOL    HW2 5526   6.551   6.569   2.136
 1543SOL     OW 5527   3.574   5.636   6.513
 1543SOL    HW1 5528   3.577   5.724   6.561
 1543SOL    HW2 5529   3.592   5.651   6.415
 1544SOL     OW 5530   3.595   3.802   4.012
 1544SOL    HW1 5531   3.628   3.708   4.015
 1544SOL    HW2 5532   3.669   3.864   4.042
 1545SOL     OW 5533   6.316   0.660   1.887
 1545SOL    HW1 5534   6.271   0.592   1.829
 1545SOL    HW2 5535   6.278   0.750   1.868
 1546SOL     OW 5536   4.849   6.137   6.284
 1546SOL    HW1 5537   4.851   6.143   6.184
 1546SOL    HW2 5538   4.844   6.041   6.311
 1547SOL     OW 5539   1.554   4.194   0.763
 1547SOL    HW1 5540   1.555   4.219   0.666
 1547SOL    HW2 5541   1.545   4.276   0.819
 1548SOL     OW 5542   6.454   3.769   0.227
 1548SOL    HW1 5543   6.522   3.702   0.198
 1548SOL    HW2 5544   6.392   3.728   0.293
 1549SOL     OW 5545   4.253   1.333   3.951
 1549SOL    HW1 5546   4.235   1.413   3.894
 1549SOL    HW2 5547   4.294   1.363   4.037
 1550SOL     OW 5548   3.387   2.806   2.075
 1550SOL    HW1 5549   3.311   2.817   2.010
 1550SOL    HW2 5550   3.354   2.762   2.158
 1551SOL     OW 5551   1.194   5.255   6.799
 1551SOL    HW1 5552   1.199   5.352   6.773
 1551SOL    HW2 5553   1.131   5.208   6.738
 1552SOL     OW 5554   2.659   4.475   0.895
 1552SOL    HW1 5555   2.624   4.512   0.981
 1552SOL    HW2 5556   2.759   4.477   0.896
 1553SOL     OW 5557   0.046   1.127   6.086
 1553SOL    HW1 5558   0.101   1.196   6.132
 1553SOL    HW2 5559   6.975   1.165   6.067
 1554SOL     OW 5560   3.117   2.104   3.803
 1554SOL    HW1 5561   3.123   2.098   3.903
 1554SOL    HW2 5562   3.063   2.028   3.768
 1555SOL     OW 5563   5.724   2.961   6.462
 1555SOL    HW1 5564   5.675   2.928   6.381
 1555SOL    HW2 5565   5.678   2.927   6.544
 1556SOL     OW 5566   1.875   0.792   5.876
 1556SOL    HW1 5567   1.831   0.863   5.821
 1556SOL    HW2 5568   1.806   0.726   5.905
 1557SOL     OW 5569   1.694   3.986   6.139
 1557SOL    HW1 5570   1.709   4.071   6.089
 1557SOL    HW2 5571   1.596   3.966   6.143
 1558SOL     OW 5572   5.938   0.360   4.540
 1558SOL    HW1 5573   5.937   0.266   4.506
 1558SOL    HW2 5574   6.023   0.405   4.511
 1559SOL     OW 5575   1.018   2.986   6.621
 1559SOL    HW1 5576   1.043   2.949   6.532
 1559SOL    HW2 5577   1.034   2.917   6.692
 1560SOL     OW 5578   0.296   1.267   7.014
 1560SOL    HW1 5579   0.307   1.294   0.091
 1560SOL    HW2 5580   0.250   1.340   6.964
 1561SOL     OW 5581   4.587   6.392   3.217
 1561SOL    HW1 5582   4.631   6.338   3.289
 1561SOL    HW2 5583   4.490   6.366   3.211
 1562SOL     OW 5584   4.734   6.302   2.082
 1562SOL    HW1 5585   4.699   6.311   1.989
 1562SOL    HW2 5586   4.833   6.320   2.082
 1563SOL     OW 5587   3.411   0.955   6.035
 1563SOL    HW1 5588   3.503   0.994   6.036
 1563SOL    HW2 5589   3.389   0.919   6.126
 1564SOL     OW 5590   1.536   0.540   2.855
 1564SOL    HW1 5591   1.552   0.565   2.759
 1564SOL    HW2 5592   1.496   0.448   2.858
 1565SOL     OW 5593   4.744   4.097   2.488
 1565SOL    HW1 5594   4.725   4.193   2.469
 1565SOL    HW2 5595   4.672   4.040   2.447
 1566SOL     OW 5596   5.601   3.494   3.550
 1566SOL    HW1 5597   5.568   3.572   3.497
 1566SOL    HW2 5598   5.651   3.527   3.630
 1567SOL     OW 5599   5.901   6.349   6.921
 1567SOL    HW1 5600   5.863   6.440   6.942
 1567SOL    HW2 5601   5.991   6.340   6.963
 1568SOL     OW 5602   2.012   0.457   0.544
 1568SOL    HW1 5603   1.919   0.468   0.580
 1568SOL    HW2 5604   2.008   0.422   0.451
 1569SOL     OW 5605   4.433   6.071   3.689
 1569SOL    HW1 5606   4.445   6.169   3.705
 1569SOL    HW2 5607   4.378   6.032   3.763
 1570SOL     OW 5608   2.627   1.178   1.688
 1570SOL    HW1 5609   2.622   1.266   1.642
 1570SOL    HW2 5610   2.691   1.118   1.640
 1571SOL     OW 5611   6.403   3.093   1.244
 1571SOL    HW1 5612   6.472   3.126   1.308
 1571SOL    HW2 5613   6.443   3.022   1.186
 1572SOL     OW 5614   6.996   0.500   2.777
 1572SOL    HW1 5615   7.005   0.492   2.876
 1572SOL    HW2 5616   6.944   0.422   2.742
 1573SOL     OW 5617   5.034   6.924   1.696
 1573SOL    HW1 5618   5.131   6.898   1.702
 1573SOL    HW2 5619   5.017   6.966   1.607
 1574SOL     OW 5620   0.479   2.142   1.322
 1574SOL    HW1 5621   0.413   2.078   1.362
 1574SOL    HW2 5622   0.561   2.092   1.294
 1575SOL     OW 5623   2.944   2.156   0.301
 1575SOL    HW1 5624   2.850   2.159   0.336
 1575SOL    HW2 5625   2.999   2.225   0.347
 1576SOL     OW 5626   5.213   5.910   3.864
 1576SOL    HW1 5627   5.249   5.817   3.864
 1576SOL    HW2 5628   5.174   5.930   3.774
 1577SOL     OW 5629   2.369   1.645   5.657
 1577SOL    HW1 5630   2.458   1.598   5.654
 1577SOL    HW2 5631   2.298   1.579   5.683
 1578SOL     OW 5632   5.660   3.447   4.940
 1578SOL    HW1 5633   5.591   3.518   4.949
 1578SOL    HW2 5634   5.617   3.363   4.907
 1579SOL     OW 5635   0.099   1.347   3.435
 1579SOL    HW1 5636   0.021   1.291   3.460
 1579SOL    HW2 5637   0.130   1.400   3.515
 1580SOL     OW 5638   2.819   4.148   5.311
 1580SOL    HW1 5639   2.850   4.119   5.402
 1580SOL    HW2 5640   2.764   4.075   5.270
 1581SOL     OW 5641   6.044   4.299   4.195
 1581SOL    HW1 5642   6.063   4.386   4.150
 1581SOL    HW2 5643   5.989   4.315   4.277
 1582SOL     OW 5644   0.843   4.777   4.467
 1582SOL    HW1 5645   0.853   4.778   4.367
 1582SOL    HW2 5646   0.869   4.687   4.502
 1583SOL     OW 5647   2.148   3.205   3.467
 1583SOL    HW1 5648   2.083   3.172   3.398
 1583SOL    HW2 5649   2.180   3.128   3.522
 1584SOL     OW 5650   2.357   6.518   5.126
 1584SOL    HW1 5651   2.262   6.545   5.142
 1584SOL    HW2 5652   2.360   6.445   5.057
 1585SOL     OW 5653   5.519   2.469   3.176
 1585SOL    HW1 5654   5.432   2.428   3.206
 1585SOL    HW2 5655   5.510   2.569   3.175
 1586SOL     OW 5656   3.965   3.952   2.199
 1586SOL    HW1 5657   4.053   4.000   2.200
 1586SOL    HW2 5658   3.919   3.969   2.112
 1587SOL     OW 5659   2.672   5.859   6.733
 1587SOL    HW1 5660   2.751   5.803   6.709
 1587SOL    HW2 5661   2.588   5.806   6.721
 1588SOL     OW 5662   4.870   1.476   3.084
 1588SOL    HW1 5663   4.923   1.392   3.084
 1588SOL    HW2 5664   4.779   1.459   3.045
 1589SOL     OW 5665   5.423   4.194   3.421
 1589SOL    HW1 5666   5.496   4.210   3.487
 1589SOL    HW2 5667   5.386   4.282   3.390
 1590SOL     OW 5668   1.738   6.595   6.789
 1590SOL    HW1 5669   1.780   6.680   6.756
 1590SOL    HW2 5670   1.801   6.549   6.851
 1591SOL     OW 5671   1.365   4.812   2.348
 1591SOL    HW1 5672   1.341   4.718   2.374
 1591SOL    HW2 5673   1.462   4.828   2.368
 1592SOL     OW 5674   3.372   3.074   1.761
 1592SOL    HW1 5675   3.294   3.069   1.824
 1592SOL    HW2 5676   3.406   2.982   1.743
 1593SOL     OW 5677   0.907   6.265   4.957
 1593SOL    HW1 5678   0.833   6.200   4.939
 1593SOL    HW2 5679   0.978   6.256   4.887
 1594SOL     OW 5680   6.981   5.463   3.125
 1594SOL    HW1 5681   6.951   5.450   3.030
 1594SOL    HW2 5682   7.001   5.373   3.165
 1595SOL     OW 5683   0.258   4.788   6.855
 1595SOL    HW1 5684   0.213   4.876   6.837
 1595SOL    HW2 5685   0.192   4.714   6.840
 1596SOL     OW 5686   1.762   4.501   5.395
 1596SOL    HW1 5687   1.737   4.453   5.310
 1596SOL    HW2 5688   1.861   4.501   5.405
 1597SOL     OW 5689   2.110   6.362   1.555
 1597SOL    HW1 5690   2.178   6.417   1.507
 1597SOL    HW2 5691   2.044   6.423   1.599
 1598SOL     OW 5692   0.822   4.356   0.412
 1598SOL    HW1 5693   0.834   4.265   0.452
 1598SOL    HW2 5694   0.734   4.394   0.442
 1599SOL     OW 5695   4.003   4.224   6.675
 1599SOL    HW1 5696   3.958   4.172   6.602
 1599SOL    HW2 5697   3.998   4.174   6.761
 1600SOL     OW 5698   5.313   1.500   5.105
 1600SOL    HW1 5699   5.310   1.495   5.005
 1600SOL    HW2 5700   5.246   1.436   5.143
 1601SOL     OW 5701   2.008   4.450   4.461
 1601SOL    HW1 5702   1.976   4.366   4.417
 1601SOL    HW2 5703   2.016   4.435   4.560
 1602SOL     OW 5704   1.067   6.039   3.031
 1602SOL    HW1 5705   1.136   5.969   3.012
 1602SOL    HW2 5706   1.049   6.091   2.947
 1603SOL     OW 5707   1.163   6.582   2.100
 1603SOL    HW1 5708   1.164   6.554   2.004
 1603SOL    HW2 5709   1.069   6.605   2.127
 1604SOL     OW 5710   6.266   5.410   6.595
 1604SOL    HW1 5711   6.296   5.370   6.682
 1604SOL    HW2 5712   6.227   5.501   6.612
 1605SOL     OW 5713   6.364   0.457   2.649
 1605SOL    HW1 5714   6.445   0.406   2.620
 1605SOL    HW2 5715   6.387   0.554   2.655
 1606SOL     OW 5716   4.695   6.715   5.676
 1606SOL    HW1 5717   4.645   6.759   5.602
 1606SOL    HW2 5718   4.791   6.745   5.674
 1607SOL     OW 5719   4.103   2.443   0.742
 1607SOL    HW1 5720   4.014   2.399   0.730
 1607SOL    HW2 5721   4.175   2.373   0.745
 1608SOL     OW 5722   1.933   6.826   6.748
 1608SOL    HW1 5723   2.009   6.819   6.684
 1608SOL    HW2 5724   1.963   6.876   6.830
 1609SOL     OW 5725   6.240   2.401   6.227
 1609SOL    HW1 5726   6.298   2.375   6.151
 1609SOL    HW2 5727   6.252   2.337   6.303
 1610SOL     OW 5728   5.336   4.853   4.885
 1610SOL    HW1 5729   5.413   4.815   4.936
 1610SOL    HW2 5730   5.262   4.874   4.949
 1611SOL     OW 5731   3.766   2.938   2.330
 1611SOL    HW1 5732   3.830   2.908   2.260
 1611SOL    HW2 5733   3.675   2.949   2.289
 1612SOL     OW 5734   2.149   1.988   5.427
 1612SOL    HW1 5735   2.199   2.044   5.494
 1612SOL    HW2 5736   2.189   1.896   5.424
 1613SOL     OW 5737   1.738   5.923   0.717
 1613SOL    HW1 5738   1.698   5.840   0.680
 1613SOL    HW2 5739   1.822   5.900   0.766
 1614SOL     OW 5740   6.250   2.828   6.965
 1614SOL    HW1 5741   6.222   2.886   6.888
 1614SOL    HW2 5742   6.235   2.876   0.031
 1615SOL     OW 5743   0.218   4.681   6.454
 1615SOL    HW1 5744   0.192   4.767   6.498
 1615SOL    HW2 5745   0.139   4.620   6.449
 1616SOL     OW 5746   4.644   2.131   6.552
 1616SOL    HW1 5747   4.688   2.145   6.640
 1616SOL    HW2 5748   4.569   2.065   6.563
 1617SOL     OW 5749   6.165   1.033   2.856
 1617SOL    HW1 5750   6.220   0.950   2.852
 1617SOL    HW2 5751   6.225   1.113   2.862
 1618SOL     OW 5752   6.884   3.417   1.656
 1618SOL    HW1 5753   6.929   3.454   1.576
 1618SOL    HW2 5754   6.820   3.484   1.693
 1619SOL     OW 5755   0.744   3.933   3.944
 1619SOL    HW1 5756   0.812   3.984   3.996
 1619SOL    HW2 5757   0.654   3.946   3.984
 1620SOL     OW 5758   1.775   6.167   1.447
 1620SOL    HW1 5759   1.700   6.128   1.394
 1620SOL    HW2 5760   1.813   6.098   1.507
 1621SOL     OW 5761   0.649   0.643   7.003
 1621SOL    HW1 5762   0.573   0.665   0.046
 1621SOL    HW2 5763   0.637   0.551   6.967
 1622SOL     OW 5764   1.570   1.981   4.476
 1622SOL    HW1 5765   1.539   1.979   4.381
 1622SOL    HW2 5766   1.492   1.966   4.537
 1623SOL     OW 5767   2.142   3.045   6.552
 1623SOL    HW1 5768   2.163   2.980   6.625
 1623SOL    HW2 5769   2.207   3.121   6.555
 1624SOL     OW 5770   3.176   1.021   6.643
 1624SOL    HW1 5771   3.239   0.952   6.677
 1624SOL    HW2 5772   3.127   0.986   6.563
 1625SOL     OW 5773   0.297   4.579   2.084
 1625SOL    HW1 5774   0.219   4.548   2.030
 1625SOL    HW2 5775   0.266   4.615   2.171
 1626SOL     OW 5776   2.468   2.969   6.644
 1626SOL    HW1 5777   2.566   2.959   6.630
 1626SOL    HW2 5778   2.426   3.007   6.562
 1627SOL     OW 5779   6.037   2.258   3.774
 1627SOL    HW1 5780   5.998   2.195   3.706
 1627SOL    HW2 5781   6.105   2.316   3.730
 1628SOL     OW 5782   3.099   5.056   1.041
 1628SOL    HW1 5783   3.000   5.048   1.052
 1628SOL    HW2 5784   3.144   4.975   1.078
 1629SOL     OW 5785   3.040   2.169   4.641
 1629SOL    HW1 5786   3.029   2.170   4.542
 1629SOL    HW2 5787   3.078   2.080   4.669
 1630SOL     OW 5788   0.548   5.131   5.266
 1630SOL    HW1 5789   0.541   5.032   5.279
 1630SOL    HW2 5790   0.456   5.171   5.261
 1631SOL     OW 5791   6.940   0.457   5.614
 1631SOL    HW1 5792   6.862   0.403   5.582
 1631SOL    HW2 5793   6.955   0.441   5.711
 1632SOL     OW 5794   0.669   1.059   6.901
 1632SOL    HW1 5795   0.701   1.033   6.992
 1632SOL    HW2 5796   0.739   1.115   6.857
 1633SOL     OW 5797   5.446   2.084   2.945
 1633SOL    HW1 5798   5.500   2.078   2.861
 1633SOL    HW2 5799   5.455   1.999   2.997
 1634SOL     OW 5800   3.359   5.555   6.672
 1634SOL    HW1 5801   3.367   5.481   6.738
 1634SOL    HW2 5802   3.450   5.576   6.634
 1635SOL     OW 5803   6.985   5.468   4.109
 1635SOL    HW1 5804   0.010   5.415   4.181
 1635SOL    HW2 5805   6.971   5.562   4.141
 1636SOL     OW 5806   2.493   5.276   1.256
 1636SOL    HW1 5807   2.505   5.230   1.344
 1636SOL    HW2 5808   2.418   5.232   1.206
 1637SOL     OW 5809   0.156   2.804   2.650
 1637SOL    HW1 5810   0.110   2.852   2.724
 1637SOL    HW2 5811   0.087   2.761   2.591
 1638SOL     OW 5812   0.316   3.272   3.768
 1638SOL    HW1 5813   0.389   3.311   3.825
 1638SOL    HW2 5814   0.228   3.286   3.812
 1639SOL     OW 5815   5.309   5.533   2.814
 1639SOL    HW1 5816   5.385   5.597   2.821
 1639SOL    HW2 5817   5.223   5.582   2.830
 1640SOL     OW 5818   6.114   1.863   0.556
 1640SOL    HW1 5819   6.100   1.932   0.627
 1640SOL    HW2 5820   6.094   1.904   0.466
 1641SOL     OW 5821   5.679   2.834   3.827
 1641SOL    HW1 5822   5.749   2.791   3.769
 1641SOL    HW2 5823   5.619   2.764   3.864
 1642SOL     OW 5824   6.483   2.939   0.059
 1642SOL    HW1 5825   6.447   2.879   0.130
 1642SOL    HW2 5826   6.415   2.950   7.006
 1643SOL     OW 5827   3.549   6.376   5.177
 1643SOL    HW1 5828   3.581   6.347   5.087
 1643SOL    HW2 5829   3.451   6.360   5.184
 1644SOL     OW 5830   3.438   1.603   1.495
 1644SOL    HW1 5831   3.417   1.556   1.581
 1644SOL    HW2 5832   3.529   1.577   1.464
 1645SOL     OW 5833   2.865   5.944   5.910
 1645SOL    HW1 5834   2.784   5.991   5.874
 1645SOL    HW2 5835   2.851   5.923   6.007
 1646SOL     OW 5836   2.031   5.059   0.997
 1646SOL    HW1 5837   1.994   5.112   0.921
 1646SOL    HW2 5838   2.115   5.102   1.030
 1647SOL     OW 5839   5.851   2.700   3.313
 1647SOL    HW1 5840   5.856   2.780   3.373
 1647SOL    HW2 5841   5.791   2.720   3.236
 1648SOL     OW 5842   5.294   6.867   1.724
 1648SOL    HW1 5843   5.342   6.890   1.808
 1648SOL    HW2 5844   5.350   6.804   1.670
 1649SOL     OW 5845   3.083   0.517   3.082
 1649SOL    HW1 5846   3.076   0.597   3.023
 1649SOL    HW2 5847   3.157   0.458   3.051
 1650SOL     OW 5848   3.173   0.488   4.185
 1650SOL    HW1 5849   3.150   0.401   4.228
 1650SOL    HW2 5850   3.110   0.558   4.216
 1651SOL     OW 5851   0.093   0.352   0.276
 1651SOL    HW1 5852   0.034   0.298   0.336
 1651SOL    HW2 5853   0.133   0.428   0.328
 1652SOL     OW 5854   3.246   2.208   0.707
 1652SOL    HW1 5855   3.239   2.189   0.805
 1652SOL    HW2 5856   3.326   2.160   0.670
 1653SOL     OW 5857   6.961   5.342   0.879
 1653SOL    HW1 5858   0.012   5.272   0.871
 1653SOL    HW2 5859   6.889   5.309   0.939
 1654SOL     OW 5860   0.003   3.365   3.065
 1654SOL    HW1 5861   6.948   3.298   3.064
 1654SOL    HW2 5862   0.072   3.337   3.131
 1655SOL     OW 5863   5.671   4.339   6.247
 1655SOL    HW1 5864   5.640   4.422   6.201
 1655SOL    HW2 5865   5.706   4.363   6.338
 1656SOL     OW 5866   0.869   4.766   3.662
 1656SOL    HW1 5867   0.837   4.853   3.702
 1656SOL    HW2 5868   0.930   4.785   3.585
 1657SOL     OW 5869   1.812   0.951   5.668
 1657SOL    HW1 5870   1.747   1.012   5.624
 1657SOL    HW2 5871   1.884   0.926   5.603
 1658SOL     OW 5872   6.068   6.110   2.796
 1658SOL    HW1 5873   6.145   6.112   2.732
 1658SOL    HW2 5874   6.102   6.106   2.890
 1659SOL     OW 5875   3.626   1.999   6.730
 1659SOL    HW1 5876   3.630   1.904   6.758
 1659SOL    HW2 5877   3.636   2.006   6.630
 1660SOL     OW 5878   0.658   5.578   3.617
 1660SOL    HW1 5879   0.741   5.622   3.582
 1660SOL    HW2 5880   0.680   5.487   3.651
 1661SOL     OW 5881   3.357   1.560   2.926
 1661SOL    HW1 5882   3.323   1.609   2.845
 1661SOL    HW2 5883   3.309   1.592   3.007
 1662SOL     OW 5884   6.435   2.301   3.054
 1662SOL    HW1 5885   6.454   2.295   2.956
 1662SOL    HW2 5886   6.501   2.362   3.097
 1663SOL     OW 5887   3.067   6.686   3.228
 1663SOL    HW1 5888   3.143   6.640   3.183
 1663SOL    HW2 5889   3.096   6.721   3.317
 1664SOL     OW 5890   1.529   0.237   4.283
 1664SOL    HW1 5891   1.492   0.318   4.238
 1664SOL    HW2 5892   1.475   0.217   4.365
 1665SOL     OW 5893   1.168   1.173   2.379
 1665SOL    HW1 5894   1.178   1.236   2.457
 1665SOL    HW2 5895   1.096   1.106   2.400
 1666SOL     OW 5896   5.967   2.180   5.940
 1666SOL    HW1 5897   5.887   2.120   5.941
 1666SOL    HW2 5898   5.989   2.208   6.033
 1667SOL     OW 5899   6.165   6.573   6.556
 1667SOL    HW1 5900   6.184   6.667   6.528
 1667SOL    HW2 5901   6.179   6.512   6.479
 1668SOL     OW 5902   4.719   0.181   4.477
 1668SOL    HW1 5903   4.676   0.124   4.408
 1668SOL    HW2 5904   4.677   0.164   4.566
 1669SOL     OW 5905   5.819   6.610   6.644
 1669SOL    HW1 5906   5.901   6.653   6.607
 1669SOL    HW2 5907   5.820   6.513   6.620
 1670SOL     OW 5908   6.102   4.884   5.777
 1670SOL    HW1 5909   6.019   4.919   5.735
 1670SOL    HW2 5910   6.173   4.870   5.707
 1671SOL     OW 5911   4.520   3.514   0.626
 1671SOL    HW1 5912   4.455   3.438   0.621
 1671SOL    HW2 5913   4.554   3.535   0.535
 1672SOL     OW 5914   2.358   4.254   2.742
 1672SOL    HW1 5915   2.339   4.164   2.704
 1672SOL    HW2 5916   2.369   4.320   2.668
 1673SOL     OW 5917   6.515   3.412   4.842
 1673SOL    HW1 5918   6.569   3.435   4.924
 1673SOL    HW2 5919   6.563   3.342   4.789
 1674SOL     OW 5920   1.146   3.910   0.676
 1674SOL    HW1 5921   1.225   3.884   0.732
 1674SOL    HW2 5922   1.143   4.009   0.666
 1675SOL     OW 5923   4.962   0.931   6.933
 1675SOL    HW1 5924   4.932   0.950   6.840
 1675SOL    HW2 5925   4.891   0.879   6.981
 1676SOL     OW 5926   2.656   1.347   2.401
 1676SOL    HW1 5927   2.611   1.433   2.425
 1676SOL    HW2 5928   2.755   1.355   2.417
 1677SOL     OW 5929   5.806   1.654   5.472
 1677SOL    HW1 5930   5.721   1.705   5.485
 1677SOL    HW2 5931   5.803   1.568   5.524
 1678SOL     OW 5932   5.164   5.574   2.255
 1678SOL    HW1 5933   5.148   5.668   2.224
 1678SOL    HW2 5934   5.243   5.537   2.207
 1679SOL     OW 5935   1.038   3.218   5.507
 1679SOL    HW1 5936   1.117   3.279   5.501
 1679SOL    HW2 5937   0.955   3.267   5.481
 1680SOL     OW 5938   0.569   1.521   3.898
 1680SOL    HW1 5939   0.479   1.477   3.898
 1680SOL    HW2 5940   0.564   1.607   3.949
 1681SOL     OW 5941   6.135   5.318   1.249
 1681SOL    HW1 5942   6.213   5.308   1.187
 1681SOL    HW2 5943   6.168   5.324   1.343
 1682SOL     OW 5944   6.997   3.042   4.746
 1682SOL    HW1 5945   0.072   3.018   4.724
 1682SOL    HW2 5946   6.985   3.141   4.738
 1683SOL     OW 5947   4.595   5.098   1.412
 1683SOL    HW1 5948   4.683   5.136   1.442
 1683SOL    HW2 5949   4.607   5.052   1.325
 1684SOL     OW 5950   0.904   0.022   4.730
 1684SOL    HW1 5951   0.854   0.064   4.806
 1684SOL    HW2 5952   0.890   6.942   4.733
 1685SOL     OW 5953   2.076   1.239   6.842
 1685SOL    HW1 5954   2.086   1.237   6.742
 1685SOL    HW2 5955   2.097   1.148   6.879
 1686SOL     OW 5956   1.440   5.587   5.127
 1686SOL    HW1 5957   1.448   5.595   5.028
 1686SOL    HW2 5958   1.467   5.495   5.155
 1687SOL     OW 5959   1.896   4.414   2.476
 1687SOL    HW1 5960   1.919   4.399   2.572
 1687SOL    HW2 5961   1.972   4.461   2.430
 1688SOL     OW 5962   1.230   1.492   3.134
 1688SOL    HW1 5963   1.207   1.409   3.083
 1688SOL    HW2 5964   1.231   1.570   3.071
 1689SOL     OW 5965   2.980   2.194   2.384
 1689SOL    HW1 5966   2.904   2.208   2.447
 1689SOL    HW2 5967   2.989   2.274   2.324
 1690SOL     OW 5968   1.700   1.484   2.285
 1690SOL    HW1 5969   1.779   1.473   2.225
 1690SOL    HW2 5970   1.625   1.526   2.234
 1691SOL     OW 5971   4.980   3.491   3.270
 1691SOL    HW1 5972   5.073   3.468   3.297
 1691SOL    HW2 5973   4.959   3.448   3.182
 1692SOL     OW 5974   0.208   0.080   1.536
 1692SOL    HW1 5975   0.287   0.022   1.515
 1692SOL    HW2 5976   0.234   0.148   1.604
 1693SOL     OW 5977   2.158   3.019   3.188
 1693SOL    HW1 5978   2.235   2.966   3.151
 1693SOL    HW2 5979   2.085   2.957   3.215
 1694SOL     OW 5980   4.279   5.684   4.979
 1694SOL    HW1 5981   4.274   5.658   4.882
 1694SOL    HW2 5982   4.374   5.698   5.005
 1695SOL     OW 5983   2.562   2.327   5.744
 1695SOL    HW1 5984   2.486   2.386   5.771
 1695SOL    HW2 5985   2.611   2.297   5.825
 1696SOL     OW 5986   4.867   5.507   0.406
 1696SOL    HW1 5987   4.865   5.473   0.313
 1696SOL    HW2 5988   4.905   5.436   0.467
 1697SOL     OW 5989   1.013   0.150   1.746
 1697SOL    HW1 5990   1.001   0.052   1.757
 1697SOL    HW2 5991   1.012   0.194   1.836
 1698SOL     OW 5992   4.950   2.389   1.782
 1698SOL    HW1 5993   5.045   2.389   1.752
 1698SOL    HW2 5994   4.932   2.308   1.837
 1699SOL     OW 5995   2.728   3.040   1.171
 1699SOL    HW1 5996   2.692   2.949   1.154
 1699SOL    HW2 5997   2.704   3.101   1.095
 1700SOL     OW 5998   6.805   2.542   2.902
 1700SOL    HW1 5999   6.735   2.502   2.844
 1700SOL    HW2 6000   6.843   2.623   2.857
 1701SOL     OW 6001   5.798   2.839   4.760
 1701SOL    HW1 6002   5.837   2.797   4.842
 1701SOL    HW2 6003   5.869   2.895   4.715
 1702SOL     OW 6004   5.959   3.602   1.118
 1702SOL    HW1 6005   6.024   3.532   1.091
 1702SOL    HW2 6006   5.934   3.588   1.214
 1703SOL     OW 6007   2.910   3.628   1.170
 1703SOL    HW1 6008   2.962   3.665   1.246
 1703SOL    HW2 6009   2.944   3.537   1.148
 1704SOL     OW 6010   0.300   1.221   1.207
 1704SOL    HW1 6011   0.229   1.266   1.262
 1704SOL    HW2 6012   0.259   1.148   1.152
 1705SOL     OW 6013   3.855   2.457   1.424
 1705SOL    HW1 6014   3.774   2.410   1.389
 1705SOL    HW2 6015   3.937   2.420   1.378
 1706SOL     OW 6016   4.164   0.621   0.669
 1706SOL    HW1 6017   4.101   0.679   0.718
 1706SOL    HW2 6018   4.179   0.536   0.721
 1707SOL     OW 6019   5.075   2.228   2.510
 1707SOL    HW1 6020   5.042   2.153   2.453
 1707SOL    HW2 6021   5.070   2.202   2.606
 1708SOL     OW 6022   6.535   6.199   3.032
 1708SOL    HW1 6023   6.592   6.271   3.072
 1708SOL    HW2 6024   6.478   6.158   3.103
 1709SOL     OW 6025   2.355   6.994   2.111
 1709SOL    HW1 6026   2.419   6.973   2.184
 1709SOL    HW2 6027   2.405   0.015   2.034
 1710SOL     OW 6028   0.313   4.353   3.674
 1710SOL    HW1 6029   0.385   4.313   3.730
 1710SOL    HW2 6030   0.353   4.423   3.614
 1711SOL     OW 6031   1.468   4.471   5.245
 1711SOL    HW1 6032   1.476   4.397   5.178
 1711SOL    HW2 6033   1.395   4.450   5.310
 1712SOL     OW 6034   0.883   4.124   0.550
 1712SOL    HW1 6035   0.883   4.030   0.518
 1712SOL    HW2 6036   0.976   4.150   0.577
 1713SOL     OW 6037   1.984   2.525   1.671
 1713SOL    HW1 6038   2.055   2.569   1.616
 1713SOL    HW2 6039   1.905   2.505   1.613
 1714SOL     OW 6040   3.930   1.704   6.555
 1714SOL    HW1 6041   3.922   1.794   6.513
 1714SOL    HW2 6042   3.985   1.645   6.496
 1715SOL     OW 6043   0.783   3.066   3.078
 1715SOL    HW1 6044   0.878   3.096   3.090
 1715SOL    HW2 6045   0.722   3.145   3.084
 1716SOL     OW 6046   6.440   0.152   0.647
 1716SOL    HW1 6047   6.528   0.126   0.687
 1716SOL    HW2 6048   6.381   0.071   0.641
 1717SOL     OW 6049   2.491   6.581   0.353
 1717SOL    HW1 6050   2.573   6.525   0.361
 1717SOL    HW2 6051   2.514   6.666   0.305
 1718SOL     OW 6052   1.998   3.963   6.972
 1718SOL    HW1 6053   1.961   3.979   6.880
 1718SOL    HW2 6054   1.964   4.032   0.015
 1719SOL     OW 6055   2.332   3.132   1.565
 1719SOL    HW1 6056   2.287   3.175   1.643
 1719SOL    HW2 6057   2.408   3.190   1.534
 1720SOL     OW 6058   6.773   1.741   0.806
 1720SOL    HW1 6059   6.683   1.774   0.777
 1720SOL    HW2 6060   6.773   1.728   0.905
 1721SOL     OW 6061   1.793   6.515   3.103
 1721SOL    HW1 6062   1.844   6.591   3.142
 1721SOL    HW2 6063   1.777   6.446   3.173
 1722SOL     OW 6064   5.757   0.265   1.999
 1722SOL    HW1 6065   5.837   0.251   1.940
 1722SOL    HW2 6066   5.763   0.356   2.041
 1723SOL     OW 6067   6.477   2.194   2.762
 1723SOL    HW1 6068   6.533   2.263   2.717
 1723SOL    HW2 6069   6.478   2.110   2.708
 1724SOL     OW 6070   5.391   0.816   0.374
 1724SOL    HW1 6071   5.426   0.779   0.460
 1724SOL    HW2 6072   5.385   0.742   0.307
 1725SOL     OW 6073   3.467   4.496   0.921
 1725SOL    HW1 6074   3.430   4.498   1.014
 1725SOL    HW2 6075   3.424   4.423   0.869
 1726SOL     OW 6076   6.725   4.783   4.471
 1726SOL    HW1 6077   6.793   4.733   4.417
 1726SOL    HW2 6078   6.756   4.877   4.485
 1727SOL     OW 6079   3.948   3.452   4.926
 1727SOL    HW1 6080   4.014   3.521   4.899
 1727SOL    HW2 6081   3.992   3.383   4.983
 1728SOL     OW 6082   4.753   4.763   4.370
 1728SOL    HW1 6083   4.716   4.689   4.427
 1728SOL    HW2 6084   4.812   4.725   4.299
 1729SOL     OW 6085   1.146   3.860   3.382
 1729SOL    HW1 6086   1.172   3.865   3.286
 1729SOL    HW2 6087   1.121   3.951   3.415
 1730SOL     OW 6088   6.575   1.232   4.719
 1730SOL    HW1 6089   6.579   1.240   4.619
 1730SOL    HW2 6090   6.658   1.272   4.759
 1731SOL     OW 6091   2.281   4.980   1.458
 1731SOL    HW1 6092   2.253   4.927   1.378
 1731SOL    HW2 6093   2.374   5.014   1.444
 1732SOL     OW 6094   1.759   4.697   0.228
 1732SOL    HW1 6095   1.688   4.746   0.176
 1732SOL    HW2 6096   1.715   4.628   0.286
 1733SOL     OW 6097   1.119   3.853   2.018
 1733SOL    HW1 6098   1.185   3.791   2.060
 1733SOL    HW2 6099   1.057   3.889   2.088
 1734SOL     OW 6100   4.490   3.134   0.715
 1734SOL    HW1 6101   4.523   3.140   0.809
 1734SOL    HW2 6102   4.484   3.038   0.688
 1735SOL     OW 6103   6.131   5.495   1.858
 1735SOL    HW1 6104   6.131   5.401   1.825
 1735SOL    HW2 6105   6.051   5.543   1.820
 1736SOL     OW 6106   3.704   3.267   7.008
 1736SOL    HW1 6107   3.657   3.342   0.037
 1736SOL    HW2 6108   3.727   3.195   0.053
 1737SOL     OW 6109   2.265   0.660   4.164
 1737SOL    HW1 6110   2.195   0.689   4.099
 1737SOL    HW2 6111   2.354   0.657   4.118
 1738SOL     OW 6112   1.969   2.380   2.522
 1738SOL    HW1 6113   1.966   2.298   2.466
 1738SOL    HW2 6114   1.989   2.460   2.465
 1739SOL     OW 6115   4.388   2.316   4.811
 1739SOL    HW1 6116   4.452   2.322   4.733
 1739SOL    HW2 6117   4.410   2.388   4.877
 1740SOL     OW 6118   0.400   1.040   6.899
 1740SOL    HW1 6119   0.499   1.043   6.885
 1740SOL    HW2 6120   0.370   1.126   6.940
 1741SOL     OW 6121   2.334   0.776   2.690
 1741SOL    HW1 6122   2.284   0.829   2.621
 1741SOL    HW2 6123   2.397   0.836   2.739
 1742SOL     OW 6124   5.448   6.854   5.063
 1742SOL    HW1 6125   5.461   6.953   5.072
 1742SOL    HW2 6126   5.435   6.814   5.154
 1743SOL     OW 6127   2.363   1.148   1.842
 1743SOL    HW1 6128   2.447   1.110   1.803
 1743SOL    HW2 6129   2.329   1.222   1.784
 1744SOL     OW 6130   2.225   0.943   1.976
 1744SOL    HW1 6131   2.257   1.009   1.908
 1744SOL    HW2 6132   2.138   0.973   2.013
 1745SOL     OW 6133   7.010   1.876   3.509
 1745SOL    HW1 6134   0.022   1.883   3.414
 1745SOL    HW2 6135   6.919   1.834   3.510
 1746SOL     OW 6136   2.882   6.706   6.492
 1746SOL    HW1 6137   2.813   6.635   6.481
 1746SOL    HW2 6138   2.969   6.665   6.518
 1747SOL     OW 6139   4.455   0.073   1.530
 1747SOL    HW1 6140   4.472   0.052   1.626
 1747SOL    HW2 6141   4.452   7.008   1.477
 1748SOL     OW 6142   6.099   1.943   3.664
 1748SOL    HW1 6143   6.132   1.864   3.612
 1748SOL    HW2 6144   6.016   1.978   3.621
 1749SOL     OW 6145   3.962   6.653   6.670
 1749SOL    HW1 6146   3.984   6.725   6.604
 1749SOL    HW2 6147   3.866   6.627   6.660
 1750SOL     OW 6148   5.642   1.179   2.823
 1750SOL    HW1 6149   5.727   1.221   2.791
 1750SOL    HW2 6150   5.646   1.080   2.808
 1751SOL     OW 6151   2.085   4.905   4.683
 1751SOL    HW1 6152   2.029   4.893   4.765
 1751SOL    HW2 6153   2.058   4.839   4.613
 1752SOL     OW 6154   6.622   2.026   0.587
 1752SOL    HW1 6155   6.534   2.072   0.583
 1752SOL    HW2 6156   6.632   1.979   0.675
 1753SOL     OW 6157   1.067   0.207   6.908
 1753SOL    HW1 6158   1.032   0.135   6.849
 1753SOL    HW2 6159   1.102   0.168   6.993
 1754SOL     OW 6160   3.852   3.418   1.022
 1754SOL    HW1 6161   3.842   3.370   1.109
 1754SOL    HW2 6162   3.762   3.439   0.984
 1755SOL     OW 6163   5.403   4.582   1.521
 1755SOL    HW1 6164   5.435   4.635   1.599
 1755SOL    HW2 6165   5.313   4.544   1.541
 1756SOL     OW 6166   6.077   4.529   4.016
 1756SOL    HW1 6167   6.105   4.525   3.920
 1756SOL    HW2 6168   6.020   4.609   4.032
 1757SOL     OW 6169   2.845   6.308   4.658
 1757SOL    HW1 6170   2.855   6.277   4.563
 1757SOL    HW2 6171   2.763   6.268   4.698
 1758SOL     OW 6172   3.329   1.575   3.403
 1758SOL    HW1 6173   3.241   1.552   3.444
 1758SOL    HW2 6174   3.385   1.493   3.394
 1759SOL     OW 6175   0.500   4.888   5.836
 1759SOL    HW1 6176   0.518   4.850   5.745
 1759SOL    HW2 6177   0.469   4.982   5.828
 1760SOL     OW 6178   6.193   1.492   1.601
 1760SOL    HW1 6179   6.167   1.579   1.561
 1760SOL    HW2 6180   6.205   1.423   1.529
 1761SOL     OW 6181   5.878   0.850   0.702
 1761SOL    HW1 6182   5.778   0.859   0.700
 1761SOL    HW2 6183   5.903   0.756   0.680
 1762SOL     OW 6184   6.319   2.232   5.019
 1762SOL    HW1 6185   6.324   2.135   5.044
 1762SOL    HW2 6186   6.403   2.278   5.047
 1763SOL     OW 6187   2.126   3.831   4.438
 1763SOL    HW1 6188   2.028   3.854   4.431
 1763SOL    HW2 6189   2.180   3.902   4.392
 1764SOL     OW 6190   1.672   3.350   3.202
 1764SOL    HW1 6191   1.599   3.301   3.249
 1764SOL    HW2 6192   1.659   3.343   3.103
 1765SOL     OW 6193   2.862   1.400   0.187
 1765SOL    HW1 6194   2.961   1.386   0.186
 1765SOL    HW2 6195   2.837   1.463   0.114
 1766SOL     OW 6196   5.477   2.889   5.126
 1766SOL    HW1 6197   5.442   2.812   5.073
 1766SOL    HW2 6198   5.574   2.874   5.147
 1767SOL     OW 6199   5.236   3.722   2.070
 1767SOL    HW1 6200   5.215   3.820   2.068
 1767SOL    HW2 6201   5.321   3.708   2.122
 1768SOL     OW 6202   4.394   0.215   3.930
 1768SOL    HW1 6203   4.465   0.246   3.993
 1768SOL    HW2 6204   4.418   0.242   3.836
 1769SOL     OW 6205   4.017   2.147   3.942
 1769SOL    HW1 6206   4.092   2.097   3.986
 1769SOL    HW2 6207   4.038   2.245   3.941
 1770SOL     OW 6208   1.674   5.807   4.935
 1770SOL    HW1 6209   1.769   5.838   4.938
 1770SOL    HW2 6210   1.657   5.748   5.014
 1771SOL     OW 6211   2.507   5.869   0.102
 1771SOL    HW1 6212   2.550   5.913   0.023
 1771SOL    HW2 6213   2.420   5.915   0.122
 1772SOL     OW 6214   3.689   0.025   3.821
 1772SOL    HW1 6215   3.659   7.001   3.737
 1772SOL    HW2 6216   3.757   0.096   3.800
 1773SOL     OW 6217   2.013   5.154   5.753
 1773SOL    HW1 6218   1.993   5.183   5.847
 1773SOL    HW2 6219   2.100   5.195   5.724
 1774SOL     OW 6220   3.876   5.590   1.469
 1774SOL    HW1 6221   3.899   5.594   1.566
 1774SOL    HW2 6222   3.953   5.623   1.414
 1775SOL     OW 6223   0.785   4.316   2.621
 1775SOL    HW1 6224   0.810   4.332   2.717
 1775SOL    HW2 6225   0.815   4.394   2.566
 1776SOL     OW 6226   3.915   6.149   4.204
 1776SOL    HW1 6227   3.911   6.083   4.278
 1776SOL    HW2 6228   3.824   6.161   4.164
 1777SOL     OW 6229   3.411   5.537   0.092
 1777SOL    HW1 6230   3.455   5.561   0.179
 1777SOL    HW2 6231   3.436   5.605   0.023
 1778SOL     OW 6232   4.754   3.370   5.527
 1778SOL    HW1 6233   4.701   3.304   5.580
 1778SOL    HW2 6234   4.749   3.348   5.430
 1779SOL     OW 6235   3.892   0.508   4.507
 1779SOL    HW1 6236   3.910   0.544   4.416
 1779SOL    HW2 6237   3.838   0.424   4.500
 1780SOL     OW 6238   3.750   2.855   6.753
 1780SOL    HW1 6239   3.737   2.953   6.762
 1780SOL    HW2 6240   3.767   2.815   6.843
 1781SOL     OW 6241   3.778   6.253   2.549
 1781SOL    HW1 6242   3.818   6.342   2.525
 1781SOL    HW2 6243   3.781   6.192   2.470
 1782SOL     OW 6244   2.972   1.724   3.154
 1782SOL    HW1 6245   2.939   1.775   3.075
 1782SOL    HW2 6246   2.988   1.786   3.230
 1783SOL     OW 6247   2.746   5.663   6.030
 1783SOL    HW1 6248   2.677   5.597   6.060
 1783SOL    HW2 6249   2.733   5.682   5.933
 1784SOL     OW 6250   4.680   0.714   6.045
 1784SOL    HW1 6251   4.720   0.651   5.978
 1784SOL    HW2 6252   4.741   0.722   6.124
 1785SOL     OW 6253   6.378   3.664   2.922
 1785SOL    HW1 6254   6.319   3.725   2.868
 1785SOL    HW2 6255   6.375   3.572   2.883
 1786SOL     OW 6256   1.819   2.886   0.039
 1786SOL    HW1 6257   1.887   2.833   7.007
 1786SOL    HW2 6258   1.727   2.851   0.018
 1787SOL     OW 6259   2.665   1.441   5.324
 1787SOL    HW1 6260   2.744   1.499   5.305
 1787SOL    HW2 6261   2.682   1.348   5.292
 1788SOL     OW 6262   2.434   4.262   6.003
 1788SOL    HW1 6263   2.409   4.328   5.933
 1788SOL    HW2 6264   2.473   4.181   5.961
 1789SOL     OW 6265   5.565   1.961   1.507
 1789SOL    HW1 6266   5.624   1.891   1.546
 1789SOL    HW2 6267   5.575   2.046   1.558
 1790SOL     OW 6268   3.765   6.331   3.601
 1790SOL    HW1 6269   3.729   6.274   3.527
 1790SOL    HW2 6270   3.809   6.272   3.669
 1791SOL     OW 6271   6.858   0.995   3.250
 1791SOL    HW1 6272   6.768   0.955   3.233
 1791SOL    HW2 6273   6.848   1.092   3.270
 1792SOL     OW 6274   6.814   3.650   4.930
 1792SOL    HW1 6275   6.765   3.732   4.962
 1792SOL    HW2 6276   6.856   3.670   4.841
 1793SOL     OW 6277   5.996   0.042   3.965
 1793SOL    HW1 6278   6.035   0.001   4.047
 1793SOL    HW2 6279   6.031   7.015   3.884
 1794SOL     OW 6280   5.586   6.041   5.769
 1794SOL    HW1 6281   5.501   6.074   5.811
 1794SOL    HW2 6282   5.570   6.019   5.673
 1795SOL     OW 6283   1.201   2.397   1.124
 1795SOL    HW1 6284   1.209   2.460   1.201
 1795SOL    HW2 6285   1.147   2.440   1.051
 1796SOL     OW 6286   2.692   0.993   5.900
 1796SOL    HW1 6287   2.618   0.933   5.870
 1796SOL    HW2 6288   2.682   1.013   5.997
 1797SOL     OW 6289   1.541   0.148   0.265
 1797SOL    HW1 6290   1.638   0.125   0.278
 1797SOL    HW2 6291   1.529   0.247   0.270
 1798SOL     OW 6292   4.794   2.433   3.897
 1798SOL    HW1 6293   4.710   2.464   3.940
 1798SOL    HW2 6294   4.871   2.487   3.930
 1799SOL     OW 6295   0.057   2.650   4.454
 1799SOL    HW1 6296   0.141   2.685   4.411
 1799SOL    HW2 6297   0.000   2.727   4.483
 1800SOL     OW 6298   4.412   4.382   1.486
 1800SOL    HW1 6299   4.491   4.427   1.444
 1800SOL    HW2 6300   4.441   4.295   1.526
 1801SOL     OW 6301   0.046   0.264   2.109
 1801SOL    HW1 6302   7.005   0.246   2.187
 1801SOL    HW2 6303   0.140   0.241   2.135
 1802SOL     OW 6304   5.149   5.866   4.494
 1802SOL    HW1 6305   5.236   5.907   4.465
 1802SOL    HW2 6306   5.167   5.780   4.541
 1803SOL     OW 6307   6.854   5.435   6.972
 1803SOL    HW1 6308   6.767   5.451   7.019
 1803SOL    HW2 6309   6.908   5.520   6.972
 1804SOL     OW 6310   2.463   4.109   5.400
 1804SOL    HW1 6311   2.531   4.080   5.468
 1804SOL    HW2 6312   2.476   4.056   5.316
 1805SOL     OW 6313   5.332   3.266   5.845
 1805SOL    HW1 6314   5.321   3.328   5.923
 1805SOL    HW2 6315   5.298   3.175   5.870
 1806SOL     OW 6316   0.380   6.906   6.351
 1806SOL    HW1 6317   0.350   6.849   6.428
 1806SOL    HW2 6318   0.404   6.848   6.274
 1807SOL     OW 6319   5.537   3.111   4.634
 1807SOL    HW1 6320   5.524   3.042   4.705
 1807SOL    HW2 6321   5.611   3.082   4.573
 1808SOL     OW 6322   0.178   4.124   4.993
 1808SOL    HW1 6323   0.127   4.193   5.044
 1808SOL    HW2 6324   0.272   4.120   5.028
 1809SOL     OW 6325   2.282   2.586   5.019
 1809SOL    HW1 6326   2.318   2.610   5.110
 1809SOL    HW2 6327   2.295   2.663   4.957
 1810SOL     OW 6328   2.886   0.202   4.025
 1810SOL    HW1 6329   2.809   0.138   4.029
 1810SOL    HW2 6330   2.950   0.182   4.099
 1811SOL     OW 6331   5.688   6.205   3.563
 1811SOL    HW1 6332   5.718   6.154   3.644
 1811SOL    HW2 6333   5.623   6.275   3.589
 1812SOL     OW 6334   4.020   5.710   5.112
 1812SOL    HW1 6335   3.938   5.710   5.054
 1812SOL    HW2 6336   4.101   5.724   5.055
 1813SOL     OW 6337   6.102   4.344   0.329
 1813SOL    HW1 6338   6.097   4.430   0.379
 1813SOL    HW2 6339   6.194   4.305   0.337
 1814SOL     OW 6340   5.051   6.968   2.004
 1814SOL    HW1 6341   4.984   7.018   2.058
 1814SOL    HW2 6342   5.078   0.004   1.925
 1815SOL     OW 6343   0.789   2.073   1.846
 1815SOL    HW1 6344   0.751   2.065   1.938
 1815SOL    HW2 6345   0.781   1.985   1.799
 1816SOL     OW 6346   2.609   2.802   0.795
 1816SOL    HW1 6347   2.690   2.837   0.748
 1816SOL    HW2 6348   2.587   2.711   0.759
 1817SOL     OW 6349   2.331   6.520   2.070
 1817SOL    HW1 6350   2.362   6.428   2.047
 1817SOL    HW2 6351   2.236   6.517   2.102
 1818SOL     OW 6352   1.438   0.174   3.195
 1818SOL    HW1 6353   1.386   0.230   3.260
 1818SOL    HW2 6354   1.531   0.161   3.228
 1819SOL     OW 6355   1.037   4.552   2.035
 1819SOL    HW1 6356   1.128   4.540   2.076
 1819SOL    HW2 6357   1.038   4.519   1.941
 1820SOL     OW 6358   4.359   1.033   2.694
 1820SOL    HW1 6359   4.401   1.114   2.654
 1820SOL    HW2 6360   4.270   1.057   2.733
 1821SOL     OW 6361   2.251   1.482   2.745
 1821SOL    HW1 6362   2.251   1.416   2.671
 1821SOL    HW2 6363   2.224   1.436   2.830
 1822SOL     OW 6364   3.489   2.618   1.543
 1822SOL    HW1 6365   3.582   2.581   1.544
 1822SOL    HW2 6366   3.466   2.648   1.451
 1823SOL     OW 6367   3.880   6.277   3.212
 1823SOL    HW1 6368   3.870   6.278   3.113
 1823SOL    HW2 6369   3.801   6.233   3.254
 1824SOL     OW 6370   4.111   2.717   0.861
 1824SOL    HW1 6371   4.054   2.706   0.942
 1824SOL    HW2 6372   4.129   2.628   0.819
 1825SOL     OW 6373   0.799   0.766   2.001
 1825SOL    HW1 6374   0.739   0.697   1.962
 1825SOL    HW2 6375   0.893   0.733   2.002
 1826SOL     OW 6376   3.146   1.484   1.474
 1826SOL    HW1 6377   3.110   1.526   1.558
 1826SOL    HW2 6378   3.246   1.486   1.477
 1827SOL     OW 6379   0.093   5.089   1.873
 1827SOL    HW1 6380   0.166   5.151   1.844
 1827SOL    HW2 6381   0.119   5.044   1.958
 1828SOL     OW 6382   0.585   2.929   0.231
 1828SOL    HW1 6383   0.515   2.889   0.172
 1828SOL    HW2 6384   0.542   2.993   0.295
 1829SOL     OW 6385   4.914   6.887   3.217
 1829SOL    HW1 6386   4.828   6.857   3.176
 1829SOL    HW2 6387   4.959   6.953   3.157
 1830SOL     OW 6388   4.889   6.310   3.697
 1830SOL    HW1 6389   4.950   6.362   3.756
 1830SOL    HW2 6390   4.925   6.309   3.604
 1831SOL     OW 6391   6.000   7.013   2.595
 1831SOL    HW1 6392   6.051   6.943   2.646
 1831SOL    HW2 6393   5.919   0.020   2.647
 1832SOL     OW 6394   4.950   2.042   1.100
 1832SOL    HW1 6395   4.885   2.075   1.169
 1832SOL    HW2 6396   5.040   2.031   1.142
 1833SOL     OW 6397   5.380   6.830   4.515
 1833SOL    HW1 6398   5.460   6.872   4.557
 1833SOL    HW2 6399   5.314   6.901   4.491
 1834SOL     OW 6400   3.876   3.907   0.528
 1834SOL    HW1 6401   3.779   3.915   0.551
 1834SOL    HW2 6402   3.900   3.976   0.460
 1835SOL     OW 6403   1.396   4.245   1.475
 1835SOL    HW1 6404   1.400   4.243   1.574
 1835SOL    HW2 6405   1.435   4.331   1.441
 1836SOL     OW 6406   0.095   1.891   0.951
 1836SOL    HW1 6407   0.094   1.842   1.038
 1836SOL    HW2 6408   0.094   1.989   0.968
 1837SOL     OW 6409   0.838   2.129   4.294
 1837SOL    HW1 6410   0.904   2.143   4.367
 1837SOL    HW2 6411   0.854   2.194   4.220
 1838SOL     OW 6412   0.194   2.253   3.654
 1838SOL    HW1 6413   0.259   2.233   3.581
 1838SOL    HW2 6414   0.146   2.338   3.634
 1839SOL     OW 6415   5.410   2.693   4.972
 1839SOL    HW1 6416   5.424   2.633   4.893
 1839SOL    HW2 6417   5.315   2.684   5.003
 1840SOL     OW 6418   2.523   5.928   1.446
 1840SOL    HW1 6419   2.611   5.906   1.402
 1840SOL    HW2 6420   2.505   5.862   1.519
 1841SOL     OW 6421   2.015   3.563   4.416
 1841SOL    HW1 6422   1.973   3.587   4.329
 1841SOL    HW2 6423   2.070   3.640   4.449
 1842SOL     OW 6424   0.597   5.321   1.230
 1842SOL    HW1 6425   0.606   5.304   1.329
 1842SOL    HW2 6426   0.581   5.234   1.183
 1843SOL     OW 6427   1.833   2.373   5.387
 1843SOL    HW1 6428   1.798   2.417   5.305
 1843SOL    HW2 6429   1.920   2.328   5.367
 1844SOL     OW 6430   3.654   1.988   5.093
 1844SOL    HW1 6431   3.729   1.945   5.043
 1844SOL    HW2 6432   3.691   2.045   5.166
 1845SOL     OW 6433   2.811   0.154   6.739
 1845SOL    HW1 6434   2.829   0.081   6.673
 1845SOL    HW2 6435   2.896   0.181   6.784
 1846SOL     OW 6436   4.251   2.019   6.488
 1846SOL    HW1 6437   4.329   1.970   6.527
 1846SOL    HW2 6438   4.284   2.098   6.436
 1847SOL     OW 6439   0.840   0.330   6.622
 1847SOL    HW1 6440   0.924   0.299   6.577
 1847SOL    HW2 6441   0.856   0.336   6.721
 1848SOL     OW 6442   1.963   5.937   2.791
 1848SOL    HW1 6443   1.980   5.845   2.826
 1848SOL    HW2 6444   2.007   5.947   2.702
 1849SOL     OW 6445   4.328   0.595   0.435
 1849SOL    HW1 6446   4.281   0.595   0.523
 1849SOL    HW2 6447   4.345   0.500   0.406
 1850SOL     OW 6448   5.837   1.481   2.850
 1850SOL    HW1 6449   5.835   1.434   2.762
 1850SOL    HW2 6450   5.836   1.580   2.835
 1851SOL     OW 6451   0.158   1.640   1.388
 1851SOL    HW1 6452   0.103   1.586   1.452
 1851SOL    HW2 6453   0.190   1.582   1.314
 1852SOL     OW 6454   4.719   3.924   0.879
 1852SOL    HW1 6455   4.622   3.942   0.862
 1852SOL    HW2 6456   4.746   3.840   0.834
 1853SOL     OW 6457   0.943   3.778   1.724
 1853SOL    HW1 6458   1.021   3.723   1.754
 1853SOL    HW2 6459   0.956   3.804   1.629
 1854SOL     OW 6460   3.006   5.387   4.305
 1854SOL    HW1 6461   3.102   5.362   4.315
 1854SOL    HW2 6462   2.948   5.316   4.345
 1855SOL     OW 6463   4.997   5.082   0.499
 1855SOL    HW1 6464   5.034   5.162   0.453
 1855SOL    HW2 6465   5.014   5.089   0.598
 1856SOL     OW 6466   6.419   2.368   5.759
 1856SOL    HW1 6467   6.331   2.322   5.748
 1856SOL    HW2 6468   6.406   2.455   5.807
 1857SOL     OW 6469   4.884   0.842   4.914
 1857SOL    HW1 6470   4.842   0.762   4.871
 1857SOL    HW2 6471   4.961   0.814   4.971
 1858SOL     OW 6472   5.583   2.978   3.529
 1858SOL    HW1 6473   5.604   3.017   3.619
 1858SOL    HW2 6474   5.668   2.969   3.476
 1859SOL     OW 6475   4.074   1.994   3.618
 1859SOL    HW1 6476   4.132   1.953   3.688
 1859SOL    HW2 6477   4.038   1.922   3.558
 1860SOL     OW 6478   6.542   1.212   3.982
 1860SOL    HW1 6479   6.576   1.259   4.064
 1860SOL    HW2 6480   6.596   1.241   3.903
 1861SOL     OW 6481   4.679   6.569   2.135
 1861SOL    HW1 6482   4.628   6.620   2.205
 1861SOL    HW2 6483   4.648   6.474   2.135
 1862SOL     OW 6484   1.989   6.856   0.256
 1862SOL    HW1 6485   1.924   6.790   0.219
 1862SOL    HW2 6486   2.061   6.873   0.190
 1863SOL     OW 6487   2.669   2.503   0.772
 1863SOL    HW1 6488   2.713   2.572   0.830
 1863SOL    HW2 6489   2.636   2.428   0.829
 1864SOL     OW 6490   0.989   6.628   5.140
 1864SOL    HW1 6491   1.044   6.552   5.174
 1864SOL    HW2 6492   0.969   6.691   5.216
 1865SOL     OW 6493   4.152   1.262   5.518
 1865SOL    HW1 6494   4.141   1.194   5.590
 1865SOL    HW2 6495   4.066   1.309   5.502
 1866SOL     OW 6496   4.234   4.732   2.550
 1866SOL    HW1 6497   4.145   4.754   2.510
 1866SOL    HW2 6498   4.304   4.730   2.479
 1867SOL     OW 6499   0.556   4.069   0.300
 1867SOL    HW1 6500   0.477   4.125   0.276
 1867SOL    HW2 6501   0.560   4.056   0.399
 1868SOL     OW 6502   5.492   4.698   6.742
 1868SOL    HW1 6503   5.541   4.659   6.821
 1868SOL    HW2 6504   5.484   4.628   6.671
 1869SOL     OW 6505   6.617   2.074   5.121
 1869SOL    HW1 6506   6.557   2.006   5.078
 1869SOL    HW2 6507   6.681   2.109   5.052
 1870SOL     OW 6508   1.974   4.608   5.705
 1870SOL    HW1 6509   2.012   4.680   5.648
 1870SOL    HW2 6510   1.970   4.522   5.654
 1871SOL     OW 6511   1.633   7.009   1.002
 1871SOL    HW1 6512   1.629   0.071   0.944
 1871SOL    HW2 6513   1.630   6.928   0.944
 1872SOL     OW 6514   2.974   4.371   0.072
 1872SOL    HW1 6515   2.930   4.363   0.161
 1872SOL    HW2 6516   3.070   4.347   0.079
 1873SOL     OW 6517   4.176   1.109   5.247
 1873SOL    HW1 6518   4.221   1.068   5.327
 1873SOL    HW2 6519   4.078   1.121   5.266
 1874SOL     OW 6520   2.709   1.814   1.372
 1874SOL    HW1 6521   2.760   1.869   1.439
 1874SOL    HW2 6522   2.761   1.808   1.287
 1875SOL     OW 6523   0.841   0.365   6.908
 1875SOL    HW1 6524   0.924   0.310   6.910
 1875SOL    HW2 6525   0.764   0.310   6.940
 1876SOL     OW 6526   3.538   0.436   5.528
 1876SOL    HW1 6527   3.600   0.478   5.462
 1876SOL    HW2 6528   3.486   0.508   5.575
 1877SOL     OW 6529   0.304   0.584   3.777
 1877SOL    HW1 6530   0.273   0.587   3.872
 1877SOL    HW2 6531   0.316   0.678   3.743
 1878SOL     OW 6532   6.884   2.105   3.635
 1878SOL    HW1 6533   6.926   2.026   3.592
 1878SOL    HW2 6534   6.930   2.123   3.723
 1879SOL     OW 6535   0.981   3.611   4.464
 1879SOL    HW1 6536   0.986   3.515   4.491
 1879SOL    HW2 6537   0.935   3.618   4.375
 1880SOL     OW 6538   0.110   1.182   4.773
 1880SOL    HW1 6539   0.203   1.189   4.738
 1880SOL    HW2 6540   0.069   1.273   4.778
 1881SOL     OW 6541   6.140   2.167   1.606
 1881SOL    HW1 6542   6.149   2.070   1.629
 1881SOL    HW2 6543   6.044   2.192   1.604
 1882SOL     OW 6544   1.330   4.603   6.371
 1882SOL    HW1 6545   1.291   4.596   6.463
 1882SOL    HW2 6546   1.263   4.571   6.304
 1883SOL     OW 6547   6.247   2.356   2.242
 1883SOL    HW1 6548   6.178   2.334   2.311
 1883SOL    HW2 6549   6.283   2.448   2.258
 1884SOL     OW 6550   1.016   1.732   0.731
 1884SOL    HW1 6551   1.018   1.821   0.686
 1884SOL    HW2 6552   0.947   1.733   0.804
 1885SOL     OW 6553   1.765   1.610   5.536
 1885SOL    HW1 6554   1.799   1.704   5.532
 1885SOL    HW2 6555   1.756   1.582   5.631
 1886SOL     OW 6556   1.990   0.351   2.089
 1886SOL    HW1 6557   2.049   0.318   2.162
 1886SOL    HW2 6558   2.013   0.447   2.069
 1887SOL     OW 6559   0.670   5.269   5.678
 1887SOL    HW1 6560   0.641   5.354   5.633
 1887SOL    HW2 6561   0.769   5.273   5.694
 1888SOL     OW 6562   3.028   1.911   0.102
 1888SOL    HW1 6563   3.091   1.969   0.155
 1888SOL    HW2 6564   2.936   1.948   0.107
 1889SOL     OW 6565   0.486   3.930   3.673
 1889SOL    HW1 6566   0.506   3.835   3.650
 1889SOL    HW2 6567   0.402   3.959   3.628
 1890SOL     OW 6568   0.845   5.462   4.398
 1890SOL    HW1 6569   0.766   5.426   4.347
 1890SOL    HW2 6570   0.851   5.416   4.487
 1891SOL     OW 6571   4.410   3.104   1.693
 1891SOL    HW1 6572   4.402   3.203   1.698
 1891SOL    HW2 6573   4.475   3.072   1.762
 1892SOL     OW 6574   0.205   0.824   2.536
 1892SOL    HW1 6575   0.147   0.857   2.611
 1892SOL    HW2 6576   0.163   0.849   2.449
 1893SOL     OW 6577   4.021   3.228   2.091
 1893SOL    HW1 6578   4.083   3.172   2.037
 1893SOL    HW2 6579   4.073   3.288   2.152
 1894SOL     OW 6580   3.206   4.030   4.156
 1894SOL    HW1 6581   3.172   4.051   4.248
 1894SOL    HW2 6582   3.202   3.932   4.141
 1895SOL     OW 6583   4.035   0.257   1.066
 1895SOL    HW1 6584   4.043   0.228   1.161
 1895SOL    HW2 6585   3.967   0.330   1.058
 1896SOL     OW 6586   6.351   1.762   0.683
 1896SOL    HW1 6587   6.277   1.799   0.626
 1896SOL    HW2 6588   6.383   1.676   0.644
 1897SOL     OW 6589   1.761   4.852   1.989
 1897SOL    HW1 6590   1.838   4.893   2.038
 1897SOL    HW2 6591   1.707   4.924   1.946
 1898SOL     OW 6592   2.208   4.532   2.477
 1898SOL    HW1 6593   2.179   4.504   2.386
 1898SOL    HW2 6594   2.286   4.476   2.506
 1899SOL     OW 6595   0.878   0.840   0.508
 1899SOL    HW1 6596   0.934   0.818   0.428
 1899SOL    HW2 6597   0.789   0.875   0.479
 1900SOL     OW 6598   2.853   0.518   6.838
 1900SOL    HW1 6599   2.819   0.518   6.744
 1900SOL    HW2 6600   2.920   0.445   6.848
 1901SOL     OW 6601   2.635   2.794   1.090
 1901SOL    HW1 6602   2.609   2.798   0.993
 1901SOL    HW2 6603   2.710   2.729   1.101
 1902SOL     OW 6604   2.599   0.211   4.643
 1902SOL    HW1 6605   2.501   0.206   4.667
 1902SOL    HW2 6606   2.614   0.288   4.581
 1903SOL     OW 6607   0.793   2.822   3.667
 1903SOL    HW1 6608   0.732   2.811   3.588
 1903SOL    HW2 6609   0.887   2.828   3.636
 1904SOL     OW 6610   5.664   5.046   2.548
 1904SOL    HW1 6611   5.600   5.093   2.487
 1904SOL    HW2 6612   5.642   4.948   2.550
 1905SOL     OW 6613   0.782   0.413   3.861
 1905SOL    HW1 6614   0.858   0.360   3.823
 1905SOL    HW2 6615   0.696   0.367   3.840
 1906SOL     OW 6616   2.717   0.470   6.116
 1906SOL    HW1 6617   2.778   0.453   6.193
 1906SOL    HW2 6618   2.651   0.395   6.108
 1907SOL     OW 6619   4.819   2.808   0.807
 1907SOL    HW1 6620   4.829   2.878   0.878
 1907SOL    HW2 6621   4.783   2.724   0.847
 1908SOL     OW 6622   4.162   6.803   6.464
 1908SOL    HW1 6623   4.222   6.858   6.522
 1908SOL    HW2 6624   4.121   6.861   6.394
 1909SOL     OW 6625   0.508   3.085   3.754
 1909SOL    HW1 6626   0.532   3.070   3.850
 1909SOL    HW2 6627   0.436   3.155   3.748
 1910SOL     OW 6628   6.667   6.413   5.520
 1910SOL    HW1 6629   6.642   6.507   5.542
 1910SOL    HW2 6630   6.633   6.390   5.429
 1911SOL     OW 6631   6.939   4.382   4.372
 1911SOL    HW1 6632   6.961   4.382   4.274
 1911SOL    HW2 6633   7.015   4.342   4.423
 1912SOL     OW 6634   2.813   5.611   2.331
 1912SOL    HW1 6635   2.723   5.644   2.303
 1912SOL    HW2 6636   2.872   5.602   2.251
 1913SOL     OW 6637   2.291   6.294   4.612
 1913SOL    HW1 6638   2.286   6.375   4.670
 1913SOL    HW2 6639   2.369   6.302   4.550
 1914SOL     OW 6640   3.717   4.374   6.435
 1914SOL    HW1 6641   3.770   4.458   6.422
 1914SOL    HW2 6642   3.628   4.396   6.476
 1915SOL     OW 6643   4.304   2.773   5.814
 1915SOL    HW1 6644   4.265   2.815   5.732
 1915SOL    HW2 6645   4.263   2.815   5.895
 1916SOL     OW 6646   3.869   0.049   1.004
 1916SOL    HW1 6647   3.862   0.080   0.909
 1916SOL    HW2 6648   3.920   0.116   1.058
 1917SOL     OW 6649   2.490   4.059   0.168
 1917SOL    HW1 6650   2.579   4.024   0.139
 1917SOL    HW2 6651   2.432   3.983   0.197
 1918SOL     OW 6652   1.161   0.920   4.910
 1918SOL    HW1 6653   1.200   0.829   4.890
 1918SOL    HW2 6654   1.175   0.980   4.832
 1919SOL     OW 6655   2.112   1.432   0.803
 1919SOL    HW1 6656   2.098   1.531   0.795
 1919SOL    HW2 6657   2.207   1.414   0.825
 1920SOL     OW 6658   5.622   2.275   2.335
 1920SOL    HW1 6659   5.644   2.285   2.238
 1920SOL    HW2 6660   5.689   2.324   2.390
 1921SOL     OW 6661   1.512   2.791   0.346
 1921SOL    HW1 6662   1.544   2.714   0.290
 1921SOL    HW2 6663   1.459   2.854   0.289
 1922SOL     OW 6664   3.259   3.649   2.058
 1922SOL    HW1 6665   3.329   3.601   2.006
 1922SOL    HW2 6666   3.301   3.695   2.137
 1923SOL     OW 6667   5.350   0.022   6.691
 1923SOL    HW1 6668   5.297   0.025   6.606
 1923SOL    HW2 6669   5.351   0.114   6.732
 1924SOL     OW 6670   4.485   0.363   1.158
 1924SOL    HW1 6671   4.481   0.364   1.257
 1924SOL    HW2 6672   4.420   0.430   1.121
 1925SOL     OW 6673   0.908   4.379   1.836
 1925SOL    HW1 6674   0.869   4.419   1.919
 1925SOL    HW2 6675   0.948   4.290   1.858
 1926SOL     OW 6676   3.729   0.002   1.931
 1926SOL    HW1 6677   3.664   6.947   1.920
 1926SOL    HW2 6678   3.811   6.989   1.978
 1927SOL     OW 6679   2.258   4.007   1.099
 1927SOL    HW1 6680   2.299   3.920   1.072
 1927SOL    HW2 6681   2.189   4.033   1.031
 1928SOL     OW 6682   4.729   4.396   4.455
 1928SOL    HW1 6683   4.726   4.326   4.526
 1928SOL    HW2 6684   4.637   4.431   4.439
 1929SOL     OW 6685   3.221   0.650   2.728
 1929SOL    HW1 6686   3.271   0.665   2.644
 1929SOL    HW2 6687   3.236   0.556   2.760
 1930SOL     OW 6688   4.921   3.077   6.146
 1930SOL    HW1 6689   4.840   3.135   6.145
 1930SOL    HW2 6690   4.987   3.114   6.211
 1931SOL     OW 6691   1.210   1.787   6.641
 1931SOL    HW1 6692   1.122   1.741   6.640
 1931SOL    HW2 6693   1.227   1.830   6.552
 1932SOL     OW 6694   4.864   2.565   3.171
 1932SOL    HW1 6695   4.907   2.585   3.083
 1932SOL    HW2 6696   4.842   2.467   3.175
 1933SOL     OW 6697   0.067   1.929   0.009
 1933SOL    HW1 6698   0.158   1.953   6.993
 1933SOL    HW2 6699   0.059   1.963   0.102
 1934SOL     OW 6700   0.384   0.478   5.445
 1934SOL    HW1 6701   0.297   0.429   5.436
 1934SOL    HW2 6702   0.449   0.423   5.497
 1935SOL     OW 6703   4.676   4.300   3.435
 1935SOL    HW1 6704   4.695   4.254   3.348
 1935SOL    HW2 6705   4.594   4.357   3.426
 1936SOL     OW 6706   5.197   3.334   4.209
 1936SOL    HW1 6707   5.293   3.360   4.199
 1936SOL    HW2 6708   5.164   3.361   4.299
 1937SOL     OW 6709   5.040   5.653   6.557
 1937SOL    HW1 6710   5.063   5.647   6.459
 1937SOL    HW2 6711   5.076   5.572   6.604
 1938SOL     OW 6712   0.898   2.441   6.768
 1938SOL    HW1 6713   0.986   2.397   6.783
 1938SOL    HW2 6714   0.909   2.514   6.700
 1939SOL     OW 6715   0.788   5.629   4.953
 1939SOL    HW1 6716   0.848   5.600   4.878
 1939SOL    HW2 6717   0.790   5.561   5.026
 1940SOL     OW 6718   6.141   4.840   1.699
 1940SOL    HW1 6719   6.126   4.741   1.704
 1940SOL    HW2 6720   6.239   4.858   1.707
 1941SOL     OW 6721   0.492   2.683   3.716
 1941SOL    HW1 6722   0.547   2.676   3.799
 1941SOL    HW2 6723   0.551   2.712   3.640
 1942SOL     OW 6724   5.507   3.229   2.785
 1942SOL    HW1 6725   5.594   3.202   2.744
 1942SOL    HW2 6726   5.493   3.177   2.870
 1943SOL     OW 6727   1.498   1.245   2.216
 1943SOL    HW1 6728   1.555   1.316   2.256
 1943SOL    HW2 6729   1.404   1.278   2.209
 1944SOL     OW 6730   6.927   3.125   0.839
 1944SOL    HW1 6731   6.879   3.210   0.820
 1944SOL    HW2 6732   6.964   3.127   0.932
 1945SOL     OW 6733   3.579   6.551   0.648
 1945SOL    HW1 6734   3.663   6.523   0.692
 1945SOL    HW2 6735   3.561   6.647   0.668
 1946SOL     OW 6736   6.831   6.123   1.123
 1946SOL    HW1 6737   6.905   6.056   1.118
 1946SOL    HW2 6738   6.746   6.080   1.092
 1947SOL     OW 6739   5.812   4.265   3.256
 1947SOL    HW1 6740   5.773   4.285   3.166
 1947SOL    HW2 6741   5.756   4.196   3.302
 1948SOL     OW 6742   5.834   3.732   3.022
 1948SOL    HW1 6743   5.754   3.727   2.962
 1948SOL    HW2 6744   5.831   3.818   3.073
 1949SOL     OW 6745   4.009   4.376   0.864
 1949SOL    HW1 6746   3.980   4.471   0.858
 1949SOL    HW2 6747   3.955   4.321   0.799
 1950SOL     OW 6748   3.618   4.160   3.926
 1950SOL    HW1 6749   3.552   4.164   3.850
 1950SOL    HW2 6750   3.707   4.133   3.891
 1951SOL     OW 6751   6.662   4.255   5.643
 1951SOL    HW1 6752   6.672   4.184   5.573
 1951SOL    HW2 6753   6.585   4.233   5.702
 1952SOL     OW 6754   5.337   3.894   0.968
 1952SOL    HW1 6755   5.265   3.959   0.994
 1952SOL    HW2 6756   5.338   3.882   0.869
 1953SOL     OW 6757   0.876   1.298   6.498
 1953SOL    HW1 6758   0.889   1.359   6.576
 1953SOL    HW2 6759   0.956   1.303   6.438
 1954SOL     OW 6760   4.469   0.094   1.815
 1954SOL    HW1 6761   4.496   0.177   1.865
 1954SOL    HW2 6762   4.511   0.014   1.859
 1955SOL     OW 6763   1.185   1.584   1.733
 1955SOL    HW1 6764   1.138   1.625   1.811
 1955SOL    HW2 6765   1.138   1.609   1.649
 1956SOL     OW 6766   5.781   1.055   2.143
 1956SOL    HW1 6767   5.816   1.042   2.050
 1956SOL    HW2 6768   5.858   1.068   2.205
 1957SOL     OW 6769   5.493   2.645   3.908
 1957SOL    HW1 6770   5.511   2.616   4.002
 1957SOL    HW2 6771   5.440   2.575   3.861
 1958SOL     OW 6772   4.413   1.595   0.740
 1958SOL    HW1 6773   4.499   1.645   0.741
 1958SOL    HW2 6774   4.404   1.547   0.652
 1959SOL     OW 6775   6.603   0.048   3.794
 1959SOL    HW1 6776   6.664   0.017   3.721
 1959SOL    HW2 6777   6.570   0.140   3.773
 1960SOL     OW 6778   5.940   3.497   2.777
 1960SOL    HW1 6779   5.874   3.548   2.722
 1960SOL    HW2 6780   6.008   3.559   2.815
 1961SOL     OW 6781   6.240   4.508   5.084
 1961SOL    HW1 6782   6.309   4.524   5.013
 1961SOL    HW2 6783   6.151   4.492   5.042
 1962SOL     OW 6784   1.260   6.337   2.917
 1962SOL    HW1 6785   1.310   6.419   2.946
 1962SOL    HW2 6786   1.225   6.350   2.824
 1963SOL     OW 6787   1.068   1.619   1.484
 1963SOL    HW1 6788   1.075   1.522   1.461
 1963SOL    HW2 6789   1.155   1.665   1.462
 1964SOL     OW 6790   5.760   4.361   1.575
 1964SOL    HW1 6791   5.709   4.409   1.503
 1964SOL    HW2 6792   5.827   4.423   1.615
 1965SOL     OW 6793   0.667   4.579   4.220
 1965SOL    HW1 6794   0.641   4.592   4.124
 1965SOL    HW2 6795   0.585   4.560   4.275
 1966SOL     OW 6796   1.306   4.646   1.194
 1966SOL    HW1 6797   1.376   4.704   1.152
 1966SOL    HW2 6798   1.301   4.665   1.292
 1967SOL     OW 6799   6.372   2.622   3.497
 1967SOL    HW1 6800   6.422   2.706   3.519
 1967SOL    HW2 6801   6.436   2.555   3.459
 1968SOL     OW 6802   2.201   1.269   5.849
 1968SOL    HW1 6803   2.224   1.180   5.889
 1968SOL    HW2 6804   2.103   1.286   5.859
 1969SOL     OW 6805   3.075   0.452   1.086
 1969SOL    HW1 6806   3.022   0.412   1.161
 1969SOL    HW2 6807   3.093   0.382   1.017
 1970SOL     OW 6808   6.534   5.697   4.825
 1970SOL    HW1 6809   6.610   5.686   4.761
 1970SOL    HW2 6810   6.552   5.644   4.908
 1971SOL     OW 6811   1.295   0.004   5.677
 1971SOL    HW1 6812   1.349   6.949   5.638
 1971SOL    HW2 6813   1.293   0.080   5.612
 1972SOL     OW 6814   5.895   2.610   1.551
 1972SOL    HW1 6815   5.801   2.623   1.585
 1972SOL    HW2 6816   5.959   2.648   1.617
 1973SOL     OW 6817   2.638   3.691   1.057
 1973SOL    HW1 6818   2.584   3.767   1.092
 1973SOL    HW2 6819   2.735   3.708   1.072
 1974SOL     OW 6820   3.919   6.380   4.769
 1974SOL    HW1 6821   3.913   6.392   4.670
 1974SOL    HW2 6822   4.008   6.342   4.793
 1975SOL     OW 6823   1.933   3.437   3.200
 1975SOL    HW1 6824   1.848   3.388   3.221
 1975SOL    HW2 6825   2.003   3.373   3.170
 1976SOL     OW 6826   6.836   0.057   6.315
 1976SOL    HW1 6827   6.808   0.109   6.234
 1976SOL    HW2 6828   6.760   7.019   6.345
 1977SOL     OW 6829   2.383   4.170   6.761
 1977SOL    HW1 6830   2.319   4.232   6.806
 1977SOL    HW2 6831   2.365   4.171   6.662
 1978SOL     OW 6832   2.421   6.733   2.461
 1978SOL    HW1 6833   2.491   6.740   2.390
 1978SOL    HW2 6834   2.397   6.637   2.475
 1979SOL     OW 6835   6.077   5.466   6.292
 1979SOL    HW1 6836   6.154   5.528   6.305
 1979SOL    HW2 6837   6.018   5.501   6.218
 1980SOL     OW 6838   3.173   1.276   1.719
 1980SOL    HW1 6839   3.208   1.185   1.697
 1980SOL    HW2 6840   3.250   1.340   1.723
 1981SOL     OW 6841   4.573   2.573   3.194
 1981SOL    HW1 6842   4.648   2.540   3.251
 1981SOL    HW2 6843   4.610   2.631   3.121
 1982SOL     OW 6844   6.375   3.613   3.839
 1982SOL    HW1 6845   6.324   3.644   3.919
 1982SOL    HW2 6846   6.312   3.589   3.766
 1983SOL     OW 6847   0.273   0.255   1.047
 1983SOL    HW1 6848   0.316   0.270   0.959
 1983SOL    HW2 6849   0.203   0.324   1.063
 1984SOL     OW 6850   5.890   2.586   5.261
 1984SOL    HW1 6851   5.896   2.486   5.266
 1984SOL    HW2 6852   5.799   2.616   5.291
 1985SOL     OW 6853   6.430   4.837   1.787
 1985SOL    HW1 6854   6.509   4.854   1.728
 1985SOL    HW2 6855   6.426   4.907   1.859
 1986SOL     OW 6856   3.186   1.248   6.903
 1986SOL    HW1 6857   3.114   1.225   6.837
 1986SOL    HW2 6858   3.261   1.295   6.857
 1987SOL     OW 6859   1.434   0.739   4.026
 1987SOL    HW1 6860   1.341   0.712   4.050
 1987SOL    HW2 6861   1.494   0.659   4.029
 1988SOL     OW 6862   6.986   2.400   0.754
 1988SOL    HW1 6863   6.998   2.494   0.723
 1988SOL    HW2 6864   6.891   2.373   0.743
 1989SOL     OW 6865   2.820   5.234   5.705
 1989SOL    HW1 6866   2.872   5.247   5.621
 1989SOL    HW2 6867   2.874   5.265   5.783
 1990SOL     OW 6868   4.031   0.760   0.145
 1990SOL    HW1 6869   4.018   0.730   0.050
 1990SOL    HW2 6870   3.949   0.739   0.198
 1991SOL     OW 6871   2.989   5.631   0.501
 1991SOL    HW1 6872   3.082   5.661   0.477
 1991SOL    HW2 6873   2.947   5.588   0.421
 1992SOL     OW 6874   0.254   6.455   0.255
 1992SOL    HW1 6875   0.348   6.454   0.218
 1992SOL    HW2 6876   0.208   6.538   0.224
 1993SOL     OW 6877   1.947   2.857   4.598
 1993SOL    HW1 6878   2.028   2.799   4.594
 1993SOL    HW2 6879   1.898   2.842   4.684
 1994SOL     OW 6880   3.539   3.272   0.491
 1994SOL    HW1 6881   3.515   3.325   0.572
 1994SOL    HW2 6882   3.552   3.176   0.516
 1995SOL     OW 6883   5.335   1.805   4.864
 1995SOL    HW1 6884   5.262   1.869   4.886
 1995SOL    HW2 6885   5.297   1.712   4.861
 1996SOL     OW 6886   3.881   1.483   1.106
 1996SOL    HW1 6887   3.848   1.516   1.018
 1996SOL    HW2 6888   3.962   1.534   1.133
 1997SOL     OW 6889   3.531   1.611   3.743
 1997SOL    HW1 6890   3.622   1.591   3.777
 1997SOL    HW2 6891   3.466   1.543   3.779
 1998SOL     OW 6892   1.306   3.198   1.987
 1998SOL    HW1 6893   1.385   3.184   2.046
 1998SOL    HW2 6894   1.301   3.124   1.920
 1999SOL     OW 6895   0.567   0.308   5.602
 1999SOL    HW1 6896   0.656   0.333   5.565
 1999SOL    HW2 6897   0.579   0.238   5.673
 2000SOL     OW 6898   3.770   3.611   6.463
 2000SOL    HW1 6899   3.790   3.546   6.536
 2000SOL    HW2 6900   3.856   3.642   6.422
 2001SOL     OW 6901   1.979   1.447   6.666
 2001SOL    HW1 6902   1.913   1.479   6.733
 2001SOL    HW2 6903   1.934   1.436   6.577
 2002SOL     OW 6904   6.933   5.597   1.144
 2002SOL    HW1 6905   6.930   5.665   1.071
 2002SOL    HW2 6906   0.009   5.576   1.166
 2003SOL     OW 6907   5.889   4.862   2.290
 2003SOL    HW1 6908   5.852   4.921   2.219
 2003SOL    HW2 6909   5.819   4.795   2.317
 2004SOL     OW 6910   3.482   0.722   3.778
 2004SOL    HW1 6911   3.506   0.739   3.683
 2004SOL    HW2 6912   3.468   0.624   3.792
 2005SOL     OW 6913   0.506   5.981   0.369
 2005SOL    HW1 6914   0.560   6.056   0.333
 2005SOL    HW2 6915   0.443   5.948   0.298
 2006SOL     OW 6916   5.179   0.190   3.295
 2006SOL    HW1 6917   5.207   0.095   3.309
 2006SOL    HW2 6918   5.191   0.241   3.380
 2007SOL     OW 6919   5.385   4.411   0.158
 2007SOL    HW1 6920   5.336   4.492   0.189
 2007SOL    HW2 6921   5.328   4.361   0.093
 2008SOL     OW 6922   2.197   4.058   3.706
 2008SOL    HW1 6923   2.192   4.157   3.722
 2008SOL    HW2 6924   2.203   4.010   3.793
 2009SOL     OW 6925   6.551   6.117   1.670
 2009SOL    HW1 6926   6.499   6.133   1.754
 2009SOL    HW2 6927   6.648   6.105   1.692
 2010SOL     OW 6928   1.824   2.128   2.088
 2010SOL    HW1 6929   1.806   2.044   2.037
 2010SOL    HW2 6930   1.738   2.167   2.121
 2011SOL     OW 6931   6.953   5.902   5.642
 2011SOL    HW1 6932   6.932   5.943   5.553
 2011SOL    HW2 6933   6.974   5.805   5.630
 2012SOL     OW 6934   1.413   3.367   2.634
 2012SOL    HW1 6935   1.481   3.409   2.693
 2012SOL    HW2 6936   1.392   3.429   2.558
 2013SOL     OW 6937   0.709   2.817   3.204
 2013SOL    HW1 6938   0.729   2.742   3.141
 2013SOL    HW2 6939   0.774   2.892   3.189
 2014SOL     OW 6940   3.068   0.509   3.768
 2014SOL    HW1 6941   3.098   0.473   3.680
 2014SOL    HW2 6942   3.101   0.602   3.779
 2015SOL     OW 6943   3.724   0.827   1.998
 2015SOL    HW1 6944   3.750   0.822   2.095
 2015SOL    HW2 6945   3.780   0.762   1.946
 2016SOL     OW 6946   1.959   6.731   5.949
 2016SOL    HW1 6947   1.968   6.831   5.958
 2016SOL    HW2 6948   1.980   6.705   5.854
 2017SOL     OW 6949   4.116   6.868   2.719
 2017SOL    HW1 6950   4.128   6.894   2.623
 2017SOL    HW2 6951   4.153   6.776   2.734
 2018SOL     OW 6952   0.283   1.934   2.881
 2018SOL    HW1 6953   0.220   2.011   2.894
 2018SOL    HW2 6954   0.240   1.865   2.823
 2019SOL     OW 6955   6.491   4.773   6.388
 2019SOL    HW1 6956   6.424   4.798   6.318
 2019SOL    HW2 6957   6.530   4.684   6.366
 2020SOL     OW 6958   1.748   6.402   6.137
 2020SOL    HW1 6959   1.759   6.330   6.068
 2020SOL    HW2 6960   1.836   6.419   6.181
 2021SOL     OW 6961   6.204   6.420   3.000
 2021SOL    HW1 6962   6.206   6.322   3.020
 2021SOL    HW2 6963   6.124   6.462   3.044
 2022SOL     OW 6964   2.171   4.083   5.248
 2022SOL    HW1 6965   2.229   4.149   5.297
 2022SOL    HW2 6966   2.229   4.021   5.196
 2023SOL     OW 6967   6.761   0.291   0.122
 2023SOL    HW1 6968   6.817   0.306   0.204
 2023SOL    HW2 6969   6.766   0.195   0.095
 2024SOL     OW 6970   0.493   5.623   4.225
 2024SOL    HW1 6971   0.559   5.694   4.250
 2024SOL    HW2 6972   0.541   5.548   4.179
 2025SOL     OW 6973   2.468   0.466   4.792
 2025SOL    HW1 6974   2.425   0.390   4.842
 2025SOL    HW2 6975   2.568   0.456   4.798
 2026SOL     OW 6976   6.040   0.597   6.092
 2026SOL    HW1 6977   6.054   0.674   6.154
 2026SOL    HW2 6978   6.127   0.550   6.077
 2027SOL     OW 6979   0.921   5.878   2.405
 2027SOL    HW1 6980   0.992   5.813   2.432
 2027SOL    HW2 6981   0.904   5.942   2.480
 2028SOL     OW 6982   3.701   5.945   2.768
 2028SOL    HW1 6983   3.801   5.946   2.764
 2028SOL    HW2 6984   3.671   5.874   2.833
 2029SOL     OW 6985   6.955   2.682   6.350
 2029SOL    HW1 6986   6.922   2.730   6.431
 2029SOL    HW2 6987   6.887   2.614   6.322
 2030SOL     OW 6988   2.776   6.062   3.350
 2030SOL    HW1 6989   2.739   6.003   3.421
 2030SOL    HW2 6990   2.741   6.033   3.261
 2031SOL     OW 6991   6.319   5.520   3.151
 2031SOL    HW1 6992   6.416   5.502   3.138
 2031SOL    HW2 6993   6.306   5.588   3.223
 2032SOL     OW 6994   2.845   1.560   6.236
 2032SOL    HW1 6995   2.780   1.636   6.240
 2032SOL    HW2 6996   2.827   1.506   6.154
 2033SOL     OW 6997   1.880   1.068   0.933
 2033SOL    HW1 6998   1.972   1.079   0.972
 2033SOL    HW2 6999   1.829   1.001   0.987
 2034SOL     OW 7000   0.442   5.166   5.748
 2034SOL    HW1 7001   0.536   5.200   5.754
 2034SOL    HW2 7002   0.393   5.190   5.832
 2035SOL     OW 7003   5.673   0.078   2.185
 2035SOL    HW1 7004   5.737   0.032   2.245
 2035SOL    HW2 7005   5.723   0.140   2.124
 2036SOL     OW 7006   1.047   3.902   2.421
 2036SOL    HW1 7007   0.986   3.893   2.342
 2036SOL    HW2 7008   1.010   3.851   2.498
 2037SOL     OW 7009   0.244   3.107   6.432
 2037SOL    HW1 7010   0.231   3.178   6.362
 2037SOL    HW2 7011   0.155   3.073   6.463
 2038SOL     OW 7012   2.274   1.672   6.847
 2038SOL    HW1 7013   2.218   1.612   6.904
 2038SOL    HW2 7014   2.369   1.667   6.877
 2039SOL     OW 7015   6.482   5.884   2.336
 2039SOL    HW1 7016   6.457   5.911   2.429
 2039SOL    HW2 7017   6.580   5.865   2.332
 2040SOL     OW 7018   2.244   3.048   0.331
 2040SOL    HW1 7019   2.341   3.022   0.332
 2040SOL    HW2 7020   2.220   3.089   0.418
 2041SOL     OW 7021   1.995   0.147   6.360
 2041SOL    HW1 7022   1.928   0.075   6.381
 2041SOL    HW2 7023   1.953   0.215   6.299
 2042SOL     OW 7024   4.772   0.517   5.867
 2042SOL    HW1 7025   4.833   0.496   5.791
 2042SOL    HW2 7026   4.777   0.444   5.935
 2043SOL     OW 7027   6.982   3.487   1.334
 2043SOL    HW1 7028   0.035   3.420   1.317
 2043SOL    HW2 7029   0.000   3.580   1.327
 2044SOL     OW 7030   5.382   0.727   0.650
 2044SOL    HW1 7031   5.325   0.751   0.729
 2044SOL    HW2 7032   5.326   0.681   0.581
 2045SOL     OW 7033   1.835   6.046   6.188
 2045SOL    HW1 7034   1.784   6.081   6.109
 2045SOL    HW2 7035   1.931   6.073   6.179
 2046SOL     OW 7036   0.968   2.071   5.091
 2046SOL    HW1 7037   0.970   2.162   5.050
 2046SOL    HW2 7038   1.061   2.035   5.097
 2047SOL     OW 7039   6.400   2.018   6.814
 2047SOL    HW1 7040   6.303   2.043   6.805
 2047SOL    HW2 7041   6.455   2.072   6.750
 2048SOL     OW 7042   1.010   1.614   4.416
 2048SOL    HW1 7043   0.914   1.586   4.415
 2048SOL    HW2 7044   1.019   1.702   4.369
 2049SOL     OW 7045   4.981   1.258   4.746
 2049SOL    HW1 7046   4.901   1.303   4.707
 2049SOL    HW2 7047   4.985   1.277   4.844
 2050SOL     OW 7048   0.293   1.472   3.890
 2050SOL    HW1 7049   0.299   1.560   3.937
 2050SOL    HW2 7050   0.199   1.438   3.896
 2051SOL     OW 7051   2.923   6.630   1.276
 2051SOL    HW1 7052   2.941   6.641   1.374
 2051SOL    HW2 7053   3.006   6.597   1.231
 2052SOL     OW 7054   1.342   4.350   6.986
 2052SOL    HW1 7055   1.405   4.274   6.996
 2052SOL    HW2 7056   1.388   4.435   7.010
 2053SOL     OW 7057   0.896   5.207   4.008
 2053SOL    HW1 7058   0.924   5.172   4.097
 2053SOL    HW2 7059   0.977   5.214   3.949
 2054SOL     OW 7060   3.651   3.539   3.749
 2054SOL    HW1 7061   3.750   3.533   3.743
 2054SOL    HW2 7062   3.624   3.557   3.844
 2055SOL     OW 7063   1.681   2.388   5.647
 2055SOL    HW1 7064   1.615   2.462   5.635
 2055SOL    HW2 7065   1.739   2.382   5.566
 2056SOL     OW 7066   4.142   4.359   1.384
 2056SOL    HW1 7067   4.239   4.356   1.409
 2056SOL    HW2 7068   4.130   4.324   1.291
 2057SOL     OW 7069   5.784   2.632   4.589
 2057SOL    HW1 7070   5.778   2.561   4.659
 2057SOL    HW2 7071   5.776   2.722   4.631
 2058SOL     OW 7072   0.652   6.388   3.544
 2058SOL    HW1 7073   0.614   6.461   3.602
 2058SOL    HW2 7074   0.636   6.411   3.448
 2059SOL     OW 7075   2.412   0.062   5.540
 2059SOL    HW1 7076   2.404   0.007   5.624
 2059SOL    HW2 7077   2.461   0.146   5.561
 2060SOL     OW 7078   1.198   3.309   7.002
 2060SOL    HW1 7079   1.195   3.209   6.994
 2060SOL    HW2 7080   1.177   3.350   6.914
 2061SOL     OW 7081   2.408   1.989   2.397
 2061SOL    HW1 7082   2.353   1.918   2.354
 2061SOL    HW2 7083   2.348   2.058   2.438
 2062SOL     OW 7084   6.219   5.228   5.125
 2062SOL    HW1 7085   6.153   5.182   5.067
 2062SOL    HW2 7086   6.201   5.326   5.124
 2063SOL     OW 7087   1.782   0.849   5.032
 2063SOL    HW1 7088   1.725   0.800   5.097
 2063SOL    HW2 7089   1.774   0.947   5.048
 2064SOL     OW 7090   0.614   3.384   3.610
 2064SOL    HW1 7091   0.661   3.357   3.694
 2064SOL    HW2 7092   0.613   3.307   3.546
 2065SOL     OW 7093   4.788   2.301   5.621
 2065SOL    HW1 7094   4.795   2.336   5.715
 2065SOL    HW2 7095   4.694   2.271   5.604
 2066SOL     OW 7096   6.095   2.704   5.444
 2066SOL    HW1 7097   6.081   2.669   5.352
 2066SOL    HW2 7098   6.123   2.629   5.504
 2067SOL     OW 7099   6.771   4.648   0.651
 2067SOL    HW1 7100   6.813   4.738   0.647
 2067SOL    HW2 7101   6.677   4.657   0.684
 2068SOL     OW 7102   4.141   0.789   4.407
 2068SOL    HW1 7103   4.228   0.754   4.371
 2068SOL    HW2 7104   4.135   0.887   4.389
 2069SOL     OW 7105   0.266   2.447   4.069
 2069SOL    HW1 7106   0.322   2.418   4.146
 2069SOL    HW2 7107   0.311   2.422   3.983
 2070SOL     OW 7108   0.495   4.043   2.114
 2070SOL    HW1 7109   0.476   4.141   2.116
 2070SOL    HW2 7110   0.421   3.996   2.066
 2071SOL     OW 7111   6.549   1.666   6.206
 2071SOL    HW1 7112   6.639   1.683   6.245
 2071SOL    HW2 7113   6.559   1.616   6.120
 2072SOL     OW 7114   3.996   4.501   5.771
 2072SOL    HW1 7115   4.046   4.471   5.690
 2072SOL    HW2 7116   4.060   4.518   5.845
 2073SOL     OW 7117   3.723   6.124   0.484
 2073SOL    HW1 7118   3.770   6.201   0.441
 2073SOL    HW2 7119   3.656   6.086   0.421
 2074SOL     OW 7120   1.286   3.382   5.186
 2074SOL    HW1 7121   1.383   3.398   5.164
 2074SOL    HW2 7122   1.251   3.307   5.130
 2075SOL     OW 7123   6.902   2.105   2.180
 2075SOL    HW1 7124   6.926   2.057   2.096
 2075SOL    HW2 7125   6.944   2.059   2.258
 2076SOL     OW 7126   5.136   6.238   4.926
 2076SOL    HW1 7127   5.132   6.139   4.910
 2076SOL    HW2 7128   5.216   6.276   4.879
 2077SOL     OW 7129   0.333   3.836   1.144
 2077SOL    HW1 7130   0.262   3.768   1.125
 2077SOL    HW2 7131   0.308   3.888   1.226
 2078SOL     OW 7132   1.860   3.887   5.921
 2078SOL    HW1 7133   1.830   3.956   5.855
 2078SOL    HW2 7134   1.811   3.899   6.007
 2079SOL     OW 7135   5.354   1.763   1.866
 2079SOL    HW1 7136   5.393   1.715   1.944
 2079SOL    HW2 7137   5.281   1.708   1.825
 2080SOL     OW 7138   2.486   3.061   5.591
 2080SOL    HW1 7139   2.514   2.979   5.543
 2080SOL    HW2 7140   2.464   3.133   5.525
 2081SOL     OW 7141   6.922   0.380   3.335
 2081SOL    HW1 7142   6.823   0.390   3.345
 2081SOL    HW2 7143   6.945   0.283   3.333
 2082SOL     OW 7144   0.561   6.534   2.534
 2082SOL    HW1 7145   0.485   6.568   2.479
 2082SOL    HW2 7146   0.613   6.611   2.570
 2083SOL     OW 7147   6.566   6.111   4.590
 2083SOL    HW1 7148   6.604   6.072   4.673
 2083SOL    HW2 7149   6.605   6.065   4.510
 2084SOL     OW 7150   0.571   2.571   1.726
 2084SOL    HW1 7151   0.639   2.566   1.800
 2084SOL    HW2 7152   0.601   2.515   1.649
 2085SOL     OW 7153   5.338   5.489   0.446
 2085SOL    HW1 7154   5.298   5.459   0.532
 2085SOL    HW2 7155   5.388   5.413   0.404
 2086SOL     OW 7156   4.291   7.006   6.923
 2086SOL    HW1 7157   4.278   6.918   6.877
 2086SOL    HW2 7158   4.241   7.006   7.010
 2087SOL     OW 7159   3.979   2.130   6.623
 2087SOL    HW1 7160   3.968   2.034   6.596
 2087SOL    HW2 7161   3.988   2.187   6.541
 2088SOL     OW 7162   6.867   5.786   4.899
 2088SOL    HW1 7163   6.834   5.824   4.985
 2088SOL    HW2 7164   6.967   5.785   4.898
 2089SOL     OW 7165   3.161   3.331   6.167
 2089SOL    HW1 7166   3.156   3.241   6.210
 2089SOL    HW2 7167   3.236   3.383   6.209
 2090SOL     OW 7168   4.390   3.465   5.292
 2090SOL    HW1 7169   4.307   3.503   5.249
 2090SOL    HW2 7170   4.471   3.501   5.245
 2091SOL     OW 7171   5.834   5.644   2.240
 2091SOL    HW1 7172   5.900   5.581   2.199
 2091SOL    HW2 7173   5.742   5.619   2.212
 2092SOL     OW 7174   4.416   3.874   1.226
 2092SOL    HW1 7175   4.446   3.969   1.237
 2092SOL    HW2 7176   4.316   3.871   1.224
 2093SOL     OW 7177   3.799   2.034   2.835
 2093SOL    HW1 7178   3.810   2.085   2.750
 2093SOL    HW2 7179   3.767   1.941   2.815
 2094SOL     OW 7180   4.931   2.607   6.911
 2094SOL    HW1 7181   5.023   2.584   6.879
 2094SOL    HW2 7182   4.938   2.669   6.989
 2095SOL     OW 7183   5.341   6.198   3.659
 2095SOL    HW1 7184   5.278   6.259   3.611
 2095SOL    HW2 7185   5.366   6.122   3.599
 2096SOL     OW 7186   4.528   6.604   2.356
 2096SOL    HW1 7187   4.503   6.545   2.433
 2096SOL    HW2 7188   4.576   6.685   2.391
 2097SOL     OW 7189   1.012   5.326   6.387
 2097SOL    HW1 7190   1.106   5.348   6.410
 2097SOL    HW2 7191   0.987   5.371   6.302
 2098SOL     OW 7192   3.249   6.549   3.109
 2098SOL    HW1 7193   3.333   6.552   3.163
 2098SOL    HW2 7194   3.271   6.534   3.013
 2099SOL     OW 7195   5.221   1.201   0.232
 2099SOL    HW1 7196   5.194   1.230   0.324
 2099SOL    HW2 7197   5.140   1.193   0.175
 2100SOL     OW 7198   5.607   0.872   0.753
 2100SOL    HW1 7199   5.599   0.849   0.850
 2100SOL    HW2 7200   5.521   0.851   0.706
 2101SOL     OW 7201   0.012   6.521   2.395
 2101SOL    HW1 7202   6.981   6.524   2.309
 2101SOL    HW2 7203   6.967   6.526   2.471
 2102SOL     OW 7204   3.634   3.648   0.575
 2102SOL    HW1 7205   3.607   3.562   0.619
 2102SOL    HW2 7206   3.731   3.645   0.553
 2103SOL     OW 7207   3.230   6.015   0.630
 2103SOL    HW1 7208   3.227   5.925   0.673
 2103SOL    HW2 7209   3.141   6.034   0.587
 2104SOL     OW 7210   1.007   4.846   2.984
 2104SOL    HW1 7211   1.003   4.945   2.996
 2104SOL    HW2 7212   1.102   4.816   2.978
 2105SOL     OW 7213   5.210   3.873   6.553
 2105SOL    HW1 7214   5.289   3.814   6.568
 2105SOL    HW2 7215   5.186   3.873   6.456
 2106SOL     OW 7216   5.159   3.672   1.791
 2106SOL    HW1 7217   5.149   3.680   1.890
 2106SOL    HW2 7218   5.077   3.631   1.753
 2107SOL     OW 7219   5.667   3.756   5.107
 2107SOL    HW1 7220   5.642   3.837   5.160
 2107SOL    HW2 7221   5.718   3.784   5.025
 2108SOL     OW 7222   5.682   6.830   5.763
 2108SOL    HW1 7223   5.774   6.800   5.789
 2108SOL    HW2 7224   5.624   6.750   5.749
 2109SOL     OW 7225   2.285   5.622   3.047
 2109SOL    HW1 7226   2.224   5.591   3.120
 2109SOL    HW2 7227   2.254   5.586   2.959
 2110SOL     OW 7228   4.249   0.803   6.878
 2110SOL    HW1 7229   4.182   0.736   6.849
 2110SOL    HW2 7230   4.260   0.800   6.977
 2111SOL     OW 7231   1.000   2.474   5.969
 2111SOL    HW1 7232   1.068   2.546   5.959
 2111SOL    HW2 7233   0.931   2.501   6.037
 2112SOL     OW 7234   0.547   1.682   0.714
 2112SOL    HW1 7235   0.640   1.666   0.682
 2112SOL    HW2 7236   0.541   1.660   0.812
 2113SOL     OW 7237   1.494   0.184   4.779
 2113SOL    HW1 7238   1.398   0.160   4.764
 2113SOL    HW2 7239   1.501   0.244   4.858
 2114SOL     OW 7240   1.955   2.325   6.822
 2114SOL    HW1 7241   1.882   2.390   6.842
 2114SOL    HW2 7242   2.043   2.366   6.846
 2115SOL     OW 7243   6.480   5.694   3.535
 2115SOL    HW1 7244   6.460   5.616   3.594
 2115SOL    HW2 7245   6.578   5.717   3.541
 2116SOL     OW 7246   0.394   2.754   0.060
 2116SOL    HW1 7247   0.432   2.729   6.991
 2116SOL    HW2 7248   0.328   2.684   0.089
 2117SOL     OW 7249   5.985   1.367   2.137
 2117SOL    HW1 7250   5.888   1.356   2.121
 2117SOL    HW2 7251   6.026   1.280   2.163
 2118SOL     OW 7252   6.288   2.702   2.008
 2118SOL    HW1 7253   6.223   2.777   1.999
 2118SOL    HW2 7254   6.237   2.616   2.016
 2119SOL     OW 7255   3.240   0.663   0.106
 2119SOL    HW1 7256   3.319   0.719   0.131
 2119SOL    HW2 7257   3.259   0.567   0.129
 2120SOL     OW 7258   5.850   2.064   0.659
 2120SOL    HW1 7259   5.794   2.122   0.717
 2120SOL    HW2 7260   5.946   2.078   0.681
 2121SOL     OW 7261   1.651   0.622   6.770
 2121SOL    HW1 7262   1.594   0.658   6.844
 2121SOL    HW2 7263   1.595   0.612   6.687
 2122SOL     OW 7264   6.114   0.759   5.039
 2122SOL    HW1 7265   6.101   0.742   4.941
 2122SOL    HW2 7266   6.184   0.697   5.074
 2123SOL     OW 7267   1.497   6.256   3.626
 2123SOL    HW1 7268   1.585   6.235   3.582
 2123SOL    HW2 7269   1.425   6.255   3.556
 2124SOL     OW 7270   3.653   3.121   5.837
 2124SOL    HW1 7271   3.561   3.089   5.856
 2124SOL    HW2 7272   3.649   3.198   5.772
 2125SOL     OW 7273   1.251   6.068   3.245
 2125SOL    HW1 7274   1.193   6.068   3.165
 2125SOL    HW2 7275   1.345   6.045   3.219
 2126SOL     OW 7276   3.520   4.151   6.847
 2126SOL    HW1 7277   3.434   4.140   6.896
 2126SOL    HW2 7278   3.520   4.238   6.798
 2127SOL     OW 7279   0.644   2.317   5.258
 2127SOL    HW1 7280   0.621   2.254   5.183
 2127SOL    HW2 7281   0.587   2.399   5.251
 2128SOL     OW 7282   5.328   2.845   1.414
 2128SOL    HW1 7283   5.251   2.894   1.373
 2128SOL    HW2 7284   5.309   2.746   1.412
 2129SOL     OW 7285   4.909   4.596   3.446
 2129SOL    HW1 7286   4.961   4.536   3.387
 2129SOL    HW2 7287   4.853   4.542   3.509
 2130SOL     OW 7288   2.086   0.941   2.839
 2130SOL    HW1 7289   2.028   0.863   2.817
 2130SOL    HW2 7290   2.083   1.007   2.764
 2131SOL     OW 7291   5.820   1.885   5.817
 2131SOL    HW1 7292   5.772   1.799   5.804
 2131SOL    HW2 7293   5.768   1.943   5.880
 2132SOL     OW 7294   2.875   1.955   6.726
 2132SOL    HW1 7295   2.928   2.038   6.741
 2132SOL    HW2 7296   2.797   1.954   6.788
 2133SOL     OW 7297   2.721   2.155   1.925
 2133SOL    HW1 7298   2.664   2.214   1.868
 2133SOL    HW2 7299   2.799   2.208   1.958
 2134SOL     OW 7300   0.990   6.496   4.636
 2134SOL    HW1 7301   0.911   6.551   4.661
 2134SOL    HW2 7302   1.050   6.549   4.576
 2135SOL     OW 7303   0.489   1.419   3.312
 2135SOL    HW1 7304   0.576   1.417   3.262
 2135SOL    HW2 7305   0.416   1.447   3.251
 2136SOL     OW 7306   0.459   3.974   3.350
 2136SOL    HW1 7307   0.391   3.989   3.421
 2136SOL    HW2 7308   0.545   3.943   3.391
 2137SOL     OW 7309   1.423   0.334   5.009
 2137SOL    HW1 7310   1.466   0.416   4.973
 2137SOL    HW2 7311   1.376   0.355   5.095
 2138SOL     OW 7312   0.417   2.897   0.751
 2138SOL    HW1 7313   0.401   2.994   0.732
 2138SOL    HW2 7314   0.456   2.887   0.843
 2139SOL     OW 7315   2.966   0.640   5.553
 2139SOL    HW1 7316   3.059   0.638   5.516
 2139SOL    HW2 7317   2.949   0.729   5.595
 2140SOL     OW 7318   2.560   5.879   3.411
 2140SOL    HW1 7319   2.476   5.932   3.423
 2140SOL    HW2 7320   2.556   5.831   3.323
 2141SOL     OW 7321   5.480   2.023   0.888
 2141SOL    HW1 7322   5.416   1.983   0.954
 2141SOL    HW2 7323   5.429   2.073   0.818
 2142SOL     OW 7324   2.180   2.476   3.496
 2142SOL    HW1 7325   2.142   2.390   3.529
 2142SOL    HW2 7326   2.126   2.552   3.532
 2143SOL     OW 7327   3.163   6.760   1.573
 2143SOL    HW1 7328   3.176   6.835   1.507
 2143SOL    HW2 7329   3.066   6.735   1.576
 2144SOL     OW 7330   0.893   1.045   3.608
 2144SOL    HW1 7331   0.794   1.038   3.608
 2144SOL    HW2 7332   0.932   0.978   3.546
 2145SOL     OW 7333   3.292   5.011   2.990
 2145SOL    HW1 7334   3.370   5.014   2.928
 2145SOL    HW2 7335   3.325   5.014   3.085
 2146SOL     OW 7336   4.051   3.178   2.924
 2146SOL    HW1 7337   4.063   3.178   3.023
 2146SOL    HW2 7338   4.006   3.094   2.896
 2147SOL     OW 7339   1.177   1.244   5.674
 2147SOL    HW1 7340   1.181   1.154   5.717
 2147SOL    HW2 7341   1.223   1.311   5.732
 2148SOL     OW 7342   4.911   3.235   2.776
 2148SOL    HW1 7343   4.897   3.289   2.694
 2148SOL    HW2 7344   4.907   3.137   2.754
 2149SOL     OW 7345   3.911   0.987   2.836
 2149SOL    HW1 7346   3.995   1.030   2.803
 2149SOL    HW2 7347   3.903   0.895   2.797
 2150SOL     OW 7348   2.927   2.242   3.631
 2150SOL    HW1 7349   2.840   2.195   3.645
 2150SOL    HW2 7350   2.990   2.216   3.704
 2151SOL     OW 7351   3.678   2.854   5.534
 2151SOL    HW1 7352   3.657   2.801   5.616
 2151SOL    HW2 7353   3.680   2.952   5.557
 2152SOL     OW 7354   6.051   6.136   2.087
 2152SOL    HW1 7355   5.952   6.136   2.075
 2152SOL    HW2 7356   6.081   6.047   2.119
 2153SOL     OW 7357   4.487   2.493   3.717
 2153SOL    HW1 7358   4.558   2.422   3.716
 2153SOL    HW2 7359   4.530   2.583   3.706
 2154SOL     OW 7360   3.514   5.801   4.680
 2154SOL    HW1 7361   3.472   5.824   4.768
 2154SOL    HW2 7362   3.514   5.881   4.620
 2155SOL     OW 7363   0.356   4.229   0.224
 2155SOL    HW1 7364   0.371   4.321   0.188
 2155SOL    HW2 7365   0.306   4.174   0.156
 2156SOL     OW 7366   1.959   0.631   2.025
 2156SOL    HW1 7367   2.016   0.671   2.097
 2156SOL    HW2 7368   1.872   0.680   2.020
 2157SOL     OW 7369   0.201   1.830   5.136
 2157SOL    HW1 7370   0.293   1.795   5.152
 2157SOL    HW2 7371   0.138   1.786   5.200
 2158SOL     OW 7372   3.416   6.687   1.663
 2158SOL    HW1 7373   3.334   6.724   1.620
 2158SOL    HW2 7374   3.482   6.660   1.592
 2159SOL     OW 7375   1.290   6.828   5.267
 2159SOL    HW1 7376   1.388   6.835   5.286
 2159SOL    HW2 7377   1.256   6.738   5.297
 2160SOL     OW 7378   3.317   3.867   1.151
 2160SOL    HW1 7379   3.222   3.843   1.168
 2160SOL    HW2 7380   3.326   3.909   1.061
 2161SOL     OW 7381   5.272   2.580   3.560
 2161SOL    HW1 7382   5.335   2.655   3.541
 2161SOL    HW2 7383   5.224   2.554   3.476
 2162SOL     OW 7384   1.522   0.567   6.537
 2162SOL    HW1 7385   1.582   0.487   6.526
 2162SOL    HW2 7386   1.502   0.606   6.447
 2163SOL     OW 7387   2.029   1.140   0.410
 2163SOL    HW1 7388   2.084   1.189   0.477
 2163SOL    HW2 7389   1.960   1.086   0.457
 2164SOL     OW 7390   1.379   1.189   0.008
 2164SOL    HW1 7391   1.360   1.211   0.104
 2164SOL    HW2 7392   1.471   1.221   7.005
 2165SOL     OW 7393   1.914   6.846   2.954
 2165SOL    HW1 7394   1.850   6.912   2.992
 2165SOL    HW2 7395   2.007   6.884   2.956
 2166SOL     OW 7396   0.215   2.654   6.340
 2166SOL    HW1 7397   0.246   2.741   6.302
 2166SOL    HW2 7398   0.115   2.651   6.341
 2167SOL     OW 7399   3.478   0.557   2.948
 2167SOL    HW1 7400   3.491   0.637   2.889
 2167SOL    HW2 7401   3.475   0.587   3.044
 2168SOL     OW 7402   5.855   4.531   4.723
 2168SOL    HW1 7403   5.837   4.481   4.638
 2168SOL    HW2 7404   5.768   4.558   4.764
 2169SOL     OW 7405   5.389   2.139   5.917
 2169SOL    HW1 7406   5.424   2.048   5.895
 2169SOL    HW2 7407   5.453   2.185   5.980
 2170SOL     OW 7408   4.131   5.116   4.622
 2170SOL    HW1 7409   4.104   5.020   4.636
 2170SOL    HW2 7410   4.161   5.128   4.527
 2171SOL     OW 7411   0.149   2.784   0.329
 2171SOL    HW1 7412   0.214   2.782   0.405
 2171SOL    HW2 7413   0.056   2.782   0.364
 2172SOL     OW 7414   3.093   0.262   0.892
 2172SOL    HW1 7415   3.113   0.298   0.801
 2172SOL    HW2 7416   3.126   0.168   0.899
 2173SOL     OW 7417   5.590   1.302   5.451
 2173SOL    HW1 7418   5.583   1.205   5.472
 2173SOL    HW2 7419   5.500   1.345   5.463
 2174SOL     OW 7420   0.388   5.523   4.598
 2174SOL    HW1 7421   0.330   5.546   4.520
 2174SOL    HW2 7422   0.426   5.432   4.586
 2175SOL     OW 7423   2.123   0.103   4.483
 2175SOL    HW1 7424   2.186   0.027   4.495
 2175SOL    HW2 7425   2.114   0.154   4.569
 2176SOL     OW 7426   1.772   2.727   2.884
 2176SOL    HW1 7427   1.721   2.795   2.937
 2176SOL    HW2 7428   1.841   2.684   2.942
 2177SOL     OW 7429   0.472   2.940   1.021
 2177SOL    HW1 7430   0.527   2.910   1.099
 2177SOL    HW2 7431   0.380   2.964   1.051
 2178SOL     OW 7432   0.373   4.511   0.222
 2178SOL    HW1 7433   0.412   4.548   0.138
 2178SOL    HW2 7434   0.273   4.520   0.219
 2179SOL     OW 7435   1.891   5.507   4.377
 2179SOL    HW1 7436   1.828   5.551   4.441
 2179SOL    HW2 7437   1.867   5.411   4.367
 2180SOL     OW 7438   3.339   3.256   2.638
 2180SOL    HW1 7439   3.411   3.210   2.586
 2180SOL    HW2 7440   3.270   3.291   2.575
 2181SOL     OW 7441   4.881   5.424   6.118
 2181SOL    HW1 7442   4.895   5.483   6.039
 2181SOL    HW2 7443   4.967   5.378   6.141
 2182SOL     OW 7444   0.037   3.251   5.947
 2182SOL    HW1 7445   0.051   3.153   5.931
 2182SOL    HW2 7446   0.099   3.303   5.889
 2183SOL     OW 7447   3.536   3.110   1.087
 2183SOL    HW1 7448   3.582   3.155   1.011
 2183SOL    HW2 7449   3.514   3.178   1.157
 2184SOL     OW 7450   3.583   2.697   6.599
 2184SOL    HW1 7451   3.661   2.737   6.646
 2184SOL    HW2 7452   3.529   2.770   6.556
 2185SOL     OW 7453   2.001   0.940   1.697
 2185SOL    HW1 7454   2.019   0.977   1.605
 2185SOL    HW2 7455   2.075   0.878   1.723
 2186SOL     OW 7456   0.510   6.277   3.225
 2186SOL    HW1 7457   0.431   6.241   3.176
 2186SOL    HW2 7458   0.566   6.331   3.163
 2187SOL     OW 7459   0.197   1.481   6.839
 2187SOL    HW1 7460   0.276   1.511   6.787
 2187SOL    HW2 7461   0.188   1.538   6.921
 2188SOL     OW 7462   5.883   7.010   2.988
 2188SOL    HW1 7463   5.801   0.010   3.042
 2188SOL    HW2 7464   5.872   6.924   2.939
 2189SOL     OW 7465   2.076   6.888   6.232
 2189SOL    HW1 7466   2.076   6.973   6.284
 2189SOL    HW2 7467   1.982   6.863   6.210
 2190SOL     OW 7468   5.498   2.008   1.843
 2190SOL    HW1 7469   5.451   1.921   1.859
 2190SOL    HW2 7470   5.485   2.067   1.922
 2191SOL     OW 7471   3.184   2.838   6.273
 2191SOL    HW1 7472   3.259   2.796   6.223
 2191SOL    HW2 7473   3.195   2.821   6.371
 2192SOL     OW 7474   4.552   5.678   5.017
 2192SOL    HW1 7475   4.552   5.581   5.041
 2192SOL    HW2 7476   4.552   5.732   5.101
 2193SOL     OW 7477   1.028   5.071   5.584
 2193SOL    HW1 7478   0.993   5.156   5.623
 2193SOL    HW2 7479   1.108   5.042   5.636
 2194SOL     OW 7480   2.231   0.633   1.554
 2194SOL    HW1 7481   2.185   0.573   1.488
 2194SOL    HW2 7482   2.163   0.676   1.613
 2195SOL     OW 7483   1.936   5.448   2.727
 2195SOL    HW1 7484   1.954   5.538   2.686
 2195SOL    HW2 7485   1.951   5.452   2.825
 2196SOL     OW 7486   3.283   1.850   6.343
 2196SOL    HW1 7487   3.203   1.811   6.298
 2196SOL    HW2 7488   3.354   1.867   6.275
 2197SOL     OW 7489   4.837   5.179   1.078
 2197SOL    HW1 7490   4.861   5.085   1.055
 2197SOL    HW2 7491   4.891   5.208   1.158
 2198SOL     OW 7492   6.874   3.649   0.826
 2198SOL    HW1 7493   6.850   3.746   0.821
 2198SOL    HW2 7494   6.875   3.620   0.921
 2199SOL     OW 7495   4.708   0.301   1.580
 2199SOL    HW1 7496   4.786   0.257   1.625
 2199SOL    HW2 7497   4.623   0.269   1.621
 2200SOL     OW 7498   3.172   0.607   4.671
 2200SOL    HW1 7499   3.225   0.615   4.587
 2200SOL    HW2 7500   3.170   0.695   4.718
 2201SOL     OW 7501   5.749   3.363   1.880
 2201SOL    HW1 7502   5.758   3.276   1.928
 2201SOL    HW2 7503   5.729   3.345   1.783
 2202SOL     OW 7504   4.613   5.869   4.016
 2202SOL    HW1 7505   4.520   5.881   3.981
 2202SOL    HW2 7506   4.648   5.957   4.046
 2203SOL     OW 7507   3.379   2.087   3.393
 2203SOL    HW1 7508   3.366   1.989   3.405
 2203SOL    HW2 7509   3.475   2.110   3.410
 2204SOL     OW 7510   3.660   2.363   0.313
 2204SOL    HW1 7511   3.581   2.419   0.338
 2204SOL    HW2 7512   3.650   2.332   0.218
 2205SOL     OW 7513   2.922   6.602   0.664
 2205SOL    HW1 7514   2.943   6.526   0.604
 2205SOL    HW2 7515   2.980   6.598   0.745
 2206SOL     OW 7516   1.882   3.074   6.640
 2206SOL    HW1 7517   1.970   3.075   6.593
 2206SOL    HW2 7518   1.837   3.163   6.629
 2207SOL     OW 7519   0.726   4.338   5.995
 2207SOL    HW1 7520   0.661   4.329   5.919
 2207SOL    HW2 7521   0.819   4.332   5.959
 2208SOL     OW 7522   0.330   4.002   1.809
 2208SOL    HW1 7523   0.383   4.076   1.768
 2208SOL    HW2 7524   0.359   3.915   1.771
 2209SOL     OW 7525   0.679   6.130   0.044
 2209SOL    HW1 7526   0.740   6.143   6.985
 2209SOL    HW2 7527   0.585   6.118   0.012
 2210SOL     OW 7528   0.646   5.862   4.254
 2210SOL    HW1 7529   0.585   5.938   4.231
 2210SOL    HW2 7530   0.725   5.864   4.192
 2211SOL     OW 7531   6.284   1.177   5.290
 2211SOL    HW1 7532   6.373   1.209   5.323
 2211SOL    HW2 7533   6.213   1.206   5.354
 2212SOL     OW 7534   1.751   0.288   6.614
 2212SOL    HW1 7535   1.716   0.206   6.658
 2212SOL    HW2 7536   1.700   0.305   6.529
 2213SOL     OW 7537   3.746   1.800   3.610
 2213SOL    HW1 7538   3.726   1.772   3.516
 2213SOL    HW2 7539   3.717   1.894   3.624
 2214SOL     OW 7540   4.660   0.045   4.248
 2214SOL    HW1 7541   4.565   0.016   4.241
 2214SOL    HW2 7542   4.719   6.985   4.259
 2215SOL     OW 7543   6.413   2.126   5.306
 2215SOL    HW1 7544   6.473   2.120   5.227
 2215SOL    HW2 7545   6.346   2.052   5.303
 2216SOL     OW 7546   1.807   6.955   1.733
 2216SOL    HW1 7547   1.793   6.869   1.782
 2216SOL    HW2 7548   1.750   6.957   1.651
 2217SOL     OW 7549   4.109   0.648   1.234
 2217SOL    HW1 7550   4.033   0.622   1.174
 2217SOL    HW2 7551   4.119   0.580   1.307
 2218SOL     OW 7552   0.864   5.744   0.641
 2218SOL    HW1 7553   0.894   5.813   0.707
 2218SOL    HW2 7554   0.916   5.660   0.654
 2219SOL     OW 7555   1.497   4.272   3.685
 2219SOL    HW1 7556   1.592   4.260   3.714
 2219SOL    HW2 7557   1.473   4.200   3.619
 2220SOL     OW 7558   0.416   0.873   6.525
 2220SOL    HW1 7559   0.382   0.966   6.540
 2220SOL    HW2 7560   0.453   0.837   6.611
 2221SOL     OW 7561   6.411   2.492   1.203
 2221SOL    HW1 7562   6.347   2.415   1.211
 2221SOL    HW2 7563   6.366   2.576   1.233
 2222SOL     OW 7564   5.166   6.513   2.806
 2222SOL    HW1 7565   5.243   6.528   2.744
 2222SOL    HW2 7566   5.095   6.580   2.786
 2223SOL     OW 7567   5.499   5.553   2.463
 2223SOL    HW1 7568   5.568   5.562   2.534
 2223SOL    HW2 7569   5.534   5.591   2.377
 2224SOL     OW 7570   1.518   4.385   0.948
 2224SOL    HW1 7571   1.484   4.334   1.027
 2224SOL    HW2 7572   1.567   4.467   0.979
 2225SOL     OW 7573   6.048   4.892   1.950
 2225SOL    HW1 7574   6.067   4.871   1.854
 2225SOL    HW2 7575   6.046   4.807   2.002
 2226SOL     OW 7576   4.085   4.271   1.126
 2226SOL    HW1 7577   4.173   4.267   1.078
 2226SOL    HW2 7578   4.015   4.308   1.066
 2227SOL     OW 7579   0.112   4.250   4.512
 2227SOL    HW1 7580   0.122   4.268   4.610
 2227SOL    HW2 7581   0.190   4.197   4.480
 2228SOL     OW 7582   3.189   5.203   5.893
 2228SOL    HW1 7583   3.163   5.115   5.854
 2228SOL    HW2 7584   3.265   5.190   5.958
 2229SOL     OW 7585   5.170   0.586   3.579
 2229SOL    HW1 7586   5.077   0.582   3.615
 2229SOL    HW2 7587   5.203   0.680   3.582
 2230SOL     OW 7588   1.138   6.163   6.931
 2230SOL    HW1 7589   1.217   6.193   6.877
 2230SOL    HW2 7590   1.162   6.080   6.980
 2231SOL     OW 7591   2.640   6.919   1.579
 2231SOL    HW1 7592   2.607   6.843   1.635
 2231SOL    HW2 7593   2.568   6.946   1.515
 2232SOL     OW 7594   6.091   2.439   2.979
 2232SOL    HW1 7595   6.177   2.490   2.984
 2232SOL    HW2 7596   6.099   2.366   2.911
 2233SOL     OW 7597   4.237   0.533   0.171
 2233SOL    HW1 7598   4.278   0.445   0.196
 2233SOL    HW2 7599   4.224   0.589   0.253
 2234SOL     OW 7600   3.167   1.615   0.871
 2234SOL    HW1 7601   3.253   1.595   0.916
 2234SOL    HW2 7602   3.174   1.593   0.774
 2235SOL     OW 7603   1.835   6.920   1.197
 2235SOL    HW1 7604   1.903   6.967   1.140
 2235SOL    HW2 7605   1.749   6.913   1.147
 2236SOL     OW 7606   0.207   4.171   1.212
 2236SOL    HW1 7607   0.197   4.126   1.301
 2236SOL    HW2 7608   0.280   4.240   1.218
 2237SOL     OW 7609   6.075   2.154   4.044
 2237SOL    HW1 7610   6.063   2.195   3.953
 2237SOL    HW2 7611   6.020   2.204   4.111
 2238SOL     OW 7612   1.616   5.615   2.255
 2238SOL    HW1 7613   1.542   5.680   2.267
 2238SOL    HW2 7614   1.594   5.551   2.181
 2239SOL     OW 7615   4.338   5.420   3.075
 2239SOL    HW1 7616   4.293   5.334   3.053
 2239SOL    HW2 7617   4.437   5.406   3.080
 2240SOL     OW 7618   5.350   4.025   2.128
 2240SOL    HW1 7619   5.365   4.123   2.136
 2240SOL    HW2 7620   5.289   3.994   2.201
 2241SOL     OW 7621   0.451   0.284   2.546
 2241SOL    HW1 7622   0.497   0.372   2.557
 2241SOL    HW2 7623   0.472   0.245   2.457
 2242SOL     OW 7624   4.983   1.948   2.402
 2242SOL    HW1 7625   4.922   1.932   2.479
 2242SOL    HW2 7626   4.960   1.886   2.327
 2243SOL     OW 7627   2.125   6.258   5.414
 2243SOL    HW1 7628   2.194   6.330   5.412
 2243SOL    HW2 7629   2.053   6.282   5.478
 2244SOL     OW 7630   2.772   0.499   4.727
 2244SOL    HW1 7631   2.797   0.414   4.680
 2244SOL    HW2 7632   2.828   0.510   4.808
 2245SOL     OW 7633   1.722   1.228   1.884
 2245SOL    HW1 7634   1.691   1.151   1.940
 2245SOL    HW2 7635   1.642   1.273   1.844
 2246SOL     OW 7636   1.523   3.405   5.499
 2246SOL    HW1 7637   1.538   3.376   5.594
 2246SOL    HW2 7638   1.573   3.489   5.481
 2247SOL     OW 7639   1.891   2.296   5.998
 2247SOL    HW1 7640   1.957   2.313   6.071
 2247SOL    HW2 7641   1.802   2.334   6.025
 2248SOL     OW 7642   5.045   3.048   5.053
 2248SOL    HW1 7643   4.999   3.011   5.134
 2248SOL    HW2 7644   5.124   3.102   5.081
 2249SOL     OW 7645   5.007   5.317   4.243
 2249SOL    HW1 7646   5.041   5.396   4.295
 2249SOL    HW2 7647   5.083   5.254   4.225
 2250SOL     OW 7648   6.378   4.331   0.062
 2250SOL    HW1 7649   6.461   4.303   0.015
 2250SOL    HW2 7650   6.385   4.427   0.088
 2251SOL     OW 7651   6.047   0.925   6.673
 2251SOL    HW1 7652   6.144   0.921   6.647
 2251SOL    HW2 7653   6.000   0.844   6.636
 2252SOL     OW 7654   4.246   2.079   5.619
 2252SOL    HW1 7655   4.244   2.051   5.715
 2252SOL    HW2 7656   4.190   2.161   5.607
 2253SOL     OW 7657   2.099   3.575   6.622
 2253SOL    HW1 7658   2.136   3.657   6.578
 2253SOL    HW2 7659   2.171   3.531   6.676
 2254SOL     OW 7660   1.933   3.879   6.449
 2254SOL    HW1 7661   1.955   3.844   6.540
 2254SOL    HW2 7662   1.958   3.975   6.444
 2255SOL     OW 7663   5.868   2.801   1.345
 2255SOL    HW1 7664   5.947   2.848   1.386
 2255SOL    HW2 7665   5.854   2.713   1.391
 2256SOL     OW 7666   4.051   5.083   1.935
 2256SOL    HW1 7667   3.959   5.087   1.974
 2256SOL    HW2 7668   4.045   5.101   1.837
 2257SOL     OW 7669   2.247   4.246   3.995
 2257SOL    HW1 7670   2.226   4.148   3.992
 2257SOL    HW2 7671   2.311   4.268   3.921
 2258SOL     OW 7672   1.560   5.448   4.051
 2258SOL    HW1 7673   1.610   5.485   3.973
 2258SOL    HW2 7674   1.536   5.522   4.113
 2259SOL     OW 7675   5.883   3.137   6.654
 2259SOL    HW1 7676   5.979   3.127   6.626
 2259SOL    HW2 7677   5.823   3.118   6.577
 2260SOL     OW 7678   5.760   5.218   1.161
 2260SOL    HW1 7679   5.728   5.180   1.074
 2260SOL    HW2 7680   5.839   5.277   1.144
 2261SOL     OW 7681   4.812   6.093   6.696
 2261SOL    HW1 7682   4.879   6.021   6.677
 2261SOL    HW2 7683   4.851   6.182   6.672
 2262SOL     OW 7684   4.587   2.189   3.157
 2262SOL    HW1 7685   4.491   2.207   3.134
 2262SOL    HW2 7686   4.605   2.217   3.251
 2263SOL     OW 7687   0.183   5.380   6.241
 2263SOL    HW1 7688   0.254   5.386   6.170
 2263SOL    HW2 7689   0.112   5.317   6.211
 2264SOL     OW 7690   3.484   4.148   4.167
 2264SOL    HW1 7691   3.518   4.144   4.073
 2264SOL    HW2 7692   3.389   4.116   4.170
 2265SOL     OW 7693   0.111   0.704   1.769
 2265SOL    HW1 7694   0.181   0.747   1.712
 2265SOL    HW2 7695   0.151   0.628   1.820
 2266SOL     OW 7696   6.056   6.893   0.968
 2266SOL    HW1 7697   6.007   6.890   1.055
 2266SOL    HW2 7698   6.137   6.835   0.973
 2267SOL     OW 7699   6.202   2.191   5.752
 2267SOL    HW1 7700   6.152   2.189   5.665
 2267SOL    HW2 7701   6.139   2.169   5.827
 2268SOL     OW 7702   6.473   5.518   0.152
 2268SOL    HW1 7703   6.431   5.467   0.227
 2268SOL    HW2 7704   6.404   5.576   0.108
 2269SOL     OW 7705   6.678   5.325   5.327
 2269SOL    HW1 7706   6.736   5.273   5.264
 2269SOL    HW2 7707   6.585   5.330   5.290
 2270SOL     OW 7708   3.938   3.685   1.820
 2270SOL    HW1 7709   4.010   3.639   1.872
 2270SOL    HW2 7710   3.888   3.618   1.765
 2271SOL     OW 7711   6.411   4.472   2.487
 2271SOL    HW1 7712   6.410   4.557   2.539
 2271SOL    HW2 7713   6.343   4.409   2.523
 2272SOL     OW 7714   5.865   1.889   6.504
 2272SOL    HW1 7715   5.917   1.819   6.552
 2272SOL    HW2 7716   5.772   1.857   6.487
 2273SOL     OW 7717   1.438   1.476   3.310
 2273SOL    HW1 7718   1.508   1.544   3.290
 2273SOL    HW2 7719   1.363   1.484   3.244
 2274SOL     OW 7720   1.587   3.274   3.979
 2274SOL    HW1 7721   1.517   3.272   4.050
 2274SOL    HW2 7722   1.675   3.299   4.019
 2275SOL     OW 7723   5.270   6.412   3.295
 2275SOL    HW1 7724   5.255   6.476   3.221
 2275SOL    HW2 7725   5.204   6.429   3.368
 2276SOL     OW 7726   4.860   4.664   1.900
 2276SOL    HW1 7727   4.863   4.571   1.862
 2276SOL    HW2 7728   4.934   4.675   1.967
 2277SOL     OW 7729   2.968   3.683   0.254
 2277SOL    HW1 7730   2.977   3.782   0.265
 2277SOL    HW2 7731   2.936   3.643   0.339
 2278SOL     OW 7732   5.668   6.586   1.399
 2278SOL    HW1 7733   5.669   6.496   1.356
 2278SOL    HW2 7734   5.755   6.601   1.448
 2279SOL     OW 7735   5.755   4.070   4.902
 2279SOL    HW1 7736   5.822   4.026   4.961
 2279SOL    HW2 7737   5.702   4.137   4.954
 2280SOL     OW 7738   6.239   6.495   6.287
 2280SOL    HW1 7739   6.233   6.425   6.216
 2280SOL    HW2 7740   6.328   6.490   6.331
 2281SOL     OW 7741   3.611   2.864   0.842
 2281SOL    HW1 7742   3.580   2.880   0.936
 2281SOL    HW2 7743   3.532   2.840   0.785
 2282SOL     OW 7744   3.887   5.083   3.157
 2282SOL    HW1 7745   3.870   5.181   3.146
 2282SOL    HW2 7746   3.922   5.066   3.250
 2283SOL     OW 7747   6.757   3.482   3.597
 2283SOL    HW1 7748   6.826   3.541   3.639
 2283SOL    HW2 7749   6.800   3.397   3.567
 2284SOL     OW 7750   2.051   2.626   2.335
 2284SOL    HW1 7751   2.107   2.673   2.266
 2284SOL    HW2 7752   2.040   2.686   2.414
 2285SOL     OW 7753   1.950   4.540   0.317
 2285SOL    HW1 7754   1.918   4.501   0.403
 2285SOL    HW2 7755   1.877   4.594   0.275
 2286SOL     OW 7756   6.106   6.370   4.467
 2286SOL    HW1 7757   6.072   6.459   4.498
 2286SOL    HW2 7758   6.047   6.336   4.393
 2287SOL     OW 7759   2.246   2.848   1.914
 2287SOL    HW1 7760   2.213   2.774   1.856
 2287SOL    HW2 7761   2.197   2.932   1.892
 2288SOL     OW 7762   0.094   6.450   4.314
 2288SOL    HW1 7763   0.026   6.376   4.308
 2288SOL    HW2 7764   0.048   6.538   4.300
 2289SOL     OW 7765   5.305   2.571   1.464
 2289SOL    HW1 7766   5.290   2.603   1.558
 2289SOL    HW2 7767   5.375   2.500   1.464
 2290SOL     OW 7768   3.335   3.078   3.109
 2290SOL    HW1 7769   3.238   3.057   3.117
 2290SOL    HW2 7770   3.346   3.169   3.069
 2291SOL     OW 7771   1.915   2.580   0.392
 2291SOL    HW1 7772   2.010   2.559   0.369
 2291SOL    HW2 7773   1.898   2.677   0.379
 2292SOL     OW 7774   4.494   2.186   2.661
 2292SOL    HW1 7775   4.398   2.214   2.671
 2292SOL    HW2 7776   4.529   2.155   2.749
 2293SOL     OW 7777   6.300   1.259   0.153
 2293SOL    HW1 7778   6.273   1.163   0.141
 2293SOL    HW2 7779   6.315   1.300   0.063
 2294SOL     OW 7780   0.605   2.009   6.084
 2294SOL    HW1 7781   0.685   1.954   6.063
 2294SOL    HW2 7782   0.584   2.069   6.006
 2295SOL     OW 7783   5.930   6.127   1.340
 2295SOL    HW1 7784   5.954   6.085   1.428
 2295SOL    HW2 7785   6.009   6.177   1.305
 2296SOL     OW 7786   2.921   5.247   4.053
 2296SOL    HW1 7787   2.993   5.206   4.108
 2296SOL    HW2 7788   2.836   5.195   4.065
 2297SOL     OW 7789   4.421   4.299   5.299
 2297SOL    HW1 7790   4.379   4.367   5.239
 2297SOL    HW2 7791   4.366   4.216   5.298
 2298SOL     OW 7792   4.109   3.523   4.341
 2298SOL    HW1 7793   4.094   3.612   4.298
 2298SOL    HW2 7794   4.104   3.451   4.272
 2299SOL     OW 7795   5.142   3.387   4.904
 2299SOL    HW1 7796   5.204   3.310   4.920
 2299SOL    HW2 7797   5.125   3.396   4.805
 2300SOL     OW 7798   4.273   6.720   2.157
 2300SOL    HW1 7799   4.212   6.700   2.080
 2300SOL    HW2 7800   4.323   6.637   2.183
 2301SOL     OW 7801   4.113   3.312   4.144
 2301SOL    HW1 7802   4.084   3.245   4.076
 2301SOL    HW2 7803   4.196   3.358   4.112
 2302SOL     OW 7804   3.906   2.231   0.354
 2302SOL    HW1 7805   3.850   2.312   0.372
 2302SOL    HW2 7806   3.970   2.217   0.429
 2303SOL     OW 7807   3.676   2.322   0.028
 2303SOL    HW1 7808   3.726   2.267   6.980
 2303SOL    HW2 7809   3.641   2.405   7.003
 2304SOL     OW 7810   6.195   5.897   1.800
 2304SOL    HW1 7811   6.266   5.905   1.731
 2304SOL    HW2 7812   6.128   5.970   1.787
 2305SOL     OW 7813   2.311   1.067   5.351
 2305SOL    HW1 7814   2.322   1.165   5.336
 2305SOL    HW2 7815   2.222   1.050   5.394
 2306SOL     OW 7816   1.792   5.502   3.919
 2306SOL    HW1 7817   1.866   5.454   3.966
 2306SOL    HW2 7818   1.814   5.509   3.821
 2307SOL     OW 7819   0.087   2.993   5.965
 2307SOL    HW1 7820   0.186   2.996   5.961
 2307SOL    HW2 7821   0.058   2.941   6.045
 2308SOL     OW 7822   2.525   4.749   1.574
 2308SOL    HW1 7823   2.458   4.718   1.507
 2308SOL    HW2 7824   2.511   4.700   1.660
 2309SOL     OW 7825   1.782   6.367   5.255
 2309SOL    HW1 7826   1.791   6.332   5.348
 2309SOL    HW2 7827   1.855   6.330   5.197
 2310SOL     OW 7828   4.575   6.509   1.559
 2310SOL    HW1 7829   4.602   6.457   1.478
 2310SOL    HW2 7830   4.630   6.593   1.564
 2311SOL     OW 7831   2.471   6.213   1.507
 2311SOL    HW1 7832   2.499   6.117   1.510
 2311SOL    HW2 7833   2.378   6.220   1.473
 2312SOL     OW 7834   3.138   4.899   2.316
 2312SOL    HW1 7835   3.168   4.828   2.379
 2312SOL    HW2 7836   3.146   4.988   2.360
 2313SOL     OW 7837   4.063   5.519   1.722
 2313SOL    HW1 7838   4.103   5.569   1.645
 2313SOL    HW2 7839   4.093   5.424   1.719
 2314SOL     OW 7840   2.912   5.567   4.079
 2314SOL    HW1 7841   2.829   5.511   4.072
 2314SOL    HW2 7842   2.982   5.517   4.131
 2315SOL     OW 7843   4.421   2.950   6.415
 2315SOL    HW1 7844   4.513   2.976   6.446
 2315SOL    HW2 7845   4.427   2.905   6.326
 2316SOL     OW 7846   5.492   3.031   2.532
 2316SOL    HW1 7847   5.569   3.056   2.590
 2316SOL    HW2 7848   5.508   3.065   2.439
 2317SOL     OW 7849   0.862   5.022   3.762
 2317SOL    HW1 7850   0.787   5.035   3.827
 2317SOL    HW2 7851   0.949   5.018   3.812
 2318SOL     OW 7852   0.112   1.463   3.661
 2318SOL    HW1 7853   0.075   1.551   3.690
 2318SOL    HW2 7854   0.189   1.438   3.720
 2319SOL     OW 7855   1.026   4.064   4.535
 2319SOL    HW1 7856   0.958   4.136   4.523
 2319SOL    HW2 7857   0.982   3.981   4.569
 2320SOL     OW 7858   6.465   4.197   4.809
 2320SOL    HW1 7859   6.382   4.171   4.859
 2320SOL    HW2 7860   6.454   4.175   4.712
 2321SOL     OW 7861   2.958   6.332   5.379
 2321SOL    HW1 7862   2.914   6.244   5.398
 2321SOL    HW2 7863   3.047   6.316   5.335
 2322SOL     OW 7864   2.616   6.985   5.985
 2322SOL    HW1 7865   2.592   0.043   5.926
 2322SOL    HW2 7866   2.630   7.018   6.078
 2323SOL     OW 7867   4.871   4.958   2.133
 2323SOL    HW1 7868   4.909   4.983   2.222
 2323SOL    HW2 7869   4.812   4.878   2.143
 2324SOL     OW 7870   6.292   5.695   3.349
 2324SOL    HW1 7871   6.208   5.703   3.403
 2324SOL    HW2 7872   6.371   5.694   3.410
 2325SOL     OW 7873   0.220   3.572   0.478
 2325SOL    HW1 7874   0.207   3.631   0.398
 2325SOL    HW2 7875   0.310   3.528   0.472
 2326SOL     OW 7876   1.587   5.369   0.006
 2326SOL    HW1 7877   1.622   5.416   0.087
 2326SOL    HW2 7878   1.661   5.356   6.959
 2327SOL     OW 7879   5.171   2.440   4.740
 2327SOL    HW1 7880   5.130   2.516   4.790
 2327SOL    HW2 7881   5.125   2.355   4.766
 2328SOL     OW 7882   4.821   6.600   3.329
 2328SOL    HW1 7883   4.868   6.688   3.333
 2328SOL    HW2 7884   4.803   6.576   3.234
 2329SOL     OW 7885   0.416   5.896   3.946
 2329SOL    HW1 7886   0.400   5.972   3.882
 2329SOL    HW2 7887   0.329   5.869   3.986
 2330SOL     OW 7888   0.263   4.077   2.691
 2330SOL    HW1 7889   0.228   3.989   2.660
 2330SOL    HW2 7890   0.363   4.077   2.688
 2331SOL     OW 7891   1.085   4.339   5.227
 2331SOL    HW1 7892   0.993   4.343   5.190
 2331SOL    HW2 7893   1.117   4.431   5.249
 2332SOL     OW 7894   5.403   1.936   5.242
 2332SOL    HW1 7895   5.369   1.847   5.212
 2332SOL    HW2 7896   5.400   2.000   5.166
 2333SOL     OW 7897   1.202   5.620   4.249
 2333SOL    HW1 7898   1.162   5.680   4.318
 2333SOL    HW2 7899   1.213   5.671   4.163
 2334SOL     OW 7900   2.849   6.828   0.363
 2334SOL    HW1 7901   2.884   6.913   0.402
 2334SOL    HW2 7902   2.830   6.763   0.437
 2335SOL     OW 7903   5.287   6.614   3.737
 2335SOL    HW1 7904   5.355   6.588   3.805
 2335SOL    HW2 7905   5.328   6.611   3.646
 2336SOL     OW 7906   4.849   1.497   6.122
 2336SOL    HW1 7907   4.754   1.496   6.091
 2336SOL    HW2 7908   4.860   1.433   6.198
 2337SOL     OW 7909   5.458   0.181   2.607
 2337SOL    HW1 7910   5.464   0.133   2.520
 2337SOL    HW2 7911   5.494   0.123   2.680
 2338SOL     OW 7912   0.974   6.824   6.474
 2338SOL    HW1 7913   0.883   6.787   6.491
 2338SOL    HW2 7914   1.031   6.812   6.555
 2339SOL     OW 7915   3.630   4.407   0.227
 2339SOL    HW1 7916   3.695   4.331   0.229
 2339SOL    HW2 7917   3.537   4.372   0.212
 2340SOL     OW 7918   3.292   5.151   5.248
 2340SOL    HW1 7919   3.307   5.062   5.291
 2340SOL    HW2 7920   3.306   5.224   5.316
 2341SOL     OW 7921   5.819   5.338   0.161
 2341SOL    HW1 7922   5.895   5.385   0.114
 2341SOL    HW2 7923   5.850   5.308   0.251
 2342SOL     OW 7924   6.631   0.609   5.679
 2342SOL    HW1 7925   6.712   0.658   5.713
 2342SOL    HW2 7926   6.649   0.576   5.586
 2343SOL     OW 7927   1.392   6.935   1.135
 2343SOL    HW1 7928   1.478   6.970   1.098
 2343SOL    HW2 7929   1.326   7.010   1.142
 2344SOL     OW 7930   1.961   2.111   2.435
 2344SOL    HW1 7931   1.952   2.012   2.422
 2344SOL    HW2 7932   2.011   2.150   2.358
 2345SOL     OW 7933   1.967   1.358   4.512
 2345SOL    HW1 7934   2.022   1.374   4.429
 2345SOL    HW2 7935   2.009   1.406   4.589
 2346SOL     OW 7936   4.928   3.348   5.896
 2346SOL    HW1 7937   4.944   3.377   5.990
 2346SOL    HW2 7938   4.956   3.420   5.833
 2347SOL     OW 7939   1.623   3.107   1.728
 2347SOL    HW1 7940   1.575   3.068   1.807
 2347SOL    HW2 7941   1.628   3.206   1.737
 2348SOL     OW 7942   2.652   6.660   1.762
 2348SOL    HW1 7943   2.574   6.651   1.824
 2348SOL    HW2 7944   2.679   6.570   1.729
 2349SOL     OW 7945   4.901   5.370   5.782
 2349SOL    HW1 7946   4.959   5.352   5.702
 2349SOL    HW2 7947   4.890   5.469   5.794
 2350SOL     OW 7948   2.308   6.442   5.459
 2350SOL    HW1 7949   2.388   6.383   5.454
 2350SOL    HW2 7950   2.336   6.535   5.484
 2351SOL     OW 7951   2.387   5.351   4.579
 2351SOL    HW1 7952   2.310   5.366   4.518
 2351SOL    HW2 7953   2.427   5.439   4.606
 2352SOL     OW 7954   0.549   3.567   2.494
 2352SOL    HW1 7955   0.643   3.541   2.518
 2352SOL    HW2 7956   0.550   3.620   2.409
 2353SOL     OW 7957   3.192   4.170   6.201
 2353SOL    HW1 7958   3.246   4.239   6.250
 2353SOL    HW2 7959   3.205   4.181   6.103
 2354SOL     OW 7960   4.100   2.100   0.606
 2354SOL    HW1 7961   4.019   2.154   0.626
 2354SOL    HW2 7962   4.091   2.009   0.646
 2355SOL     OW 7963   0.431   6.662   0.686
 2355SOL    HW1 7964   0.495   6.590   0.713
 2355SOL    HW2 7965   0.470   6.751   0.710
 2356SOL     OW 7966   2.695   5.141   3.115
 2356SOL    HW1 7967   2.713   5.051   3.155
 2356SOL    HW2 7968   2.670   5.206   3.187
 2357SOL     OW 7969   6.716   4.482   1.357
 2357SOL    HW1 7970   6.707   4.545   1.434
 2357SOL    HW2 7971   6.652   4.507   1.285
 2358SOL     OW 7972   4.334   1.795   5.839
 2358SOL    HW1 7973   4.265   1.774   5.908
 2358SOL    HW2 7974   4.293   1.792   5.748
 2359SOL     OW 7975   1.555   1.452   5.820
 2359SOL    HW1 7976   1.578   1.367   5.868
 2359SOL    HW2 7977   1.633   1.515   5.823
 2360SOL     OW 7978   4.328   4.179   0.684
 2360SOL    HW1 7979   4.386   4.256   0.711
 2360SOL    HW2 7980   4.380   4.119   0.623
 2361SOL     OW 7981   3.974   6.019   1.693
 2361SOL    HW1 7982   4.039   5.996   1.765
 2361SOL    HW2 7983   3.979   6.117   1.674
 2362SOL     OW 7984   4.144   6.275   3.791
 2362SOL    HW1 7985   4.044   6.271   3.791
 2362SOL    HW2 7986   4.176   6.288   3.697
 2363SOL     OW 7987   3.047   3.673   0.772
 2363SOL    HW1 7988   2.985   3.703   0.700
 2363SOL    HW2 7989   3.009   3.696   0.861
 2364SOL     OW 7990   4.438   1.386   2.330
 2364SOL    HW1 7991   4.348   1.382   2.285
 2364SOL    HW2 7992   4.463   1.482   2.345
 2365SOL     OW 7993   4.832   3.323   3.427
 2365SOL    HW1 7994   4.898   3.359   3.361
 2365SOL    HW2 7995   4.841   3.224   3.433
 2366SOL     OW 7996   2.657   4.707   5.216
 2366SOL    HW1 7997   2.656   4.633   5.283
 2366SOL    HW2 7998   2.721   4.685   5.143
 2367SOL     OW 7999   6.970   4.447   5.389
 2367SOL    HW1 8000   6.984   4.497   5.474
 2367SOL    HW2 8001   6.997   4.351   5.401
 2368SOL     OW 8002   5.545   6.221   4.245
 2368SOL    HW1 8003   5.626   6.216   4.187
 2368SOL    HW2 8004   5.561   6.170   4.330
 2369SOL     OW 8005   3.160   1.878   4.396
 2369SOL    HW1 8006   3.110   1.794   4.419
 2369SOL    HW2 8007   3.209   1.865   4.310
 2370SOL     OW 8008   5.334   2.817   1.099
 2370SOL    HW1 8009   5.390   2.789   1.177
 2370SOL    HW2 8010   5.372   2.901   1.059
 2371SOL     OW 8011   0.829   6.562   2.992
 2371SOL    HW1 8012   0.891   6.605   2.927
 2371SOL    HW2 8013   0.879   6.495   3.047
 2372SOL     OW 8014   6.063   0.920   6.023
 2372SOL    HW1 8015   6.120   0.852   5.979
 2372SOL    HW2 8016   6.063   0.905   6.122
 2373SOL     OW 8017   5.954   6.089   6.250
 2373SOL    HW1 8018   5.871   6.141   6.232
 2373SOL    HW2 8019   5.961   6.013   6.185
 2374SOL     OW 8020   5.736   6.060   2.354
 2374SOL    HW1 8021   5.658   6.113   2.386
 2374SOL    HW2 8022   5.761   5.992   2.423
 2375SOL     OW 8023   1.071   0.428   4.017
 2375SOL    HW1 8024   0.997   0.494   4.036
 2375SOL    HW2 8025   1.113   0.401   4.104
 2376SOL     OW 8026   5.569   1.343   3.183
 2376SOL    HW1 8027   5.512   1.287   3.122
 2376SOL    HW2 8028   5.665   1.326   3.164
 2377SOL     OW 8029   4.479   5.172   5.911
 2377SOL    HW1 8030   4.434   5.166   5.822
 2377SOL    HW2 8031   4.578   5.179   5.898
 2378SOL     OW 8032   0.002   0.939   0.417
 2378SOL    HW1 8033   0.021   0.940   0.515
 2378SOL    HW2 8034   6.923   0.947   0.402
 2379SOL     OW 8035   6.982   4.986   1.082
 2379SOL    HW1 8036   6.959   4.960   1.176
 2379SOL    HW2 8037   0.031   5.059   1.083
 2380SOL     OW 8038   4.873   4.669   5.087
 2380SOL    HW1 8039   4.929   4.587   5.094
 2380SOL    HW2 8040   4.908   4.739   5.149
 2381SOL     OW 8041   2.517   4.958   4.789
 2381SOL    HW1 8042   2.521   5.009   4.703
 2381SOL    HW2 8043   2.560   4.869   4.777
 2382SOL     OW 8044   1.067   5.662   2.037
 2382SOL    HW1 8045   1.007   5.636   2.113
 2382SOL    HW2 8046   1.148   5.603   2.037
 2383SOL     OW 8047   5.028   5.616   5.342
 2383SOL    HW1 8048   5.032   5.685   5.415
 2383SOL    HW2 8049   4.964   5.645   5.272
 2384SOL     OW 8050   0.660   2.034   2.096
 2384SOL    HW1 8051   0.583   1.979   2.064
 2384SOL    HW2 8052   0.627   2.102   2.161
 2385SOL     OW 8053   0.848   2.234   1.081
 2385SOL    HW1 8054   0.919   2.220   1.151
 2385SOL    HW2 8055   0.814   2.328   1.086
 2386SOL     OW 8056   4.729   5.769   4.612
 2386SOL    HW1 8057   4.691   5.850   4.566
 2386SOL    HW2 8058   4.752   5.700   4.544
 2387SOL     OW 8059   1.515   1.618   4.074
 2387SOL    HW1 8060   1.485   1.709   4.046
 2387SOL    HW2 8061   1.612   1.620   4.098
 2388SOL     OW 8062   6.712   1.771   5.532
 2388SOL    HW1 8063   6.804   1.799   5.560
 2388SOL    HW2 8064   6.647   1.844   5.553
 2389SOL     OW 8065   5.356   4.792   3.925
 2389SOL    HW1 8066   5.421   4.818   3.997
 2389SOL    HW2 8067   5.320   4.874   3.881
 2390SOL     OW 8068   4.099   4.085   5.805
 2390SOL    HW1 8069   4.091   4.092   5.706
 2390SOL    HW2 8070   4.125   3.992   5.830
 2391SOL     OW 8071   3.739   3.952   6.128
 2391SOL    HW1 8072   3.810   4.022   6.119
 2391SOL    HW2 8073   3.650   3.996   6.138
 2392SOL     OW 8074   3.895   5.063   5.592
 2392SOL    HW1 8075   3.901   5.092   5.496
 2392SOL    HW2 8076   3.837   5.126   5.642
 2393SOL     OW 8077   3.069   5.734   1.706
 2393SOL    HW1 8078   2.993   5.779   1.752
 2393SOL    HW2 8079   3.036   5.652   1.659
 2394SOL     OW 8080   1.021   2.857   3.534
 2394SOL    HW1 8081   1.015   2.875   3.436
 2394SOL    HW2 8082   1.088   2.785   3.551
 2395SOL     OW 8083   0.202   2.274   4.703
 2395SOL    HW1 8084   0.143   2.354   4.714
 2395SOL    HW2 8085   0.190   2.236   4.611
 2396SOL     OW 8086   6.689   1.097   5.145
 2396SOL    HW1 8087   6.639   1.063   5.065
 2396SOL    HW2 8088   6.666   1.041   5.225
 2397SOL     OW 8089   0.194   4.889   5.354
 2397SOL    HW1 8090   0.253   4.943   5.414
 2397SOL    HW2 8091   0.201   4.792   5.380
 2398SOL     OW 8092   2.984   6.186   3.237
 2398SOL    HW1 8093   3.006   6.269   3.289
 2398SOL    HW2 8094   2.912   6.135   3.284
 2399SOL     OW 8095   2.738   2.384   4.334
 2399SOL    HW1 8096   2.647   2.416   4.310
 2399SOL    HW2 8097   2.748   2.383   4.433
 2400SOL     OW 8098   0.550   4.305   1.002
 2400SOL    HW1 8099   0.607   4.300   0.920
 2400SOL    HW2 8100   0.465   4.254   0.987
 2401SOL     OW 8101   3.607   6.831   5.740
 2401SOL    HW1 8102   3.645   6.895   5.806
 2401SOL    HW2 8103   3.546   6.879   5.678
 2402SOL     OW 8104   1.232   4.291   2.271
 2402SOL    HW1 8105   1.269   4.204   2.302
 2402SOL    HW2 8106   1.284   4.323   2.191
 2403SOL     OW 8107   3.511   4.157   3.041
 2403SOL    HW1 8108   3.421   4.136   3.003
 2403SOL    HW2 8109   3.582   4.135   2.974
 2404SOL     OW 8110   6.421   1.895   1.102
 2404SOL    HW1 8111   6.493   1.828   1.120
 2404SOL    HW2 8112   6.396   1.940   1.187
 2405SOL     OW 8113   2.292   3.584   0.799
 2405SOL    HW1 8114   2.256   3.676   0.781
 2405SOL    HW2 8115   2.262   3.554   0.890
 2406SOL     OW 8116   2.468   6.660   4.851
 2406SOL    HW1 8117   2.487   6.758   4.856
 2406SOL    HW2 8118   2.550   6.612   4.822
 2407SOL     OW 8119   3.918   1.373   3.654
 2407SOL    HW1 8120   3.831   1.414   3.628
 2407SOL    HW2 8121   3.915   1.346   3.750
 2408SOL     OW 8122   3.173   5.374   4.611
 2408SOL    HW1 8123   3.088   5.372   4.665
 2408SOL    HW2 8124   3.200   5.468   4.594
 2409SOL     OW 8125   2.119   2.602   1.406
 2409SOL    HW1 8126   2.089   2.508   1.388
 2409SOL    HW2 8127   2.219   2.607   1.397
 2410SOL     OW 8128   0.392   3.761   5.325
 2410SOL    HW1 8129   0.429   3.735   5.414
 2410SOL    HW2 8130   0.443   3.715   5.252
 2411SOL     OW 8131   2.549   3.773   0.032
 2411SOL    HW1 8132   2.641   3.801   0.058
 2411SOL    HW2 8133   2.531   3.801   6.957
 2412SOL     OW 8134   3.608   1.697   6.501
 2412SOL    HW1 8135   3.508   1.694   6.509
 2412SOL    HW2 8136   3.648   1.706   6.592
 2413SOL     OW 8137   6.442   2.952   6.695
 2413SOL    HW1 8138   6.350   2.974   6.661
 2413SOL    HW2 8139   6.493   2.904   6.624
 2414SOL     OW 8140   6.273   2.478   4.399
 2414SOL    HW1 8141   6.251   2.381   4.411
 2414SOL    HW2 8142   6.242   2.528   4.480
 2415SOL     OW 8143   2.749   5.674   0.855
 2415SOL    HW1 8144   2.735   5.753   0.795
 2415SOL    HW2 8145   2.674   5.610   0.844
 2416SOL     OW 8146   6.828   3.549   2.750
 2416SOL    HW1 8147   6.863   3.640   2.730
 2416SOL    HW2 8148   6.902   3.490   2.782
 2417SOL     OW 8149   3.650   3.591   0.967
 2417SOL    HW1 8150   3.692   3.682   0.961
 2417SOL    HW2 8151   3.554   3.598   0.941
 2418SOL     OW 8152   4.469   3.746   5.699
 2418SOL    HW1 8153   4.488   3.809   5.625
 2418SOL    HW2 8154   4.469   3.652   5.664
 2419SOL     OW 8155   1.741   6.531   4.323
 2419SOL    HW1 8156   1.659   6.588   4.335
 2419SOL    HW2 8157   1.721   6.458   4.258
 2420SOL     OW 8158   1.999   4.381   2.755
 2420SOL    HW1 8159   1.987   4.468   2.802
 2420SOL    HW2 8160   2.093   4.349   2.769
 2421SOL     OW 8161   2.915   6.486   4.380
 2421SOL    HW1 8162   2.929   6.435   4.295
 2421SOL    HW2 8163   3.003   6.500   4.425
 2422SOL     OW 8164   4.439   6.242   0.367
 2422SOL    HW1 8165   4.499   6.283   0.436
 2422SOL    HW2 8166   4.429   6.144   0.385
 2423SOL     OW 8167   2.200   5.252   2.404
 2423SOL    HW1 8168   2.281   5.250   2.345
 2423SOL    HW2 8169   2.198   5.169   2.460
 2424SOL     OW 8170   5.515   1.172   5.833
 2424SOL    HW1 8171   5.444   1.219   5.781
 2424SOL    HW2 8172   5.568   1.238   5.885
 2425SOL     OW 8173   4.772   5.323   5.463
 2425SOL    HW1 8174   4.844   5.344   5.398
 2425SOL    HW2 8175   4.812   5.314   5.555
 2426SOL     OW 8176   1.311   4.788   5.779
 2426SOL    HW1 8177   1.320   4.867   5.718
 2426SOL    HW2 8178   1.300   4.820   5.873
 2427SOL     OW 8179   5.451   0.693   6.828
 2427SOL    HW1 8180   5.509   0.755   6.882
 2427SOL    HW2 8181   5.355   0.716   6.842
 2428SOL     OW 8182   0.252   1.166   3.305
 2428SOL    HW1 8183   0.350   1.178   3.325
 2428SOL    HW2 8184   0.201   1.245   3.340
 2429SOL     OW 8185   5.239   5.535   1.764
 2429SOL    HW1 8186   5.162   5.517   1.824
 2429SOL    HW2 8187   5.316   5.478   1.790
 2430SOL     OW 8188   6.058   2.379   6.530
 2430SOL    HW1 8189   6.018   2.461   6.488
 2430SOL    HW2 8190   6.027   2.372   6.625
 2431SOL     OW 8191   6.802   2.378   1.667
 2431SOL    HW1 8192   6.846   2.326   1.594
 2431SOL    HW2 8193   6.846   2.358   1.754
 2432SOL     OW 8194   3.282   5.650   2.562
 2432SOL    HW1 8195   3.204   5.664   2.501
 2432SOL    HW2 8196   3.308   5.737   2.603
 2433SOL     OW 8197   6.648   3.977   0.147
 2433SOL    HW1 8198   6.558   3.934   0.137
 2433SOL    HW2 8199   6.713   3.933   0.085
 2434SOL     OW 8200   4.450   1.805   2.964
 2434SOL    HW1 8201   4.393   1.825   2.884
 2434SOL    HW2 8202   4.392   1.784   3.042
 2435SOL     OW 8203   5.474   6.118   6.874
 2435SOL    HW1 8204   5.448   6.188   6.807
 2435SOL    HW2 8205   5.573   6.110   6.876
 2436SOL     OW 8206   2.643   1.666   1.854
 2436SOL    HW1 8207   2.722   1.614   1.823
 2436SOL    HW2 8208   2.668   1.762   1.865
 2437SOL     OW 8209   6.855   5.059   2.462
 2437SOL    HW1 8210   6.825   4.964   2.462
 2437SOL    HW2 8211   6.883   5.085   2.555
 2438SOL     OW 8212   3.074   1.497   5.062
 2438SOL    HW1 8213   2.985   1.464   5.029
 2438SOL    HW2 8214   3.126   1.534   4.985
 2439SOL     OW 8215   0.677   5.518   0.587
 2439SOL    HW1 8216   0.742   5.589   0.614
 2439SOL    HW2 8217   0.722   5.453   0.526
 2440SOL     OW 8218   5.125   0.603   5.228
 2440SOL    HW1 8219   5.051   0.652   5.273
 2440SOL    HW2 8220   5.087   0.544   5.157
 2441SOL     OW 8221   5.834   0.049   0.186
 2441SOL    HW1 8222   5.825   0.050   0.285
 2441SOL    HW2 8223   5.881   0.132   0.156
 2442SOL     OW 8224   4.856   3.564   1.978
 2442SOL    HW1 8225   4.921   3.502   2.021
 2442SOL    HW2 8226   4.765   3.522   1.977
 2443SOL     OW 8227   2.002   1.958   0.728
 2443SOL    HW1 8228   1.972   1.942   0.634
 2443SOL    HW2 8229   1.993   1.874   0.781
 2444SOL     OW 8230   3.536   5.868   1.169
 2444SOL    HW1 8231   3.553   5.906   1.260
 2444SOL    HW2 8232   3.605   5.903   1.106
 2445SOL     OW 8233   0.031   2.673   0.678
 2445SOL    HW1 8234   6.993   2.718   0.746
 2445SOL    HW2 8235   7.000   2.660   0.593
 2446SOL     OW 8236   1.851   3.975   1.416
 2446SOL    HW1 8237   1.762   4.012   1.388
 2446SOL    HW2 8238   1.839   3.916   1.495
 2447SOL     OW 8239   3.318   0.056   0.664
 2447SOL    HW1 8240   3.356   0.020   0.749
 2447SOL    HW2 8241   3.250   7.012   0.628
 2448SOL     OW 8242   5.899   1.595   3.620
 2448SOL    HW1 8243   5.919   1.571   3.525
 2448SOL    HW2 8244   5.985   1.611   3.669
 2449SOL     OW 8245   1.945   4.477   1.944
 2449SOL    HW1 8246   2.028   4.514   1.902
 2449SOL    HW2 8247   1.871   4.479   1.878
 2450SOL     OW 8248   1.659   5.880   6.320
 2450SOL    HW1 8249   1.717   5.953   6.283
 2450SOL    HW2 8250   1.716   5.815   6.370
 2451SOL     OW 8251   0.771   0.384   4.875
 2451SOL    HW1 8252   0.740   0.459   4.816
 2451SOL    HW2 8253   0.871   0.388   4.883
 2452SOL     OW 8254   2.838   1.981   4.065
 2452SOL    HW1 8255   2.923   2.022   4.034
 2452SOL    HW2 8256   2.813   2.017   4.155
 2453SOL     OW 8257   1.148   1.556   6.789
 2453SOL    HW1 8258   1.204   1.474   6.798
 2453SOL    HW2 8259   1.207   1.635   6.772
 2454SOL     OW 8260   4.114   5.483   1.039
 2454SOL    HW1 8261   4.051   5.412   1.008
 2454SOL    HW2 8262   4.151   5.531   0.959
 2455SOL     OW 8263   4.347   1.268   0.248
 2455SOL    HW1 8264   4.305   1.184   0.282
 2455SOL    HW2 8265   4.285   1.345   0.264
 2456SOL     OW 8266   0.819   4.285   6.747
 2456SOL    HW1 8267   0.894   4.331   6.795
 2456SOL    HW2 8268   0.846   4.268   6.652
 2457SOL     OW 8269   5.497   1.636   5.242
 2457SOL    HW1 8270   5.429   1.587   5.187
 2457SOL    HW2 8271   5.480   1.619   5.339
 2458SOL     OW 8272   1.175   6.831   2.948
 2458SOL    HW1 8273   1.230   6.776   2.884
 2458SOL    HW2 8274   1.215   6.922   2.956
 2459SOL     OW 8275   2.521   6.062   0.862
 2459SOL    HW1 8276   2.442   6.124   0.864
 2459SOL    HW2 8277   2.598   6.105   0.909
 2460SOL     OW 8278   1.687   0.593   6.189
 2460SOL    HW1 8279   1.607   0.639   6.227
 2460SOL    HW2 8280   1.769   0.624   6.237
 2461SOL     OW 8281   4.160   1.093   4.087
 2461SOL    HW1 8282   4.182   1.186   4.057
 2461SOL    HW2 8283   4.064   1.089   4.116
 2462SOL     OW 8284   0.582   5.045   1.123
 2462SOL    HW1 8285   0.516   5.008   1.058
 2462SOL    HW2 8286   0.674   5.017   1.097
 2463SOL     OW 8287   0.130   0.852   6.114
 2463SOL    HW1 8288   0.120   0.948   6.091
 2463SOL    HW2 8289   0.152   0.843   6.211
 2464SOL     OW 8290   0.827   1.805   3.030
 2464SOL    HW1 8291   0.874   1.744   3.094
 2464SOL    HW2 8292   0.751   1.850   3.077
 2465SOL     OW 8293   0.725   4.590   5.724
 2465SOL    HW1 8294   0.693   4.501   5.756
 2465SOL    HW2 8295   0.824   4.587   5.711
 2466SOL     OW 8296   1.763   2.087   1.790
 2466SOL    HW1 8297   1.675   2.042   1.774
 2466SOL    HW2 8298   1.748   2.183   1.813
 2467SOL     OW 8299   5.118   1.409   6.103
 2467SOL    HW1 8300   5.160   1.496   6.077
 2467SOL    HW2 8301   5.018   1.419   6.104
 2468SOL     OW 8302   3.852   0.072   5.319
 2468SOL    HW1 8303   3.866   0.125   5.235
 2468SOL    HW2 8304   3.941   0.047   5.358
 2469SOL     OW 8305   3.624   2.790   5.276
 2469SOL    HW1 8306   3.541   2.756   5.321
 2469SOL    HW2 8307   3.687   2.825   5.345
 2470SOL     OW 8308   3.506   5.245   0.466
 2470SOL    HW1 8309   3.514   5.151   0.433
 2470SOL    HW2 8310   3.411   5.274   0.460
 2471SOL     OW 8311   3.683   6.501   1.055
 2471SOL    HW1 8312   3.770   6.519   1.103
 2471SOL    HW2 8313   3.665   6.403   1.055
 2472SOL     OW 8314   5.004   2.225   3.959
 2472SOL    HW1 8315   5.060   2.307   3.947
 2472SOL    HW2 8316   5.024   2.184   4.048
 2473SOL     OW 8317   0.459   4.575   4.879
 2473SOL    HW1 8318   0.540   4.519   4.898
 2473SOL    HW2 8319   0.391   4.561   4.950
 2474SOL     OW 8320   0.947   6.059   1.095
 2474SOL    HW1 8321   0.984   6.018   1.012
 2474SOL    HW2 8322   0.970   6.001   1.173
 2475SOL     OW 8323   5.147   0.431   0.859
 2475SOL    HW1 8324   5.208   0.490   0.911
 2475SOL    HW2 8325   5.196   0.395   0.780
 2476SOL     OW 8326   6.032   0.587   1.225
 2476SOL    HW1 8327   6.056   0.669   1.173
 2476SOL    HW2 8328   6.114   0.532   1.241
 2477SOL     OW 8329   3.472   0.697   3.179
 2477SOL    HW1 8330   3.430   0.787   3.170
 2477SOL    HW2 8331   3.435   0.651   3.260
 2478SOL     OW 8332   4.421   1.447   3.211
 2478SOL    HW1 8333   4.498   1.510   3.202
 2478SOL    HW2 8334   4.454   1.353   3.205
 2479SOL     OW 8335   0.831   3.040   1.145
 2479SOL    HW1 8336   0.830   3.138   1.125
 2479SOL    HW2 8337   0.833   2.989   1.059
 2480SOL     OW 8338   3.797   2.332   1.026
 2480SOL    HW1 8339   3.873   2.312   1.087
 2480SOL    HW2 8340   3.735   2.398   1.069
 2481SOL     OW 8341   3.724   0.830   1.571
 2481SOL    HW1 8342   3.748   0.883   1.490
 2481SOL    HW2 8343   3.782   0.749   1.576
 2482SOL     OW 8344   5.535   3.762   6.963
 2482SOL    HW1 8345   5.575   3.670   6.963
 2482SOL    HW2 8346   5.438   3.756   6.937
 2483SOL     OW 8347   0.842   2.484   0.455
 2483SOL    HW1 8348   0.857   2.582   0.471
 2483SOL    HW2 8349   0.927   2.443   0.421
 2484SOL     OW 8350   4.774   1.572   2.365
 2484SOL    HW1 8351   4.837   1.539   2.437
 2484SOL    HW2 8352   4.745   1.494   2.309
 2485SOL     OW 8353   5.331   1.871   6.230
 2485SOL    HW1 8354   5.313   1.968   6.214
 2485SOL    HW2 8355   5.299   1.845   6.321
 2486SOL     OW 8356   0.237   4.519   5.707
 2486SOL    HW1 8357   0.219   4.421   5.708
 2486SOL    HW2 8358   0.317   4.538   5.763
 2487SOL     OW 8359   4.959   6.198   0.676
 2487SOL    HW1 8360   5.031   6.191   0.745
 2487SOL    HW2 8361   4.870   6.203   0.721
 2488SOL     OW 8362   6.971   3.918   1.834
 2488SOL    HW1 8363   0.006   3.936   1.752
 2488SOL    HW2 8364   6.993   3.828   1.870
 2489SOL     OW 8365   0.468   6.032   4.167
 2489SOL    HW1 8366   0.392   6.011   4.228
 2489SOL    HW2 8367   0.471   5.965   4.093
 2490SOL     OW 8368   1.221   6.303   1.778
 2490SOL    HW1 8369   1.143   6.268   1.829
 2490SOL    HW2 8370   1.304   6.256   1.808
 2491SOL     OW 8371   4.157   4.672   1.776
 2491SOL    HW1 8372   4.126   4.687   1.682
 2491SOL    HW2 8373   4.198   4.581   1.783
 2492SOL     OW 8374   4.956   3.299   0.886
 2492SOL    HW1 8375   4.954   3.289   0.985
 2492SOL    HW2 8376   4.948   3.208   0.844
 2493SOL     OW 8377   6.796   6.874   1.276
 2493SOL    HW1 8378   6.833   6.899   1.366
 2493SOL    HW2 8379   6.853   6.914   1.204
 2494SOL     OW 8380   6.088   2.898   1.989
 2494SOL    HW1 8381   6.130   2.989   1.993
 2494SOL    HW2 8382   6.035   2.882   2.072
 2495SOL     OW 8383   5.331   5.515   3.528
 2495SOL    HW1 8384   5.302   5.584   3.463
 2495SOL    HW2 8385   5.410   5.548   3.580
 2496SOL     OW 8386   7.003   3.615   6.687
 2496SOL    HW1 8387   0.005   3.659   6.774
 2496SOL    HW2 8388   0.064   3.618   6.628
 2497SOL     OW 8389   0.404   0.532   0.834
 2497SOL    HW1 8390   0.394   0.459   0.767
 2497SOL    HW2 8391   0.475   0.596   0.803
 2498SOL     OW 8392   3.228   2.859   5.592
 2498SOL    HW1 8393   3.280   2.812   5.520
 2498SOL    HW2 8394   3.242   2.958   5.583
 2499SOL     OW 8395   6.060   3.337   0.990
 2499SOL    HW1 8396   6.011   3.316   1.074
 2499SOL    HW2 8397   5.995   3.372   0.922
 2500SOL     OW 8398   3.318   3.744   6.271
 2500SOL    HW1 8399   3.299   3.647   6.284
 2500SOL    HW2 8400   3.417   3.759   6.267
 2501SOL     OW 8401   6.221   5.838   0.271
 2501SOL    HW1 8402   6.147   5.869   0.212
 2501SOL    HW2 8403   6.189   5.761   0.327
 2502SOL     OW 8404   2.267   6.518   4.764
 2502SOL    HW1 8405   2.337   6.575   4.807
 2502SOL    HW2 8406   2.204   6.577   4.713
 2503SOL     OW 8407   3.246   6.552   5.415
 2503SOL    HW1 8408   3.287   6.462   5.431
 2503SOL    HW2 8409   3.148   6.547   5.436
 2504SOL     OW 8410   3.277   5.183   2.684
 2504SOL    HW1 8411   3.334   5.123   2.740
 2504SOL    HW2 8412   3.266   5.271   2.730
 2505SOL     OW 8413   0.288   5.806   3.548
 2505SOL    HW1 8414   0.290   5.829   3.645
 2505SOL    HW2 8415   0.271   5.708   3.537
 2506SOL     OW 8416   6.274   3.603   6.199
 2506SOL    HW1 8417   6.256   3.504   6.199
 2506SOL    HW2 8418   6.254   3.640   6.290
 2507SOL     OW 8419   6.837   3.452   6.923
 2507SOL    HW1 8420   6.769   3.413   6.985
 2507SOL    HW2 8421   6.793   3.483   6.840
 2508SOL     OW 8422   2.824   1.855   4.797
 2508SOL    HW1 8423   2.747   1.820   4.743
 2508SOL    HW2 8424   2.799   1.943   4.839
 2509SOL     OW 8425   6.572   4.096   0.421
 2509SOL    HW1 8426   6.607   4.016   0.471
 2509SOL    HW2 8427   6.574   4.077   0.323
 2510SOL     OW 8428   3.373   4.404   1.147
 2510SOL    HW1 8429   3.420   4.387   1.234
 2510SOL    HW2 8430   3.317   4.324   1.124
 2511SOL     OW 8431   2.194   0.971   5.079
 2511SOL    HW1 8432   2.196   0.912   4.998
 2511SOL    HW2 8433   2.125   0.937   5.143
 2512SOL     OW 8434   4.105   4.134   5.548
 2512SOL    HW1 8435   4.145   4.226   5.543
 2512SOL    HW2 8436   4.028   4.128   5.485
 2513SOL     OW 8437   2.015   5.843   5.648
 2513SOL    HW1 8438   2.075   5.858   5.726
 2513SOL    HW2 8439   2.062   5.787   5.579
 2514SOL     OW 8440   0.575   3.442   4.297
 2514SOL    HW1 8441   0.600   3.404   4.386
 2514SOL    HW2 8442   0.475   3.444   4.288
 2515SOL     OW 8443   1.870   0.350   1.463
 2515SOL    HW1 8444   1.820   0.323   1.380
 2515SOL    HW2 8445   1.926   0.273   1.494
 2516SOL     OW 8446   4.970   1.184   2.749
 2516SOL    HW1 8447   5.049   1.127   2.727
 2516SOL    HW2 8448   4.912   1.138   2.816
 2517SOL     OW 8449   2.208   6.873   5.672
 2517SOL    HW1 8450   2.172   6.966   5.670
 2517SOL    HW2 8451   2.245   6.853   5.763
 2518SOL     OW 8452   1.655   5.451   1.345
 2518SOL    HW1 8453   1.603   5.464   1.430
 2518SOL    HW2 8454   1.600   5.399   1.280
 2519SOL     OW 8455   3.630   0.835   1.232
 2519SOL    HW1 8456   3.683   0.910   1.193
 2519SOL    HW2 8457   3.534   0.862   1.237
 2520SOL     OW 8458   3.294   1.756   6.792
 2520SOL    HW1 8459   3.346   1.699   6.729
 2520SOL    HW2 8460   3.313   1.852   6.773
 2521SOL     OW 8461   3.587   1.962   5.832
 2521SOL    HW1 8462   3.605   2.025   5.907
 2521SOL    HW2 8463   3.666   1.960   5.771
 2522SOL     OW 8464   1.071   1.534   5.618
 2522SOL    HW1 8465   1.036   1.611   5.565
 2522SOL    HW2 8466   1.089   1.457   5.558
 2523SOL     OW 8467   1.746   3.854   1.141
 2523SOL    HW1 8468   1.757   3.911   1.222
 2523SOL    HW2 8469   1.676   3.893   1.082
 2524SOL     OW 8470   0.417   6.787   4.511
 2524SOL    HW1 8471   0.444   6.883   4.519
 2524SOL    HW2 8472   0.499   6.729   4.507
 2525SOL     OW 8473   1.354   3.181   4.640
 2525SOL    HW1 8474   1.406   3.182   4.554
 2525SOL    HW2 8475   1.411   3.221   4.712
 2526SOL     OW 8476   1.585   4.770   6.624
 2526SOL    HW1 8477   1.565   4.673   6.612
 2526SOL    HW2 8478   1.523   4.809   6.692
 2527SOL     OW 8479   5.046   5.343   5.559
 2527SOL    HW1 8480   5.118   5.274   5.549
 2527SOL    HW2 8481   5.074   5.427   5.514
 2528SOL     OW 8482   5.671   4.024   5.221
 2528SOL    HW1 8483   5.729   4.088   5.170
 2528SOL    HW2 8484   5.699   4.022   5.317
 2529SOL     OW 8485   0.651   0.227   0.055
 2529SOL    HW1 8486   0.629   0.189   6.985
 2529SOL    HW2 8487   0.582   0.198   0.122
 2530SOL     OW 8488   2.461   6.048   5.566
 2530SOL    HW1 8489   2.381   6.040   5.506
 2530SOL    HW2 8490   2.507   6.135   5.548
 2531SOL     OW 8491   5.876   5.606   5.680
 2531SOL    HW1 8492   5.836   5.590   5.590
 2531SOL    HW2 8493   5.913   5.521   5.717
 2532SOL     OW 8494   0.372   6.735   0.422
 2532SOL    HW1 8495   0.451   6.738   0.483
 2532SOL    HW2 8496   0.401   6.710   0.330
 2533SOL     OW 8497   4.394   0.984   3.996
 2533SOL    HW1 8498   4.410   0.901   4.049
 2533SOL    HW2 8499   4.307   1.025   4.023
 2534SOL     OW 8500   4.224   1.552   1.733
 2534SOL    HW1 8501   4.314   1.595   1.744
 2534SOL    HW2 8502   4.235   1.466   1.684
 2535SOL     OW 8503   2.962   2.215   6.707
 2535SOL    HW1 8504   3.053   2.243   6.738
 2535SOL    HW2 8505   2.894   2.283   6.735
 2536SOL     OW 8506   1.789   0.738   6.393
 2536SOL    HW1 8507   1.817   0.695   6.479
 2536SOL    HW2 8508   1.774   0.836   6.409
 2537SOL     OW 8509   3.282   6.776   6.459
 2537SOL    HW1 8510   3.237   6.802   6.374
 2537SOL    HW2 8511   3.276   6.851   6.524
 2538SOL     OW 8512   0.518   3.939   4.099
 2538SOL    HW1 8513   0.514   3.848   4.141
 2538SOL    HW2 8514   0.426   3.977   4.092
 2539SOL     OW 8515   5.342   0.663   4.021
 2539SOL    HW1 8516   5.357   0.629   3.929
 2539SOL    HW2 8517   5.368   0.760   4.026
 2540SOL     OW 8518   4.313   2.053   2.477
 2540SOL    HW1 8519   4.256   2.128   2.442
 2540SOL    HW2 8520   4.379   2.088   2.543
 2541SOL     OW 8521   2.583   6.841   5.651
 2541SOL    HW1 8522   2.537   6.807   5.733
 2541SOL    HW2 8523   2.608   6.764   5.593
 2542SOL     OW 8524   3.149   3.723   6.828
 2542SOL    HW1 8525   3.061   3.762   6.856
 2542SOL    HW2 8526   3.136   3.662   6.750
 2543SOL     OW 8527   0.708   1.339   4.032
 2543SOL    HW1 8528   0.653   1.412   3.994
 2543SOL    HW2 8529   0.688   1.253   3.984
 2544SOL     OW 8530   0.470   5.803   0.555
 2544SOL    HW1 8531   0.489   5.870   0.484
 2544SOL    HW2 8532   0.539   5.730   0.552
 2545SOL     OW 8533   1.170   7.004   2.356
 2545SOL    HW1 8534   1.141   6.922   2.405
 2545SOL    HW2 8535   1.268   7.001   2.341
 2546SOL     OW 8536   6.831   2.145   1.186
 2546SOL    HW1 8537   6.797   2.058   1.222
 2546SOL    HW2 8538   6.908   2.176   1.241
 2547SOL     OW 8539   0.243   3.610   0.088
 2547SOL    HW1 8540   0.156   3.566   0.109
 2547SOL    HW2 8541   0.304   3.545   0.043
 2548SOL     OW 8542   0.488   0.028   4.499
 2548SOL    HW1 8543   0.555   0.099   4.520
 2548SOL    HW2 8544   0.398   0.055   4.535
 2549SOL     OW 8545   0.978   0.822   1.477
 2549SOL    HW1 8546   0.928   0.735   1.478
 2549SOL    HW2 8547   1.074   0.805   1.499
 2550SOL     OW 8548   6.603   6.736   0.676
 2550SOL    HW1 8549   6.635   6.808   0.614
 2550SOL    HW2 8550   6.505   6.722   0.665
 2551SOL     OW 8551   2.965   4.738   0.378
 2551SOL    HW1 8552   2.975   4.766   0.473
 2551SOL    HW2 8553   2.877   4.693   0.365
 2552SOL     OW 8554   2.560   5.903   5.199
 2552SOL    HW1 8555   2.477   5.924   5.251
 2552SOL    HW2 8556   2.535   5.864   5.110
 2553SOL     OW 8557   3.900   3.414   5.787
 2553SOL    HW1 8558   3.891   3.464   5.701
 2553SOL    HW2 8559   3.839   3.454   5.855
 2554SOL     OW 8560   2.553   1.064   0.111
 2554SOL    HW1 8561   2.557   0.976   0.158
 2554SOL    HW2 8562   2.609   1.131   0.161
 2555SOL     OW 8563   5.624   1.866   4.197
 2555SOL    HW1 8564   5.602   1.905   4.108
 2555SOL    HW2 8565   5.700   1.802   4.188
 2556SOL     OW 8566   4.308   5.686   0.409
 2556SOL    HW1 8567   4.259   5.675   0.323
 2556SOL    HW2 8568   4.341   5.780   0.418
 2557SOL     OW 8569   2.026   3.567   7.006
 2557SOL    HW1 8570   2.094   3.494   7.008
 2557SOL    HW2 8571   2.005   3.591   6.911
 2558SOL     OW 8572   5.338   0.869   5.508
 2558SOL    HW1 8573   5.279   0.906   5.436
 2558SOL    HW2 8574   5.281   0.839   5.585
 2559SOL     OW 8575   1.341   4.389   5.497
 2559SOL    HW1 8576   1.247   4.403   5.528
 2559SOL    HW2 8577   1.403   4.450   5.547
 2560SOL     OW 8578   6.748   2.216   5.740
 2560SOL    HW1 8579   6.654   2.221   5.705
 2560SOL    HW2 8580   6.806   2.167   5.675
 2561SOL     OW 8581   2.621   5.019   5.228
 2561SOL    HW1 8582   2.641   4.921   5.230
 2561SOL    HW2 8583   2.555   5.038   5.155
 2562SOL     OW 8584   2.324   4.370   1.295
 2562SOL    HW1 8585   2.239   4.404   1.255
 2562SOL    HW2 8586   2.371   4.311   1.229
 2563SOL     OW 8587   3.333   1.267   0.637
 2563SOL    HW1 8588   3.424   1.231   0.621
 2563SOL    HW2 8589   3.271   1.193   0.662
 2564SOL     OW 8590   1.154   5.542   0.472
 2564SOL    HW1 8591   1.230   5.534   0.408
 2564SOL    HW2 8592   1.070   5.507   0.429
 2565SOL     OW 8593   0.905   0.670   0.082
 2565SOL    HW1 8594   0.978   0.630   0.026
 2565SOL    HW2 8595   0.818   0.628   0.057
 2566SOL     OW 8596   2.398   6.776   1.458
 2566SOL    HW1 8597   2.398   6.871   1.429
 2566SOL    HW2 8598   2.489   6.737   1.445
 2567SOL     OW 8599   1.340   0.180   0.904
 2567SOL    HW1 8600   1.323   0.274   0.875
 2567SOL    HW2 8601   1.282   0.159   0.982
 2568SOL     OW 8602   4.087   2.278   6.837
 2568SOL    HW1 8603   4.079   2.208   6.765
 2568SOL    HW2 8604   4.101   2.367   6.794
 2569SOL     OW 8605   3.376   0.937   3.223
 2569SOL    HW1 8606   3.422   1.010   3.173
 2569SOL    HW2 8607   3.283   0.965   3.247
 2570SOL     OW 8608   5.647   0.645   5.441
 2570SOL    HW1 8609   5.689   0.736   5.436
 2570SOL    HW2 8610   5.550   0.652   5.418
 2571SOL     OW 8611   1.413   4.803   3.613
 2571SOL    HW1 8612   1.396   4.806   3.711
 2571SOL    HW2 8613   1.374   4.885   3.570
 2572SOL     OW 8614   2.790   5.251   2.295
 2572SOL    HW1 8615   2.773   5.330   2.238
 2572SOL    HW2 8616   2.880   5.260   2.339
 2573SOL     OW 8617   1.026   2.055   0.949
 2573SOL    HW1 8618   0.990   1.962   0.938
 2573SOL    HW2 8619   0.967   2.108   1.009
 2574SOL     OW 8620   5.006   3.560   0.720
 2574SOL    HW1 8621   5.048   3.546   0.809
 2574SOL    HW2 8622   5.058   3.509   0.651
 2575SOL     OW 8623   6.000   5.625   6.729
 2575SOL    HW1 8624   6.098   5.632   6.710
 2575SOL    HW2 8625   5.952   5.699   6.684
 2576SOL     OW 8626   4.143   6.262   4.852
 2576SOL    HW1 8627   4.239   6.287   4.865
 2576SOL    HW2 8628   4.111   6.209   4.932
 2577SOL     OW 8629   2.752   5.075   2.075
 2577SOL    HW1 8630   2.756   5.138   2.152
 2577SOL    HW2 8631   2.830   5.092   2.014
 2578SOL     OW 8632   4.151   1.498   3.763
 2578SOL    HW1 8633   4.119   1.414   3.718
 2578SOL    HW2 8634   4.087   1.573   3.743
 2579SOL     OW 8635   0.311   6.219   4.025
 2579SOL    HW1 8636   0.347   6.198   3.934
 2579SOL    HW2 8637   0.372   6.181   4.095
 2580SOL     OW 8638   2.127   4.746   0.244
 2580SOL    HW1 8639   2.078   4.662   0.269
 2580SOL    HW2 8640   2.102   4.772   0.151
 2581SOL     OW 8641   2.267   5.893   0.320
 2581SOL    HW1 8642   2.296   5.899   0.415
 2581SOL    HW2 8643   2.313   5.816   0.276
 2582SOL     OW 8644   0.018   4.270   1.591
 2582SOL    HW1 8645   7.017   4.331   1.514
 2582SOL    HW2 8646   0.037   4.179   1.556
 2583SOL     OW 8647   0.384   0.805   0.183
 2583SOL    HW1 8648   0.455   0.876   0.191
 2583SOL    HW2 8649   0.356   0.797   0.087
 2584SOL     OW 8650   4.377   5.150   5.650
 2584SOL    HW1 8651   4.370   5.182   5.555
 2584SOL    HW2 8652   4.298   5.183   5.702
 2585SOL     OW 8653   2.818   4.574   6.932
 2585SOL    HW1 8654   2.738   4.568   6.992
 2585SOL    HW2 8655   2.889   4.513   6.964
 2586SOL     OW 8656   2.952   0.926   5.822
 2586SOL    HW1 8657   2.860   0.962   5.839
 2586SOL    HW2 8658   2.958   0.832   5.856
 2587SOL     OW 8659   0.326   1.518   3.090
 2587SOL    HW1 8660   0.302   1.477   3.003
 2587SOL    HW2 8661   0.385   1.598   3.075
 2588SOL     OW 8662   3.947   2.472   5.382
 2588SOL    HW1 8663   3.856   2.485   5.343
 2588SOL    HW2 8664   4.016   2.499   5.315
 2589SOL     OW 8665   1.035   6.559   6.692
 2589SOL    HW1 8666   0.962   6.512   6.740
 2589SOL    HW2 8667   1.119   6.504   6.696
 2590SOL     OW 8668   2.603   5.065   0.504
 2590SOL    HW1 8669   2.598   5.165   0.510
 2590SOL    HW2 8670   2.651   5.039   0.420
 2591SOL     OW 8671   5.981   5.489   3.883
 2591SOL    HW1 8672   5.979   5.553   3.806
 2591SOL    HW2 8673   5.888   5.463   3.908
 2592SOL     OW 8674   2.555   3.917   6.551
 2592SOL    HW1 8675   2.587   3.860   6.475
 2592SOL    HW2 8676   2.634   3.946   6.606
 2593SOL     OW 8677   3.286   5.758   0.748
 2593SOL    HW1 8678   3.322   5.809   0.825
 2593SOL    HW2 8679   3.314   5.662   0.755
 2594SOL     OW 8680   2.396   4.444   6.600
 2594SOL    HW1 8681   2.299   4.464   6.581
 2594SOL    HW2 8682   2.448   4.447   6.515
 2595SOL     OW 8683   0.881   1.383   4.587
 2595SOL    HW1 8684   0.889   1.478   4.616
 2595SOL    HW2 8685   0.946   1.364   4.513
 2596SOL     OW 8686   2.134   2.782   1.174
 2596SOL    HW1 8687   2.057   2.785   1.110
 2596SOL    HW2 8688   2.110   2.724   1.252
 2597SOL     OW 8689   6.689   5.154   6.273
 2597SOL    HW1 8690   6.605   5.208   6.276
 2597SOL    HW2 8691   6.685   5.082   6.342
 2598SOL     OW 8692   6.287   1.529   1.855
 2598SOL    HW1 8693   6.266   1.502   1.761
 2598SOL    HW2 8694   6.344   1.611   1.855
 2599SOL     OW 8695   1.903   6.536   1.365
 2599SOL    HW1 8696   1.912   6.514   1.462
 2599SOL    HW2 8697   1.866   6.457   1.317
 2600SOL     OW 8698   5.916   3.689   4.685
 2600SOL    HW1 8699   5.918   3.604   4.633
 2600SOL    HW2 8700   5.912   3.767   4.621
 2601SOL     OW 8701   1.712   1.847   2.370
 2601SOL    HW1 8702   1.708   1.784   2.448
 2601SOL    HW2 8703   1.722   1.941   2.403
 2602SOL     OW 8704   1.919   5.069   3.759
 2602SOL    HW1 8705   1.971   5.083   3.843
 2602SOL    HW2 8706   1.822   5.089   3.777
 2603SOL     OW 8707   3.052   1.266   2.046
 2603SOL    HW1 8708   3.019   1.358   2.067
 2603SOL    HW2 8709   3.004   1.200   2.103
 2604SOL     OW 8710   4.968   1.805   1.948
 2604SOL    HW1 8711   4.870   1.815   1.966
 2604SOL    HW2 8712   5.006   1.732   2.004
 2605SOL     OW 8713   1.336   4.090   2.597
 2605SOL    HW1 8714   1.297   4.182   2.597
 2605SOL    HW2 8715   1.385   4.074   2.511
 2606SOL     OW 8716   5.491   4.989   1.318
 2606SOL    HW1 8717   5.550   4.934   1.259
 2606SOL    HW2 8718   5.525   5.083   1.320
 2607SOL     OW 8719   1.743   2.472   1.294
 2607SOL    HW1 8720   1.750   2.455   1.392
 2607SOL    HW2 8721   1.654   2.441   1.261
 2608SOL     OW 8722   2.209   6.273   6.477
 2608SOL    HW1 8723   2.222   6.284   6.576
 2608SOL    HW2 8724   2.244   6.184   6.448
 2609SOL     OW 8725   0.571   1.187   1.057
 2609SOL    HW1 8726   0.490   1.186   0.999
 2609SOL    HW2 8727   0.576   1.274   1.106
 2610SOL     OW 8728   1.410   5.236   4.281
 2610SOL    HW1 8729   1.493   5.240   4.337
 2610SOL    HW2 8730   1.429   5.275   4.191
 2611SOL     OW 8731   4.926   6.211   0.368
 2611SOL    HW1 8732   4.895   6.291   0.317
 2611SOL    HW2 8733   4.908   6.225   0.466
 2612SOL     OW 8734   4.809   6.495   4.809
 2612SOL    HW1 8735   4.811   6.396   4.819
 2612SOL    HW2 8736   4.901   6.532   4.823
 2613SOL     OW 8737   0.982   5.784   6.166
 2613SOL    HW1 8738   0.916   5.795   6.241
 2613SOL    HW2 8739   0.933   5.765   6.081
 2614SOL     OW 8740   5.788   0.989   5.891
 2614SOL    HW1 8741   5.750   0.995   5.983
 2614SOL    HW2 8742   5.731   0.928   5.835
 2615SOL     OW 8743   1.242   3.346   1.502
 2615SOL    HW1 8744   1.179   3.296   1.562
 2615SOL    HW2 8745   1.190   3.411   1.447
 2616SOL     OW 8746   1.342   1.083   5.512
 2616SOL    HW1 8747   1.282   1.156   5.544
 2616SOL    HW2 8748   1.314   0.997   5.552
 2617SOL     OW 8749   5.412   0.206   0.863
 2617SOL    HW1 8750   5.450   0.242   0.948
 2617SOL    HW2 8751   5.352   0.128   0.884
 2618SOL     OW 8752   1.804   5.737   5.460
 2618SOL    HW1 8753   1.788   5.755   5.558
 2618SOL    HW2 8754   1.897   5.702   5.447
 2619SOL     OW 8755   4.172   2.014   1.814
 2619SOL    HW1 8756   4.128   1.941   1.761
 2619SOL    HW2 8757   4.254   1.978   1.859
 2620SOL     OW 8758   6.415   5.815   1.981
 2620SOL    HW1 8759   6.352   5.813   1.904
 2620SOL    HW2 8760   6.382   5.754   2.053
 2621SOL     OW 8761   0.292   5.931   2.741
 2621SOL    HW1 8762   0.250   5.842   2.723
 2621SOL    HW2 8763   0.390   5.926   2.725
 2622SOL     OW 8764   3.201   2.952   6.010
 2622SOL    HW1 8765   3.117   2.988   5.970
 2622SOL    HW2 8766   3.182   2.912   6.099
 2623SOL     OW 8767   0.334   6.708   3.894
 2623SOL    HW1 8768   0.419   6.714   3.842
 2623SOL    HW2 8769   0.349   6.747   3.985
 2624SOL     OW 8770   6.683   1.983   4.405
 2624SOL    HW1 8771   6.727   1.949   4.489
 2624SOL    HW2 8772   6.604   2.039   4.429
 2625SOL     OW 8773   1.950   5.484   5.320
 2625SOL    HW1 8774   1.988   5.448   5.235
 2625SOL    HW2 8775   1.852   5.500   5.309
 2626SOL     OW 8776   6.771   6.573   5.216
 2626SOL    HW1 8777   6.678   6.600   5.240
 2626SOL    HW2 8778   6.823   6.654   5.189
 2627SOL     OW 8779   1.050   6.919   5.733
 2627SOL    HW1 8780   1.142   6.956   5.725
 2627SOL    HW2 8781   1.049   6.847   5.802
 2628SOL     OW 8782   1.520   3.511   3.734
 2628SOL    HW1 8783   1.559   3.432   3.782
 2628SOL    HW2 8784   1.444   3.482   3.677
 2629SOL     OW 8785   2.960   3.851   3.602
 2629SOL    HW1 8786   3.050   3.891   3.588
 2629SOL    HW2 8787   2.905   3.863   3.519
 2630SOL     OW 8788   4.149   1.474   3.193
 2630SOL    HW1 8789   4.249   1.475   3.193
 2630SOL    HW2 8790   4.115   1.453   3.285
 2631SOL     OW 8791   5.801   0.405   6.610
 2631SOL    HW1 8792   5.739   0.438   6.538
 2631SOL    HW2 8793   5.764   0.320   6.649
 2632SOL     OW 8794   5.756   4.819   1.662
 2632SOL    HW1 8795   5.824   4.746   1.651
 2632SOL    HW2 8796   5.796   4.907   1.635
 2633SOL     OW 8797   6.793   2.523   5.145
 2633SOL    HW1 8798   6.857   2.492   5.075
 2633SOL    HW2 8799   6.719   2.456   5.155
 2634SOL     OW 8800   6.381   6.609   4.414
 2634SOL    HW1 8801   6.346   6.524   4.375
 2634SOL    HW2 8802   6.336   6.626   4.502
 2635SOL     OW 8803   5.143   5.405   3.795
 2635SOL    HW1 8804   5.124   5.469   3.720
 2635SOL    HW2 8805   5.221   5.348   3.770
 2636SOL     OW 8806   4.030   0.360   5.682
 2636SOL    HW1 8807   3.932   0.380   5.692
 2636SOL    HW2 8808   4.080   0.395   5.761
 2637SOL     OW 8809   0.663   1.643   2.873
 2637SOL    HW1 8810   0.660   1.582   2.794
 2637SOL    HW2 8811   0.750   1.694   2.871
 2638SOL     OW 8812   0.869   0.658   3.970
 2638SOL    HW1 8813   0.812   0.585   3.932
 2638SOL    HW2 8814   0.851   0.666   4.068
 2639SOL     OW 8815   4.545   4.867   4.794
 2639SOL    HW1 8816   4.509   4.952   4.756
 2639SOL    HW2 8817   4.611   4.827   4.731
 2640SOL     OW 8818   1.191   0.175   4.800
 2640SOL    HW1 8819   1.095   0.182   4.774
 2640SOL    HW2 8820   1.222   0.262   4.838
 2641SOL     OW 8821   5.131   2.530   0.155
 2641SOL    HW1 8822   5.142   2.571   0.246
 2641SOL    HW2 8823   5.188   2.578   0.089
 2642SOL     OW 8824   6.749   1.441   4.504
 2642SOL    HW1 8825   6.733   1.353   4.459
 2642SOL    HW2 8826   6.684   1.509   4.469
 2643SOL     OW 8827   1.189   3.832   3.773
 2643SOL    HW1 8828   1.159   3.742   3.742
 2643SOL    HW2 8829   1.279   3.853   3.732
 2644SOL     OW 8830   4.837   5.330   4.583
 2644SOL    HW1 8831   4.752   5.313   4.633
 2644SOL    HW2 8832   4.876   5.242   4.552
 2645SOL     OW 8833   4.776   5.423   3.765
 2645SOL    HW1 8834   4.676   5.425   3.756
 2645SOL    HW2 8835   4.807   5.328   3.771
 2646SOL     OW 8836   0.627   3.788   6.098
 2646SOL    HW1 8837   0.698   3.726   6.066
 2646SOL    HW2 8838   0.590   3.754   6.184
 2647SOL     OW 8839   5.596   0.133   1.635
 2647SOL    HW1 8840   5.554   0.074   1.566
 2647SOL    HW2 8841   5.584   0.093   1.726
 2648SOL     OW 8842   0.617   0.184   4.134
 2648SOL    HW1 8843   0.600   0.089   4.159
 2648SOL    HW2 8844   0.583   0.200   4.041
 2649SOL     OW 8845   5.245   2.850   1.943
 2649SOL    HW1 8846   5.148   2.875   1.936
 2649SOL    HW2 8847   5.297   2.900   1.873
 2650SOL     OW 8848   3.458   5.879   4.924
 2650SOL    HW1 8849   3.441   5.796   4.976
 2650SOL    HW2 8850   3.510   5.944   4.981
 2651SOL     OW 8851   3.892   1.986   5.450
 2651SOL    HW1 8852   3.831   1.913   5.420
 2651SOL    HW2 8853   3.860   2.023   5.537
 2652SOL     OW 8854   5.071   3.303   5.330
 2652SOL    HW1 8855   5.105   3.317   5.423
 2652SOL    HW2 8856   4.971   3.308   5.330
 2653SOL     OW 8857   3.212   6.287   6.748
 2653SOL    HW1 8858   3.234   6.243   6.662
 2653SOL    HW2 8859   3.294   6.293   6.805
 2654SOL     OW 8860   5.133   0.020   0.396
 2654SOL    HW1 8861   5.172   0.076   0.323
 2654SOL    HW2 8862   5.044   7.004   0.367
 2655SOL     OW 8863   5.325   6.219   2.905
 2655SOL    HW1 8864   5.297   6.210   3.001
 2655SOL    HW2 8865   5.272   6.292   2.862
 2656SOL     OW 8866   3.588   5.993   3.699
 2656SOL    HW1 8867   3.679   5.972   3.734
 2656SOL    HW2 8868   3.586   5.975   3.600
 2657SOL     OW 8869   2.320   3.456   0.205
 2657SOL    HW1 8870   2.222   3.441   0.193
 2657SOL    HW2 8871   2.346   3.431   0.298
 2658SOL     OW 8872   4.389   4.294   6.385
 2658SOL    HW1 8873   4.429   4.253   6.467
 2658SOL    HW2 8874   4.301   4.336   6.408
 2659SOL     OW 8875   5.408   2.129   5.058
 2659SOL    HW1 8876   5.486   2.070   5.039
 2659SOL    HW2 8877   5.340   2.120   4.986
 2660SOL     OW 8878   1.034   1.359   1.160
 2660SOL    HW1 8879   0.962   1.419   1.125
 2660SOL    HW2 8880   1.042   1.370   1.259
 2661SOL     OW 8881   1.416   0.635   1.732
 2661SOL    HW1 8882   1.498   0.692   1.721
 2661SOL    HW2 8883   1.356   0.649   1.653
 2662SOL     OW 8884   3.076   0.848   2.889
 2662SOL    HW1 8885   3.149   0.900   2.934
 2662SOL    HW2 8886   3.115   0.767   2.846
 2663SOL     OW 8887   3.211   6.968   6.242
 2663SOL    HW1 8888   3.240   0.034   6.285
 2663SOL    HW2 8889   3.242   6.967   6.147
 2664SOL     OW 8890   3.781   3.145   5.046
 2664SOL    HW1 8891   3.862   3.148   5.105
 2664SOL    HW2 8892   3.728   3.064   5.066
 2665SOL     OW 8893   2.231   3.789   5.302
 2665SOL    HW1 8894   2.218   3.708   5.246
 2665SOL    HW2 8895   2.308   3.842   5.266
 2666SOL     OW 8896   2.176   4.091   2.523
 2666SOL    HW1 8897   2.081   4.121   2.530
 2666SOL    HW2 8898   2.196   4.065   2.429
 2667SOL     OW 8899   5.690   4.146   3.503
 2667SOL    HW1 8900   5.789   4.156   3.501
 2667SOL    HW2 8901   5.664   4.083   3.576
 2668SOL     OW 8902   5.968   1.650   4.661
 2668SOL    HW1 8903   5.878   1.621   4.694
 2668SOL    HW2 8904   5.958   1.695   4.572
 2669SOL     OW 8905   2.182   6.886   0.502
 2669SOL    HW1 8906   2.122   6.958   0.537
 2669SOL    HW2 8907   2.130   6.825   0.443
 2670SOL     OW 8908   6.821   1.389   5.606
 2670SOL    HW1 8909   6.733   1.431   5.585
 2670SOL    HW2 8910   6.889   1.421   5.539
 2671SOL     OW 8911   3.873   5.598   5.967
 2671SOL    HW1 8912   3.901   5.571   5.875
 2671SOL    HW2 8913   3.909   5.689   5.988
 2672SOL     OW 8914   3.977   0.955   1.700
 2672SOL    HW1 8915   3.886   0.914   1.697
 2672SOL    HW2 8916   3.970   1.050   1.730
 2673SOL     OW 8917   4.738   0.200   2.582
 2673SOL    HW1 8918   4.730   0.210   2.681
 2673SOL    HW2 8919   4.834   0.207   2.555
 2674SOL     OW 8920   0.901   5.600   3.014
 2674SOL    HW1 8921   0.936   5.684   3.055
 2674SOL    HW2 8922   0.874   5.536   3.086
 2675SOL     OW 8923   6.643   6.460   3.820
 2675SOL    HW1 8924   6.705   6.395   3.864
 2675SOL    HW2 8925   6.677   6.553   3.835
 2676SOL     OW 8926   3.383   3.821   2.943
 2676SOL    HW1 8927   3.309   3.755   2.956
 2676SOL    HW2 8928   3.431   3.835   3.030
 2677SOL     OW 8929   1.936   4.634   1.283
 2677SOL    HW1 8930   1.967   4.614   1.376
 2677SOL    HW2 8931   1.872   4.711   1.284
 2678SOL     OW 8932   5.689   2.757   2.709
 2678SOL    HW1 8933   5.663   2.749   2.613
 2678SOL    HW2 8934   5.673   2.670   2.756
 2679SOL     OW 8935   1.734   4.962   3.158
 2679SOL    HW1 8936   1.772   4.985   3.068
 2679SOL    HW2 8937   1.789   4.889   3.199
 2680SOL     OW 8938   1.144   2.283   6.755
 2680SOL    HW1 8939   1.157   2.371   6.711
 2680SOL    HW2 8940   1.096   2.221   6.693
 2681SOL     OW 8941   1.406   2.834   5.078
 2681SOL    HW1 8942   1.489   2.786   5.049
 2681SOL    HW2 8943   1.394   2.822   5.177
 2682SOL     OW 8944   4.770   4.346   2.143
 2682SOL    HW1 8945   4.737   4.410   2.212
 2682SOL    HW2 8946   4.692   4.311   2.091
 2683SOL     OW 8947   2.111   4.006   2.916
 2683SOL    HW1 8948   2.111   3.974   2.821
 2683SOL    HW2 8949   2.018   4.031   2.943
 2684SOL     OW 8950   5.475   5.947   2.180
 2684SOL    HW1 8951   5.568   5.966   2.212
 2684SOL    HW2 8952   5.473   5.955   2.080
 2685SOL     OW 8953   0.124   5.820   4.918
 2685SOL    HW1 8954   0.182   5.900   4.933
 2685SOL    HW2 8955   0.182   5.739   4.902
 2686SOL     OW 8956   0.861   1.157   4.725
 2686SOL    HW1 8957   0.836   1.171   4.821
 2686SOL    HW2 8958   0.858   1.244   4.677
 2687SOL     OW 8959   4.176   1.376   2.255
 2687SOL    HW1 8960   4.129   1.461   2.276
 2687SOL    HW2 8961   4.143   1.340   2.167
 2688SOL     OW 8962   3.589   2.493   6.422
 2688SOL    HW1 8963   3.596   2.554   6.500
 2688SOL    HW2 8964   3.669   2.433   6.419
 2689SOL     OW 8965   0.582   4.598   3.093
 2689SOL    HW1 8966   0.513   4.532   3.123
 2689SOL    HW2 8967   0.672   4.569   3.127
 2690SOL     OW 8968   3.576   1.590   6.007
 2690SOL    HW1 8969   3.608   1.565   5.916
 2690SOL    HW2 8970   3.517   1.517   6.042
 2691SOL     OW 8971   6.972   4.337   4.112
 2691SOL    HW1 8972   0.023   4.346   4.043
 2691SOL    HW2 8973   6.889   4.384   4.083
 2692SOL     OW 8974   2.952   5.764   2.499
 2692SOL    HW1 8975   2.990   5.726   2.583
 2692SOL    HW2 8976   2.888   5.698   2.458
 2693SOL     OW 8977   1.464   5.942   4.022
 2693SOL    HW1 8978   1.542   5.925   4.083
 2693SOL    HW2 8979   1.478   5.893   3.936
 2694SOL     OW 8980   3.068   6.696   3.756
 2694SOL    HW1 8981   3.147   6.639   3.734
 2694SOL    HW2 8982   3.093   6.792   3.747
 2695SOL     OW 8983   6.705   6.470   2.890
 2695SOL    HW1 8984   6.687   6.567   2.873
 2695SOL    HW2 8985   6.685   6.417   2.808
 2696SOL     OW 8986   5.200   4.119   6.164
 2696SOL    HW1 8987   5.279   4.162   6.209
 2696SOL    HW2 8988   5.130   4.189   6.146
 2697SOL     OW 8989   4.161   1.727   0.755
 2697SOL    HW1 8990   4.227   1.692   0.688
 2697SOL    HW2 8991   4.206   1.739   0.843
 2698SOL     OW 8992   1.473   4.694   6.121
 2698SOL    HW1 8993   1.436   4.673   6.212
 2698SOL    HW2 8994   1.528   4.617   6.089
 2699SOL     OW 8995   3.402   5.900   2.360
 2699SOL    HW1 8996   3.461   5.917   2.439
 2699SOL    HW2 8997   3.308   5.921   2.383
 2700SOL     OW 8998   2.969   2.112   1.317
 2700SOL    HW1 8999   2.878   2.134   1.350
 2700SOL    HW2 9000   2.975   2.015   1.296
 2701SOL     OW 9001   5.211   2.934   4.860
 2701SOL    HW1 9002   5.135   2.971   4.914
 2701SOL    HW2 9003   5.291   2.921   4.919
 2702SOL     OW 9004   2.582   1.815   4.649
 2702SOL    HW1 9005   2.483   1.820   4.642
 2702SOL    HW2 9006   2.611   1.719   4.649
 2703SOL     OW 9007   1.808   6.134   2.190
 2703SOL    HW1 9008   1.819   6.198   2.266
 2703SOL    HW2 9009   1.711   6.121   2.172
 2704SOL     OW 9010   6.493   6.186   3.569
 2704SOL    HW1 9011   6.418   6.168   3.506
 2704SOL    HW2 9012   6.580   6.158   3.527
 2705SOL     OW 9013   0.525   0.730   4.861
 2705SOL    HW1 9014   0.568   0.788   4.930
 2705SOL    HW2 9015   0.436   0.769   4.836
 2706SOL     OW 9016   6.498   4.485   4.440
 2706SOL    HW1 9017   6.492   4.581   4.464
 2706SOL    HW2 9018   6.422   4.435   4.481
 2707SOL     OW 9019   4.154   0.188   2.852
 2707SOL    HW1 9020   4.090   0.123   2.891
 2707SOL    HW2 9021   4.116   0.281   2.860
 2708SOL     OW 9022   5.611   2.726   0.101
 2708SOL    HW1 9023   5.704   2.763   0.094
 2708SOL    HW2 9024   5.553   2.791   0.150
 2709SOL     OW 9025   5.219   0.058   5.531
 2709SOL    HW1 9026   5.253   0.146   5.497
 2709SOL    HW2 9027   5.166   0.013   5.459
 2710SOL     OW 9028   1.487   3.201   4.413
 2710SOL    HW1 9029   1.577   3.160   4.396
 2710SOL    HW2 9030   1.437   3.208   4.327
 2711SOL     OW 9031   3.397   2.071   3.766
 2711SOL    HW1 9032   3.308   2.113   3.751
 2711SOL    HW2 9033   3.389   1.972   3.757
 2712SOL     OW 9034   3.846   5.455   2.572
 2712SOL    HW1 9035   3.808   5.433   2.662
 2712SOL    HW2 9036   3.935   5.410   2.561
 2713SOL     OW 9037   4.365   4.635   6.518
 2713SOL    HW1 9038   4.440   4.571   6.534
 2713SOL    HW2 9039   4.278   4.586   6.520
 2714SOL     OW 9040   3.118   3.974   6.670
 2714SOL    HW1 9041   3.120   4.046   6.602
 2714SOL    HW2 9042   3.044   3.990   6.735
 2715SOL     OW 9043   5.190   1.271   1.387
 2715SOL    HW1 9044   5.219   1.345   1.447
 2715SOL    HW2 9045   5.270   1.235   1.337
 2716SOL     OW 9046   4.146   1.957   2.865
 2716SOL    HW1 9047   4.150   1.901   2.947
 2716SOL    HW2 9048   4.167   2.052   2.888
 2717SOL     OW 9049   1.150   1.358   2.569
 2717SOL    HW1 9050   1.163   1.451   2.535
 2717SOL    HW2 9051   1.198   1.347   2.656
 2718SOL     OW 9052   0.437   0.137   6.172
 2718SOL    HW1 9053   0.487   0.102   6.252
 2718SOL    HW2 9054   0.499   0.191   6.115
 2719SOL     OW 9055   1.865   3.985   2.179
 2719SOL    HW1 9056   1.942   3.940   2.225
 2719SOL    HW2 9057   1.900   4.057   2.118
 2720SOL     OW 9058   1.055   0.182   5.387
 2720SOL    HW1 9059   1.023   0.191   5.481
 2720SOL    HW2 9060   0.981   0.143   5.330
 2721SOL     OW 9061   2.702   5.628   1.936
 2721SOL    HW1 9062   2.763   5.698   1.898
 2721SOL    HW2 9063   2.708   5.545   1.880
 2722SOL     OW 9064   4.152   5.306   7.013
 2722SOL    HW1 9065   4.187   5.398   0.009
 2722SOL    HW2 9066   4.056   5.310   6.987
 2723SOL     OW 9067   3.165   6.469   0.506
 2723SOL    HW1 9068   3.162   6.439   0.601
 2723SOL    HW2 9069   3.126   6.398   0.447
 2724SOL     OW 9070   0.895   5.817   0.365
 2724SOL    HW1 9071   0.846   5.898   0.334
 2724SOL    HW2 9072   0.878   5.803   0.463
 2725SOL     OW 9073   5.117   3.312   4.464
 2725SOL    HW1 9074   5.216   3.305   4.477
 2725SOL    HW2 9075   5.075   3.343   4.549
 2726SOL     OW 9076   0.572   1.822   1.260
 2726SOL    HW1 9077   0.615   1.883   1.194
 2726SOL    HW2 9078   0.642   1.776   1.313
 2727SOL     OW 9079   2.217   4.232   4.528
 2727SOL    HW1 9080   2.173   4.197   4.445
 2727SOL    HW2 9081   2.207   4.165   4.601
 2728SOL     OW 9082   5.386   5.120   6.643
 2728SOL    HW1 9083   5.406   5.198   6.584
 2728SOL    HW2 9084   5.379   5.037   6.588
 2729SOL     OW 9085   5.224   6.220   6.101
 2729SOL    HW1 9086   5.218   6.156   6.024
 2729SOL    HW2 9087   5.289   6.293   6.079
 2730SOL     OW 9088   0.674   5.838   1.990
 2730SOL    HW1 9089   0.755   5.821   1.933
 2730SOL    HW2 9090   0.686   5.794   2.079
 2731SOL     OW 9091   3.139   3.079   3.602
 2731SOL    HW1 9092   3.087   3.048   3.681
 2731SOL    HW2 9093   3.235   3.091   3.628
 2732SOL     OW 9094   4.927   1.450   1.335
 2732SOL    HW1 9095   4.856   1.435   1.266
 2732SOL    HW2 9096   4.990   1.372   1.335
 2733SOL     OW 9097   0.192   0.254   5.818
 2733SOL    HW1 9098   0.250   0.335   5.807
 2733SOL    HW2 9099   0.097   0.282   5.829
 2734SOL     OW 9100   3.459   6.275   1.687
 2734SOL    HW1 9101   3.402   6.195   1.700
 2734SOL    HW2 9102   3.405   6.349   1.647
 2735SOL     OW 9103   1.448   1.821   0.851
 2735SOL    HW1 9104   1.463   1.768   0.935
 2735SOL    HW2 9105   1.386   1.897   0.870
 2736SOL     OW 9106   5.031   6.118   3.413
 2736SOL    HW1 9107   4.976   6.085   3.490
 2736SOL    HW2 9108   5.083   6.043   3.374
 2737SOL     OW 9109   2.697   1.840   6.202
 2737SOL    HW1 9110   2.770   1.907   6.215
 2737SOL    HW2 9111   2.614   1.871   6.249
 2738SOL     OW 9112   5.734   0.302   1.230
 2738SOL    HW1 9113   5.775   0.328   1.142
 2738SOL    HW2 9114   5.731   0.382   1.290
 2739SOL     OW 9115   1.155   5.257   1.976
 2739SOL    HW1 9116   1.229   5.191   1.990
 2739SOL    HW2 9117   1.106   5.270   2.062
 2740SOL     OW 9118   0.188   6.326   2.535
 2740SOL    HW1 9119   0.135   6.394   2.484
 2740SOL    HW2 9120   0.219   6.366   2.621
 2741SOL     OW 9121   1.127   2.107   4.175
 2741SOL    HW1 9122   1.217   2.150   4.181
 2741SOL    HW2 9123   1.057   2.178   4.165
 2742SOL     OW 9124   3.458   4.780   1.432
 2742SOL    HW1 9125   3.360   4.789   1.412
 2742SOL    HW2 9126   3.469   4.751   1.527
 2743SOL     OW 9127   6.642   4.731   2.252
 2743SOL    HW1 9128   6.598   4.734   2.162
 2743SOL    HW2 9129   6.673   4.638   2.271
 2744SOL     OW 9130   3.045   3.069   2.841
 2744SOL    HW1 9131   3.128   3.024   2.808
 2744SOL    HW2 9132   2.995   3.007   2.902
 2745SOL     OW 9133   6.583   1.108   5.743
 2745SOL    HW1 9134   6.602   1.024   5.795
 2745SOL    HW2 9135   6.509   1.090   5.678
 2746SOL     OW 9136   1.053   1.130   3.840
 2746SOL    HW1 9137   1.014   1.080   3.917
 2746SOL    HW2 9138   1.005   1.106   3.756
 2747SOL     OW 9139   3.793   5.621   0.944
 2747SOL    HW1 9140   3.891   5.604   0.938
 2747SOL    HW2 9141   3.777   5.720   0.951
 2748SOL     OW 9142   4.672   0.203   1.292
 2748SOL    HW1 9143   4.616   0.210   1.209
 2748SOL    HW2 9144   4.616   0.225   1.372
 2749SOL     OW 9145   1.779   3.447   0.670
 2749SOL    HW1 9146   1.838   3.488   0.739
 2749SOL    HW2 9147   1.792   3.494   0.583
 2750SOL     OW 9148   2.577   5.303   2.773
 2750SOL    HW1 9149   2.561   5.214   2.730
 2750SOL    HW2 9150   2.674   5.313   2.794
 2751SOL     OW 9151   1.492   2.569   1.510
 2751SOL    HW1 9152   1.477   2.615   1.597
 2751SOL    HW2 9153   1.435   2.611   1.439
 2752SOL     OW 9154   4.508   4.749   5.638
 2752SOL    HW1 9155   4.524   4.834   5.588
 2752SOL    HW2 9156   4.516   4.671   5.576
 2753SOL     OW 9157   6.316   6.465   5.181
 2753SOL    HW1 9158   6.223   6.490   5.207
 2753SOL    HW2 9159   6.350   6.394   5.243
 2754SOL     OW 9160   0.457   6.228   6.566
 2754SOL    HW1 9161   0.361   6.207   6.582
 2754SOL    HW2 9162   0.492   6.284   6.641
 2755SOL     OW 9163   2.720   6.759   2.637
 2755SOL    HW1 9164   2.730   6.840   2.694
 2755SOL    HW2 9165   2.743   6.781   2.542
 2756SOL     OW 9166   5.428   6.425   0.478
 2756SOL    HW1 9167   5.433   6.519   0.443
 2756SOL    HW2 9168   5.520   6.394   0.501
 2757SOL     OW 9169   1.035   5.305   1.134
 2757SOL    HW1 9170   0.982   5.350   1.205
 2757SOL    HW2 9171   1.099   5.240   1.176
 2758SOL     OW 9172   5.357   0.112   5.198
 2758SOL    HW1 9173   5.412   0.146   5.274
 2758SOL    HW2 9174   5.260   0.124   5.218
 2759SOL     OW 9175   5.871   6.426   3.872
 2759SOL    HW1 9176   5.956   6.395   3.829
 2759SOL    HW2 9177   5.891   6.458   3.965
 2760SOL     OW 9178   1.979   5.361   2.104
 2760SOL    HW1 9179   1.976   5.361   2.204
 2760SOL    HW2 9180   2.075   5.367   2.074
 2761SOL     OW 9181   0.900   5.683   3.480
 2761SOL    HW1 9182   0.962   5.751   3.442
 2761SOL    HW2 9183   0.903   5.600   3.424
 2762SOL     OW 9184   1.462   6.793   5.585
 2762SOL    HW1 9185   1.461   6.754   5.492
 2762SOL    HW2 9186   1.557   6.813   5.611
 2763SOL     OW 9187   5.612   2.173   3.650
 2763SOL    HW1 9188   5.646   2.222   3.730
 2763SOL    HW2 9189   5.571   2.238   3.586
 2764SOL     OW 9190   5.494   6.797   1.238
 2764SOL    HW1 9191   5.508   6.795   1.138
 2764SOL    HW2 9192   5.559   6.734   1.281
 2765SOL     OW 9193   5.372   1.429   2.295
 2765SOL    HW1 9194   5.339   1.336   2.284
 2765SOL    HW2 9195   5.295   1.492   2.299
 2766SOL     OW 9196   5.613   1.613   1.271
 2766SOL    HW1 9197   5.518   1.621   1.241
 2766SOL    HW2 9198   5.674   1.622   1.193
 2767SOL     OW 9199   6.080   4.272   6.503
 2767SOL    HW1 9200   6.129   4.348   6.547
 2767SOL    HW2 9201   6.045   4.303   6.414
 2768SOL     OW 9202   5.325   0.945   0.130
 2768SOL    HW1 9203   5.314   1.033   0.175
 2768SOL    HW2 9204   5.362   0.879   0.195
 2769SOL     OW 9205   6.734   3.957   2.724
 2769SOL    HW1 9206   6.649   3.923   2.685
 2769SOL    HW2 9207   6.720   4.051   2.758
 2770SOL     OW 9208   1.473   5.299   1.141
 2770SOL    HW1 9209   1.527   5.295   1.057
 2770SOL    HW2 9210   1.419   5.383   1.143
 2771SOL     OW 9211   5.011   1.713   0.987
 2771SOL    HW1 9212   5.073   1.724   1.066
 2771SOL    HW2 9213   5.043   1.771   0.912
 2772SOL     OW 9214   4.522   2.554   0.326
 2772SOL    HW1 9215   4.519   2.455   0.342
 2772SOL    HW2 9216   4.494   2.573   0.232
 2773SOL     OW 9217   4.186   3.658   6.065
 2773SOL    HW1 9218   4.264   3.710   6.100
 2773SOL    HW2 9219   4.205   3.560   6.073
 2774SOL     OW 9220   5.722   2.329   2.059
 2774SOL    HW1 9221   5.647   2.392   2.038
 2774SOL    HW2 9222   5.805   2.382   2.078
 2775SOL     OW 9223   0.086   5.889   1.345
 2775SOL    HW1 9224   0.022   5.818   1.377
 2775SOL    HW2 9225   0.089   5.888   1.245
 2776SOL     OW 9226   3.937   5.687   5.440
 2776SOL    HW1 9227   3.963   5.685   5.537
 2776SOL    HW2 9228   4.002   5.744   5.390
 2777SOL     OW 9229   3.461   1.026   2.685
 2777SOL    HW1 9230   3.548   1.075   2.689
 2777SOL    HW2 9231   3.439   1.004   2.590
 2778SOL     OW 9232   2.128   1.484   5.528
 2778SOL    HW1 9233   2.196   1.414   5.551
 2778SOL    HW2 9234   2.040   1.459   5.569
 2779SOL     OW 9235   5.432   6.718   0.052
 2779SOL    HW1 9236   5.441   6.625   0.018
 2779SOL    HW2 9237   5.439   6.718   0.152
 2780SOL     OW 9238   5.366   5.405   6.158
 2780SOL    HW1 9239   5.434   5.346   6.202
 2780SOL    HW2 9240   5.392   5.501   6.170
 2781SOL     OW 9241   5.898   4.564   1.697
 2781SOL    HW1 9242   5.889   4.582   1.794
 2781SOL    HW2 9243   5.996   4.560   1.673
 2782SOL     OW 9244   2.923   2.930   6.302
 2782SOL    HW1 9245   3.015   2.892   6.304
 2782SOL    HW2 9246   2.880   2.911   6.214
 2783SOL     OW 9247   6.562   4.095   5.051
 2783SOL    HW1 9248   6.644   4.142   5.083
 2783SOL    HW2 9249   6.528   4.138   4.968
 2784SOL     OW 9250   2.411   2.635   1.378
 2784SOL    HW1 9251   2.374   2.632   1.285
 2784SOL    HW2 9252   2.418   2.730   1.408
 2785SOL     OW 9253   6.635   1.379   6.651
 2785SOL    HW1 9254   6.607   1.360   6.745
 2785SOL    HW2 9255   6.715   1.439   6.650
 2786SOL     OW 9256   3.824   6.512   0.784
 2786SOL    HW1 9257   3.902   6.455   0.759
 2786SOL    HW2 9258   3.802   6.499   0.880
 2787SOL     OW 9259   2.015   4.132   6.754
 2787SOL    HW1 9260   2.057   4.114   6.666
 2787SOL    HW2 9261   2.068   4.201   6.803
 2788SOL     OW 9262   2.265   4.052   0.380
 2788SOL    HW1 9263   2.293   3.988   0.308
 2788SOL    HW2 9264   2.339   4.061   0.447
 2789SOL     OW 9265   1.462   1.552   3.627
 2789SOL    HW1 9266   1.536   1.611   3.659
 2789SOL    HW2 9267   1.408   1.521   3.706
 2790SOL     OW 9268   3.251   5.198   3.426
 2790SOL    HW1 9269   3.346   5.226   3.409
 2790SOL    HW2 9270   3.251   5.124   3.493
 2791SOL     OW 9271   1.634   4.706   5.234
 2791SOL    HW1 9272   1.693   4.672   5.307
 2791SOL    HW2 9273   1.584   4.630   5.193
 2792SOL     OW 9274   1.274   0.424   5.240
 2792SOL    HW1 9275   1.312   0.515   5.257
 2792SOL    HW2 9276   1.175   0.426   5.258
 2793SOL     OW 9277   5.288   1.365   2.646
 2793SOL    HW1 9278   5.350   1.314   2.586
 2793SOL    HW2 9279   5.251   1.444   2.597
 2794SOL     OW 9280   0.484   2.571   0.432
 2794SOL    HW1 9281   0.406   2.630   0.452
 2794SOL    HW2 9282   0.568   2.624   0.436
 2795SOL     OW 9283   3.037   3.928   1.517
 2795SOL    HW1 9284   3.052   3.889   1.608
 2795SOL    HW2 9285   2.970   4.001   1.523
 2796SOL     OW 9286   6.333   4.121   2.296
 2796SOL    HW1 9287   6.274   4.183   2.244
 2796SOL    HW2 9288   6.409   4.092   2.240
 2797SOL     OW 9289   5.235   5.644   4.602
 2797SOL    HW1 9290   5.243   5.631   4.701
 2797SOL    HW2 9291   5.313   5.599   4.557
 2798SOL     OW 9292   0.842   3.961   3.073
 2798SOL    HW1 9293   0.757   3.977   3.024
 2798SOL    HW2 9294   0.915   4.015   3.032
 2799SOL     OW 9295   0.054   5.877   6.429
 2799SOL    HW1 9296   0.033   5.973   6.414
 2799SOL    HW2 9297   0.025   5.851   6.521
 2800SOL     OW 9298   4.233   4.966   6.783
 2800SOL    HW1 9299   4.279   4.976   6.872
 2800SOL    HW2 9300   4.298   4.985   6.710
 2801SOL     OW 9301   4.255   5.476   2.734
 2801SOL    HW1 9302   4.310   5.518   2.806
 2801SOL    HW2 9303   4.230   5.544   2.666
 2802SOL     OW 9304   3.870   1.992   5.988
 2802SOL    HW1 9305   3.782   2.039   5.996
 2802SOL    HW2 9306   3.942   2.051   6.024
 2803SOL     OW 9307   2.206   5.917   5.817
 2803SOL    HW1 9308   2.243   6.007   5.792
 2803SOL    HW2 9309   2.235   5.894   5.910
 2804SOL     OW 9310   6.841   4.444   3.330
 2804SOL    HW1 9311   6.911   4.469   3.397
 2804SOL    HW2 9312   6.883   4.393   3.255
 2805SOL     OW 9313   4.779   3.291   1.379
 2805SOL    HW1 9314   4.682   3.280   1.359
 2805SOL    HW2 9315   4.789   3.351   1.458
 2806SOL     OW 9316   5.700   5.209   2.796
 2806SOL    HW1 9317   5.696   5.145   2.720
 2806SOL    HW2 9318   5.646   5.290   2.774
 2807SOL     OW 9319   4.574   4.650   3.902
 2807SOL    HW1 9320   4.595   4.574   3.963
 2807SOL    HW2 9321   4.620   4.733   3.935
 2808SOL     OW 9322   5.103   1.658   3.489
 2808SOL    HW1 9323   5.084   1.604   3.570
 2808SOL    HW2 9324   5.201   1.679   3.485
 2809SOL     OW 9325   5.997   2.476   1.344
 2809SOL    HW1 9326   6.093   2.493   1.322
 2809SOL    HW2 9327   5.974   2.522   1.430
 2810SOL     OW 9328   3.294   6.531   4.980
 2810SOL    HW1 9329   3.358   6.608   4.979
 2810SOL    HW2 9330   3.209   6.559   5.024
 2811SOL     OW 9331   0.974   1.045   2.713
 2811SOL    HW1 9332   1.073   1.038   2.726
 2811SOL    HW2 9333   0.949   1.017   2.621
 2812SOL     OW 9334   4.915   3.362   2.226
 2812SOL    HW1 9335   4.960   3.341   2.138
 2812SOL    HW2 9336   4.868   3.281   2.259
 2813SOL     OW 9337   5.969   6.465   5.981
 2813SOL    HW1 9338   6.068   6.455   5.991
 2813SOL    HW2 9339   5.927   6.375   5.973
 2814SOL     OW 9340   3.902   4.251   5.866
 2814SOL    HW1 9341   3.928   4.335   5.819
 2814SOL    HW2 9342   3.973   4.182   5.854
 2815SOL     OW 9343   6.512   0.956   4.614
 2815SOL    HW1 9344   6.430   0.970   4.669
 2815SOL    HW2 9345   6.588   1.007   4.653
 2816SOL     OW 9346   5.927   6.913   3.680
 2816SOL    HW1 9347   5.899   6.825   3.718
 2816SOL    HW2 9348   5.856   6.946   3.618
 2817SOL     OW 9349   1.743   0.831   1.450
 2817SOL    HW1 9350   1.769   0.925   1.472
 2817SOL    HW2 9351   1.822   0.784   1.411
 2818SOL     OW 9352   6.662   5.170   6.625
 2818SOL    HW1 9353   6.667   5.085   6.573
 2818SOL    HW2 9354   6.742   5.227   6.603
 2819SOL     OW 9355   0.225   2.409   0.640
 2819SOL    HW1 9356   0.278   2.489   0.671
 2819SOL    HW2 9357   0.145   2.397   0.698
 2820SOL     OW 9358   0.264   2.632   2.217
 2820SOL    HW1 9359   0.346   2.688   2.225
 2820SOL    HW2 9360   0.268   2.556   2.281
 2821SOL     OW 9361   2.511   4.236   6.274
 2821SOL    HW1 9362   2.595   4.181   6.275
 2821SOL    HW2 9363   2.475   4.240   6.181
 2822SOL     OW 9364   4.433   2.613   0.070
 2822SOL    HW1 9365   4.474   2.597   6.999
 2822SOL    HW2 9366   4.353   2.554   0.081
 2823SOL     OW 9367   2.451   6.701   1.922
 2823SOL    HW1 9368   2.395   6.636   1.972
 2823SOL    HW2 9369   2.457   6.787   1.973
 2824SOL     OW 9370   2.205   1.252   5.110
 2824SOL    HW1 9371   2.272   1.288   5.175
 2824SOL    HW2 9372   2.206   1.152   5.113
 2825SOL     OW 9373   0.267   6.945   0.793
 2825SOL    HW1 9374   0.346   6.992   0.754
 2825SOL    HW2 9375   0.275   6.942   0.893
 2826SOL     OW 9376   5.559   1.745   5.527
 2826SOL    HW1 9377   5.509   1.703   5.602
 2826SOL    HW2 9378   5.503   1.816   5.484
 2827SOL     OW 9379   6.769   1.514   4.783
 2827SOL    HW1 9380   6.745   1.479   4.692
 2827SOL    HW2 9381   6.821   1.444   4.832
 2828SOL     OW 9382   3.821   0.940   6.124
 2828SOL    HW1 9383   3.777   1.020   6.082
 2828SOL    HW2 9384   3.872   0.890   6.055
 2829SOL     OW 9385   3.705   4.978   6.168
 2829SOL    HW1 9386   3.709   4.887   6.127
 2829SOL    HW2 9387   3.749   5.044   6.107
 2830SOL     OW 9388   6.108   3.908   6.283
 2830SOL    HW1 9389   6.197   3.925   6.325
 2830SOL    HW2 9390   6.036   3.952   6.337
 2831SOL     OW 9391   5.979   6.158   4.601
 2831SOL    HW1 9392   6.040   6.125   4.672
 2831SOL    HW2 9393   6.016   6.242   4.562
 2832SOL     OW 9394   0.390   1.671   1.568
 2832SOL    HW1 9395   0.469   1.610   1.561
 2832SOL    HW2 9396   0.313   1.632   1.517
 2833SOL     OW 9397   6.052   1.814   1.988
 2833SOL    HW1 9398   5.995   1.806   2.070
 2833SOL    HW2 9399   6.038   1.734   1.930
 2834SOL     OW 9400   2.986   1.358   6.370
 2834SOL    HW1 9401   2.946   1.445   6.340
 2834SOL    HW2 9402   2.919   1.307   6.425
 2835SOL     OW 9403   0.064   6.957   1.844
 2835SOL    HW1 9404   0.010   0.019   1.824
 2835SOL    HW2 9405   0.092   6.914   1.758
 2836SOL     OW 9406   6.776   7.018   1.609
 2836SOL    HW1 9407   6.798   0.093   1.586
 2836SOL    HW2 9408   6.851   6.958   1.582
 2837SOL     OW 9409   5.164   3.093   3.027
 2837SOL    HW1 9410   5.168   3.050   2.937
 2837SOL    HW2 9411   5.069   3.112   3.051
 2838SOL     OW 9412   2.186   4.569   1.806
 2838SOL    HW1 9413   2.237   4.488   1.780
 2838SOL    HW2 9414   2.247   4.634   1.851
 2839SOL     OW 9415   5.394   0.845   2.383
 2839SOL    HW1 9416   5.492   0.852   2.364
 2839SOL    HW2 9417   5.380   0.791   2.465
 2840SOL     OW 9418   0.402   1.332   5.285
 2840SOL    HW1 9419   0.342   1.306   5.361
 2840SOL    HW2 9420   0.440   1.250   5.243
 2841SOL     OW 9421   0.718   6.412   6.991
 2841SOL    HW1 9422   0.713   6.469   0.054
 2841SOL    HW2 9423   0.769   6.329   7.010
 2842SOL     OW 9424   0.110   2.988   3.711
 2842SOL    HW1 9425   0.181   3.058   3.717
 2842SOL    HW2 9426   0.089   2.953   3.802
 2843SOL     OW 9427   3.538   1.441   4.321
 2843SOL    HW1 9428   3.479   1.361   4.314
 2843SOL    HW2 9429   3.583   1.442   4.410
 2844SOL     OW 9430   0.888   4.033   6.960
 2844SOL    HW1 9431   0.916   4.106   6.898
 2844SOL    HW2 9432   0.818   4.067   0.004
 2845SOL     OW 9433   0.896   3.832   0.594
 2845SOL    HW1 9434   0.975   3.856   0.651
 2845SOL    HW2 9435   0.829   3.784   0.650
 2846SOL     OW 9436   5.105   1.357   6.907
 2846SOL    HW1 9437   5.081   1.289   6.976
 2846SOL    HW2 9438   5.022   1.397   6.869
 2847SOL     OW 9439   5.514   4.007   3.231
 2847SOL    HW1 9440   5.488   4.073   3.301
 2847SOL    HW2 9441   5.437   3.946   3.213
 2848SOL     OW 9442   0.239   4.454   5.279
 2848SOL    HW1 9443   0.254   4.491   5.187
 2848SOL    HW2 9444   0.147   4.416   5.285
 2849SOL     OW 9445   3.440   0.984   0.675
 2849SOL    HW1 9446   3.364   0.925   0.650
 2849SOL    HW2 9447   3.519   0.928   0.701
 2850SOL     OW 9448   3.549   0.469   1.429
 2850SOL    HW1 9449   3.541   0.542   1.498
 2850SOL    HW2 9450   3.496   0.389   1.459
 2851SOL     OW 9451   1.174   4.723   5.316
 2851SOL    HW1 9452   1.130   4.813   5.320
 2851SOL    HW2 9453   1.131   4.662   5.382
 2852SOL     OW 9454   5.728   3.938   6.643
 2852SOL    HW1 9455   5.748   3.924   6.741
 2852SOL    HW2 9456   5.742   3.852   6.594
 2853SOL     OW 9457   3.441   2.486   0.355
 2853SOL    HW1 9458   3.440   2.502   0.454
 2853SOL    HW2 9459   3.348   2.495   0.319
 2854SOL     OW 9460   2.790   1.135   4.286
 2854SOL    HW1 9461   2.780   1.042   4.320
 2854SOL    HW2 9462   2.768   1.137   4.189
 2855SOL     OW 9463   2.003   0.599   6.078
 2855SOL    HW1 9464   2.078   0.664   6.073
 2855SOL    HW2 9465   1.984   0.563   5.987
 2856SOL     OW 9466   2.417   3.042   6.054
 2856SOL    HW1 9467   2.444   3.139   6.060
 2856SOL    HW2 9468   2.418   3.013   5.958
 2857SOL     OW 9469   2.912   1.899   1.541
 2857SOL    HW1 9470   2.937   1.809   1.579
 2857SOL    HW2 9471   2.995   1.950   1.520
 2858SOL     OW 9472   6.365   2.632   2.295
 2858SOL    HW1 9473   6.313   2.704   2.340
 2858SOL    HW2 9474   6.364   2.645   2.196
 2859SOL     OW 9475   4.622   0.984   0.808
 2859SOL    HW1 9476   4.717   0.968   0.837
 2859SOL    HW2 9477   4.619   0.994   0.708
 2860SOL     OW 9478   4.489   1.637   1.769
 2860SOL    HW1 9479   4.544   1.601   1.844
 2860SOL    HW2 9480   4.550   1.664   1.694
 2861SOL     OW 9481   4.508   5.637   5.526
 2861SOL    HW1 9482   4.465   5.715   5.570
 2861SOL    HW2 9483   4.539   5.572   5.595
 2862SOL     OW 9484   5.732   1.819   3.509
 2862SOL    HW1 9485   5.789   1.752   3.558
 2862SOL    HW2 9486   5.653   1.843   3.566
 2863SOL     OW 9487   6.063   1.488   0.134
 2863SOL    HW1 9488   6.152   1.485   0.089
 2863SOL    HW2 9489   6.037   1.396   0.163
 2864SOL     OW 9490   3.541   0.348   1.050
 2864SOL    HW1 9491   3.598   0.283   1.100
 2864SOL    HW2 9492   3.468   0.381   1.111
 2865SOL     OW 9493   4.656   4.456   5.135
 2865SOL    HW1 9494   4.742   4.497   5.102
 2865SOL    HW2 9495   4.660   4.357   5.122
 2866SOL     OW 9496   6.541   6.737   6.713
 2866SOL    HW1 9497   6.522   6.711   6.808
 2866SOL    HW2 9498   6.472   6.802   6.682
 2867SOL     OW 9499   6.057   4.209   2.257
 2867SOL    HW1 9500   6.093   4.293   2.297
 2867SOL    HW2 9501   5.963   4.195   2.288
 2868SOL     OW 9502   0.809   3.400   5.492
 2868SOL    HW1 9503   0.797   3.446   5.580
 2868SOL    HW2 9504   0.736   3.428   5.430
 2869SOL     OW 9505   6.401   0.759   2.439
 2869SOL    HW1 9506   6.329   0.695   2.411
 2869SOL    HW2 9507   6.360   0.849   2.454
 2870SOL     OW 9508   6.410   1.584   3.655
 2870SOL    HW1 9509   6.484   1.517   3.649
 2870SOL    HW2 9510   6.449   1.674   3.674
 2871SOL     OW 9511   1.927   1.827   6.482
 2871SOL    HW1 9512   2.007   1.806   6.539
 2871SOL    HW2 9513   1.928   1.767   6.402
 2872SOL     OW 9514   3.001   1.518   4.034
 2872SOL    HW1 9515   2.994   1.616   4.014
 2872SOL    HW2 9516   2.943   1.496   4.112
 2873SOL     OW 9517   0.649   6.145   2.774
 2873SOL    HW1 9518   0.662   6.142   2.873
 2873SOL    HW2 9519   0.573   6.205   2.751
 2874SOL     OW 9520   5.314   4.274   2.219
 2874SOL    HW1 9521   5.236   4.319   2.175
 2874SOL    HW2 9522   5.299   4.271   2.318
 2875SOL     OW 9523   3.836   6.415   6.381
 2875SOL    HW1 9524   3.835   6.430   6.282
 2875SOL    HW2 9525   3.929   6.391   6.409
 2876SOL     OW 9526   0.723   1.016   1.926
 2876SOL    HW1 9527   0.746   0.920   1.941
 2876SOL    HW2 9528   0.646   1.022   1.862
 2877SOL     OW 9529   3.293   2.956   5.278
 2877SOL    HW1 9530   3.332   2.865   5.291
 2877SOL    HW2 9531   3.362   3.018   5.241
 2878SOL     OW 9532   2.941   5.102   4.902
 2878SOL    HW1 9533   3.000   5.149   4.967
 2878SOL    HW2 9534   2.895   5.026   4.948
 2879SOL     OW 9535   5.209   5.168   0.323
 2879SOL    HW1 9536   5.181   5.210   0.237
 2879SOL    HW2 9537   5.306   5.142   0.318
 2880SOL     OW 9538   6.940   6.446   0.580
 2880SOL    HW1 9539   6.870   6.459   0.651
 2880SOL    HW2 9540   6.969   6.350   0.580
 2881SOL     OW 9541   6.747   6.182   1.371
 2881SOL    HW1 9542   6.758   6.158   1.274
 2881SOL    HW2 9543   6.836   6.182   1.416
 2882SOL     OW 9544   1.031   3.602   2.868
 2882SOL    HW1 9545   1.022   3.505   2.845
 2882SOL    HW2 9546   0.942   3.646   2.858
 2883SOL     OW 9547   3.544   6.964   3.610
 2883SOL    HW1 9548   3.546   7.003   3.518
 2883SOL    HW2 9549   3.455   6.979   3.652
 2884SOL     OW 9550   0.350   6.816   3.494
 2884SOL    HW1 9551   0.357   6.815   3.395
 2884SOL    HW2 9552   0.301   6.897   3.524
 2885SOL     OW 9553   0.376   2.254   3.080
 2885SOL    HW1 9554   0.281   2.233   3.103
 2885SOL    HW2 9555   0.434   2.240   3.161
 2886SOL     OW 9556   2.293   2.788   6.722
 2886SOL    HW1 9557   2.361   2.852   6.685
 2886SOL    HW2 9558   2.326   2.753   6.810
 2887SOL     OW 9559   2.613   6.534   5.214
 2887SOL    HW1 9560   2.524   6.510   5.177
 2887SOL    HW2 9561   2.684   6.514   5.146
 2888SOL     OW 9562   0.023   5.111   6.481
 2888SOL    HW1 9563   7.001   5.180   6.541
 2888SOL    HW2 9564   0.008   5.136   6.385
 2889SOL     OW 9565   1.730   1.008   1.687
 2889SOL    HW1 9566   1.730   1.091   1.743
 2889SOL    HW2 9567   1.824   0.972   1.681
 2890SOL     OW 9568   3.397   0.304   1.585
 2890SOL    HW1 9569   3.304   0.339   1.598
 2890SOL    HW2 9570   3.401   0.208   1.613
 2891SOL     OW 9571   2.183   4.850   3.501
 2891SOL    HW1 9572   2.208   4.831   3.596
 2891SOL    HW2 9573   2.137   4.939   3.496
 2892SOL     OW 9574   4.520   4.114   6.581
 2892SOL    HW1 9575   4.601   4.063   6.550
 2892SOL    HW2 9576   4.439   4.056   6.574
 2893SOL     OW 9577   2.194   6.423   5.737
 2893SOL    HW1 9578   2.267   6.463   5.793
 2893SOL    HW2 9579   2.228   6.406   5.645
 2894SOL     OW 9580   2.393   2.647   6.943
 2894SOL    HW1 9581   2.481   2.633   6.898
 2894SOL    HW2 9582   2.409   2.683   0.016
 2895SOL     OW 9583   3.712   3.250   6.441
 2895SOL    HW1 9584   3.618   3.221   6.461
 2895SOL    HW2 9585   3.764   3.171   6.408
 2896SOL     OW 9586   2.632   5.469   6.827
 2896SOL    HW1 9587   2.607   5.374   6.806
 2896SOL    HW2 9588   2.715   5.470   6.883
 2897SOL     OW 9589   2.104   6.576   3.786
 2897SOL    HW1 9590   2.060   6.629   3.859
 2897SOL    HW2 9591   2.203   6.575   3.800
 2898SOL     OW 9592   4.447   5.246   2.782
 2898SOL    HW1 9593   4.497   5.327   2.752
 2898SOL    HW2 9594   4.352   5.270   2.799
 2899SOL     OW 9595   0.392   0.470   6.659
 2899SOL    HW1 9596   0.449   0.395   6.625
 2899SOL    HW2 9597   0.439   0.557   6.644
 2900SOL     OW 9598   1.038   4.641   5.813
 2900SOL    HW1 9599   0.976   4.692   5.873
 2900SOL    HW2 9600   1.124   4.692   5.803
 2901SOL     OW 9601   2.181   0.325   2.273
 2901SOL    HW1 9602   2.223   0.239   2.300
 2901SOL    HW2 9603   2.247   0.399   2.280
 2902SOL     OW 9604   5.680   6.366   0.541
 2902SOL    HW1 9605   5.690   6.272   0.572
 2902SOL    HW2 9606   5.759   6.391   0.485
 2903SOL     OW 9607   3.420   0.635   2.248
 2903SOL    HW1 9608   3.394   0.682   2.164
 2903SOL    HW2 9609   3.519   0.617   2.246
 2904SOL     OW 9610   2.466   3.245   5.374
 2904SOL    HW1 9611   2.468   3.168   5.309
 2904SOL    HW2 9612   2.433   3.327   5.327
 2905SOL     OW 9613   2.019   1.132   2.568
 2905SOL    HW1 9614   1.966   1.179   2.638
 2905SOL    HW2 9615   1.990   1.164   2.478
 2906SOL     OW 9616   5.274   5.149   1.617
 2906SOL    HW1 9617   5.299   5.174   1.710
 2906SOL    HW2 9618   5.344   5.088   1.579
 2907SOL     OW 9619   6.436   1.439   5.055
 2907SOL    HW1 9620   6.351   1.406   5.014
 2907SOL    HW2 9621   6.465   1.523   5.009
 2908SOL     OW 9622   3.826   6.376   3.903
 2908SOL    HW1 9623   3.730   6.402   3.891
 2908SOL    HW2 9624   3.833   6.304   3.972
 2909SOL     OW 9625   0.435   5.202   4.368
 2909SOL    HW1 9626   0.438   5.237   4.462
 2909SOL    HW2 9627   0.451   5.103   4.370
 2910SOL     OW 9628   3.576   6.161   4.995
 2910SOL    HW1 9629   3.667   6.199   5.008
 2910SOL    HW2 9630   3.535   6.199   4.912
 2911SOL     OW 9631   2.324   5.216   3.407
 2911SOL    HW1 9632   2.374   5.157   3.470
 2911SOL    HW2 9633   2.225   5.208   3.424
 2912SOL     OW 9634   2.701   6.192   0.403
 2912SOL    HW1 9635   2.703   6.289   0.377
 2912SOL    HW2 9636   2.732   6.183   0.498
 2913SOL     OW 9637   1.851   4.142   2.741
 2913SOL    HW1 9638   1.911   4.222   2.737
 2913SOL    HW2 9639   1.774   4.161   2.802
 2914SOL     OW 9640   5.993   4.772   6.008
 2914SOL    HW1 9641   6.025   4.681   6.037
 2914SOL    HW2 9642   6.046   4.802   5.929
 2915SOL     OW 9643   4.608   1.388   4.124
 2915SOL    HW1 9644   4.681   1.410   4.189
 2915SOL    HW2 9645   4.626   1.435   4.038
 2916SOL     OW 9646   6.480   4.586   5.717
 2916SOL    HW1 9647   6.547   4.560   5.647
 2916SOL    HW2 9648   6.522   4.577   5.807
 2917SOL     OW 9649   3.843   6.957   0.627
 2917SOL    HW1 9650   3.835   0.026   0.672
 2917SOL    HW2 9651   3.889   6.892   0.687
 2918SOL     OW 9652   6.977   3.669   3.347
 2918SOL    HW1 9653   0.002   3.585   3.379
 2918SOL    HW2 9654   6.880   3.650   3.328
 2919SOL     OW 9655   6.029   6.906   0.400
 2919SOL    HW1 9656   6.031   6.911   0.300
 2919SOL    HW2 9657   6.028   6.999   0.437
 2920SOL     OW 9658   3.514   1.880   2.787
 2920SOL    HW1 9659   3.564   1.870   2.701
 2920SOL    HW2 9660   3.493   1.976   2.802
 2921SOL     OW 9661   0.310   1.553   2.593
 2921SOL    HW1 9662   0.234   1.532   2.531
 2921SOL    HW2 9663   0.396   1.549   2.542
 2922SOL     OW 9664   5.909   6.506   6.347
 2922SOL    HW1 9665   5.898   6.604   6.332
 2922SOL    HW2 9666   6.006   6.482   6.341
 2923SOL     OW 9667   6.728   5.525   2.745
 2923SOL    HW1 9668   6.708   5.539   2.648
 2923SOL    HW2 9669   6.708   5.610   2.795
 2924SOL     OW 9670   1.158   1.639   6.090
 2924SOL    HW1 9671   1.226   1.573   6.121
 2924SOL    HW2 9672   1.080   1.591   6.050
 2925SOL     OW 9673   5.799   1.856   2.451
 2925SOL    HW1 9674   5.755   1.774   2.487
 2925SOL    HW2 9675   5.737   1.934   2.459
 2926SOL     OW 9676   0.024   1.474   4.875
 2926SOL    HW1 9677   0.121   1.490   4.895
 2926SOL    HW2 9678   6.989   1.503   4.953
 2927SOL     OW 9679   1.318   2.882   2.209
 2927SOL    HW1 9680   1.218   2.882   2.203
 2927SOL    HW2 9681   1.349   2.791   2.237
 2928SOL     OW 9682   6.731   1.121   6.823
 2928SOL    HW1 9683   6.728   1.205   6.878
 2928SOL    HW2 9684   6.738   1.145   6.726
 2929SOL     OW 9685   0.492   0.976   6.085
 2929SOL    HW1 9686   0.446   1.047   6.139
 2929SOL    HW2 9687   0.506   0.895   6.142
 2930SOL     OW 9688   4.929   0.022   4.398
 2930SOL    HW1 9689   4.880   6.959   4.372
 2930SOL    HW2 9690   4.864   0.097   4.414
 2931SOL     OW 9691   5.046   5.621   6.300
 2931SOL    HW1 9692   5.119   5.650   6.239
 2931SOL    HW2 9693   5.004   5.537   6.264
 2932SOL     OW 9694   1.864   4.412   1.646
 2932SOL    HW1 9695   1.844   4.369   1.558
 2932SOL    HW2 9696   1.832   4.507   1.645
 2933SOL     OW 9697   5.627   2.212   4.144
 2933SOL    HW1 9698   5.541   2.244   4.183
 2933SOL    HW2 9699   5.609   2.137   4.080
 2934SOL     OW 9700   3.583   6.838   0.679
 2934SOL    HW1 9701   3.656   6.870   0.619
 2934SOL    HW2 9702   3.598   6.872   0.772
 2935SOL     OW 9703   6.364   3.615   1.514
 2935SOL    HW1 9704   6.348   3.703   1.558
 2935SOL    HW2 9705   6.385   3.546   1.583
 2936SOL     OW 9706   5.247   5.880   1.110
 2936SOL    HW1 9707   5.220   5.969   1.147
 2936SOL    HW2 9708   5.335   5.889   1.063
 2937SOL     OW 9709   3.176   5.253   0.869
 2937SOL    HW1 9710   3.101   5.320   0.875
 2937SOL    HW2 9711   3.150   5.170   0.918
 2938SOL     OW 9712   4.679   4.797   5.328
 2938SOL    HW1 9713   4.644   4.807   5.235
 2938SOL    HW2 9714   4.679   4.886   5.373
 2939SOL     OW 9715   6.182   0.138   4.547
 2939SOL    HW1 9716   6.200   0.110   4.452
 2939SOL    HW2 9717   6.147   0.060   4.599
 2940SOL     OW 9718   5.963   6.684   5.450
 2940SOL    HW1 9719   5.922   6.770   5.418
 2940SOL    HW2 9720   5.973   6.687   5.550
 2941SOL     OW 9721   1.723   2.148   5.808
 2941SOL    HW1 9722   1.724   2.230   5.750
 2941SOL    HW2 9723   1.792   2.158   5.881
 2942SOL     OW 9724   3.158   0.670   2.364
 2942SOL    HW1 9725   3.251   0.638   2.349
 2942SOL    HW2 9726   3.139   0.748   2.304
 2943SOL     OW 9727   5.368   3.299   2.360
 2943SOL    HW1 9728   5.395   3.329   2.452
 2943SOL    HW2 9729   5.269   3.308   2.351
 2944SOL     OW 9730   2.944   5.323   5.955
 2944SOL    HW1 9731   2.945   5.419   5.928
 2944SOL    HW2 9732   3.037   5.291   5.969
 2945SOL     OW 9733   3.709   3.660   2.822
 2945SOL    HW1 9734   3.638   3.720   2.784
 2945SOL    HW2 9735   3.712   3.671   2.921
 2946SOL     OW 9736   6.698   6.199   5.692
 2946SOL    HW1 9737   6.708   6.260   5.613
 2946SOL    HW2 9738   6.644   6.244   5.762
 2947SOL     OW 9739   6.885   3.868   6.254
 2947SOL    HW1 9740   6.881   3.777   6.212
 2947SOL    HW2 9741   6.801   3.918   6.232
 2948SOL     OW 9742   6.329   3.579   5.548
 2948SOL    HW1 9743   6.388   3.652   5.513
 2948SOL    HW2 9744   6.342   3.570   5.647
 2949SOL     OW 9745   1.851   6.295   1.210
 2949SOL    HW1 9746   1.765   6.316   1.164
 2949SOL    HW2 9747   1.832   6.248   1.296
 2950SOL     OW 9748   5.396   3.678   4.079
 2950SOL    HW1 9749   5.317   3.724   4.120
 2950SOL    HW2 9750   5.477   3.693   4.135
 2951SOL     OW 9751   6.830   2.139   0.287
 2951SOL    HW1 9752   6.883   2.182   0.361
 2951SOL    HW2 9753   6.815   2.043   0.309
 2952SOL     OW 9754   0.790   4.906   3.297
 2952SOL    HW1 9755   0.813   4.992   3.252
 2952SOL    HW2 9756   0.693   4.903   3.318
 2953SOL     OW 9757   5.066   2.769   2.185
 2953SOL    HW1 9758   5.121   2.853   2.190
 2953SOL    HW2 9759   5.102   2.710   2.113
 2954SOL     OW 9760   0.620   6.618   1.883
 2954SOL    HW1 9761   0.540   6.661   1.924
 2954SOL    HW2 9762   0.609   6.615   1.784
 2955SOL     OW 9763   0.653   2.924   0.529
 2955SOL    HW1 9764   0.624   2.921   0.625
 2955SOL    HW2 9765   0.604   2.998   0.483
 2956SOL     OW 9766   0.658   6.017   3.028
 2956SOL    HW1 9767   0.668   6.013   3.128
 2956SOL    HW2 9768   0.561   6.021   3.005
 2957SOL     OW 9769   0.519   3.855   0.520
 2957SOL    HW1 9770   0.566   3.811   0.596
 2957SOL    HW2 9771   0.512   3.792   0.443
 2958SOL     OW 9772   1.996   4.552   6.004
 2958SOL    HW1 9773   2.054   4.479   6.041
 2958SOL    HW2 9774   2.001   4.551   5.905
 2959SOL     OW 9775   5.733   4.797   5.959
 2959SOL    HW1 9776   5.829   4.809   5.981
 2959SOL    HW2 9777   5.700   4.711   5.997
 2960SOL     OW 9778   3.238   1.256   0.359
 2960SOL    HW1 9779   3.233   1.322   0.284
 2960SOL    HW2 9780   3.285   1.299   0.437
 2961SOL     OW 9781   5.370   3.213   4.870
 2961SOL    HW1 9782   5.351   3.145   4.798
 2961SOL    HW2 9783   5.450   3.183   4.923
 2962SOL     OW 9784   4.635   1.004   3.710
 2962SOL    HW1 9785   4.694   0.927   3.731
 2962SOL    HW2 9786   4.555   0.972   3.659
 2963SOL     OW 9787   1.852   1.891   5.581
 2963SOL    HW1 9788   1.761   1.905   5.621
 2963SOL    HW2 9789   1.868   1.959   5.509
 2964SOL     OW 9790   1.721   0.306   2.078
 2964SOL    HW1 9791   1.707   0.249   1.996
 2964SOL    HW2 9792   1.819   0.323   2.091
 2965SOL     OW 9793   0.343   0.787   5.148
 2965SOL    HW1 9794   0.312   0.880   5.170
 2965SOL    HW2 9795   0.432   0.771   5.191
 2966SOL     OW 9796   5.317   4.430   3.404
 2966SOL    HW1 9797   5.305   4.417   3.502
 2966SOL    HW2 9798   5.238   4.479   3.367
 2967SOL     OW 9799   6.183   2.472   3.672
 2967SOL    HW1 9800   6.235   2.545   3.626
 2967SOL    HW2 9801   6.094   2.508   3.700
 2968SOL     OW 9802   0.740   3.882   5.365
 2968SOL    HW1 9803   0.669   3.951   5.347
 2968SOL    HW2 9804   0.813   3.923   5.419
 2969SOL     OW 9805   5.579   1.920   4.999
 2969SOL    HW1 9806   5.522   1.842   4.977
 2969SOL    HW2 9807   5.640   1.898   5.075
 2970SOL     OW 9808   0.995   4.521   6.750
 2970SOL    HW1 9809   0.977   4.454   6.678
 2970SOL    HW2 9810   0.929   4.596   6.744
 2971SOL     OW 9811   5.879   3.200   3.588
 2971SOL    HW1 9812   5.955   3.245   3.634
 2971SOL    HW2 9813   5.804   3.186   3.653
 2972SOL     OW 9814   6.841   3.935   6.723
 2972SOL    HW1 9815   6.842   4.024   6.677
 2972SOL    HW2 9816   6.834   3.862   6.654
 2973SOL     OW 9817   5.559   0.488   4.105
 2973SOL    HW1 9818   5.486   0.556   4.108
 2973SOL    HW2 9819   5.589   0.467   4.198
 2974SOL     OW 9820   5.465   4.146   2.955
 2974SOL    HW1 9821   5.480   4.081   3.030
 2974SOL    HW2 9822   5.397   4.214   2.983
 2975SOL     OW 9823   0.715   1.705   5.254
 2975SOL    HW1 9824   0.773   1.648   5.312
 2975SOL    HW2 9825   0.762   1.720   5.166
 2976SOL     OW 9826   4.369   1.164   3.283
 2976SOL    HW1 9827   4.288   1.106   3.291
 2976SOL    HW2 9828   4.357   1.245   3.340
 2977SOL     OW 9829   2.648   0.176   4.183
 2977SOL    HW1 9830   2.551   0.160   4.198
 2977SOL    HW2 9831   2.701   0.132   4.256
 2978SOL     OW 9832   4.527   4.971   0.370
 2978SOL    HW1 9833   4.624   4.969   0.347
 2978SOL    HW2 9834   4.477   4.908   0.311
 2979SOL     OW 9835   3.409   0.395   3.799
 2979SOL    HW1 9836   3.481   0.345   3.847
 2979SOL    HW2 9837   3.374   0.340   3.724
 2980SOL     OW 9838   0.976   6.669   4.416
 2980SOL    HW1 9839   0.922   6.626   4.343
 2980SOL    HW2 9840   0.929   6.751   4.448
 2981SOL     OW 9841   1.324   0.627   5.842
 2981SOL    HW1 9842   1.295   0.713   5.801
 2981SOL    HW2 9843   1.388   0.581   5.781
 2982SOL     OW 9844   3.939   6.244   2.905
 2982SOL    HW1 9845   4.027   6.292   2.901
 2982SOL    HW2 9846   3.865   6.307   2.883
 2983SOL     OW 9847   0.342   1.010   4.120
 2983SOL    HW1 9848   0.254   0.977   4.154
 2983SOL    HW2 9849   0.413   0.991   4.187
 2984SOL     OW 9850   6.364   5.534   1.360
 2984SOL    HW1 9851   6.458   5.550   1.389
 2984SOL    HW2 9852   6.306   5.610   1.389
 2985SOL     OW 9853   0.929   1.902   4.539
 2985SOL    HW1 9854   0.904   1.996   4.563
 2985SOL    HW2 9855   0.996   1.902   4.465
 2986SOL     OW 9856   2.402   4.429   5.775
 2986SOL    HW1 9857   2.316   4.435   5.726
 2986SOL    HW2 9858   2.462   4.505   5.749
 2987SOL     OW 9859   5.088   0.747   4.289
 2987SOL    HW1 9860   5.053   0.723   4.379
 2987SOL    HW2 9861   5.092   0.664   4.232
 2988SOL     OW 9862   1.247   0.547   2.425
 2988SOL    HW1 9863   1.326   0.607   2.411
 2988SOL    HW2 9864   1.181   0.559   2.351
 2989SOL     OW 9865   6.441   5.321   1.205
 2989SOL    HW1 9866   6.509   5.281   1.267
 2989SOL    HW2 9867   6.403   5.404   1.246
 2990SOL     OW 9868   3.738   0.775   3.102
 2990SOL    HW1 9869   3.820   0.719   3.099
 2990SOL    HW2 9870   3.663   0.722   3.141
 2991SOL     OW 9871   0.216   4.228   0.628
 2991SOL    HW1 9872   0.178   4.269   0.545
 2991SOL    HW2 9873   0.222   4.129   0.616
 2992SOL     OW 9874   2.930   5.737   6.361
 2992SOL    HW1 9875   2.899   5.724   6.455
 2992SOL    HW2 9876   2.864   5.793   6.311
 2993SOL     OW 9877   2.044   4.565   2.268
 2993SOL    HW1 9878   1.965   4.522   2.224
 2993SOL    HW2 9879   2.102   4.606   2.198
 2994SOL     OW 9880   5.022   0.132   6.922
 2994SOL    HW1 9881   5.071   0.045   6.923
 2994SOL    HW2 9882   4.943   0.126   6.861
 2995SOL     OW 9883   1.402   1.860   0.143
 2995SOL    HW1 9884   1.336   1.886   0.214
 2995SOL    HW2 9885   1.482   1.921   0.149
 2996SOL     OW 9886   2.866   5.997   5.055
 2996SOL    HW1 9887   2.777   6.030   5.026
 2996SOL    HW2 9888   2.855   5.941   5.138
 2997SOL     OW 9889   5.214   5.812   1.971
 2997SOL    HW1 9890   5.213   5.819   2.071
 2997SOL    HW2 9891   5.188   5.899   1.931
 2998SOL     OW 9892   4.863   6.133   4.521
 2998SOL    HW1 9893   4.818   6.218   4.495
 2998SOL    HW2 9894   4.808   6.055   4.492
 2999SOL     OW 9895   3.206   6.046   3.494
 2999SOL    HW1 9896   3.157   6.123   3.535
 2999SOL    HW2 9897   3.140   5.974   3.470
 3000SOL     OW 9898   1.565   3.273   5.741
 3000SOL    HW1 9899   1.544   3.306   5.833
 3000SOL    HW2 9900   1.619   3.190   5.747
 3001SOL     OW 9901   4.778   0.114   6.473
 3001SOL    HW1 9902   4.696   0.085   6.423
 3001SOL    HW2 9903   4.852   0.133   6.409
 3002SOL     OW 9904   4.074   6.956   5.457
 3002SOL    HW1 9905   4.097   6.959   5.554
 3002SOL    HW2 9906   4.148   6.911   5.407
 3003SOL     OW 9907   2.741   6.174   6.132
 3003SOL    HW1 9908   2.654   6.124   6.137
 3003SOL    HW2 9909   2.776   6.172   6.038
 3004SOL     OW 9910   6.218   3.898   3.836
 3004SOL    HW1 9911   6.315   3.919   3.846
 3004SOL    HW2 9912   6.199   3.868   3.743
 3005SOL     OW 9913   3.238   3.293   1.657
 3005SOL    HW1 9914   3.147   3.254   1.641
 3005SOL    HW2 9915   3.295   3.225   1.703
 3006SOL     OW 9916   6.288   1.304   0.742
 3006SOL    HW1 9917   6.287   1.362   0.824
 3006SOL    HW2 9918   6.338   1.220   0.761
 3007SOL     OW 9919   5.425   5.101   2.130
 3007SOL    HW1 9920   5.371   5.033   2.180
 3007SOL    HW2 9921   5.488   5.146   2.194
 3008SOL     OW 9922   4.123   0.299   6.042
 3008SOL    HW1 9923   4.119   0.339   6.134
 3008SOL    HW2 9924   4.137   0.372   5.975
 3009SOL     OW 9925   0.422   0.253   2.817
 3009SOL    HW1 9926   0.452   0.297   2.733
 3009SOL    HW2 9927   0.391   0.323   2.882
 3010SOL     OW 9928   3.986   5.927   2.919
 3010SOL    HW1 9929   3.963   6.024   2.914
 3010SOL    HW2 9930   3.916   5.878   2.971
 3011SOL     OW 9931   6.314   0.983   6.649
 3011SOL    HW1 9932   6.378   0.913   6.617
 3011SOL    HW2 9933   6.354   1.074   6.635
 3012SOL     OW 9934   0.243   3.547   4.056
 3012SOL    HW1 9935   0.155   3.550   4.009
 3012SOL    HW2 9936   0.308   3.493   4.001
 3013SOL     OW 9937   5.916   5.939   2.942
 3013SOL    HW1 9938   5.989   5.872   2.960
 3013SOL    HW2 9939   5.939   5.991   2.860
 3014SOL     OW 9940   5.419   1.700   4.212
 3014SOL    HW1 9941   5.449   1.617   4.258
 3014SOL    HW2 9942   5.496   1.764   4.205
 3015SOL     OW 9943   2.218   2.000   0.138
 3015SOL    HW1 9944   2.234   2.040   0.228
 3015SOL    HW2 9945   2.121   2.008   0.114
 3016SOL     OW 9946   3.310   5.482   4.345
 3016SOL    HW1 9947   3.322   5.531   4.431
 3016SOL    HW2 9948   3.351   5.391   4.352
 3017SOL     OW 9949   0.706   5.618   1.140
 3017SOL    HW1 9950   0.717   5.519   1.152
 3017SOL    HW2 9951   0.762   5.649   1.063
 3018SOL     OW 9952   4.086   0.548   6.961
 3018SOL    HW1 9953   4.156   0.525   0.010
 3018SOL    HW2 9954   3.997   0.514   6.991
 3019SOL     OW 9955   3.147   6.498   1.101
 3019SOL    HW1 9956   3.109   6.447   1.024
 3019SOL    HW2 9957   3.207   6.570   1.067
 3020SOL     OW 9958   3.684   3.748   1.532
 3020SOL    HW1 9959   3.744   3.805   1.587
 3020SOL    HW2 9960   3.655   3.799   1.451
 3021SOL     OW 9961   1.540   1.975   6.634
 3021SOL    HW1 9962   1.467   2.041   6.613
 3021SOL    HW2 9963   1.517   1.925   6.717
 3022SOL     OW 9964   3.678   5.607   2.842
 3022SOL    HW1 9965   3.652   5.642   2.752
 3022SOL    HW2 9966   3.595   5.591   2.897
 3023SOL     OW 9967   3.642   6.185   3.373
 3023SOL    HW1 9968   3.584   6.241   3.314
 3023SOL    HW2 9969   3.631   6.089   3.349
 3024SOL     OW 9970   2.898   0.772   6.669
 3024SOL    HW1 9971   2.841   0.832   6.726
 3024SOL    HW2 9972   2.993   0.776   6.700
 3025SOL     OW 9973   2.869   3.239   0.911
 3025SOL    HW1 9974   2.962   3.276   0.916
 3025SOL    HW2 9975   2.845   3.222   0.816
 3026SOL     OW 9976   1.538   3.430   1.011
 3026SOL    HW1 9977   1.632   3.412   0.985
 3026SOL    HW2 9978   1.488   3.343   1.016
 3027SOL     OW 9979   3.872   0.781   2.633
 3027SOL    HW1 9980   3.795   0.831   2.594
 3027SOL    HW2 9981   3.939   0.761   2.562
 3028SOL     OW 9982   1.162   5.197   0.089
 3028SOL    HW1 9983   1.163   5.197   7.008
 3028SOL    HW2 9984   1.075   5.160   0.121
 3029SOL     OW 9985   6.278   4.749   5.376
 3029SOL    HW1 9986   6.277   4.798   5.288
 3029SOL    HW2 9987   6.287   4.651   5.359
 3030SOL     OW 9988   0.987   1.501   5.883
 3030SOL    HW1 9989   1.019   1.526   5.791
 3030SOL    HW2 9990   0.888   1.514   5.888
 3031SOL     OW 9991   0.676   3.728   0.745
 3031SOL    HW1 9992   0.675   3.793   0.822
 3031SOL    HW2 9993   0.610   3.655   0.762
 3032SOL     OW 9994   5.199   6.916   6.962
 3032SOL    HW1 9995   5.211   6.910   6.863
 3032SOL    HW2 9996   5.215   6.826   7.003
 3033SOL     OW 9997   0.891   2.770   0.468
 3033SOL    HW1 9998   0.966   2.821   0.425
 3033SOL    HW2 9999   0.815   2.832   0.488
 3034SOL     OW10000   2.088   6.531   3.378
 3034SOL    HW110001   2.151   6.479   3.435
 3034SOL    HW210002   1.997   6.533   3.420
 3035SOL     OW10003   6.386   1.515   0.589
 3035SOL    HW110004   6.323   1.536   0.515
 3035SOL    HW210005   6.350   1.441   0.645
 3036SOL     OW10006   1.490   3.871   6.957
 3036SOL    HW110007   1.494   3.783   6.909
 3036SOL    HW210008   1.514   3.858   0.034
 3037SOL     OW10009   5.925   5.829   4.757
 3037SOL    HW110010   5.935   5.899   4.828
 3037SOL    HW210011   6.014   5.788   4.739
 3038SOL     OW10012   5.569   6.708   6.184
 3038SOL    HW110013   5.499   6.731   6.252
 3038SOL    HW210014   5.594   6.790   6.134
 3039SOL     OW10015   6.401   4.685   2.667
 3039SOL    HW110016   6.431   4.725   2.753
 3039SOL    HW210017   6.431   4.743   2.591
 3040SOL     OW10018   4.070   3.960   6.344
 3040SOL    HW110019   4.086   3.983   6.248
 3040SOL    HW210020   4.004   4.023   6.383
 3041SOL     OW10021   2.102   3.087   5.875
 3041SOL    HW110022   2.035   3.148   5.917
 3041SOL    HW210023   2.057   3.033   5.803
 3042SOL     OW10024   5.079   0.284   2.294
 3042SOL    HW110025   5.057   0.381   2.284
 3042SOL    HW210026   5.176   0.274   2.314
 3043SOL     OW10027   0.402   5.535   0.354
 3043SOL    HW110028   0.405   5.491   0.443
 3043SOL    HW210029   0.489   5.583   0.338
 3044SOL     OW10030   3.427   4.676   5.522
 3044SOL    HW110031   3.331   4.705   5.527
 3044SOL    HW210032   3.433   4.579   5.544
 3045SOL     OW10033   5.254   0.803   2.856
 3045SOL    HW110034   5.341   0.783   2.900
 3045SOL    HW210035   5.193   0.724   2.862
 3046SOL     OW10036   0.776   3.369   5.201
 3046SOL    HW110037   0.802   3.273   5.189
 3046SOL    HW210038   0.779   3.415   5.112
 3047SOL     OW10039   5.626   5.184   1.648
 3047SOL    HW110040   5.591   5.091   1.658
 3047SOL    HW210041   5.681   5.190   1.565
 3048SOL     OW10042   4.281   3.366   1.370
 3048SOL    HW110043   4.348   3.299   1.338
 3048SOL    HW210044   4.277   3.443   1.305
 3049SOL     OW10045   0.973   7.015   1.413
 3049SOL    HW110046   1.042   0.051   1.367
 3049SOL    HW210047   1.018   6.941   1.463
 3050SOL     OW10048   3.135   6.821   3.458
 3050SOL    HW110049   3.129   6.919   3.479
 3050SOL    HW210050   3.230   6.791   3.461
 3051SOL     OW10051   2.214   4.587   6.840
 3051SOL    HW110052   2.299   4.639   6.850
 3051SOL    HW210053   2.152   4.609   6.915
 3052SOL     OW10054   3.842   0.253   3.261
 3052SOL    HW110055   3.822   0.172   3.316
 3052SOL    HW210056   3.812   0.237   3.167
 3053SOL     OW10057   6.030   0.490   6.924
 3053SOL    HW110058   6.130   0.500   6.931
 3053SOL    HW210059   6.005   0.472   6.829
 3054SOL     OW10060   6.741   2.896   7.013
 3054SOL    HW110061   6.802   2.946   0.055
 3054SOL    HW210062   6.647   2.922   0.011
 3055SOL     OW10063   5.189   0.228   3.815
 3055SOL    HW110064   5.113   0.272   3.864
 3055SOL    HW210065   5.162   0.212   3.721
 3056SOL     OW10066   6.277   0.276   0.302
 3056SOL    HW110067   6.219   0.349   0.337
 3056SOL    HW210068   6.230   0.228   0.228
 3057SOL     OW10069   4.929   5.290   2.598
 3057SOL    HW110070   4.926   5.360   2.527
 3057SOL    HW210071   4.838   5.250   2.609
 3058SOL     OW10072   6.413   6.119   1.205
 3058SOL    HW110073   6.476   6.149   1.277
 3058SOL    HW210074   6.461   6.117   1.117
 3059SOL     OW10075   0.890   3.117   5.156
 3059SOL    HW110076   0.976   3.084   5.196
 3059SOL    HW210077   0.905   3.145   5.061
 3060SOL     OW10078   0.798   6.974   0.225
 3060SOL    HW110079   0.887   7.018   0.234
 3060SOL    HW210080   0.731   7.019   0.284
 3061SOL     OW10081   0.202   0.636   4.958
 3061SOL    HW110082   0.246   0.691   5.029
 3061SOL    HW210083   0.209   0.539   4.982
 3062SOL     OW10084   2.304   6.704   1.683
 3062SOL    HW110085   2.367   6.700   1.760
 3062SOL    HW210086   2.354   6.736   1.602
 3063SOL     OW10087   2.230   5.015   1.993
 3063SOL    HW110088   2.234   5.051   1.900
 3063SOL    HW210089   2.286   4.933   1.999
 3064SOL     OW10090   5.615   3.322   3.933
 3064SOL    HW110091   5.698   3.367   3.964
 3064SOL    HW210092   5.559   3.387   3.881
 3065SOL     OW10093   2.229   0.648   6.407
 3065SOL    HW110094   2.272   0.623   6.320
 3065SOL    HW210095   2.219   0.566   6.463
 3066SOL     OW10096   5.882   4.375   0.172
 3066SOL    HW110097   5.969   4.372   0.222
 3066SOL    HW210098   5.808   4.398   0.235
 3067SOL     OW10099   3.980   0.936   5.009
 3067SOL    HW110100   3.957   1.025   5.050
 3067SOL    HW210101   4.043   0.950   4.932
 3068SOL     OW10102   6.123   6.029   1.030
 3068SOL    HW110103   6.173   5.949   0.997
 3068SOL    HW210104   6.043   5.999   1.082
 3069SOL     OW10105   0.419   5.768   1.910
 3069SOL    HW110106   0.502   5.817   1.936
 3069SOL    HW210107   0.354   5.831   1.868
 3070SOL     OW10108   2.199   1.355   2.974
 3070SOL    HW110109   2.252   1.287   3.025
 3070SOL    HW210110   2.101   1.338   2.987
 3071SOL     OW10111   6.156   0.282   3.729
 3071SOL    HW110112   6.187   0.191   3.701
 3071SOL    HW210113   6.057   0.283   3.737
 3072SOL     OW10114   0.778   6.843   1.698
 3072SOL    HW110115   0.876   6.825   1.694
 3072SOL    HW210116   0.755   6.917   1.635
 3073SOL     OW10117   0.566   3.608   5.153
 3073SOL    HW110118   0.665   3.613   5.166
 3073SOL    HW210119   0.539   3.513   5.138
 3074SOL     OW10120   4.670   2.982   6.885
 3074SOL    HW110121   4.596   2.960   6.948
 3074SOL    HW210122   4.726   3.055   6.924
 3075SOL     OW10123   1.674   6.624   1.611
 3075SOL    HW110124   1.690   6.707   1.558
 3075SOL    HW210125   1.578   6.620   1.639
 3076SOL     OW10126   6.410   0.545   4.807
 3076SOL    HW110127   6.351   0.595   4.744
 3076SOL    HW210128   6.465   0.479   4.756
 3077SOL     OW10129   5.677   4.694   3.669
 3077SOL    HW110130   5.581   4.666   3.671
 3077SOL    HW210131   5.734   4.622   3.708
 3078SOL     OW10132   2.122   3.753   2.077
 3078SOL    HW110133   2.029   3.761   2.042
 3078SOL    HW210134   2.160   3.665   2.052
 3079SOL     OW10135   1.619   2.639   5.230
 3079SOL    HW110136   1.555   2.615   5.304
 3079SOL    HW210137   1.668   2.557   5.202
 3080SOL     OW10138   6.453   5.165   1.511
 3080SOL    HW110139   6.363   5.181   1.550
 3080SOL    HW210140   6.445   5.111   1.427
 3081SOL     OW10141   0.426   4.625   5.874
 3081SOL    HW110142   0.472   4.585   5.953
 3081SOL    HW210143   0.462   4.717   5.857
 3082SOL     OW10144   3.854   6.724   3.558
 3082SOL    HW110145   3.924   6.658   3.585
 3082SOL    HW210146   3.890   6.817   3.567
 3083SOL     OW10147   3.788   6.953   2.858
 3083SOL    HW110148   3.780   7.003   2.772
 3083SOL    HW210149   3.708   6.895   2.871
 3084SOL     OW10150   4.692   4.457   4.151
 3084SOL    HW110151   4.757   4.532   4.161
 3084SOL    HW210152   4.695   4.421   4.058
 3085SOL     OW10153   6.756   4.690   3.223
 3085SOL    HW110154   6.766   4.613   3.286
 3085SOL    HW210155   6.824   4.761   3.245
 3086SOL     OW10156   4.246   1.150   2.038
 3086SOL    HW110157   4.192   1.076   2.079
 3086SOL    HW210158   4.185   1.223   2.008
 3087SOL     OW10159   6.570   4.539   3.550
 3087SOL    HW110160   6.522   4.498   3.627
 3087SOL    HW210161   6.556   4.484   3.468
 3088SOL     OW10162   2.888   5.023   5.300
 3088SOL    HW110163   2.795   5.036   5.266
 3088SOL    HW210164   2.885   5.003   5.398
 3089SOL     OW10165   1.320   2.975   0.185
 3089SOL    HW110166   1.220   2.985   0.186
 3089SOL    HW210167   1.361   3.047   0.242
 3090SOL     OW10168   1.862   1.235   1.270
 3090SOL    HW110169   1.906   1.274   1.189
 3090SOL    HW210170   1.826   1.309   1.327
 3091SOL     OW10171   3.191   0.093   0.336
 3091SOL    HW110172   3.180   0.044   0.422
 3091SOL    HW210173   3.147   0.183   0.342
 3092SOL     OW10174   5.490   6.455   6.969
 3092SOL    HW110175   5.472   6.482   6.875
 3092SOL    HW210176   5.589   6.446   6.982
 3093SOL     OW10177   5.865   5.122   5.712
 3093SOL    HW110178   5.944   5.103   5.653
 3093SOL    HW210179   5.781   5.118   5.657
 3094SOL     OW10180   2.972   6.268   4.933
 3094SOL    HW110181   2.935   6.260   4.840
 3094SOL    HW210182   2.978   6.177   4.973
 3095SOL     OW10183   2.418   4.585   4.381
 3095SOL    HW110184   2.348   4.650   4.410
 3095SOL    HW210185   2.398   4.554   4.288
 3096SOL     OW10186   6.701   0.381   4.699
 3096SOL    HW110187   6.708   0.353   4.795
 3096SOL    HW210188   6.723   0.478   4.691
 3097SOL     OW10189   0.668   2.671   0.957
 3097SOL    HW110190   0.740   2.704   0.896
 3097SOL    HW210191   0.619   2.748   0.996
 3098SOL     OW10192   2.585   3.178   1.375
 3098SOL    HW110193   2.615   3.118   1.301
 3098SOL    HW210194   2.490   3.204   1.359
 3099SOL     OW10195   6.745   5.601   4.422
 3099SOL    HW110196   6.661   5.648   4.393
 3099SOL    HW210197   6.758   5.613   4.520
 3100SOL     OW10198   6.865   0.109   4.644
 3100SOL    HW110199   6.870   0.172   4.566
 3100SOL    HW210200   6.919   0.144   4.720
 3101SOL     OW10201   4.776   5.947   5.239
 3101SOL    HW110202   4.716   5.917   5.313
 3101SOL    HW210203   4.806   6.041   5.256
 3102SOL     OW10204   0.874   4.233   1.374
 3102SOL    HW110205   0.899   4.298   1.446
 3102SOL    HW210206   0.831   4.283   1.298
 3103SOL     OW10207   3.642   2.298   0.582
 3103SOL    HW110208   3.569   2.230   0.579
 3103SOL    HW210209   3.680   2.310   0.490
 3104SOL     OW10210   5.299   5.990   4.268
 3104SOL    HW110211   5.351   6.074   4.280
 3104SOL    HW210212   5.288   5.971   4.171
 3105SOL     OW10213   5.683   5.968   3.422
 3105SOL    HW110214   5.691   6.057   3.466
 3105SOL    HW210215   5.718   5.974   3.328
 3106SOL     OW10216   6.301   2.140   2.065
 3106SOL    HW110217   6.209   2.115   2.035
 3106SOL    HW210218   6.296   2.215   2.131
 3107SOL     OW10219   3.400   0.524   4.053
 3107SOL    HW110220   3.384   0.487   3.961
 3107SOL    HW210221   3.317   0.512   4.109
 3108SOL     OW10222   1.605   0.922   4.351
 3108SOL    HW110223   1.675   0.990   4.371
 3108SOL    HW210224   1.544   0.957   4.279
 3109SOL     OW10225   5.111   5.864   2.539
 3109SOL    HW110226   5.203   5.829   2.551
 3109SOL    HW210227   5.050   5.824   2.608
 3110SOL     OW10228   0.284   2.694   3.931
 3110SOL    HW110229   0.298   2.610   3.983
 3110SOL    HW210230   0.372   2.727   3.896
 3111SOL     OW10231   6.108   5.153   4.177
 3111SOL    HW110232   6.130   5.243   4.217
 3111SOL    HW210233   6.067   5.166   4.087
 3112SOL     OW10234   4.664   2.426   5.866
 3112SOL    HW110235   4.638   2.523   5.865
 3112SOL    HW210236   4.596   2.373   5.815
 3113SOL     OW10237   2.415   0.125   3.941
 3113SOL    HW110238   2.438   0.072   3.859
 3113SOL    HW210239   2.401   0.062   4.018
 3114SOL     OW10240   5.336   3.618   6.635
 3114SOL    HW110241   5.434   3.601   6.629
 3114SOL    HW210242   5.317   3.673   6.716
 3115SOL     OW10243   3.798   4.159   0.271
 3115SOL    HW110244   3.736   4.143   0.194
 3115SOL    HW210245   3.885   4.113   0.255
 3116SOL     OW10246   6.647   2.529   6.512
 3116SOL    HW110247   6.705   2.493   6.584
 3116SOL    HW210248   6.600   2.454   6.465
 3117SOL     OW10249   4.323   3.529   5.558
 3117SOL    HW110250   4.371   3.504   5.474
 3117SOL    HW210251   4.255   3.600   5.538
 3118SOL     OW10252   6.648   4.486   6.824
 3118SOL    HW110253   6.575   4.554   6.835
 3118SOL    HW210254   6.636   4.438   6.737
 3119SOL     OW10255   1.972   4.288   5.272
 3119SOL    HW110256   1.879   4.293   5.236
 3119SOL    HW210257   2.018   4.209   5.232
 3120SOL     OW10258   2.290   5.890   4.517
 3120SOL    HW110259   2.216   5.834   4.479
 3120SOL    HW210260   2.340   5.934   4.442
 3121SOL     OW10261   0.763   1.820   1.724
 3121SOL    HW110262   0.695   1.748   1.716
 3121SOL    HW210263   0.827   1.815   1.648
 3122SOL     OW10264   3.085   5.498   6.400
 3122SOL    HW110265   3.155   5.493   6.328
 3122SOL    HW210266   3.040   5.588   6.396
 3123SOL     OW10267   3.317   6.419   3.790
 3123SOL    HW110268   3.267   6.386   3.709
 3123SOL    HW210269   3.393   6.357   3.810
 3124SOL     OW10270   4.532   0.505   5.373
 3124SOL    HW110271   4.459   0.557   5.419
 3124SOL    HW210272   4.582   0.565   5.311
 3125SOL     OW10273   6.230   1.874   5.536
 3125SOL    HW110274   6.223   1.911   5.444
 3125SOL    HW210275   6.181   1.934   5.600
 3126SOL     OW10276   5.594   4.546   6.086
 3126SOL    HW110277   5.548   4.489   6.018
 3126SOL    HW210278   5.547   4.634   6.092
 3127SOL     OW10279   0.737   1.500   3.427
 3127SOL    HW110280   0.740   1.531   3.522
 3127SOL    HW210281   0.775   1.408   3.421
 3128SOL     OW10282   1.604   0.783   0.495
 3128SOL    HW110283   1.586   0.732   0.579
 3128SOL    HW210284   1.605   0.881   0.516
 3129SOL     OW10285   0.887   3.868   5.616
 3129SOL    HW110286   0.934   3.780   5.612
 3129SOL    HW210287   0.788   3.854   5.608
 3130SOL     OW10288   2.664   4.691   2.417
 3130SOL    HW110289   2.683   4.679   2.515
 3130SOL    HW210290   2.749   4.713   2.369
 3131SOL     OW10291   1.018   2.936   3.289
 3131SOL    HW110292   1.039   2.905   3.197
 3131SOL    HW210293   1.003   3.035   3.289
 3132SOL     OW10294   5.400   5.822   5.142
 3132SOL    HW110295   5.401   5.784   5.235
 3132SOL    HW210296   5.485   5.871   5.125
 3133SOL     OW10297   2.226   2.003   4.376
 3133SOL    HW110298   2.140   2.046   4.349
 3133SOL    HW210299   2.211   1.906   4.396
 3134SOL     OW10300   5.084   3.382   1.597
 3134SOL    HW110301   5.056   3.288   1.615
 3134SOL    HW210302   5.176   3.382   1.556
 3135SOL     OW10303   4.032   2.133   4.269
 3135SOL    HW110304   4.033   2.033   4.276
 3135SOL    HW210305   4.121   2.169   4.295
 3136SOL     OW10306   5.909   5.814   6.541
 3136SOL    HW110307   5.890   5.899   6.590
 3136SOL    HW210308   5.987   5.829   6.479
 3137SOL     OW10309   4.940   1.602   4.115
 3137SOL    HW110310   4.894   1.518   4.087
 3137SOL    HW210311   5.036   1.598   4.087
 3138SOL     OW10312   6.255   1.725   4.785
 3138SOL    HW110313   6.313   1.803   4.762
 3138SOL    HW210314   6.168   1.758   4.821
 3139SOL     OW10315   4.945   6.355   5.855
 3139SOL    HW110316   5.006   6.276   5.843
 3139SOL    HW210317   4.862   6.325   5.903
 3140SOL     OW10318   6.635   6.665   6.473
 3140SOL    HW110319   6.602   6.702   6.560
 3140SOL    HW210320   6.733   6.649   6.479
 3141SOL     OW10321   0.238   6.451   6.941
 3141SOL    HW110322   0.290   6.515   6.998
 3141SOL    HW210323   0.162   6.412   6.994
 3142SOL     OW10324   4.958   5.850   0.128
 3142SOL    HW110325   4.960   5.774   0.063
 3142SOL    HW210326   4.984   5.817   0.219
 3143SOL     OW10327   6.875   1.993   6.888
 3143SOL    HW110328   6.952   1.942   6.928
 3143SOL    HW210329   6.855   2.072   6.946
 3144SOL     OW10330   1.910   3.523   0.910
 3144SOL    HW110331   1.977   3.461   0.870
 3144SOL    HW210332   1.957   3.594   0.962
 3145SOL     OW10333   3.085   6.048   2.845
 3145SOL    HW110334   3.001   6.091   2.878
 3145SOL    HW210335   3.161   6.074   2.903
 3146SOL     OW10336   1.680   6.859   3.340
 3146SOL    HW110337   1.769   6.828   3.307
 3146SOL    HW210338   1.612   6.848   3.268
 3147SOL     OW10339   4.623   4.973   0.649
 3147SOL    HW110340   4.604   5.022   0.735
 3147SOL    HW210341   4.585   5.024   0.572
 3148SOL     OW10342   3.966   5.186   3.973
 3148SOL    HW110343   3.951   5.254   4.044
 3148SOL    HW210344   4.044   5.214   3.916
 3149SOL     OW10345   3.226   0.664   5.474
 3149SOL    HW110346   3.259   0.757   5.487
 3149SOL    HW210347   3.259   0.606   5.548
 3150SOL     OW10348   4.977   6.786   4.652
 3150SOL    HW110349   4.899   6.751   4.600
 3150SOL    HW210350   5.061   6.741   4.621
 3151SOL     OW10351   4.893   1.045   6.583
 3151SOL    HW110352   4.918   1.081   6.493
 3151SOL    HW210353   4.967   0.989   6.619
 3152SOL     OW10354   0.685   5.323   1.494
 3152SOL    HW110355   0.660   5.398   1.555
 3152SOL    HW210356   0.720   5.246   1.548
 3153SOL     OW10357   6.258   4.144   1.553
 3153SOL    HW110358   6.159   4.159   1.548
 3153SOL    HW210359   6.306   4.222   1.513
 3154SOL     OW10360   6.537   2.331   6.376
 3154SOL    HW110361   6.563   2.235   6.363
 3154SOL    HW210362   6.438   2.336   6.387
 3155SOL     OW10363   6.387   5.132   1.009
 3155SOL    HW110364   6.324   5.169   0.941
 3155SOL    HW210365   6.403   5.200   1.081
 3156SOL     OW10366   3.575   4.122   3.299
 3156SOL    HW110367   3.658   4.070   3.319
 3156SOL    HW210368   3.561   4.126   3.200
 3157SOL     OW10369   2.116   3.473   4.732
 3157SOL    HW110370   2.127   3.437   4.824
 3157SOL    HW210371   2.165   3.416   4.667
 3158SOL     OW10372   4.907   6.657   1.653
 3158SOL    HW110373   4.882   6.597   1.728
 3158SOL    HW210374   4.945   6.742   1.690
 3159SOL     OW10375   4.913   5.639   5.861
 3159SOL    HW110376   4.824   5.678   5.885
 3159SOL    HW210377   4.977   5.714   5.841
 3160SOL     OW10378   5.515   3.433   5.724
 3160SOL    HW110379   5.568   3.485   5.791
 3160SOL    HW210380   5.456   3.368   5.771
 3161SOL     OW10381   1.610   0.968   2.679
 3161SOL    HW110382   1.571   1.020   2.604
 3161SOL    HW210383   1.601   1.020   2.764
 3162SOL     OW10384   0.454   5.528   6.793
 3162SOL    HW110385   0.483   5.623   6.805
 3162SOL    HW210386   0.385   5.506   6.862
 3163SOL     OW10387   4.014   3.131   6.762
 3163SOL    HW110388   3.990   3.125   6.665
 3163SOL    HW210389   3.947   3.188   6.810
 3164SOL     OW10390   5.393   4.188   0.844
 3164SOL    HW110391   5.462   4.192   0.916
 3164SOL    HW210392   5.421   4.245   0.768
 3165SOL     OW10393   0.556   0.137   2.060
 3165SOL    HW110394   0.489   0.069   2.089
 3165SOL    HW210395   0.578   0.197   2.137
 3166SOL     OW10396   4.786   2.823   6.002
 3166SOL    HW110397   4.839   2.905   6.021
 3166SOL    HW210398   4.811   2.787   5.912
 3167SOL     OW10399   0.123   4.202   1.835
 3167SOL    HW110400   0.198   4.140   1.814
 3167SOL    HW210401   0.071   4.222   1.752
 3168SOL     OW10402   5.655   2.953   0.554
 3168SOL    HW110403   5.647   3.052   0.562
 3168SOL    HW210404   5.653   2.911   0.644
 3169SOL     OW10405   0.938   2.898   5.778
 3169SOL    HW110406   1.002   2.964   5.738
 3169SOL    HW210407   0.936   2.909   5.877
 3170SOL     OW10408   4.388   0.636   6.532
 3170SOL    HW110409   4.335   0.552   6.540
 3170SOL    HW210410   4.424   0.644   6.439
 3171SOL     OW10411   6.659   0.183   1.900
 3171SOL    HW110412   6.649   0.261   1.838
 3171SOL    HW210413   6.572   0.133   1.906
 3172SOL     OW10414   6.502   6.838   4.751
 3172SOL    HW110415   6.442   6.773   4.704
 3172SOL    HW210416   6.510   6.813   4.847
 3173SOL     OW10417   2.539   0.323   2.051
 3173SOL    HW110418   2.510   0.359   2.140
 3173SOL    HW210419   2.458   0.303   1.995
 3174SOL     OW10420   2.958   2.859   5.691
 3174SOL    HW110421   3.046   2.876   5.647
 3174SOL    HW210422   2.889   2.839   5.622
 3175SOL     OW10423   0.866   6.194   6.878
 3175SOL    HW110424   0.965   6.203   6.890
 3175SOL    HW210425   0.841   6.226   6.786
 3176SOL     OW10426   1.365   4.280   6.694
 3176SOL    HW110427   1.365   4.298   6.792
 3176SOL    HW210428   1.447   4.227   6.670
 3177SOL     OW10429   5.240   5.153   5.554
 3177SOL    HW110430   5.218   5.070   5.605
 3177SOL    HW210431   5.239   5.134   5.456
 3178SOL     OW10432   0.197   4.254   2.314
 3178SOL    HW110433   0.275   4.272   2.254
 3178SOL    HW210434   0.204   4.312   2.396
 3179SOL     OW10435   1.991   2.312   2.240
 3179SOL    HW110436   1.994   2.399   2.191
 3179SOL    HW210437   1.924   2.252   2.198
 3180SOL     OW10438   5.447   6.929   5.498
 3180SOL    HW110439   5.362   6.971   5.530
 3180SOL    HW210440   5.524   6.989   5.521
 3181SOL     OW10441   0.510   1.111   3.442
 3181SOL    HW110442   0.598   1.145   3.411
 3181SOL    HW210443   0.490   1.147   3.533
 3182SOL     OW10444   0.543   5.881   5.500
 3182SOL    HW110445   0.462   5.834   5.465
 3182SOL    HW210446   0.587   5.825   5.571
 3183SOL     OW10447   4.395   5.234   1.829
 3183SOL    HW110448   4.360   5.261   1.918
 3183SOL    HW210449   4.484   5.190   1.839
 3184SOL     OW10450   2.871   2.000   3.121
 3184SOL    HW110451   2.898   2.094   3.139
 3184SOL    HW210452   2.873   1.948   3.206
 3185SOL     OW10453   0.613   6.668   4.851
 3185SOL    HW110454   0.535   6.725   4.824
 3185SOL    HW210455   0.583   6.600   4.918
 3186SOL     OW10456   3.506   1.150   3.069
 3186SOL    HW110457   3.497   1.250   3.075
 3186SOL    HW210458   3.602   1.125   3.081
 3187SOL     OW10459   3.425   4.527   6.950
 3187SOL    HW110460   3.508   4.553   6.901
 3187SOL    HW210461   3.430   4.559   0.025
 3188SOL     OW10462   3.407   5.512   3.036
 3188SOL    HW110463   3.358   5.482   2.954
 3188SOL    HW210464   3.359   5.590   3.077
 3189SOL     OW10465   0.864   0.341   3.420
 3189SOL    HW110466   0.795   0.397   3.373
 3189SOL    HW210467   0.886   0.261   3.364
 3190SOL     OW10468   1.304   5.938   1.973
 3190SOL    HW110469   1.210   5.961   1.996
 3190SOL    HW210470   1.305   5.862   1.908
 3191SOL     OW10471   3.994   0.784   0.818
 3191SOL    HW110472   3.895   0.785   0.833
 3191SOL    HW210473   4.039   0.826   0.897
 3192SOL     OW10474   0.908   2.436   1.992
 3192SOL    HW110475   0.980   2.503   1.976
 3192SOL    HW210476   0.912   2.405   2.087
 3193SOL     OW10477   4.588   1.775   6.372
 3193SOL    HW110478   4.651   1.706   6.407
 3193SOL    HW210479   4.525   1.803   6.444
 3194SOL     OW10480   1.478   3.569   5.898
 3194SOL    HW110481   1.570   3.534   5.883
 3194SOL    HW210482   1.429   3.573   5.812
 3195SOL     OW10483   1.364   2.876   3.662
 3195SOL    HW110484   1.320   2.965   3.647
 3195SOL    HW210485   1.371   2.827   3.575
 3196SOL     OW10486   0.415   0.308   4.794
 3196SOL    HW110487   0.442   0.351   4.880
 3196SOL    HW210488   0.361   0.373   4.740
 3197SOL     OW10489   1.113   5.078   3.554
 3197SOL    HW110490   1.205   5.052   3.527
 3197SOL    HW210491   1.100   5.061   3.651
 3198SOL     OW10492   0.293   1.582   6.408
 3198SOL    HW110493   0.313   1.659   6.468
 3198SOL    HW210494   0.361   1.579   6.335
 3199SOL     OW10495   4.542   1.677   2.391
 3199SOL    HW110496   4.634   1.653   2.361
 3199SOL    HW210497   4.530   1.650   2.486
 3200SOL     OW10498   6.563   2.202   0.295
 3200SOL    HW110499   6.659   2.175   0.291
 3200SOL    HW210500   6.534   2.236   0.205
 3201SOL     OW10501   5.082   3.649   3.636
 3201SOL    HW110502   4.990   3.674   3.603
 3201SOL    HW210503   5.075   3.566   3.692
 3202SOL     OW10504   2.002   4.967   2.161
 3202SOL    HW110505   2.063   4.907   2.212
 3202SOL    HW210506   2.046   4.994   2.075
 3203SOL     OW10507   6.793   1.056   1.086
 3203SOL    HW110508   6.809   1.039   1.183
 3203SOL    HW210509   6.696   1.044   1.065
 3204SOL     OW10510   6.951   5.717   2.172
 3204SOL    HW110511   6.988   5.626   2.155
 3204SOL    HW210512   6.960   5.772   2.089
 3205SOL     OW10513   6.955   3.708   5.194
 3205SOL    HW110514   6.909   3.700   5.105
 3205SOL    HW210515   0.034   3.715   5.180
 3206SOL     OW10516   1.327   6.581   5.693
 3206SOL    HW110517   1.402   6.544   5.748
 3206SOL    HW210518   1.357   6.665   5.649
 3207SOL     OW10519   0.762   1.175   4.993
 3207SOL    HW110520   0.846   1.149   5.041
 3207SOL    HW210521   0.695   1.101   5.001
 3208SOL     OW10522   4.565   5.408   5.072
 3208SOL    HW110523   4.660   5.415   5.042
 3208SOL    HW210524   4.559   5.427   5.170
 3209SOL     OW10525   2.557   0.426   4.063
 3209SOL    HW110526   2.467   0.388   4.042
 3209SOL    HW210527   2.619   0.353   4.092
 3210SOL     OW10528   6.590   4.266   2.556
 3210SOL    HW110529   6.555   4.341   2.499
 3210SOL    HW210530   6.677   4.234   2.520
 3211SOL     OW10531   2.076   4.408   1.216
 3211SOL    HW110532   2.019   4.489   1.232
 3211SOL    HW210533   2.074   4.385   1.119
 3212SOL     OW10534   4.811   2.415   6.717
 3212SOL    HW110535   4.865   2.484   6.766
 3212SOL    HW210536   4.765   2.355   6.783
 3213SOL     OW10537   5.728   5.584   2.615
 3213SOL    HW110538   5.767   5.632   2.694
 3213SOL    HW210539   5.771   5.494   2.607
 3214SOL     OW10540   4.413   5.642   6.838
 3214SOL    HW110541   4.454   5.652   6.748
 3214SOL    HW210542   4.320   5.679   6.837
 3215SOL     OW10543   6.100   2.803   6.404
 3215SOL    HW110544   6.052   2.718   6.381
 3215SOL    HW210545   6.034   2.872   6.434
 3216SOL     OW10546   5.722   6.656   3.008
 3216SOL    HW110547   5.729   6.678   3.105
 3216SOL    HW210548   5.639   6.603   2.992
 3217SOL     OW10549   6.957   4.531   2.193
 3217SOL    HW110550   6.996   4.500   2.280
 3217SOL    HW210551   6.962   4.631   2.188
 3218SOL     OW10552   4.179   0.482   3.565
 3218SOL    HW110553   4.138   0.402   3.522
 3218SOL    HW210554   4.124   0.563   3.545
 3219SOL     OW10555   0.533   0.720   3.200
 3219SOL    HW110556   0.565   0.626   3.207
 3219SOL    HW210557   0.568   0.773   3.278
 3220SOL     OW10558   0.207   4.576   5.030
 3220SOL    HW110559   0.131   4.567   4.966
 3220SOL    HW210560   0.209   4.669   5.067
 3221SOL     OW10561   2.911   0.180   3.466
 3221SOL    HW110562   2.899   0.152   3.561
 3221SOL    HW210563   2.878   0.108   3.405
 3222SOL     OW10564   5.691   2.258   3.248
 3222SOL    HW110565   5.756   2.302   3.310
 3222SOL    HW210566   5.611   2.316   3.236
 3223SOL     OW10567   2.384   4.912   6.014
 3223SOL    HW110568   2.411   4.988   6.073
 3223SOL    HW210569   2.356   4.834   6.070
 3224SOL     OW10570   4.179   4.862   0.482
 3224SOL    HW110571   4.212   4.939   0.427
 3224SOL    HW210572   4.161   4.784   0.421
 3225SOL     OW10573   2.840   3.382   0.407
 3225SOL    HW110574   2.807   3.409   0.316
 3225SOL    HW210575   2.939   3.371   0.405
 3226SOL     OW10576   1.425   0.989   4.158
 3226SOL    HW110577   1.431   0.895   4.126
 3226SOL    HW210578   1.433   1.051   4.080
 3227SOL     OW10579   3.830   1.085   5.585
 3227SOL    HW110580   3.806   1.047   5.495
 3227SOL    HW210581   3.872   1.175   5.572
 3228SOL     OW10582   5.229   3.640   4.513
 3228SOL    HW110583   5.206   3.699   4.590
 3228SOL    HW210584   5.149   3.629   4.455
 3229SOL     OW10585   4.474   1.659   5.555
 3229SOL    HW110586   4.534   1.721   5.504
 3229SOL    HW210587   4.381   1.695   5.556
 3230SOL     OW10588   0.553   0.479   3.649
 3230SOL    HW110589   0.562   0.391   3.696
 3230SOL    HW210590   0.517   0.548   3.712
 3231SOL     OW10591   6.059   6.465   0.858
 3231SOL    HW110592   6.150   6.436   0.886
 3231SOL    HW210593   5.998   6.465   0.937
 3232SOL     OW10594   2.876   4.786   4.342
 3232SOL    HW110595   2.950   4.787   4.409
 3232SOL    HW210596   2.790   4.766   4.388
 3233SOL     OW10597   0.670   3.998   1.486
 3233SOL    HW110598   0.631   4.060   1.418
 3233SOL    HW210599   0.758   4.033   1.517
 3234SOL     OW10600   0.415   1.539   6.709
 3234SOL    HW110601   0.401   1.629   6.668
 3234SOL    HW210602   0.437   1.473   6.638
 3235SOL     OW10603   5.494   6.702   2.316
 3235SOL    HW110604   5.443   6.788   2.316
 3235SOL    HW210605   5.436   6.629   2.278
 3236SOL     OW10606   1.072   3.340   2.881
 3236SOL    HW110607   1.091   3.297   2.970
 3236SOL    HW210608   1.089   3.273   2.808
 3237SOL     OW10609   3.164   0.125   5.074
 3237SOL    HW110610   3.208   0.204   5.119
 3237SOL    HW210611   3.199   0.117   4.980
 3238SOL     OW10612   0.292   6.404   6.339
 3238SOL    HW110613   0.296   6.319   6.286
 3238SOL    HW210614   0.295   6.383   6.436
 3239SOL     OW10615   6.702   0.353   5.227
 3239SOL    HW110616   6.725   0.395   5.139
 3239SOL    HW210617   6.662   0.263   5.212
 3240SOL     OW10618   1.707   0.469   4.769
 3240SOL    HW110619   1.715   0.550   4.711
 3240SOL    HW210620   1.669   0.394   4.715
 3241SOL     OW10621   4.800   1.059   4.021
 3241SOL    HW110622   4.708   1.062   3.983
 3241SOL    HW210623   4.867   1.059   3.947
 3242SOL     OW10624   3.941   6.348   6.859
 3242SOL    HW110625   4.015   6.371   6.922
 3242SOL    HW210626   3.870   6.296   6.908
 3243SOL     OW10627   4.410   5.298   1.028
 3243SOL    HW110628   4.333   5.235   1.014
 3243SOL    HW210629   4.388   5.362   1.101
 3244SOL     OW10630   2.986   6.250   6.923
 3244SOL    HW110631   3.074   6.254   6.875
 3244SOL    HW210632   2.928   6.327   6.893
 3245SOL     OW10633   3.678   2.535   6.810
 3245SOL    HW110634   3.739   2.602   6.851
 3245SOL    HW210635   3.716   2.505   6.722
 3246SOL     OW10636   5.234   6.007   2.753
 3246SOL    HW110637   5.146   6.033   2.714
 3246SOL    HW210638   5.277   6.086   2.796
 3247SOL     OW10639   0.643   2.668   3.925
 3247SOL    HW110640   0.702   2.590   3.945
 3247SOL    HW210641   0.692   2.753   3.945
 3248SOL     OW10642   6.135   3.200   1.453
 3248SOL    HW110643   6.208   3.238   1.396
 3248SOL    HW210644   6.059   3.265   1.455
 3249SOL     OW10645   2.739   4.722   4.776
 3249SOL    HW110646   2.657   4.664   4.772
 3249SOL    HW210647   2.790   4.702   4.860
 3250SOL     OW10648   4.843   6.540   2.566
 3250SOL    HW110649   4.749   6.570   2.579
 3250SOL    HW210650   4.905   6.603   2.613
 3251SOL     OW10651   3.595   2.132   3.087
 3251SOL    HW110652   3.651   2.152   3.007
 3251SOL    HW210653   3.498   2.142   3.063
 3252SOL     OW10654   3.030   1.041   2.701
 3252SOL    HW110655   3.034   1.094   2.785
 3252SOL    HW210656   3.022   0.944   2.723
 3253SOL     OW10657   5.086   3.061   1.108
 3253SOL    HW110658   5.140   3.116   1.173
 3253SOL    HW210659   5.119   3.078   1.015
 3254SOL     OW10660   4.616   4.408   3.131
 3254SOL    HW110661   4.576   4.395   3.040
 3254SOL    HW210662   4.542   4.423   3.197
 3255SOL     OW10663   4.855   5.393   0.155
 3255SOL    HW110664   4.841   5.294   0.149
 3255SOL    HW210665   4.943   5.417   0.112
 3256SOL     OW10666   5.409   6.488   5.759
 3256SOL    HW110667   5.316   6.519   5.779
 3256SOL    HW210668   5.463   6.488   5.843
 3257SOL     OW10669   1.802   2.687   1.127
 3257SOL    HW110670   1.751   2.635   1.058
 3257SOL    HW210671   1.794   2.641   1.216
 3258SOL     OW10672   5.478   6.592   1.956
 3258SOL    HW110673   5.454   6.556   2.047
 3258SOL    HW210674   5.403   6.576   1.893
 3259SOL     OW10675   4.307   6.263   3.993
 3259SOL    HW110676   4.238   6.282   3.923
 3259SOL    HW210677   4.267   6.278   4.084
 3260SOL     OW10678   2.013   1.979   6.959
 3260SOL    HW110679   1.924   2.010   6.924
 3260SOL    HW210680   2.079   1.977   6.883
 3261SOL     OW10681   4.304   0.131   1.061
 3261SOL    HW110682   4.372   0.205   1.059
 3261SOL    HW210683   4.221   0.164   1.104
 3262SOL     OW10684   4.164   1.914   3.146
 3262SOL    HW110685   4.086   1.855   3.167
 3262SOL    HW210686   4.151   2.003   3.189
 3263SOL     OW10687   4.319   6.428   1.592
 3263SOL    HW110688   4.308   6.335   1.555
 3263SOL    HW210689   4.414   6.456   1.583
 3264SOL     OW10690   6.449   4.677   6.881
 3264SOL    HW110691   6.353   4.684   6.852
 3264SOL    HW210692   6.496   4.762   6.860
 3265SOL     OW10693   5.121   0.172   6.046
 3265SOL    HW110694   5.074   0.160   5.959
 3265SOL    HW210695   5.163   0.263   6.049
 3266SOL     OW10696   1.124   1.340   6.045
 3266SOL    HW110697   1.055   1.346   6.117
 3266SOL    HW210698   1.091   1.385   5.962
 3267SOL     OW10699   3.488   2.076   1.070
 3267SOL    HW110700   3.481   2.025   0.985
 3267SOL    HW210701   3.563   2.039   1.125
 3268SOL     OW10702   1.232   4.374   6.007
 3268SOL    HW110703   1.194   4.446   6.064
 3268SOL    HW210704   1.332   4.386   6.001
 3269SOL     OW10705   4.308   4.644   1.352
 3269SOL    HW110706   4.387   4.672   1.407
 3269SOL    HW210707   4.332   4.563   1.299
 3270SOL     OW10708   0.785   6.318   4.517
 3270SOL    HW110709   0.821   6.229   4.492
 3270SOL    HW210710   0.860   6.378   4.546
 3271SOL     OW10711   5.955   1.656   1.359
 3271SOL    HW110712   5.870   1.631   1.406
 3271SOL    HW210713   5.946   1.636   1.261
 3272SOL     OW10714   4.134   0.227   0.518
 3272SOL    HW110715   4.049   0.215   0.467
 3272SOL    HW210716   4.173   0.137   0.539
 3273SOL     OW10717   0.082   6.802   2.300
 3273SOL    HW110718   0.064   6.704   2.286
 3273SOL    HW210719   0.021   6.856   2.242
 3274SOL     OW10720   2.961   2.164   5.913
 3274SOL    HW110721   3.026   2.177   5.987
 3274SOL    HW210722   3.010   2.150   5.827
 3275SOL     OW10723   2.559   0.193   6.624
 3275SOL    HW110724   2.659   0.204   6.623
 3275SOL    HW210725   2.521   0.226   6.538
 3276SOL     OW10726   3.344   6.352   0.319
 3276SOL    HW110727   3.442   6.372   0.325
 3276SOL    HW210728   3.304   6.353   0.410
 3277SOL     OW10729   0.145   6.153   5.003
 3277SOL    HW110730   0.170   6.183   4.911
 3277SOL    HW210731   0.208   6.195   5.069
 3278SOL     OW10732   1.264   0.613   6.118
 3278SOL    HW110733   1.267   0.513   6.122
 3278SOL    HW210734   1.296   0.644   6.028
 3279SOL     OW10735   1.181   0.138   1.116
 3279SOL    HW110736   1.189   0.169   1.211
 3279SOL    HW210737   1.098   0.083   1.106
 3280SOL     OW10738   1.818   4.810   5.857
 3280SOL    HW110739   1.792   4.886   5.917
 3280SOL    HW210740   1.908   4.777   5.884
 3281SOL     OW10741   2.432   5.518   0.847
 3281SOL    HW110742   2.379   5.489   0.926
 3281SOL    HW210743   2.373   5.565   0.782
 3282SOL     OW10744   2.386   5.480   3.346
 3282SOL    HW110745   2.332   5.396   3.358
 3282SOL    HW210746   2.448   5.468   3.268
 3283SOL     OW10747   2.681   1.164   3.774
 3283SOL    HW110748   2.642   1.252   3.748
 3283SOL    HW210749   2.690   1.106   3.693
 3284SOL     OW10750   0.043   4.968   6.889
 3284SOL    HW110751   7.015   4.905   6.951
 3284SOL    HW210752   0.011   5.061   6.905
 3285SOL     OW10753   0.795   1.533   3.681
 3285SOL    HW110754   0.723   1.512   3.747
 3285SOL    HW210755   0.866   1.588   3.725
 3286SOL     OW10756   3.479   3.705   4.301
 3286SOL    HW110757   3.520   3.788   4.337
 3286SOL    HW210758   3.545   3.657   4.243
 3287SOL     OW10759   1.522   5.344   0.571
 3287SOL    HW110760   1.588   5.403   0.615
 3287SOL    HW210761   1.474   5.395   0.499
 3288SOL     OW10762   0.754   5.967   6.067
 3288SOL    HW110763   0.813   6.002   5.995
 3288SOL    HW210764   0.734   6.040   6.132
 3289SOL     OW10765   1.403   6.323   4.778
 3289SOL    HW110766   1.420   6.386   4.703
 3289SOL    HW210767   1.443   6.359   4.862
 3290SOL     OW10768   6.708   5.016   1.387
 3290SOL    HW110769   6.648   4.990   1.312
 3290SOL    HW210770   6.656   5.022   1.472
 3291SOL     OW10771   1.375   6.478   0.436
 3291SOL    HW110772   1.471   6.472   0.466
 3291SOL    HW210773   1.315   6.468   0.515
 3292SOL     OW10774   0.084   6.734   5.463
 3292SOL    HW110775   0.069   6.724   5.562
 3292SOL    HW210776   0.166   6.683   5.436
 3293SOL     OW10777   0.062   1.471   2.484
 3293SOL    HW110778   0.005   1.452   2.564
 3293SOL    HW210779   0.004   1.478   2.402
 3294SOL     OW10780   0.004   0.578   0.086
 3294SOL    HW110781   0.037   0.483   0.088
 3294SOL    HW210782   0.070   0.637   0.132
 3295SOL     OW10783   1.841   2.828   0.299
 3295SOL    HW110784   1.791   2.887   0.362
 3295SOL    HW210785   1.841   2.868   0.207
 3296SOL     OW10786   1.991   6.934   2.434
 3296SOL    HW110787   2.067   6.869   2.433
 3296SOL    HW210788   1.996   6.991   2.516
 3297SOL     OW10789   2.874   2.513   6.332
 3297SOL    HW110790   2.898   2.416   6.335
 3297SOL    HW210791   2.890   2.549   6.240
 3298SOL     OW10792   6.543   2.935   3.006
 3298SOL    HW110793   6.447   2.952   3.028
 3298SOL    HW210794   6.594   2.917   3.090
 3299SOL     OW10795   2.031   6.851   4.913
 3299SOL    HW110796   2.021   6.781   4.842
 3299SOL    HW210797   1.965   6.924   4.897
 3300SOL     OW10798   6.299   6.150   4.443
 3300SOL    HW110799   6.354   6.147   4.526
 3300SOL    HW210800   6.244   6.233   4.443
 3301SOL     OW10801   0.824   3.670   3.230
 3301SOL    HW110802   0.805   3.727   3.311
 3301SOL    HW210803   0.821   3.727   3.148
 3302SOL     OW10804   1.203   4.752   3.900
 3302SOL    HW110805   1.252   4.685   3.844
 3302SOL    HW210806   1.174   4.708   3.985
 3303SOL     OW10807   3.734   3.616   3.437
 3303SOL    HW110808   3.818   3.668   3.422
 3303SOL    HW210809   3.689   3.648   3.521
 3304SOL     OW10810   0.348   6.468   4.433
 3304SOL    HW110811   0.254   6.457   4.402
 3304SOL    HW210812   0.349   6.503   4.527
 3305SOL     OW10813   2.258   1.262   2.285
 3305SOL    HW110814   2.258   1.296   2.379
 3305SOL    HW210815   2.352   1.249   2.254
 3306SOL     OW10816   1.419   3.942   3.688
 3306SOL    HW110817   1.516   3.919   3.693
 3306SOL    HW210818   1.402   3.997   3.606
 3307SOL     OW10819   6.865   5.893   6.795
 3307SOL    HW110820   6.820   5.923   6.879
 3307SOL    HW210821   6.964   5.895   6.807
 3308SOL     OW10822   5.033   5.817   0.630
 3308SOL    HW110823   4.989   5.758   0.698
 3308SOL    HW210824   5.047   5.908   0.670
 3309SOL     OW10825   0.182   4.514   2.774
 3309SOL    HW110826   0.250   4.551   2.838
 3309SOL    HW210827   0.099   4.488   2.823
 3310SOL     OW10828   1.022   5.243   2.227
 3310SOL    HW110829   1.013   5.153   2.268
 3310SOL    HW210830   1.041   5.311   2.299
 3311SOL     OW10831   4.203   6.601   0.911
 3311SOL    HW110832   4.223   6.517   0.860
 3311SOL    HW210833   4.109   6.629   0.893
 3312SOL     OW10834   3.346   3.582   6.981
 3312SOL    HW110835   3.269   3.622   6.932
 3312SOL    HW210836   3.426   3.640   6.972
 3313SOL     OW10837   6.790   5.449   3.687
 3313SOL    HW110838   6.772   5.399   3.771
 3313SOL    HW210839   6.820   5.384   3.616
 3314SOL     OW10840   1.267   3.346   5.446
 3314SOL    HW110841   1.361   3.364   5.473
 3314SOL    HW210842   1.258   3.358   5.347
 3315SOL     OW10843   0.067   2.090   3.856
 3315SOL    HW110844   0.129   2.021   3.893
 3315SOL    HW210845   0.115   2.145   3.788
 3316SOL     OW10846   4.717   1.834   6.700
 3316SOL    HW110847   4.714   1.773   6.780
 3316SOL    HW210848   4.804   1.820   6.651
 3317SOL     OW10849   4.415   2.783   0.981
 3317SOL    HW110850   4.434   2.800   0.884
 3317SOL    HW210851   4.387   2.688   0.993
 3318SOL     OW10852   2.557   5.718   5.689
 3318SOL    HW110853   2.598   5.627   5.697
 3318SOL    HW210854   2.630   5.787   5.689
 3319SOL     OW10855   0.645   5.993   5.000
 3319SOL    HW110856   0.571   5.936   4.963
 3319SOL    HW210857   0.689   5.944   5.076
 3320SOL     OW10858   6.313   1.131   5.966
 3320SOL    HW110859   6.230   1.087   5.932
 3320SOL    HW210860   6.310   1.229   5.944
 3321SOL     OW10861   3.414   3.365   3.154
 3321SOL    HW110862   3.324   3.371   3.196
 3321SOL    HW210863   3.408   3.390   3.058
 3322SOL     OW10864   3.601   1.486   0.510
 3322SOL    HW110865   3.659   1.512   0.432
 3322SOL    HW210866   3.613   1.389   0.529
 3323SOL     OW10867   2.188   5.001   0.655
 3323SOL    HW110868   2.224   5.095   0.649
 3323SOL    HW210869   2.094   5.000   0.621
 3324SOL     OW10870   1.170   2.830   0.986
 3324SOL    HW110871   1.263   2.859   1.009
 3324SOL    HW210872   1.125   2.795   1.068
 3325SOL     OW10873   1.314   2.657   1.315
 3325SOL    HW110874   1.370   2.667   1.232
 3325SOL    HW210875   1.232   2.714   1.307
 3326SOL     OW10876   6.240   1.424   0.990
 3326SOL    HW110877   6.160   1.367   1.010
 3326SOL    HW210878   6.214   1.520   0.990
 3327SOL     OW10879   2.878   6.804   2.179
 3327SOL    HW110880   2.834   6.783   2.092
 3327SOL    HW210881   2.964   6.852   2.162
 3328SOL     OW10882   4.817   1.148   1.976
 3328SOL    HW110883   4.795   1.088   2.054
 3328SOL    HW210884   4.808   1.096   1.891
 3329SOL     OW10885   4.815   6.993   5.278
 3329SOL    HW110886   4.767   6.910   5.306
 3329SOL    HW210887   4.795   0.048   5.342
 3330SOL     OW10888   6.429   5.943   2.608
 3330SOL    HW110889   6.489   5.975   2.681
 3330SOL    HW210890   6.397   5.851   2.628
 3331SOL     OW10891   2.064   3.457   2.689
 3331SOL    HW110892   1.995   3.493   2.752
 3331SOL    HW210893   2.117   3.386   2.736
 3332SOL     OW10894   4.283   5.506   1.246
 3332SOL    HW110895   4.359   5.565   1.219
 3332SOL    HW210896   4.210   5.511   1.178
 3333SOL     OW10897   4.012   3.883   1.441
 3333SOL    HW110898   4.049   3.790   1.437
 3333SOL    HW210899   3.969   3.898   1.530
 3334SOL     OW10900   1.671   2.155   2.719
 3334SOL    HW110901   1.764   2.121   2.708
 3334SOL    HW210902   1.668   2.222   2.793
 3335SOL     OW10903   4.110   4.543   5.291
 3335SOL    HW110904   4.109   4.643   5.301
 3335SOL    HW210905   4.169   4.518   5.214
 3336SOL     OW10906   4.755   6.064   4.234
 3336SOL    HW110907   4.806   6.128   4.177
 3336SOL    HW210908   4.819   6.006   4.284
 3337SOL     OW10909   3.492   3.763   3.201
 3337SOL    HW110910   3.402   3.721   3.216
 3337SOL    HW210911   3.525   3.802   3.288
 3338SOL     OW10912   2.130   1.433   1.292
 3338SOL    HW110913   2.151   1.364   1.223
 3338SOL    HW210914   2.184   1.515   1.275
 3339SOL     OW10915   2.164   0.086   5.393
 3339SOL    HW110916   2.142   0.024   5.318
 3339SOL    HW210917   2.254   0.064   5.430
 3340SOL     OW10918   4.189   1.047   4.361
 3340SOL    HW110919   4.184   1.063   4.263
 3340SOL    HW210920   4.154   1.127   4.410
 3341SOL     OW10921   2.373   4.318   3.001
 3341SOL    HW110922   2.348   4.285   2.910
 3341SOL    HW210923   2.336   4.255   3.070
 3342SOL     OW10924   6.823   0.726   2.963
 3342SOL    HW110925   6.848   0.714   3.060
 3342SOL    HW210926   6.906   0.746   2.910
 3343SOL     OW10927   5.170   5.188   6.850
 3343SOL    HW110928   5.099   5.150   6.911
 3343SOL    HW210929   5.181   5.128   6.771
 3344SOL     OW10930   0.441   2.727   3.150
 3344SOL    HW110931   0.473   2.671   3.074
 3344SOL    HW210932   0.520   2.765   3.198
 3345SOL     OW10933   6.918   4.436   0.528
 3345SOL    HW110934   7.008   4.469   0.500
 3345SOL    HW210935   6.869   4.509   0.575
 3346SOL     OW10936   2.255   0.840   0.087
 3346SOL    HW110937   2.310   0.876   0.163
 3346SOL    HW210938   2.315   0.820   0.010
 3347SOL     OW10939   0.194   3.345   6.257
 3347SOL    HW110940   0.118   3.325   6.195
 3347SOL    HW210941   0.263   3.398   6.209
 3348SOL     OW10942   3.935   3.867   5.957
 3348SOL    HW110943   3.856   3.867   6.019
 3348SOL    HW210944   3.989   3.784   5.972
 3349SOL     OW10945   2.364   5.199   3.873
 3349SOL    HW110946   2.356   5.297   3.854
 3349SOL    HW210947   2.395   5.186   3.968
 3350SOL     OW10948   0.414   3.986   5.197
 3350SOL    HW110949   0.379   3.893   5.209
 3350SOL    HW210950   0.510   3.981   5.169
 3351SOL     OW10951   5.608   0.768   1.367
 3351SOL    HW110952   5.592   0.760   1.465
 3351SOL    HW210953   5.638   0.861   1.345
 3352SOL     OW10954   5.121   2.288   6.825
 3352SOL    HW110955   5.201   2.233   6.800
 3352SOL    HW210956   5.147   2.385   6.827
 3353SOL     OW10957   2.773   0.548   1.670
 3353SOL    HW110958   2.796   0.452   1.684
 3353SOL    HW210959   2.854   0.604   1.690
 3354SOL     OW10960   3.625   3.461   6.265
 3354SOL    HW110961   3.682   3.397   6.316
 3354SOL    HW210962   3.649   3.554   6.290
 3355SOL     OW10963   2.402   0.402   5.163
 3355SOL    HW110964   2.397   0.476   5.096
 3355SOL    HW210965   2.479   0.418   5.225
 3356SOL     OW10966   1.797   6.799   5.236
 3356SOL    HW110967   1.844   6.887   5.243
 3356SOL    HW210968   1.844   6.731   5.292
 3357SOL     OW10969   3.366   3.537   1.680
 3357SOL    HW110970   3.445   3.552   1.619
 3357SOL    HW210971   3.310   3.463   1.644
 3358SOL     OW10972   0.161   1.221   2.435
 3358SOL    HW110973   0.149   1.316   2.464
 3358SOL    HW210974   0.232   1.216   2.365
 3359SOL     OW10975   6.548   6.114   4.095
 3359SOL    HW110976   6.544   6.203   4.141
 3359SOL    HW210977   6.576   6.128   4.000
 3360SOL     OW10978   6.996   3.056   5.511
 3360SOL    HW110979   0.064   3.086   5.550
 3360SOL    HW210980   6.952   3.132   5.464
 3361SOL     OW10981   0.358   0.655   4.468
 3361SOL    HW110982   0.439   0.713   4.480
 3361SOL    HW210983   0.279   0.713   4.448
 3362SOL     OW10984   3.730   1.555   3.903
 3362SOL    HW110985   3.799   1.620   3.870
 3362SOL    HW210986   3.773   1.467   3.922
 3363SOL     OW10987   5.655   3.806   0.768
 3363SOL    HW110988   5.733   3.866   0.751
 3363SOL    HW210989   5.675   3.748   0.848
 3364SOL     OW10990   1.803   4.293   4.098
 3364SOL    HW110991   1.850   4.368   4.053
 3364SOL    HW210992   1.847   4.274   4.186
 3365SOL     OW10993   2.135   3.973   3.983
 3365SOL    HW110994   2.044   4.015   3.970
 3365SOL    HW210995   2.141   3.891   3.926
 3366SOL     OW10996   5.607   3.959   4.462
 3366SOL    HW110997   5.512   3.973   4.433
 3366SOL    HW210998   5.608   3.907   4.548
 3367SOL     OW10999   3.888   3.494   3.837
 3367SOL    HW111000   3.844   3.532   3.918
 3367SOL    HW211001   3.897   3.395   3.847
 3368SOL     OW11002   1.222   5.958   0.919
 3368SOL    HW111003   1.261   6.040   0.961
 3368SOL    HW211004   1.292   5.912   0.864
 3369SOL     OW11005   4.403   2.806   1.305
 3369SOL    HW111006   4.374   2.821   1.399
 3369SOL    HW211007   4.334   2.844   1.242
 3370SOL     OW11008   0.488   5.544   2.901
 3370SOL    HW111009   0.398   5.547   2.943
 3370SOL    HW211010   0.536   5.630   2.919
 3371SOL     OW11011   1.651   2.936   3.298
 3371SOL    HW111012   1.653   2.940   3.198
 3371SOL    HW211013   1.576   2.992   3.332
 3372SOL     OW11014   6.773   3.840   1.571
 3372SOL    HW111015   6.735   3.932   1.564
 3372SOL    HW211016   6.702   3.777   1.602
 3373SOL     OW11017   0.038   2.959   1.419
 3373SOL    HW111018   6.967   2.926   1.394
 3373SOL    HW211019   0.106   2.887   1.404
 3374SOL     OW11020   0.344   0.492   4.243
 3374SOL    HW111021   0.277   0.421   4.264
 3374SOL    HW211022   0.332   0.569   4.305
 3375SOL     OW11023   6.508   5.190   5.913
 3375SOL    HW111024   6.486   5.263   5.978
 3375SOL    HW211025   6.438   5.119   5.917
 3376SOL     OW11026   2.703   3.912   5.216
 3376SOL    HW111027   2.751   3.871   5.139
 3376SOL    HW211028   2.606   3.887   5.212
 3377SOL     OW11029   6.088   4.232   3.254
 3377SOL    HW111030   6.143   4.305   3.295
 3377SOL    HW211031   6.002   4.269   3.220
 3378SOL     OW11032   1.018   6.260   0.350
 3378SOL    HW111033   1.017   6.343   0.406
 3378SOL    HW211034   1.094   6.265   0.285
 3379SOL     OW11035   6.417   4.463   3.798
 3379SOL    HW111036   6.461   4.550   3.819
 3379SOL    HW211037   6.419   4.404   3.880
 3380SOL     OW11038   3.122   4.192   6.526
 3380SOL    HW111039   3.077   4.282   6.521
 3380SOL    HW211040   3.101   4.139   6.444
 3381SOL     OW11041   1.347   3.808   0.813
 3381SOL    HW111042   1.307   3.717   0.806
 3381SOL    HW211043   1.378   3.824   0.907
 3382SOL     OW11044   0.165   2.678   1.483
 3382SOL    HW111045   0.081   2.632   1.454
 3382SOL    HW211046   0.236   2.611   1.502
 3383SOL     OW11047   5.468   5.208   0.377
 3383SOL    HW111048   5.531   5.243   0.309
 3383SOL    HW211049   5.514   5.139   0.433
 3384SOL     OW11050   2.504   4.860   0.135
 3384SOL    HW111051   2.457   4.832   0.219
 3384SOL    HW211052   2.554   4.782   0.097
 3385SOL     OW11053   0.397   1.853   3.739
 3385SOL    HW111054   0.470   1.918   3.720
 3385SOL    HW211055   0.384   1.794   3.661
 3386SOL     OW11056   6.610   4.525   6.310
 3386SOL    HW111057   6.635   4.440   6.262
 3386SOL    HW211058   6.682   4.593   6.298
 3387SOL     OW11059   6.342   0.624   3.727
 3387SOL    HW111060   6.339   0.554   3.655
 3387SOL    HW211061   6.303   0.586   3.811
 3388SOL     OW11062   6.286   3.421   1.259
 3388SOL    HW111063   6.370   3.369   1.244
 3388SOL    HW211064   6.299   3.484   1.336
 3389SOL     OW11065   6.445   6.215   0.684
 3389SOL    HW111066   6.415   6.286   0.620
 3389SOL    HW211067   6.530   6.244   0.729
 3390SOL     OW11068   3.836   6.738   6.110
 3390SOL    HW111069   3.888   6.735   6.025
 3390SOL    HW211070   3.820   6.834   6.136
 3391SOL     OW11071   5.596   3.157   4.181
 3391SOL    HW111072   5.506   3.114   4.188
 3391SOL    HW211073   5.590   3.236   4.120
 3392SOL     OW11074   4.437   6.395   5.870
 3392SOL    HW111075   4.510   6.464   5.866
 3392SOL    HW211076   4.375   6.418   5.946
 3393SOL     OW11077   5.049   5.929   1.375
 3393SOL    HW111078   5.067   5.875   1.458
 3393SOL    HW211079   5.090   5.883   1.296
 3394SOL     OW11080   2.966   5.526   1.575
 3394SOL    HW111081   2.997   5.443   1.528
 3394SOL    HW211082   2.869   5.540   1.555
 3395SOL     OW11083   2.825   0.421   3.434
 3395SOL    HW111084   2.824   0.451   3.338
 3395SOL    HW211085   2.853   0.325   3.439
 3396SOL     OW11086   4.483   2.147   4.294
 3396SOL    HW111087   4.571   2.166   4.338
 3396SOL    HW211088   4.498   2.090   4.213
 3397SOL     OW11089   2.340   5.562   0.501
 3397SOL    HW111090   2.367   5.479   0.452
 3397SOL    HW211091   2.421   5.617   0.521
 3398SOL     OW11092   6.730   1.762   4.251
 3398SOL    HW111093   6.700   1.853   4.278
 3398SOL    HW211094   6.685   1.694   4.308
 3399SOL     OW11095   6.558   5.305   2.415
 3399SOL    HW111096   6.598   5.397   2.417
 3399SOL    HW211097   6.528   5.284   2.322
 3400SOL     OW11098   5.566   1.813   6.087
 3400SOL    HW111099   5.535   1.837   5.995
 3400SOL    HW211100   5.491   1.828   6.152
 3401SOL     OW11101   6.876   3.290   5.385
 3401SOL    HW111102   6.803   3.338   5.336
 3401SOL    HW211103   6.965   3.326   5.355
 3402SOL     OW11104   6.707   4.105   1.617
 3402SOL    HW111105   6.689   4.102   1.518
 3402SOL    HW211106   6.726   4.199   1.644
 3403SOL     OW11107   4.666   6.209   0.175
 3403SOL    HW111108   4.722   6.293   0.169
 3403SOL    HW211109   4.591   6.224   0.238
 3404SOL     OW11110   5.210   3.965   4.830
 3404SOL    HW111111   5.254   3.893   4.776
 3404SOL    HW211112   5.268   3.987   4.909
 3405SOL     OW11113   5.221   5.747   5.622
 3405SOL    HW111114   5.136   5.760   5.571
 3405SOL    HW211115   5.298   5.752   5.558
 3406SOL     OW11116   2.027   4.865   1.712
 3406SOL    HW111117   2.004   4.947   1.659
 3406SOL    HW211118   2.116   4.879   1.757
 3407SOL     OW11119   1.155   3.692   0.496
 3407SOL    HW111120   1.254   3.685   0.496
 3407SOL    HW211121   1.125   3.744   0.576
 3408SOL     OW11122   5.035   2.674   3.705
 3408SOL    HW111123   5.067   2.748   3.646
 3408SOL    HW211124   5.052   2.586   3.660
 3409SOL     OW11125   4.601   0.337   0.604
 3409SOL    HW111126   4.518   0.283   0.616
 3409SOL    HW211127   4.636   0.324   0.511
 3410SOL     OW11128   5.029   0.119   2.504
 3410SOL    HW111129   5.112   0.148   2.552
 3410SOL    HW211130   5.027   0.162   2.414
 3411SOL     OW11131   6.421   2.602   0.562
 3411SOL    HW111132   6.346   2.624   0.624
 3411SOL    HW211133   6.384   2.560   0.479
 3412SOL     OW11134   5.240   3.466   1.339
 3412SOL    HW111135   5.145   3.483   1.314
 3412SOL    HW211136   5.298   3.540   1.306
 3413SOL     OW11137   0.022   2.759   6.096
 3413SOL    HW111138   6.996   2.750   6.185
 3413SOL    HW211139   0.074   2.676   6.077
 3414SOL     OW11140   3.337   3.853   0.858
 3414SOL    HW111141   3.269   3.866   0.786
 3414SOL    HW211142   3.429   3.865   0.820
 3415SOL     OW11143   2.349   2.689   5.590
 3415SOL    HW111144   2.306   2.771   5.553
 3415SOL    HW211145   2.388   2.710   5.680
 3416SOL     OW11146   5.850   6.770   6.331
 3416SOL    HW111147   5.932   6.824   6.314
 3416SOL    HW211148   5.797   6.811   6.405
 3417SOL     OW11149   6.509   0.140   2.715
 3417SOL    HW111150   6.411   0.136   2.698
 3417SOL    HW211151   6.528   0.108   2.808
 3418SOL     OW11152   5.068   4.554   0.914
 3418SOL    HW111153   5.131   4.526   0.986
 3418SOL    HW211154   5.054   4.478   0.850
 3419SOL     OW11155   2.955   6.139   5.710
 3419SOL    HW111156   2.960   6.048   5.752
 3419SOL    HW211157   2.960   6.129   5.610
 3420SOL     OW11158   4.364   2.352   3.125
 3420SOL    HW111159   4.432   2.425   3.125
 3420SOL    HW211160   4.339   2.328   3.219
 3421SOL     OW11161   6.303   2.410   3.258
 3421SOL    HW111162   6.204   2.418   3.267
 3421SOL    HW211163   6.325   2.366   3.171
 3422SOL     OW11164   2.482   0.118   1.055
 3422SOL    HW111165   2.507   0.169   1.137
 3422SOL    HW211166   2.565   0.088   1.008
 3423SOL     OW11167   1.200   4.835   6.051
 3423SOL    HW111168   1.166   4.917   6.006
 3423SOL    HW211169   1.232   4.858   6.143
 3424SOL     OW11170   4.446   0.618   1.819
 3424SOL    HW111171   4.439   0.549   1.892
 3424SOL    HW211172   4.378   0.689   1.834
 3425SOL     OW11173   5.722   3.618   0.967
 3425SOL    HW111174   5.800   3.638   1.025
 3425SOL    HW211175   5.716   3.519   0.953
 3426SOL     OW11176   5.513   3.065   6.869
 3426SOL    HW111177   5.611   3.084   6.868
 3426SOL    HW211178   5.492   2.989   6.807
 3427SOL     OW11179   1.488   2.563   0.534
 3427SOL    HW111180   1.462   2.659   0.520
 3427SOL    HW211181   1.568   2.542   0.478
 3428SOL     OW11182   4.528   5.895   6.266
 3428SOL    HW111183   4.628   5.899   6.274
 3428SOL    HW211184   4.487   5.964   6.326
 3429SOL     OW11185   6.650   0.261   1.076
 3429SOL    HW111186   6.726   0.272   1.139
 3429SOL    HW211187   6.606   0.350   1.060
 3430SOL     OW11188   2.180   4.477   5.210
 3430SOL    HW111189   2.127   4.393   5.216
 3430SOL    HW211190   2.276   4.457   5.225
 3431SOL     OW11191   1.694   5.813   3.342
 3431SOL    HW111192   1.635   5.831   3.264
 3431SOL    HW211193   1.737   5.723   3.331
 3432SOL     OW11194   1.794   4.262   1.118
 3432SOL    HW111195   1.880   4.283   1.071
 3432SOL    HW211196   1.747   4.188   1.069
 3433SOL     OW11197   2.409   1.357   6.821
 3433SOL    HW111198   2.422   1.260   6.842
 3433SOL    HW211199   2.330   1.392   6.871
 3434SOL     OW11200   3.205   2.484   0.683
 3434SOL    HW111201   3.226   2.540   0.763
 3434SOL    HW211202   3.225   2.388   0.704
 3435SOL     OW11203   2.513   0.410   0.314
 3435SOL    HW111204   2.579   0.419   0.240
 3435SOL    HW211205   2.438   0.476   0.300
 3436SOL     OW11206   3.079   5.975   0.012
 3436SOL    HW111207   3.000   5.952   0.068
 3436SOL    HW211208   3.050   6.004   6.941
 3437SOL     OW11209   1.640   6.458   6.550
 3437SOL    HW111210   1.638   6.492   6.644
 3437SOL    HW211211   1.732   6.425   6.529
 3438SOL     OW11212   1.254   4.003   1.443
 3438SOL    HW111213   1.297   4.093   1.443
 3438SOL    HW211214   1.294   3.947   1.515
 3439SOL     OW11215   2.365   5.168   2.199
 3439SOL    HW111216   2.323   5.108   2.131
 3439SOL    HW211217   2.401   5.250   2.154
 3440SOL     OW11218   3.844   3.658   4.623
 3440SOL    HW111219   3.781   3.589   4.588
 3440SOL    HW211220   3.923   3.613   4.665
 3441SOL     OW11221   5.441   5.131   5.758
 3441SOL    HW111222   5.372   5.073   5.714
 3441SOL    HW211223   5.396   5.197   5.818
 3442SOL     OW11224   3.410   3.176   0.737
 3442SOL    HW111225   3.406   3.275   0.722
 3442SOL    HW211226   3.500   3.151   0.772
 3443SOL     OW11227   1.567   6.739   2.192
 3443SOL    HW111228   1.480   6.690   2.208
 3443SOL    HW211229   1.643   6.676   2.209
 3444SOL     OW11230   6.239   3.683   0.403
 3444SOL    HW111231   6.148   3.697   0.365
 3444SOL    HW211232   6.272   3.769   0.442
 3445SOL     OW11233   5.980   4.542   2.947
 3445SOL    HW111234   5.994   4.508   3.040
 3445SOL    HW211235   6.069   4.566   2.907
 3446SOL     OW11236   5.050   1.087   1.247
 3446SOL    HW111237   4.975   1.143   1.212
 3446SOL    HW211238   5.113   1.144   1.299
 3447SOL     OW11239   5.607   1.329   6.967
 3447SOL    HW111240   5.568   1.241   6.942
 3447SOL    HW211241   5.539   1.383   7.016
 3448SOL     OW11242   1.608   6.184   4.985
 3448SOL    HW111243   1.550   6.134   4.920
 3448SOL    HW211244   1.577   6.278   4.991
 3449SOL     OW11245   6.867   4.151   5.189
 3449SOL    HW111246   6.830   4.236   5.152
 3449SOL    HW211247   6.886   4.087   5.114
 3450SOL     OW11248   1.423   6.448   1.282
 3450SOL    HW111249   1.397   6.422   1.375
 3450SOL    HW211250   1.468   6.537   1.284
 3451SOL     OW11251   2.331   0.876   1.487
 3451SOL    HW111252   2.430   0.882   1.485
 3451SOL    HW211253   2.303   0.780   1.485
 3452SOL     OW11254   4.553   6.934   4.943
 3452SOL    HW111255   4.599   6.866   5.000
 3452SOL    HW211256   4.515   7.006   5.002
 3453SOL     OW11257   4.409   6.183   6.267
 3453SOL    HW111258   4.383   6.272   6.230
 3453SOL    HW211259   4.475   6.195   6.340
 3454SOL     OW11260   1.021   2.695   1.634
 3454SOL    HW111261   0.938   2.747   1.614
 3454SOL    HW211262   1.100   2.756   1.630
 3455SOL     OW11263   0.678   3.112   5.590
 3455SOL    HW111264   0.657   3.188   5.651
 3455SOL    HW211265   0.656   3.138   5.496
 3456SOL     OW11266   5.601   4.332   2.258
 3456SOL    HW111267   5.504   4.310   2.243
 3456SOL    HW211268   5.623   4.418   2.212
 3457SOL     OW11269   3.978   5.031   5.889
 3457SOL    HW111270   3.967   5.002   5.794
 3457SOL    HW211271   4.053   4.980   5.931
 3458SOL     OW11272   4.113   1.142   2.792
 3458SOL    HW111273   4.105   1.221   2.852
 3458SOL    HW211274   4.123   1.173   2.697
 3459SOL     OW11275   4.767   6.526   3.067
 3459SOL    HW111276   4.739   6.564   2.978
 3459SOL    HW211277   4.693   6.472   3.105
 3460SOL     OW11278   4.161   1.363   5.134
 3460SOL    HW111279   4.163   1.267   5.162
 3460SOL    HW211280   4.206   1.373   5.045
 3461SOL     OW11281   6.114   5.511   5.079
 3461SOL    HW111282   6.123   5.537   5.176
 3461SOL    HW211283   6.147   5.587   5.022
 3462SOL     OW11284   1.510   4.140   6.925
 3462SOL    HW111285   1.580   4.169   6.860
 3462SOL    HW211286   1.486   4.044   6.909
 3463SOL     OW11287   6.144   4.314   1.027
 3463SOL    HW111288   6.232   4.363   1.028
 3463SOL    HW211289   6.159   4.219   1.001
 3464SOL     OW11290   6.731   4.947   6.110
 3464SOL    HW111291   6.754   4.869   6.168
 3464SOL    HW211292   6.696   5.021   6.166
 3465SOL     OW11293   1.965   0.612   1.098
 3465SOL    HW111294   2.031   0.544   1.068
 3465SOL    HW211295   1.873   0.585   1.069
 3466SOL     OW11296   6.716   4.338   5.076
 3466SOL    HW111297   6.635   4.372   5.123
 3466SOL    HW211298   6.789   4.406   5.083
 3467SOL     OW11299   1.787   2.114   6.838
 3467SOL    HW111300   1.704   2.122   6.783
 3467SOL    HW211301   1.846   2.194   6.822
 3468SOL     OW11302   3.149   6.726   4.137
 3468SOL    HW111303   3.080   6.798   4.140
 3468SOL    HW211304   3.162   6.688   4.229
 3469SOL     OW11305   5.460   2.417   2.501
 3469SOL    HW111306   5.449   2.371   2.589
 3469SOL    HW211307   5.512   2.357   2.439
 3470SOL     OW11308   0.349   5.850   1.158
 3470SOL    HW111309   0.315   5.944   1.154
 3470SOL    HW211310   0.402   5.837   1.241
 3471SOL     OW11311   3.883   6.431   4.509
 3471SOL    HW111312   3.885   6.497   4.433
 3471SOL    HW211313   3.793   6.388   4.513
 3472SOL     OW11314   3.197   1.188   5.427
 3472SOL    HW111315   3.219   1.158   5.335
 3472SOL    HW211316   3.183   1.108   5.486
 3473SOL     OW11317   5.256   0.419   6.067
 3473SOL    HW111318   5.223   0.504   6.026
 3473SOL    HW211319   5.322   0.376   6.006
 3474SOL     OW11320   5.021   5.469   1.044
 3474SOL    HW111321   5.062   5.378   1.040
 3474SOL    HW211322   5.081   5.530   1.095
 3475SOL     OW11323   1.510   5.821   4.411
 3475SOL    HW111324   1.487   5.912   4.377
 3475SOL    HW211325   1.437   5.790   4.473
 3476SOL     OW11326   5.078   0.492   4.462
 3476SOL    HW111327   5.110   0.489   4.367
 3476SOL    HW211328   4.986   0.531   4.465
 3477SOL     OW11329   3.955   6.209   1.259
 3477SOL    HW111330   4.014   6.174   1.332
 3477SOL    HW211331   3.884   6.267   1.298
 3478SOL     OW11332   4.043   4.693   0.686
 3478SOL    HW111333   4.070   4.772   0.631
 3478SOL    HW211334   3.997   4.626   0.628
 3479SOL     OW11335   0.775   0.677   2.303
 3479SOL    HW111336   0.843   0.605   2.290
 3479SOL    HW211337   0.696   0.659   2.244
 3480SOL     OW11338   0.868   1.265   3.440
 3480SOL    HW111339   0.888   1.185   3.496
 3480SOL    HW211340   0.939   1.276   3.371
 3481SOL     OW11341   2.381   6.386   0.186
 3481SOL    HW111342   2.333   6.302   0.211
 3481SOL    HW211343   2.398   6.440   0.269
 3482SOL     OW11344   0.618   2.421   0.603
 3482SOL    HW111345   0.697   2.406   0.544
 3482SOL    HW211346   0.544   2.463   0.551
 3483SOL     OW11347   3.109   6.992   1.454
 3483SOL    HW111348   3.174   0.048   1.462
 3483SOL    HW211349   3.018   0.005   1.480
 3484SOL     OW11350   3.718   4.102   3.583
 3484SOL    HW111351   3.727   4.194   3.620
 3484SOL    HW211352   3.621   4.082   3.567
 3485SOL     OW11353   1.161   2.479   5.206
 3485SOL    HW111354   1.241   2.537   5.192
 3485SOL    HW211355   1.185   2.403   5.266
 3486SOL     OW11356   4.381   1.878   1.946
 3486SOL    HW111357   4.405   1.810   1.877
 3486SOL    HW211358   4.326   1.835   2.018
 3487SOL     OW11359   6.448   1.064   6.927
 3487SOL    HW111360   6.425   1.022   6.839
 3487SOL    HW211361   6.546   1.081   6.931
 3488SOL     OW11362   5.383   3.456   3.766
 3488SOL    HW111363   5.381   3.548   3.727
 3488SOL    HW211364   5.291   3.431   3.796
 3489SOL     OW11365   3.457   6.959   1.192
 3489SOL    HW111366   3.496   6.948   1.284
 3489SOL    HW211367   3.364   6.922   1.190
 3490SOL     OW11368   3.999   4.110   6.930
 3490SOL    HW111369   4.021   4.197   6.975
 3490SOL    HW211370   3.936   4.058   6.987
 3491SOL     OW11371   0.286   3.178   4.718
 3491SOL    HW111372   0.374   3.146   4.753
 3491SOL    HW211373   0.257   3.259   4.769
 3492SOL     OW11374   6.835   4.269   6.882
 3492SOL    HW111375   6.744   4.259   6.923
 3492SOL    HW211376   6.851   4.366   6.862
 3493SOL     OW11377   6.429   4.366   0.778
 3493SOL    HW111378   6.454   4.403   0.689
 3493SOL    HW211379   6.409   4.269   0.770
 3494SOL     OW11380   3.242   0.344   0.640
 3494SOL    HW111381   3.260   0.361   0.543
 3494SOL    HW211382   3.263   0.248   0.661
 3495SOL     OW11383   5.248   4.866   0.495
 3495SOL    HW111384   5.225   4.950   0.447
 3495SOL    HW211385   5.198   4.862   0.582
 3496SOL     OW11386   2.347   2.921   1.060
 3496SOL    HW111387   2.433   2.883   1.096
 3496SOL    HW211388   2.271   2.891   1.117
 3497SOL     OW11389   4.564   0.235   3.617
 3497SOL    HW111390   4.599   0.224   3.525
 3497SOL    HW211391   4.547   0.145   3.657
 3498SOL     OW11392   2.693   1.464   2.078
 3498SOL    HW111393   2.668   1.554   2.044
 3498SOL    HW211394   2.712   1.469   2.176
 3499SOL     OW11395   6.514   3.117   3.855
 3499SOL    HW111396   6.530   3.215   3.870
 3499SOL    HW211397   6.598   3.067   3.873
 3500SOL     OW11398   6.151   3.518   6.920
 3500SOL    HW111399   6.121   3.595   6.976
 3500SOL    HW211400   6.241   3.486   6.951
 3501SOL     OW11401   1.645   4.609   4.471
 3501SOL    HW111402   1.597   4.661   4.401
 3501SOL    HW211403   1.619   4.643   4.562
 3502SOL     OW11404   1.023   3.032   1.395
 3502SOL    HW111405   1.010   3.126   1.364
 3502SOL    HW211406   0.959   3.012   1.470
 3503SOL     OW11407   5.068   6.050   4.678
 3503SOL    HW111408   4.992   6.099   4.636
 3503SOL    HW211409   5.106   5.985   4.612
 3504SOL     OW11410   2.187   3.302   1.729
 3504SOL    HW111411   2.240   3.367   1.782
 3504SOL    HW211412   2.110   3.349   1.684
 3505SOL     OW11413   5.512   4.888   5.369
 3505SOL    HW111414   5.451   4.845   5.435
 3505SOL    HW211415   5.594   4.831   5.356
 3506SOL     OW11416   4.602   5.373   3.055
 3506SOL    HW111417   4.624   5.292   3.001
 3506SOL    HW211418   4.672   5.443   3.040
 3507SOL     OW11419   1.031   6.887   6.187
 3507SOL    HW111420   1.025   6.848   6.279
 3507SOL    HW211421   0.957   6.954   6.175
 3508SOL     OW11422   5.879   3.418   6.965
 3508SOL    HW111423   5.978   3.428   6.960
 3508SOL    HW211424   5.850   3.343   6.906
 3509SOL     OW11425   6.682   6.820   0.932
 3509SOL    HW111426   6.632   6.792   0.851
 3509SOL    HW211427   6.768   6.865   0.905
 3510SOL     OW11428   2.138   2.988   2.179
 3510SOL    HW111429   2.140   3.013   2.276
 3510SOL    HW211430   2.194   2.906   2.165
 3511SOL     OW11431   0.939   1.899   6.321
 3511SOL    HW111432   0.928   1.999   6.315
 3511SOL    HW211433   0.950   1.861   6.229
 3512SOL     OW11434   2.501   3.213   0.802
 3512SOL    HW111435   2.548   3.228   0.889
 3512SOL    HW211436   2.556   3.252   0.728
 3513SOL     OW11437   6.369   5.024   1.298
 3513SOL    HW111438   6.382   4.928   1.320
 3513SOL    HW211439   6.353   5.034   1.200
 3514SOL     OW11440   0.598   6.167   1.203
 3514SOL    HW111441   0.658   6.151   1.125
 3514SOL    HW211442   0.637   6.238   1.261
 3515SOL     OW11443   2.699   6.334   3.804
 3515SOL    HW111444   2.666   6.317   3.896
 3515SOL    HW211445   2.707   6.433   3.789
 3516SOL     OW11446   2.965   1.261   1.137
 3516SOL    HW111447   2.972   1.323   1.058
 3516SOL    HW211448   3.012   1.175   1.117
 3517SOL     OW11449   0.871   0.983   6.155
 3517SOL    HW111450   0.933   0.944   6.088
 3517SOL    HW211451   0.829   0.909   6.208
 3518SOL     OW11452   3.952   2.956   5.702
 3518SOL    HW111453   3.943   3.052   5.675
 3518SOL    HW211454   3.927   2.947   5.798
 3519SOL     OW11455   1.691   6.134   0.493
 3519SOL    HW111456   1.643   6.096   0.414
 3519SOL    HW211457   1.673   6.078   0.573
 3520SOL     OW11458   4.293   6.073   0.915
 3520SOL    HW111459   4.364   6.049   0.982
 3520SOL    HW211460   4.235   6.146   0.953
 3521SOL     OW11461   5.714   3.168   0.693
 3521SOL    HW111462   5.774   3.243   0.664
 3521SOL    HW211463   5.771   3.088   0.716
 3522SOL     OW11464   3.032   4.808   2.016
 3522SOL    HW111465   2.934   4.817   2.037
 3522SOL    HW211466   3.078   4.760   2.090
 3523SOL     OW11467   2.175   4.906   5.408
 3523SOL    HW111468   2.180   4.859   5.320
 3523SOL    HW211469   2.118   4.854   5.470
 3524SOL     OW11470   2.930   0.449   0.474
 3524SOL    HW111471   2.831   0.465   0.479
 3524SOL    HW211472   2.973   0.481   0.558
 3525SOL     OW11473   0.983   2.460   2.801
 3525SOL    HW111474   1.024   2.394   2.738
 3525SOL    HW211475   0.962   2.544   2.751
 3526SOL     OW11476   2.290   1.289   2.541
 3526SOL    HW111477   2.212   1.241   2.580
 3526SOL    HW211478   2.374   1.241   2.564
 3527SOL     OW11479   5.205   2.559   5.773
 3527SOL    HW111480   5.189   2.463   5.795
 3527SOL    HW211481   5.275   2.596   5.835
 3528SOL     OW11482   0.183   6.788   4.633
 3528SOL    HW111483   0.107   6.825   4.580
 3528SOL    HW211484   0.258   6.764   4.571
 3529SOL     OW11485   3.639   6.218   6.395
 3529SOL    HW111486   3.681   6.152   6.457
 3529SOL    HW211487   3.694   6.301   6.392
 3530SOL     OW11488   1.729   6.209   3.501
 3530SOL    HW111489   1.780   6.129   3.467
 3530SOL    HW211490   1.775   6.247   3.580
 3531SOL     OW11491   5.041   3.542   6.801
 3531SOL    HW111492   5.019   3.518   6.706
 3531SOL    HW211493   5.098   3.624   6.802
 3532SOL     OW11494   1.800   6.697   0.108
 3532SOL    HW111495   1.770   6.770   0.046
 3532SOL    HW211496   1.812   6.612   0.056
 3533SOL     OW11497   1.617   1.353   3.121
 3533SOL    HW111498   1.549   1.358   3.194
 3533SOL    HW211499   1.674   1.435   3.123
 3534SOL     OW11500   5.291   0.938   4.727
 3534SOL    HW111501   5.195   0.956   4.706
 3534SOL    HW211502   5.297   0.870   4.799
 3535SOL     OW11503   5.548   5.231   6.268
 3535SOL    HW111504   5.631   5.226   6.324
 3535SOL    HW211505   5.544   5.152   6.208
 3536SOL     OW11506   1.075   4.140   3.390
 3536SOL    HW111507   0.992   4.156   3.337
 3536SOL    HW211508   1.141   4.212   3.370
 3537SOL     OW11509   2.154   5.409   1.102
 3537SOL    HW111510   2.230   5.469   1.128
 3537SOL    HW211511   2.160   5.325   1.155
 3538SOL     OW11512   2.602   1.208   4.491
 3538SOL    HW111513   2.645   1.146   4.425
 3538SOL    HW211514   2.629   1.182   4.583
 3539SOL     OW11515   5.299   5.316   5.900
 3539SOL    HW111516   5.295   5.377   5.821
 3539SOL    HW211517   5.328   5.367   5.980
 3540SOL     OW11518   2.923   3.720   6.567
 3540SOL    HW111519   2.962   3.720   6.475
 3540SOL    HW211520   2.914   3.814   6.599
 3541SOL     OW11521   3.171   2.659   0.916
 3541SOL    HW111522   3.089   2.671   0.860
 3541SOL    HW211523   3.219   2.746   0.926
 3542SOL     OW11524   5.516   2.122   6.214
 3542SOL    HW111525   5.479   2.207   6.253
 3542SOL    HW211526   5.555   2.066   6.288
 3543SOL     OW11527   1.134   2.601   3.576
 3543SOL    HW111528   1.098   2.519   3.531
 3543SOL    HW211529   1.233   2.591   3.589
 3544SOL     OW11530   2.455   4.510   6.317
 3544SOL    HW111531   2.472   4.414   6.295
 3544SOL    HW211532   2.507   4.568   6.255
 3545SOL     OW11533   3.567   6.902   1.502
 3545SOL    HW111534   3.653   6.924   1.550
 3545SOL    HW211535   3.558   6.803   1.495
 3546SOL     OW11536   6.980   3.897   3.504
 3546SOL    HW111537   6.976   3.804   3.467
 3546SOL    HW211538   6.894   3.918   3.551
 3547SOL     OW11539   0.655   4.132   5.600
 3547SOL    HW111540   0.735   4.186   5.626
 3547SOL    HW211541   0.619   4.085   5.681
 3548SOL     OW11542   6.319   0.584   5.274
 3548SOL    HW111543   6.413   0.574   5.308
 3548SOL    HW211544   6.259   0.612   5.349
 3549SOL     OW11545   2.841   6.072   0.163
 3549SOL    HW111546   2.787   6.020   0.229
 3549SOL    HW211547   2.785   6.095   0.084
 3550SOL     OW11548   5.537   0.973   4.976
 3550SOL    HW111549   5.531   1.073   4.985
 3550SOL    HW211550   5.573   0.935   5.061
 3551SOL     OW11551   4.273   1.678   4.054
 3551SOL    HW111552   4.331   1.756   4.078
 3551SOL    HW211553   4.177   1.701   4.069
 3552SOL     OW11554   0.617   6.383   2.993
 3552SOL    HW111555   0.576   6.405   2.905
 3552SOL    HW211556   0.700   6.438   3.006
 3553SOL     OW11557   5.145   5.314   0.092
 3553SOL    HW111558   5.181   5.391   0.145
 3553SOL    HW211559   5.195   5.307   0.006
 3554SOL     OW11560   5.292   3.248   1.172
 3554SOL    HW111561   5.266   3.270   1.078
 3554SOL    HW211562   5.298   3.332   1.225
 3555SOL     OW11563   2.341   1.937   5.667
 3555SOL    HW111564   2.367   1.841   5.660
 3555SOL    HW211565   2.407   1.994   5.619
 3556SOL     OW11566   5.026   0.730   5.603
 3556SOL    HW111567   4.977   0.790   5.540
 3556SOL    HW211568   5.046   0.779   5.688
 3557SOL     OW11569   6.578   1.150   1.425
 3557SOL    HW111570   6.509   1.212   1.461
 3557SOL    HW211571   6.553   1.122   1.332
 3558SOL     OW11572   3.180   6.327   2.148
 3558SOL    HW111573   3.133   6.289   2.068
 3558SOL    HW211574   3.230   6.409   2.121
 3559SOL     OW11575   4.091   6.098   5.074
 3559SOL    HW111576   4.031   6.031   5.030
 3559SOL    HW211577   4.046   6.135   5.155
 3560SOL     OW11578   2.357   5.584   4.304
 3560SOL    HW111579   2.417   5.588   4.384
 3560SOL    HW211580   2.360   5.671   4.255
 3561SOL     OW11581   4.961   3.990   5.481
 3561SOL    HW111582   4.915   4.069   5.442
 3561SOL    HW211583   4.935   3.980   5.577
 3562SOL     OW11584   2.318   1.306   5.603
 3562SOL    HW111585   2.268   1.313   5.689
 3562SOL    HW211586   2.400   1.251   5.617
 3563SOL     OW11587   5.851   2.725   5.005
 3563SOL    HW111588   5.799   2.662   5.063
 3563SOL    HW211589   5.943   2.689   4.992
 3564SOL     OW11590   6.516   4.002   2.104
 3564SOL    HW111591   6.616   3.993   2.106
 3564SOL    HW211592   6.486   4.026   2.012
 3565SOL     OW11593   3.955   5.673   3.296
 3565SOL    HW111594   3.961   5.643   3.391
 3565SOL    HW211595   4.014   5.616   3.239
 3566SOL     OW11596   1.485   0.644   5.504
 3566SOL    HW111597   1.511   0.594   5.586
 3566SOL    HW211598   1.508   0.590   5.423
 3567SOL     OW11599   0.647   4.065   6.107
 3567SOL    HW111600   0.605   4.119   6.180
 3567SOL    HW211601   0.627   3.968   6.123
 3568SOL     OW11602   6.003   3.746   6.085
 3568SOL    HW111603   6.015   3.820   6.151
 3568SOL    HW211604   6.086   3.691   6.080
 3569SOL     OW11605   1.599   1.929   5.360
 3569SOL    HW111606   1.582   1.893   5.452
 3569SOL    HW211607   1.682   1.985   5.361
 3570SOL     OW11608   6.327   1.398   4.038
 3570SOL    HW111609   6.413   1.355   4.009
 3570SOL    HW211610   6.347   1.482   4.089
 3571SOL     OW11611   6.350   5.899   5.841
 3571SOL    HW111612   6.251   5.886   5.850
 3571SOL    HW211613   6.381   5.860   5.755
 3572SOL     OW11614   5.648   4.715   4.777
 3572SOL    HW111615   5.687   4.766   4.700
 3572SOL    HW211616   5.561   4.675   4.750
 3573SOL     OW11617   1.197   3.102   2.759
 3573SOL    HW111618   1.283   3.135   2.797
 3573SOL    HW211619   1.216   3.032   2.690
 3574SOL     OW11620   0.281   3.962   0.613
 3574SOL    HW111621   0.367   3.939   0.566
 3574SOL    HW211622   0.240   3.879   0.650
 3575SOL     OW11623   5.874   4.509   1.989
 3575SOL    HW111624   5.949   4.542   2.046
 3575SOL    HW211625   5.888   4.412   1.968
 3576SOL     OW11626   0.469   1.228   6.196
 3576SOL    HW111627   0.536   1.211   6.268
 3576SOL    HW211628   0.443   1.324   6.196
 3577SOL     OW11629   0.816   3.049   0.090
 3577SOL    HW111630   0.790   3.145   0.082
 3577SOL    HW211631   0.750   3.002   0.149
 3578SOL     OW11632   3.251   5.058   0.697
 3578SOL    HW111633   3.347   5.051   0.669
 3578SOL    HW211634   3.242   5.128   0.767
 3579SOL     OW11635   6.843   3.872   4.514
 3579SOL    HW111636   6.851   3.792   4.455
 3579SOL    HW211637   6.767   3.929   4.484
 3580SOL     OW11638   6.060   2.081   1.975
 3580SOL    HW111639   6.065   1.983   1.993
 3580SOL    HW211640   6.017   2.097   1.886
 3581SOL     OW11641   0.364   0.375   3.058
 3581SOL    HW111642   0.337   0.469   3.040
 3581SOL    HW211643   0.287   0.324   3.094
 3582SOL     OW11644   1.509   0.300   6.425
 3582SOL    HW111645   1.505   0.291   6.325
 3582SOL    HW211646   1.424   0.266   6.465
 3583SOL     OW11647   0.999   5.518   0.104
 3583SOL    HW111648   1.023   5.521   0.007
 3583SOL    HW211649   1.042   5.595   0.151
 3584SOL     OW11650   5.195   6.002   6.276
 3584SOL    HW111651   5.186   6.094   6.238
 3584SOL    HW211652   5.163   5.935   6.210
 3585SOL     OW11653   3.353   4.917   3.947
 3585SOL    HW111654   3.379   4.829   3.985
 3585SOL    HW211655   3.254   4.928   3.951
 3586SOL     OW11656   6.569   3.391   5.740
 3586SOL    HW111657   6.615   3.439   5.665
 3586SOL    HW211658   6.491   3.445   5.770
 3587SOL     OW11659   4.291   6.664   0.042
 3587SOL    HW111660   4.228   6.610   7.006
 3587SOL    HW211661   4.375   6.613   0.057
 3588SOL     OW11662   1.028   2.172   6.025
 3588SOL    HW111663   1.093   2.120   5.971
 3588SOL    HW211664   1.061   2.266   6.035
 3589SOL     OW11665   3.066   0.980   5.549
 3589SOL    HW111666   3.038   1.007   5.641
 3589SOL    HW211667   2.986   0.946   5.499
 3590SOL     OW11668   1.510   5.218   6.399
 3590SOL    HW111669   1.552   5.128   6.388
 3590SOL    HW211670   1.556   5.284   6.339
 3591SOL     OW11671   5.198   2.117   6.169
 3591SOL    HW111672   5.204   2.203   6.220
 3591SOL    HW211673   5.251   2.124   6.084
 3592SOL     OW11674   5.308   2.815   2.594
 3592SOL    HW111675   5.241   2.779   2.529
 3592SOL    HW211676   5.377   2.868   2.546
 3593SOL     OW11677   1.388   6.568   3.731
 3593SOL    HW111678   1.358   6.647   3.783
 3593SOL    HW211679   1.485   6.551   3.749
 3594SOL     OW11680   2.797   1.513   4.240
 3594SOL    HW111681   2.814   1.452   4.317
 3594SOL    HW211682   2.729   1.582   4.267
 3595SOL     OW11683   2.762   5.881   6.217
 3595SOL    HW111684   2.675   5.908   6.257
 3595SOL    HW211685   2.748   5.805   6.153
 3596SOL     OW11686   6.441   1.975   2.237
 3596SOL    HW111687   6.514   2.034   2.273
 3596SOL    HW211688   6.374   2.032   2.189
 3597SOL     OW11689   2.973   5.793   3.958
 3597SOL    HW111690   2.932   5.704   3.979
 3597SOL    HW211691   2.922   5.837   3.884
 3598SOL     OW11692   1.294   0.103   6.463
 3598SOL    HW111693   1.334   0.026   6.412
 3598SOL    HW211694   1.326   0.100   6.558
 3599SOL     OW11695   0.475   1.672   4.860
 3599SOL    HW111696   0.430   1.733   4.794
 3599SOL    HW211697   0.508   1.590   4.812
 3600SOL     OW11698   5.852   2.527   0.666
 3600SOL    HW111699   5.950   2.534   0.646
 3600SOL    HW211700   5.800   2.534   0.581
 3601SOL     OW11701   0.131   4.105   6.592
 3601SOL    HW111702   0.176   4.181   6.545
 3601SOL    HW211703   0.105   4.035   6.526
 3602SOL     OW11704   2.113   0.966   6.885
 3602SOL    HW111705   2.157   0.926   6.965
 3602SOL    HW211706   2.061   0.896   6.836
 3603SOL     OW11707   4.006   4.860   3.631
 3603SOL    HW111708   4.073   4.802   3.584
 3603SOL    HW211709   4.003   4.836   3.728
 3604SOL     OW11710   0.303   2.317   2.587
 3604SOL    HW111711   0.365   2.373   2.644
 3604SOL    HW211712   0.218   2.367   2.573
 3605SOL     OW11713   6.027   3.302   6.040
 3605SOL    HW111714   6.000   3.371   5.973
 3605SOL    HW211715   5.955   3.292   6.109
 3606SOL     OW11716   0.410   4.272   5.196
 3606SOL    HW111717   0.400   4.173   5.204
 3606SOL    HW211718   0.341   4.318   5.251
 3607SOL     OW11719   5.479   6.924   0.721
 3607SOL    HW111720   5.437   6.907   0.632
 3607SOL    HW211721   5.412   6.964   0.783
 3608SOL     OW11722   0.554   2.395   1.453
 3608SOL    HW111723   0.517   2.341   1.377
 3608SOL    HW211724   0.643   2.358   1.480
 3609SOL     OW11725   6.665   0.726   5.027
 3609SOL    HW111726   6.578   0.734   4.977
 3609SOL    HW211727   6.733   0.784   4.985
 3610SOL     OW11728   1.361   6.438   6.059
 3610SOL    HW111729   1.297   6.475   6.126
 3610SOL    HW211730   1.372   6.339   6.074
 3611SOL     OW11731   3.673   5.256   5.648
 3611SOL    HW111732   3.636   5.246   5.740
 3611SOL    HW211733   3.666   5.352   5.620
 3612SOL     OW11734   1.553   6.692   1.183
 3612SOL    HW111735   1.635   6.745   1.161
 3612SOL    HW211736   1.475   6.753   1.191
 3613SOL     OW11737   5.444   5.004   6.894
 3613SOL    HW111738   5.451   5.044   6.803
 3613SOL    HW211739   5.361   4.947   6.900
 3614SOL     OW11740   3.777   3.252   2.962
 3614SOL    HW111741   3.750   3.157   2.974
 3614SOL    HW211742   3.847   3.258   2.890
 3615SOL     OW11743   5.665   5.491   5.452
 3615SOL    HW111744   5.649   5.472   5.355
 3615SOL    HW211745   5.665   5.406   5.503
 3616SOL     OW11746   6.902   2.122   5.514
 3616SOL    HW111747   6.979   2.082   5.563
 3616SOL    HW211748   6.870   2.057   5.445
 3617SOL     OW11749   6.820   1.494   6.216
 3617SOL    HW111750   6.809   1.561   6.290
 3617SOL    HW211751   6.902   1.517   6.163
 3618SOL     OW11752   1.786   2.071   6.506
 3618SOL    HW111753   1.845   1.990   6.502
 3618SOL    HW211754   1.697   2.046   6.543
 3619SOL     OW11755   5.585   1.983   3.967
 3619SOL    HW111756   5.674   1.989   3.922
 3619SOL    HW211757   5.524   1.925   3.913
 3620SOL     OW11758   5.871   0.142   5.318
 3620SOL    HW111759   5.868   0.189   5.230
 3620SOL    HW211760   5.860   0.209   5.392
 3621SOL     OW11761   2.677   3.127   5.778
 3621SOL    HW111762   2.604   3.104   5.713
 3621SOL    HW211763   2.724   3.210   5.746
 3622SOL     OW11764   1.148   1.832   2.357
 3622SOL    HW111765   1.129   1.762   2.289
 3622SOL    HW211766   1.096   1.915   2.336
 3623SOL     OW11767   4.916   5.191   3.649
 3623SOL    HW111768   4.986   5.253   3.616
 3623SOL    HW211769   4.928   5.176   3.747
 3624SOL     OW11770   2.541   6.899   3.016
 3624SOL    HW111771   2.485   6.823   3.048
 3624SOL    HW211772   2.636   6.869   3.004
 3625SOL     OW11773   5.930   2.890   5.603
 3625SOL    HW111774   6.003   2.914   5.666
 3625SOL    HW211775   5.962   2.819   5.540
 3626SOL     OW11776   1.969   3.904   5.621
 3626SOL    HW111777   2.048   3.965   5.620
 3626SOL    HW211778   1.910   3.925   5.543
 3627SOL     OW11779   3.456   3.863   3.759
 3627SOL    HW111780   3.515   3.806   3.817
 3627SOL    HW211781   3.420   3.939   3.811
 3628SOL     OW11782   2.312   5.588   2.476
 3628SOL    HW111783   2.369   5.552   2.402
 3628SOL    HW211784   2.352   5.565   2.564
 3629SOL     OW11785   6.047   1.976   5.100
 3629SOL    HW111786   6.066   1.926   5.016
 3629SOL    HW211787   6.010   1.913   5.169
 3630SOL     OW11788   6.161   2.222   4.535
 3630SOL    HW111789   6.094   2.295   4.555
 3630SOL    HW211790   6.215   2.203   4.617
 3631SOL     OW11791   2.369   0.183   4.287
 3631SOL    HW111792   2.290   0.121   4.289
 3631SOL    HW211793   2.340   0.274   4.317
 3632SOL     OW11794   4.892   0.970   0.938
 3632SOL    HW111795   4.973   0.973   0.880
 3632SOL    HW211796   4.900   0.894   1.003
 3633SOL     OW11797   2.933   2.624   6.098
 3633SOL    HW111798   2.989   2.612   6.016
 3633SOL    HW211799   2.871   2.701   6.085
 3634SOL     OW11800   1.896   6.271   4.636
 3634SOL    HW111801   1.885   6.275   4.735
 3634SOL    HW211802   1.826   6.209   4.598
 3635SOL     OW11803   2.799   1.784   5.517
 3635SOL    HW111804   2.725   1.730   5.559
 3635SOL    HW211805   2.875   1.791   5.582
 3636SOL     OW11806   0.191   5.779   5.792
 3636SOL    HW111807   0.177   5.873   5.825
 3636SOL    HW211808   0.191   5.779   5.692
 3637SOL     OW11809   5.527   1.381   1.591
 3637SOL    HW111810   5.558   1.311   1.528
 3637SOL    HW211811   5.534   1.347   1.685
 3638SOL     OW11812   6.726   4.445   4.013
 3638SOL    HW111813   6.657   4.478   4.078
 3638SOL    HW211814   6.711   4.348   3.995
 3639SOL     OW11815   2.632   4.011   0.808
 3639SOL    HW111816   2.639   3.914   0.784
 3639SOL    HW211817   2.647   4.023   0.906
 3640SOL     OW11818   3.229   5.999   1.297
 3640SOL    HW111819   3.204   5.917   1.246
 3640SOL    HW211820   3.298   6.050   1.245
 3641SOL     OW11821   3.135   1.181   5.003
 3641SOL    HW111822   3.145   1.186   4.904
 3641SOL    HW211823   3.071   1.251   5.034
 3642SOL     OW11824   4.526   0.327   4.758
 3642SOL    HW111825   4.508   0.231   4.777
 3642SOL    HW211826   4.481   0.353   4.672
 3643SOL     OW11827   3.251   5.171   4.993
 3643SOL    HW111828   3.269   5.203   5.086
 3643SOL    HW211829   3.232   5.072   4.995
 3644SOL     OW11830   6.526   2.460   0.910
 3644SOL    HW111831   6.467   2.539   0.893
 3644SOL    HW211832   6.538   2.449   1.009
 3645SOL     OW11833   4.612   1.633   3.235
 3645SOL    HW111834   4.642   1.694   3.162
 3645SOL    HW211835   4.685   1.622   3.302
 3646SOL     OW11836   0.078   4.976   5.742
 3646SOL    HW111837   0.032   4.919   5.674
 3646SOL    HW211838   0.121   5.054   5.697
 3647SOL     OW11839   1.205   2.989   0.753
 3647SOL    HW111840   1.128   3.050   0.770
 3647SOL    HW211841   1.202   2.912   0.817
 3648SOL     OW11842   3.787   5.436   1.961
 3648SOL    HW111843   3.709   5.458   2.020
 3648SOL    HW211844   3.869   5.424   2.018
 3649SOL     OW11845   4.445   3.948   0.880
 3649SOL    HW111846   4.411   3.964   0.787
 3649SOL    HW211847   4.394   4.006   0.944
 3650SOL     OW11848   0.198   6.382   1.238
 3650SOL    HW111849   0.250   6.321   1.179
 3650SOL    HW211850   0.103   6.384   1.208
 3651SOL     OW11851   0.491   5.775   2.434
 3651SOL    HW111852   0.531   5.829   2.508
 3651SOL    HW211853   0.393   5.793   2.428
 3652SOL     OW11854   4.695   6.288   3.440
 3652SOL    HW111855   4.693   6.371   3.495
 3652SOL    HW211856   4.630   6.222   3.478
 3653SOL     OW11857   5.861   1.548   3.113
 3653SOL    HW111858   5.844   1.537   3.015
 3653SOL    HW211859   5.843   1.462   3.160
 3654SOL     OW11860   2.095   6.508   0.408
 3654SOL    HW111861   2.140   6.551   0.486
 3654SOL    HW211862   2.050   6.423   0.438
 3655SOL     OW11863   1.945   0.191   4.688
 3655SOL    HW111864   1.888   0.231   4.616
 3655SOL    HW211865   1.889   0.131   4.745
 3656SOL     OW11866   1.972   2.532   1.925
 3656SOL    HW111867   1.990   2.521   1.827
 3656SOL    HW211868   2.055   2.514   1.977
 3657SOL     OW11869   3.982   5.627   0.394
 3657SOL    HW111870   3.986   5.607   0.492
 3657SOL    HW211871   4.073   5.616   0.354
 3658SOL     OW11872   1.150   5.651   5.022
 3658SOL    HW111873   1.122   5.588   5.095
 3658SOL    HW211874   1.247   5.673   5.032
 3659SOL     OW11875   2.910   4.801   0.108
 3659SOL    HW111876   2.871   4.731   0.048
 3659SOL    HW211877   2.954   4.758   0.186
 3660SOL     OW11878   4.723   6.089   1.628
 3660SOL    HW111879   4.663   6.144   1.686
 3660SOL    HW211880   4.694   5.993   1.632
 3661SOL     OW11881   5.326   2.083   0.656
 3661SOL    HW111882   5.381   2.084   0.573
 3661SOL    HW211883   5.277   2.169   0.665
 3662SOL     OW11884   3.488   0.155   5.231
 3662SOL    HW111885   3.472   0.057   5.216
 3662SOL    HW211886   3.446   0.183   5.317
 3663SOL     OW11887   1.501   2.134   0.373
 3663SOL    HW111888   1.558   2.079   0.433
 3663SOL    HW211889   1.515   2.105   0.278
 3664SOL     OW11890   5.078   1.465   0.475
 3664SOL    HW111891   5.033   1.498   0.558
 3664SOL    HW211892   5.134   1.385   0.497
 3665SOL     OW11893   0.486   6.960   5.092
 3665SOL    HW111894   0.482   6.973   5.191
 3665SOL    HW211895   0.469   6.864   5.071
 3666SOL     OW11896   1.549   4.603   3.922
 3666SOL    HW111897   1.474   4.560   3.871
 3666SOL    HW211898   1.586   4.538   3.988
 3667SOL     OW11899   6.495   0.766   6.589
 3667SOL    HW111900   6.501   0.733   6.494
 3667SOL    HW211901   6.587   0.773   6.627
 3668SOL     OW11902   1.426   0.014   2.807
 3668SOL    HW111903   1.481   0.081   2.756
 3668SOL    HW211904   1.362   0.062   2.867
 3669SOL     OW11905   5.949   2.032   4.419
 3669SOL    HW111906   6.011   2.074   4.486
 3669SOL    HW211907   5.933   2.096   4.344
 3670SOL     OW11908   2.099   5.418   0.022
 3670SOL    HW111909   2.136   5.510   0.036
 3670SOL    HW211910   2.016   5.407   0.076
 3671SOL     OW11911   0.183   0.445   3.294
 3671SOL    HW111912   0.213   0.540   3.285
 3671SOL    HW211913   0.094   0.442   3.339
 3672SOL     OW11914   6.430   2.229   0.527
 3672SOL    HW111915   6.348   2.198   0.480
 3672SOL    HW211916   6.502   2.247   0.461
 3673SOL     OW11917   4.340   1.261   6.562
 3673SOL    HW111918   4.245   1.238   6.581
 3673SOL    HW211919   4.391   1.177   6.543
 3674SOL     OW11920   0.316   6.698   7.013
 3674SOL    HW111921   0.320   6.784   0.044
 3674SOL    HW211922   0.333   6.716   6.916
 3675SOL     OW11923   1.505   2.660   6.133
 3675SOL    HW111924   1.600   2.641   6.157
 3675SOL    HW211925   1.466   2.581   6.085
 3676SOL     OW11926   3.724   4.965   4.197
 3676SOL    HW111927   3.671   4.941   4.278
 3676SOL    HW211928   3.664   5.007   4.129
 3677SOL     OW11929   7.015   0.058   2.890
 3677SOL    HW111930   6.942   0.123   2.869
 3677SOL    HW211931   0.061   0.055   2.815
 3678SOL     OW11932   1.894   2.479   3.869
 3678SOL    HW111933   1.833   2.404   3.894
 3678SOL    HW211934   1.948   2.506   3.949
 3679SOL     OW11935   0.511   1.197   2.510
 3679SOL    HW111936   0.490   1.247   2.426
 3679SOL    HW211937   0.523   1.100   2.490
 3680SOL     OW11938   6.110   2.861   3.734
 3680SOL    HW111939   6.120   2.895   3.640
 3680SOL    HW211940   6.167   2.916   3.795
 3681SOL     OW11941   0.966   0.466   6.036
 3681SOL    HW111942   1.008   0.496   6.122
 3681SOL    HW211943   0.887   0.524   6.015
 3682SOL     OW11944   6.561   1.737   5.236
 3682SOL    HW111945   6.623   1.753   5.313
 3682SOL    HW211946   6.483   1.682   5.267
 3683SOL     OW11947   6.121   6.359   4.864
 3683SOL    HW111948   6.150   6.279   4.812
 3683SOL    HW211949   6.030   6.388   4.834
 3684SOL     OW11950   2.112   3.067   1.827
 3684SOL    HW111951   2.170   3.136   1.783
 3684SOL    HW211952   2.071   3.105   1.909
 3685SOL     OW11953   6.327   5.870   6.256
 3685SOL    HW111954   6.265   5.869   6.334
 3685SOL    HW211955   6.384   5.953   6.260
 3686SOL     OW11956   6.120   4.941   2.374
 3686SOL    HW111957   6.029   4.912   2.346
 3686SOL    HW211958   6.188   4.905   2.310
 3687SOL     OW11959   2.629   6.671   6.614
 3687SOL    HW111960   2.553   6.663   6.677
 3687SOL    HW211961   2.709   6.707   6.662
 3688SOL     OW11962   0.828   3.501   0.183
 3688SOL    HW111963   0.788   3.432   0.123
 3688SOL    HW211964   0.906   3.461   0.232
 3689SOL     OW11965   1.839   1.174   5.369
 3689SOL    HW111966   1.837   1.273   5.356
 3689SOL    HW211967   1.751   1.144   5.407
 3690SOL     OW11968   5.089   0.582   5.905
 3690SOL    HW111969   5.058   0.555   5.997
 3690SOL    HW211970   5.088   0.682   5.898
 3691SOL     OW11971   2.915   3.759   7.017
 3691SOL    HW111972   2.879   3.680   6.969
 3691SOL    HW211973   2.958   3.730   0.083
 3692SOL     OW11974   0.961   5.941   4.862
 3692SOL    HW111975   0.879   5.990   4.834
 3692SOL    HW211976   0.939   5.845   4.879
 3693SOL     OW11977   2.592   2.478   3.450
 3693SOL    HW111978   2.661   2.405   3.444
 3693SOL    HW211979   2.521   2.462   3.382
 3694SOL     OW11980   0.663   6.004   3.299
 3694SOL    HW111981   0.630   5.934   3.362
 3694SOL    HW211982   0.606   6.086   3.308
 3695SOL     OW11983   1.553   1.880   2.754
 3695SOL    HW111984   1.472   1.859   2.700
 3695SOL    HW211985   1.596   1.963   2.719
 3696SOL     OW11986   4.499   6.376   5.527
 3696SOL    HW111987   4.430   6.323   5.479
 3696SOL    HW211988   4.456   6.453   5.573
 3697SOL     OW11989   6.819   0.013   3.594
 3697SOL    HW111990   6.890   6.965   3.573
 3697SOL    HW211991   6.856   0.105   3.579
 3698SOL     OW11992   3.402   0.619   5.247
 3698SOL    HW111993   3.379   0.658   5.158
 3698SOL    HW211994   3.337   0.651   5.316
 3699SOL     OW11995   7.003   3.365   2.792
 3699SOL    HW111996   7.018   3.371   2.890
 3699SOL    HW211997   0.072   3.362   2.744
 3700SOL     OW11998   6.174   0.062   4.268
 3700SOL    HW111999   6.126   6.994   4.258
 3700SOL    HW212000   6.244   0.070   4.198
 3701SOL     OW12001   0.040   1.028   3.886
 3701SOL    HW112002   7.001   0.948   3.877
 3701SOL    HW212003   7.019   1.105   3.838
 3702SOL     OW12004   4.014   0.348   1.677
 3702SOL    HW112005   4.061   0.269   1.636
 3702SOL    HW212006   4.014   0.338   1.777
 3703SOL     OW12007   4.237   4.313   6.080
 3703SOL    HW112008   4.317   4.302   6.140
 3703SOL    HW212009   4.210   4.410   6.079
 3704SOL     OW12010   3.056   1.093   2.436
 3704SOL    HW112011   3.032   1.060   2.527
 3704SOL    HW212012   3.142   1.144   2.441
 3705SOL     OW12013   4.859   0.577   4.187
 3705SOL    HW112014   4.799   0.499   4.204
 3705SOL    HW212015   4.809   0.662   4.203
 3706SOL     OW12016   1.706   3.105   4.633
 3706SOL    HW112017   1.762   3.183   4.662
 3706SOL    HW212018   1.682   3.050   4.712
 3707SOL     OW12019   5.211   2.270   5.773
 3707SOL    HW112020   5.161   2.185   5.755
 3707SOL    HW212021   5.287   2.252   5.835
 3708SOL     OW12022   6.301   0.550   6.896
 3708SOL    HW112023   6.322   0.591   6.807
 3708SOL    HW212024   6.343   0.460   6.902
 3709SOL     OW12025   4.178   0.490   5.871
 3709SOL    HW112026   4.272   0.469   5.846
 3709SOL    HW212027   4.163   0.589   5.863
 3710SOL     OW12028   6.349   5.398   0.350
 3710SOL    HW112029   6.340   5.458   0.430
 3710SOL    HW212030   6.287   5.321   0.359
 3711SOL     OW12031   0.544   6.265   2.233
 3711SOL    HW112032   0.499   6.233   2.316
 3711SOL    HW212033   0.515   6.359   2.214
 3712SOL     OW12034   0.589   6.356   6.765
 3712SOL    HW112035   0.610   6.377   6.861
 3712SOL    HW212036   0.675   6.349   6.713
 3713SOL     OW12037   2.500   5.926   4.689
 3713SOL    HW112038   2.428   5.929   4.619
 3713SOL    HW212039   2.464   5.885   4.772
 3714SOL     OW12040   4.439   6.902   4.202
 3714SOL    HW112041   4.420   6.804   4.197
 3714SOL    HW212042   4.373   6.952   4.146
 3715SOL     OW12043   5.518   4.938   4.090
 3715SOL    HW112044   5.466   4.960   4.173
 3715SOL    HW212045   5.612   4.971   4.101
 3716SOL     OW12046   6.246   0.414   4.520
 3716SOL    HW112047   6.281   0.422   4.427
 3716SOL    HW212048   6.223   0.319   4.539
 3717SOL     OW12049   6.284   5.836   0.972
 3717SOL    HW112050   6.319   5.794   1.056
 3717SOL    HW212051   6.361   5.861   0.913
 3718SOL     OW12052   1.067   6.749   6.990
 3718SOL    HW112053   0.984   6.763   6.936
 3718SOL    HW212054   1.144   6.793   6.943
 3719SOL     OW12055   5.116   4.924   0.235
 3719SOL    HW112056   5.142   5.015   0.265
 3719SOL    HW212057   5.043   4.889   0.294
 3720SOL     OW12058   6.742   1.748   6.397
 3720SOL    HW112059   6.814   1.812   6.372
 3720SOL    HW212060   6.731   1.747   6.496
 3721SOL     OW12061   6.173   4.736   6.907
 3721SOL    HW112062   6.112   4.708   6.833
 3721SOL    HW212063   6.160   4.833   6.927
 3722SOL     OW12064   6.955   5.895   2.807
 3722SOL    HW112065   0.001   5.835   2.761
 3722SOL    HW212066   6.959   5.985   2.764
 3723SOL     OW12067   5.909   6.670   1.824
 3723SOL    HW112068   5.904   6.695   1.728
 3723SOL    HW212069   6.000   6.636   1.846
 3724SOL     OW12070   0.784   5.197   0.376
 3724SOL    HW112071   0.692   5.165   0.352
 3724SOL    HW212072   0.852   5.132   0.342
 3725SOL     OW12073   6.573   6.462   6.745
 3725SOL    HW112074   6.609   6.399   6.677
 3725SOL    HW212075   6.568   6.554   6.705
 3726SOL     OW12076   6.204   3.779   1.705
 3726SOL    HW112077   6.225   3.746   1.797
 3726SOL    HW212078   6.135   3.852   1.711
 3727SOL     OW12079   0.980   2.766   4.892
 3727SOL    HW112080   0.970   2.854   4.847
 3727SOL    HW212081   0.893   2.717   4.890
 3728SOL     OW12082   2.173   3.135   0.586
 3728SOL    HW112083   2.103   3.064   0.597
 3728SOL    HW212084   2.129   3.221   0.561
 3729SOL     OW12085   0.974   2.011   2.953
 3729SOL    HW112086   0.905   1.939   2.963
 3729SOL    HW212087   0.977   2.041   2.858
 3730SOL     OW12088   3.148   0.780   6.856
 3730SOL    HW112089   3.121   0.864   6.904
 3730SOL    HW212090   3.238   0.751   6.888
 3731SOL     OW12091   4.544   1.665   1.213
 3731SOL    HW112092   4.641   1.681   1.196
 3731SOL    HW212093   4.491   1.744   1.182
 3732SOL     OW12094   2.109   3.646   5.565
 3732SOL    HW112095   2.135   3.713   5.496
 3732SOL    HW212096   2.119   3.685   5.656
 3733SOL     OW12097   2.569   3.896   1.461
 3733SOL    HW112098   2.630   3.823   1.430
 3733SOL    HW212099   2.608   3.940   1.542
 3734SOL     OW12100   4.454   1.249   2.563
 3734SOL    HW112101   4.537   1.272   2.614
 3734SOL    HW212102   4.452   1.300   2.477
 3735SOL     OW12103   1.663   2.350   2.893
 3735SOL    HW112104   1.605   2.373   2.970
 3735SOL    HW212105   1.755   2.388   2.908
 3736SOL     OW12106   6.822   2.644   0.872
 3736SOL    HW112107   6.777   2.706   0.936
 3736SOL    HW212108   6.753   2.585   0.829
 3737SOL     OW12109   5.164   0.314   2.680
 3737SOL    HW112110   5.169   0.334   2.778
 3737SOL    HW212111   5.256   0.300   2.644
 3738SOL     OW12112   6.232   6.304   3.476
 3738SOL    HW112113   6.167   6.375   3.449
 3738SOL    HW212114   6.183   6.224   3.510
 3739SOL     OW12115   1.613   3.917   2.208
 3739SOL    HW112116   1.600   3.835   2.264
 3739SOL    HW212117   1.706   3.953   2.223
 3740SOL     OW12118   5.011   1.172   0.089
 3740SOL    HW112119   4.993   1.083   0.048
 3740SOL    HW212120   4.925   1.212   0.121
 3741SOL     OW12121   4.229   3.581   0.789
 3741SOL    HW112122   4.292   3.641   0.838
 3741SOL    HW212123   4.282   3.520   0.729
 3742SOL     OW12124   3.357   2.064   5.936
 3742SOL    HW112125   3.268   2.057   5.891
 3742SOL    HW212126   3.426   2.090   5.869
 3743SOL     OW12127   6.430   5.072   0.504
 3743SOL    HW112128   6.505   5.135   0.525
 3743SOL    HW212129   6.343   5.121   0.504
 3744SOL     OW12130   0.230   5.118   3.887
 3744SOL    HW112131   0.163   5.157   3.823
 3744SOL    HW212132   0.262   5.189   3.949
 3745SOL     OW12133   3.611   5.316   2.699
 3745SOL    HW112134   3.554   5.246   2.656
 3745SOL    HW212135   3.665   5.274   2.772
 3746SOL     OW12136   4.387   2.056   1.613
 3746SOL    HW112137   4.468   1.998   1.603
 3746SOL    HW212138   4.327   2.017   1.682
 3747SOL     OW12139   3.342   6.760   0.063
 3747SOL    HW112140   3.263   6.792   0.116
 3747SOL    HW212141   3.420   6.747   0.124
 3748SOL     OW12142   6.089   0.918   1.373
 3748SOL    HW112143   6.059   1.013   1.357
 3748SOL    HW212144   6.110   0.876   1.285
 3749SOL     OW12145   1.263   0.013   4.033
 3749SOL    HW112146   1.202   0.054   3.965
 3749SOL    HW212147   1.224   0.024   4.124
 3750SOL     OW12148   0.193   3.795   0.303
 3750SOL    HW112149   0.145   3.882   0.292
 3750SOL    HW212150   0.192   3.745   0.217
 3751SOL     OW12151   0.070   4.006   3.250
 3751SOL    HW112152   0.089   3.943   3.175
 3751SOL    HW212153   0.009   3.962   3.317
 3752SOL     OW12154   5.827   1.287   5.820
 3752SOL    HW112155   5.798   1.192   5.824
 3752SOL    HW212156   5.875   1.311   5.905
 3753SOL     OW12157   6.289   1.069   3.854
 3753SOL    HW112158   6.327   1.066   3.761
 3753SOL    HW212159   6.333   1.143   3.906
 3754SOL     OW12160   2.146   1.563   2.364
 3754SOL    HW112161   2.158   1.490   2.431
 3754SOL    HW212162   2.169   1.528   2.273
 3755SOL     OW12163   3.063   4.889   4.057
 3755SOL    HW112164   2.993   4.817   4.061
 3755SOL    HW212165   3.123   4.881   4.136
 3756SOL     OW12166   2.408   6.134   0.499
 3756SOL    HW112167   2.343   6.154   0.426
 3756SOL    HW212168   2.501   6.130   0.461
 3757SOL     OW12169   6.622   4.595   1.601
 3757SOL    HW112170   6.531   4.564   1.627
 3757SOL    HW212171   6.691   4.532   1.637
 3758SOL     OW12172   1.921   0.283   3.430
 3758SOL    HW112173   2.009   0.270   3.476
 3758SOL    HW212174   1.872   0.359   3.473
 3759SOL     OW12175   5.205   0.217   4.214
 3759SOL    HW112176   5.299   0.237   4.241
 3759SOL    HW212177   5.193   0.118   4.207
 3760SOL     OW12178   6.953   0.779   3.869
 3760SOL    HW112179   6.951   0.733   3.781
 3760SOL    HW212180   6.966   0.711   3.942
 3761SOL     OW12181   5.335   0.850   4.262
 3761SOL    HW112182   5.323   0.942   4.224
 3761SOL    HW212183   5.245   0.812   4.286
 3762SOL     OW12184   1.130   3.951   2.774
 3762SOL    HW112185   1.062   3.898   2.723
 3762SOL    HW212186   1.194   3.994   2.711
 3763SOL     OW12187   0.104   4.282   0.336
 3763SOL    HW112188   0.044   4.323   0.267
 3763SOL    HW212189   0.191   4.257   0.294
 3764SOL     OW12190   1.665   0.518   3.285
 3764SOL    HW112191   1.646   0.425   3.257
 3764SOL    HW212192   1.701   0.570   3.207
 3765SOL     OW12193   6.178   1.757   1.452
 3765SOL    HW112194   6.189   1.854   1.430
 3765SOL    HW212195   6.103   1.718   1.399
 3766SOL     OW12196   1.663   3.789   3.765
 3766SOL    HW112197   1.639   3.696   3.739
 3766SOL    HW212198   1.738   3.822   3.707
 3767SOL     OW12199   2.894   4.527   6.154
 3767SOL    HW112200   2.923   4.517   6.249
 3767SOL    HW212201   2.867   4.438   6.118
 3768SOL     OW12202   1.606   0.150   5.117
 3768SOL    HW112203   1.547   0.213   5.066
 3768SOL    HW212204   1.550   0.077   5.155
 3769SOL     OW12205   4.918   5.764   4.826
 3769SOL    HW112206   4.903   5.849   4.877
 3769SOL    HW212207   4.860   5.764   4.745
 3770SOL     OW12208   0.950   1.462   0.472
 3770SOL    HW112209   1.004   1.388   0.512
 3770SOL    HW212210   0.957   1.457   0.372
 3771SOL     OW12211   0.167   4.541   0.494
 3771SOL    HW112212   0.233   4.466   0.488
 3771SOL    HW212213   0.198   4.606   0.564
 3772SOL     OW12214   1.194   6.132   0.586
 3772SOL    HW112215   1.101   6.140   0.624
 3772SOL    HW212216   1.202   6.191   0.506
 3773SOL     OW12217   6.052   3.064   5.922
 3773SOL    HW112218   5.968   3.047   5.870
 3773SOL    HW212219   6.036   3.137   5.988
 3774SOL     OW12220   5.349   6.235   1.616
 3774SOL    HW112221   5.396   6.313   1.656
 3774SOL    HW212222   5.390   6.213   1.527
 3775SOL     OW12223   4.046   4.945   3.339
 3775SOL    HW112224   4.018   4.901   3.424
 3775SOL    HW212225   4.045   4.877   3.265
 3776SOL     OW12226   3.347   2.712   6.771
 3776SOL    HW112227   3.342   2.809   6.795
 3776SOL    HW212228   3.433   2.694   6.724
 3777SOL     OW12229   2.934   6.176   4.444
 3777SOL    HW112230   3.025   6.194   4.481
 3777SOL    HW212231   2.939   6.101   4.378
 3778SOL     OW12232   3.253   5.485   4.908
 3778SOL    HW112233   3.171   5.463   4.962
 3778SOL    HW212234   3.232   5.477   4.811
 3779SOL     OW12235   0.108   5.160   0.278
 3779SOL    HW112236   0.143   5.240   0.326
 3779SOL    HW212237   0.094   5.182   0.182
 3780SOL     OW12238   6.692   2.942   1.477
 3780SOL    HW112239   6.718   3.038   1.488
 3780SOL    HW212240   6.766   2.892   1.431
 3781SOL     OW12241   2.089   6.597   5.080
 3781SOL    HW112242   2.035   6.571   5.000
 3781SOL    HW212243   2.106   6.695   5.078
 3782SOL     OW12244   4.814   6.076   1.374
 3782SOL    HW112245   4.794   6.098   1.470
 3782SOL    HW212246   4.895   6.018   1.370
 3783SOL     OW12247   5.524   4.993   5.978
 3783SOL    HW112248   5.491   5.050   5.902
 3783SOL    HW212249   5.611   4.950   5.952
 3784SOL     OW12250   5.332   2.451   3.808
 3784SOL    HW112251   5.322   2.352   3.810
 3784SOL    HW212252   5.302   2.486   3.720
 3785SOL     OW12253   1.105   3.869   4.891
 3785SOL    HW112254   1.081   3.785   4.842
 3785SOL    HW212255   1.026   3.929   4.896
 3786SOL     OW12256   2.335   2.507   4.511
 3786SOL    HW112257   2.380   2.500   4.422
 3786SOL    HW212258   2.302   2.417   4.539
 3787SOL     OW12259   4.474   0.145   3.093
 3787SOL    HW112260   4.431   0.178   3.177
 3787SOL    HW212261   4.520   0.058   3.111
 3788SOL     OW12262   0.259   2.967   5.113
 3788SOL    HW112263   0.337   2.984   5.174
 3788SOL    HW212264   0.214   2.882   5.140
 3789SOL     OW12265   1.822   2.730   2.614
 3789SOL    HW112266   1.921   2.742   2.622
 3789SOL    HW212267   1.782   2.721   2.706
 3790SOL     OW12268   0.620   6.937   0.602
 3790SOL    HW112269   0.615   6.981   0.512
 3790SOL    HW212270   0.571   6.993   0.669
 3791SOL     OW12271   5.594   0.830   5.763
 3791SOL    HW112272   5.572   0.862   5.671
 3791SOL    HW212273   5.536   0.751   5.786
 3792SOL     OW12274   0.717   1.105   3.867
 3792SOL    HW112275   0.814   1.100   3.892
 3792SOL    HW212276   0.686   1.015   3.835
 3793SOL     OW12277   6.498   6.434   0.516
 3793SOL    HW112278   6.461   6.523   0.490
 3793SOL    HW212279   6.591   6.425   0.480
 3794SOL     OW12280   2.264   4.144   0.742
 3794SOL    HW112281   2.318   4.222   0.775
 3794SOL    HW212282   2.167   4.162   0.757
 3795SOL     OW12283   2.333   5.615   1.121
 3795SOL    HW112284   2.361   5.693   1.066
 3795SOL    HW212285   2.413   5.577   1.168
 3796SOL     OW12286   4.030   1.792   0.128
 3796SOL    HW112287   3.932   1.774   0.126
 3796SOL    HW212288   4.046   1.890   0.115
 3797SOL     OW12289   0.814   4.449   3.206
 3797SOL    HW112290   0.829   4.351   3.220
 3797SOL    HW212291   0.901   4.497   3.212
 3798SOL     OW12292   2.499   6.236   3.113
 3798SOL    HW112293   2.547   6.152   3.088
 3798SOL    HW212294   2.418   6.247   3.055
 3799SOL     OW12295   6.587   2.521   3.094
 3799SOL    HW112296   6.594   2.564   3.185
 3799SOL    HW212297   6.679   2.506   3.057
 3800SOL     OW12298   5.456   1.860   3.095
 3800SOL    HW112299   5.382   1.800   3.065
 3800SOL    HW212300   5.539   1.806   3.111
 3801SOL     OW12301   5.467   0.091   2.329
 3801SOL    HW112302   5.392   0.039   2.286
 3801SOL    HW212303   5.549   0.081   2.273
 3802SOL     OW12304   6.204   1.928   1.676
 3802SOL    HW112305   6.209   1.859   1.604
 3802SOL    HW212306   6.274   1.910   1.745
 3803SOL     OW12307   2.896   3.528   4.206
 3803SOL    HW112308   2.857   3.437   4.194
 3803SOL    HW212309   2.887   3.579   4.120
 3804SOL     OW12310   3.587   0.170   4.704
 3804SOL    HW112311   3.679   0.164   4.744
 3804SOL    HW212312   3.582   0.250   4.645
 3805SOL     OW12313   2.070   3.316   0.239
 3805SOL    HW112314   1.973   3.316   0.217
 3805SOL    HW212315   2.107   3.224   0.228
 3806SOL     OW12316   4.474   4.375   6.707
 3806SOL    HW112317   4.468   4.377   6.807
 3806SOL    HW212318   4.507   4.286   6.678
 3807SOL     OW12319   1.130   5.023   3.847
 3807SOL    HW112320   1.171   5.097   3.901
 3807SOL    HW212321   1.174   4.937   3.869
 3808SOL     OW12322   4.527   6.538   6.147
 3808SOL    HW112323   4.456   6.470   6.166
 3808SOL    HW212324   4.570   6.518   6.059
 3809SOL     OW12325   5.299   1.830   1.461
 3809SOL    HW112326   5.383   1.882   1.476
 3809SOL    HW212327   5.301   1.748   1.518
 3810SOL     OW12328   6.579   2.514   2.423
 3810SOL    HW112329   6.633   2.480   2.346
 3810SOL    HW212330   6.486   2.534   2.393
 3811SOL     OW12331   6.837   5.494   5.051
 3811SOL    HW112332   6.877   5.488   4.960
 3811SOL    HW212333   6.859   5.583   5.092
 3812SOL     OW12334   3.897   5.986   0.091
 3812SOL    HW112335   3.867   5.897   0.124
 3812SOL    HW212336   3.994   5.998   0.112
 3813SOL     OW12337   6.864   3.495   1.060
 3813SOL    HW112338   6.870   3.482   1.159
 3813SOL    HW212339   6.781   3.451   1.026
 3814SOL     OW12340   6.601   0.233   4.452
 3814SOL    HW112341   6.610   0.140   4.487
 3814SOL    HW212342   6.616   0.298   4.526
 3815SOL     OW12343   4.576   3.258   0.379
 3815SOL    HW112344   4.521   3.333   0.417
 3815SOL    HW212345   4.531   3.171   0.398
 3816SOL     OW12346   1.623   6.133   5.743
 3816SOL    HW112347   1.704   6.075   5.751
 3816SOL    HW212348   1.569   6.104   5.664
 3817SOL     OW12349   4.931   3.379   2.518
 3817SOL    HW112350   5.011   3.325   2.491
 3817SOL    HW212351   4.873   3.394   2.439
 3818SOL     OW12352   0.404   0.852   2.097
 3818SOL    HW112353   0.401   0.814   2.189
 3818SOL    HW212354   0.421   0.950   2.101
 3819SOL     OW12355   6.262   4.704   3.377
 3819SOL    HW112356   6.243   4.730   3.282
 3819SOL    HW212357   6.346   4.748   3.407
 3820SOL     OW12358   5.418   6.717   4.202
 3820SOL    HW112359   5.437   6.802   4.153
 3820SOL    HW212360   5.386   6.738   4.295
 3821SOL     OW12361   0.608   6.861   6.876
 3821SOL    HW112362   0.553   6.788   6.835
 3821SOL    HW212363   0.670   6.821   6.944
 3822SOL     OW12364   3.673   1.253   6.771
 3822SOL    HW112365   3.589   1.242   6.824
 3822SOL    HW212366   3.660   1.326   6.703
 3823SOL     OW12367   4.950   5.064   6.121
 3823SOL    HW112368   4.851   5.078   6.128
 3823SOL    HW212369   4.997   5.151   6.133
 3824SOL     OW12370   1.732   3.318   0.239
 3824SOL    HW112371   1.666   3.335   0.166
 3824SOL    HW212372   1.685   3.317   0.327
 3825SOL     OW12373   1.448   3.956   6.594
 3825SOL    HW112374   1.530   4.011   6.577
 3825SOL    HW212375   1.458   3.866   6.550
 3826SOL     OW12376   6.354   4.444   1.917
 3826SOL    HW112377   6.282   4.400   1.971
 3826SOL    HW212378   6.417   4.492   1.978
 3827SOL     OW12379   0.767   0.976   1.402
 3827SOL    HW112380   0.754   0.988   1.303
 3827SOL    HW212381   0.851   0.924   1.418
 3828SOL     OW12382   3.637   3.971   4.863
 3828SOL    HW112383   3.723   3.980   4.814
 3828SOL    HW212384   3.586   3.893   4.827
 3829SOL     OW12385   6.930   4.813   2.221
 3829SOL    HW112386   0.000   4.852   2.240
 3829SOL    HW212387   6.881   4.800   2.308
 3830SOL     OW12388   0.489   0.489   4.981
 3830SOL    HW112389   0.484   0.582   4.944
 3830SOL    HW212390   0.584   0.467   5.003
 3831SOL     OW12391   4.693   1.796   3.042
 3831SOL    HW112392   4.712   1.872   3.104
 3831SOL    HW212393   4.597   1.799   3.015
 3832SOL     OW12394   0.542   0.568   2.198
 3832SOL    HW112395   0.490   0.631   2.255
 3832SOL    HW212396   0.485   0.536   2.122
 3833SOL     OW12397   1.448   6.927   6.282
 3833SOL    HW112398   1.397   6.974   6.210
 3833SOL    HW212399   1.536   6.897   6.247
 3834SOL     OW12400   4.761   4.146   1.042
 3834SOL    HW112401   4.765   4.231   0.989
 3834SOL    HW212402   4.763   4.068   0.981
 3835SOL     OW12403   3.423   6.016   5.479
 3835SOL    HW112404   3.486   5.946   5.446
 3835SOL    HW212405   3.413   6.008   5.578
 3836SOL     OW12406   0.426   5.376   6.588
 3836SOL    HW112407   0.513   5.397   6.544
 3836SOL    HW212408   0.410   5.440   6.663
 3837SOL     OW12409   4.112   4.811   5.362
 3837SOL    HW112410   4.067   4.790   5.449
 3837SOL    HW212411   4.046   4.854   5.301
 3838SOL     OW12412   2.315   0.820   3.438
 3838SOL    HW112413   2.223   0.857   3.429
 3838SOL    HW212414   2.373   0.887   3.485
 3839SOL     OW12415   4.319   0.205   3.319
 3839SOL    HW112416   4.273   0.293   3.323
 3839SOL    HW212417   4.320   0.163   3.410
 3840SOL     OW12418   2.637   0.481   0.072
 3840SOL    HW112419   2.585   0.411   0.023
 3840SOL    HW212420   2.662   0.554   0.009
 3841SOL     OW12421   6.567   4.852   4.244
 3841SOL    HW112422   6.637   4.904   4.292
 3841SOL    HW212423   6.495   4.915   4.213
 3842SOL     OW12424   2.333   2.786   4.855
 3842SOL    HW112425   2.346   2.874   4.901
 3842SOL    HW212426   2.321   2.801   4.757
 3843SOL     OW12427   4.983   3.121   0.614
 3843SOL    HW112428   4.936   3.038   0.583
 3843SOL    HW212429   4.923   3.200   0.599
 3844SOL     OW12430   1.319   5.099   0.463
 3844SOL    HW112431   1.385   5.165   0.426
 3844SOL    HW212432   1.303   5.027   0.395
 3845SOL     OW12433   1.995   5.907   0.100
 3845SOL    HW112434   2.075   5.859   0.136
 3845SOL    HW212435   1.986   5.887   0.002
 3846SOL     OW12436   0.946   3.309   4.455
 3846SOL    HW112437   0.958   3.255   4.372
 3846SOL    HW212438   0.851   3.302   4.486
 3847SOL     OW12439   5.703   1.582   4.741
 3847SOL    HW112440   5.700   1.590   4.841
 3847SOL    HW212441   5.674   1.490   4.714
 3848SOL     OW12442   5.004   2.977   2.445
 3848SOL    HW112443   4.927   2.990   2.382
 3848SOL    HW212444   5.053   2.893   2.421
 3849SOL     OW12445   0.683   6.268   5.910
 3849SOL    HW112446   0.736   6.345   5.872
 3849SOL    HW212447   0.607   6.304   5.964
 3850SOL     OW12448   2.880   2.605   1.468
 3850SOL    HW112449   2.831   2.597   1.555
 3850SOL    HW212450   2.814   2.615   1.393
 3851SOL     OW12451   0.224   5.223   3.388
 3851SOL    HW112452   0.300   5.200   3.327
 3851SOL    HW212453   0.199   5.319   3.377
 3852SOL     OW12454   2.964   6.761   4.385
 3852SOL    HW112455   2.980   6.753   4.483
 3852SOL    HW212456   2.951   6.669   4.346
 3853SOL     OW12457   2.084   1.607   3.912
 3853SOL    HW112458   2.116   1.560   3.830
 3853SOL    HW212459   2.038   1.541   3.972
 3854SOL     OW12460   1.402   2.888   2.633
 3854SOL    HW112461   1.409   2.916   2.537
 3854SOL    HW212462   1.406   2.788   2.639
 3855SOL     OW12463   4.454   6.612   0.387
 3855SOL    HW112464   4.536   6.622   0.330
 3855SOL    HW212465   4.476   6.639   0.480
 3856SOL     OW12466   0.050   1.998   6.536
 3856SOL    HW112467   0.122   2.006   6.604
 3856SOL    HW212468   0.069   1.921   6.475
 3857SOL     OW12469   2.350   6.491   5.985
 3857SOL    HW112470   2.262   6.493   6.034
 3857SOL    HW212471   2.423   6.473   6.050
 3858SOL     OW12472   3.899   1.364   5.522
 3858SOL    HW112473   3.934   1.456   5.538
 3858SOL    HW212474   3.805   1.369   5.488
 3859SOL     OW12475   5.669   0.851   1.020
 3859SOL    HW112476   5.601   0.875   1.090
 3859SOL    HW212477   5.670   0.752   1.009
 3860SOL     OW12478   1.861   0.801   4.518
 3860SOL    HW112479   1.952   0.765   4.496
 3860SOL    HW212480   1.868   0.861   4.598
 3861SOL     OW12481   4.155   5.785   2.778
 3861SOL    HW112482   4.226   5.756   2.843
 3861SOL    HW212483   4.095   5.851   2.823
 3862SOL     OW12484   0.552   0.657   4.023
 3862SOL    HW112485   0.471   0.692   3.976
 3862SOL    HW212486   0.532   0.566   4.061
 3863SOL     OW12487   5.263   0.650   0.159
 3863SOL    HW112488   5.219   0.570   0.202
 3863SOL    HW212489   5.208   0.680   0.081
 3864SOL     OW12490   2.757   0.496   5.028
 3864SOL    HW112491   2.745   0.413   5.082
 3864SOL    HW212492   2.855   0.510   5.011
 3865SOL     OW12493   4.839   1.037   0.271
 3865SOL    HW112494   4.832   1.113   0.206
 3865SOL    HW212495   4.927   0.992   0.260
 3866SOL     OW12496   3.615   1.723   6.794
 3866SOL    HW112497   3.706   1.686   6.811
 3866SOL    HW212498   3.548   1.676   6.852
 3867SOL     OW12499   1.301   4.797   3.015
 3867SOL    HW112500   1.361   4.768   3.089
 3867SOL    HW212501   1.304   4.731   2.941
 3868SOL     OW12502   3.974   0.689   6.329
 3868SOL    HW112503   4.044   0.739   6.379
 3868SOL    HW212504   3.888   0.741   6.331
 3869SOL     OW12505   6.771   3.480   4.014
 3869SOL    HW112506   6.770   3.486   4.114
 3869SOL    HW212507   6.692   3.428   3.983
 3870SOL     OW12508   6.636   6.693   2.771
 3870SOL    HW112509   6.545   6.671   2.808
 3870SOL    HW212510   6.625   6.743   2.685
 3871SOL     OW12511   2.864   6.849   3.538
 3871SOL    HW112512   2.959   6.833   3.510
 3871SOL    HW212513   2.836   6.777   3.602
 3872SOL     OW12514   3.397   2.907   3.929
 3872SOL    HW112515   3.303   2.937   3.911
 3872SOL    HW212516   3.410   2.893   4.027
 3873SOL     OW12517   5.139   4.142   0.722
 3873SOL    HW112518   5.232   4.121   0.752
 3873SOL    HW212519   5.081   4.061   0.736
 3874SOL     OW12520   4.380   0.344   0.336
 3874SOL    HW112521   4.314   0.275   0.363
 3874SOL    HW212522   4.463   0.299   0.301
 3875SOL     OW12523   2.069   3.159   4.066
 3875SOL    HW112524   2.051   3.204   4.154
 3875SOL    HW212525   2.018   3.206   3.994
 3876SOL     OW12526   3.650   5.703   0.600
 3876SOL    HW112527   3.720   5.774   0.602
 3876SOL    HW212528   3.680   5.624   0.654
 3877SOL     OW12529   6.291   2.348   0.739
 3877SOL    HW112530   6.342   2.293   0.673
 3877SOL    HW212531   6.345   2.428   0.764
 3878SOL     OW12532   4.798   6.633   4.526
 3878SOL    HW112533   4.817   6.558   4.589
 3878SOL    HW212534   4.809   6.602   4.432
 3879SOL     OW12535   5.944   4.915   0.148
 3879SOL    HW112536   5.964   4.818   0.134
 3879SOL    HW212537   5.972   4.967   0.067
 3880SOL     OW12538   4.961   3.678   4.361
 3880SOL    HW112539   4.963   3.600   4.299
 3880SOL    HW212540   4.866   3.705   4.378
 3881SOL     OW12541   1.428   3.635   1.160
 3881SOL    HW112542   1.438   3.618   1.258
 3881SOL    HW212543   1.474   3.563   1.109
 3882SOL     OW12544   1.655   1.149   6.941
 3882SOL    HW112545   1.727   1.215   6.964
 3882SOL    HW212546   1.682   1.058   6.975
 3883SOL     OW12547   4.609   0.663   2.623
 3883SOL    HW112548   4.555   0.690   2.543
 3883SOL    HW212549   4.705   0.650   2.596
 3884SOL     OW12550   0.687   5.764   2.910
 3884SOL    HW112551   0.768   5.719   2.947
 3884SOL    HW212552   0.688   5.861   2.933
 3885SOL     OW12553   5.943   6.338   3.205
 3885SOL    HW112554   5.902   6.407   3.146
 3885SOL    HW212555   5.924   6.247   3.168
 3886SOL     OW12556   4.711   5.883   5.520
 3886SOL    HW112557   4.631   5.936   5.494
 3886SOL    HW212558   4.693   5.785   5.507
 3887SOL     OW12559   1.006   6.735   0.434
 3887SOL    HW112560   1.055   6.819   0.458
 3887SOL    HW212561   1.014   6.718   0.336
 3888SOL     OW12562   6.142   6.071   4.788
 3888SOL    HW112563   6.085   6.031   4.859
 3888SOL    HW212564   6.231   6.025   4.787
 3889SOL     OW12565   6.436   2.646   6.839
 3889SOL    HW112566   6.465   2.695   6.757
 3889SOL    HW212567   6.366   2.699   6.887
 3890SOL     OW12568   5.312   4.405   3.706
 3890SOL    HW112569   5.377   4.339   3.746
 3890SOL    HW212570   5.358   4.492   3.691
 3891SOL     OW12571   5.293   3.781   3.410
 3891SOL    HW112572   5.251   3.690   3.416
 3891SOL    HW212573   5.295   3.810   3.315
 3892SOL     OW12574   0.451   2.986   1.447
 3892SOL    HW112575   0.525   3.012   1.385
 3892SOL    HW212576   0.398   2.911   1.407
 3893SOL     OW12577   4.155   3.987   1.199
 3893SOL    HW112578   4.143   4.079   1.162
 3893SOL    HW212579   4.107   3.980   1.287
 3894SOL     OW12580   5.500   0.759   6.571
 3894SOL    HW112581   5.476   0.718   6.659
 3894SOL    HW212582   5.419   0.761   6.513
 3895SOL     OW12583   1.915   0.414   5.267
 3895SOL    HW112584   2.012   0.403   5.290
 3895SOL    HW212585   1.862   0.422   5.352
 3896SOL     OW12586   0.667   1.124   6.399
 3896SOL    HW112587   0.696   1.038   6.356
 3896SOL    HW212588   0.747   1.171   6.436
 3897SOL     OW12589   4.260   5.694   2.542
 3897SOL    HW112590   4.225   5.731   2.628
 3897SOL    HW212591   4.330   5.755   2.505
 3898SOL     OW12592   3.218   2.300   6.790
 3898SOL    HW112593   3.296   2.333   6.735
 3898SOL    HW212594   3.200   2.365   6.864
 3899SOL     OW12595   4.289   6.398   6.113
 3899SOL    HW112596   4.235   6.468   6.159
 3899SOL    HW212597   4.231   6.319   6.091
 3900SOL     OW12598   5.210   2.696   4.086
 3900SOL    HW112599   5.195   2.746   4.172
 3900SOL    HW212600   5.241   2.760   4.015
 3901SOL     OW12601   3.570   0.601   6.290
 3901SOL    HW112602   3.503   0.589   6.363
 3901SOL    HW212603   3.626   0.682   6.309
 3902SOL     OW12604   6.447   3.061   2.270
 3902SOL    HW112605   6.545   3.044   2.263
 3902SOL    HW212606   6.398   2.974   2.277
 3903SOL     OW12607   3.520   6.692   0.252
 3903SOL    HW112608   3.553   6.612   0.301
 3903SOL    HW212609   3.590   6.763   0.252
 3904SOL     OW12610   1.828   0.416   6.844
 3904SOL    HW112611   1.793   0.507   6.820
 3904SOL    HW212612   1.786   0.347   6.786
 3905SOL     OW12613   0.093   6.363   5.868
 3905SOL    HW112614   0.118   6.368   5.771
 3905SOL    HW212615   0.129   6.443   5.916
 3906SOL     OW12616   5.803   6.669   6.008
 3906SOL    HW112617   5.851   6.584   5.988
 3906SOL    HW212618   5.720   6.650   6.061
 3907SOL     OW12619   5.900   0.953   4.195
 3907SOL    HW112620   5.976   0.933   4.257
 3907SOL    HW212621   5.908   0.896   4.114
 3908SOL     OW12622   0.616   2.646   6.940
 3908SOL    HW112623   0.634   2.644   0.019
 3908SOL    HW212624   0.633   2.556   6.901
 3909SOL     OW12625   5.794   5.964   4.566
 3909SOL    HW112626   5.832   5.901   4.634
 3909SOL    HW212627   5.852   6.046   4.562
 3910SOL     OW12628   3.414   3.634   2.494
 3910SOL    HW112629   3.401   3.605   2.589
 3910SOL    HW212630   3.346   3.703   2.471
 3911SOL     OW12631   5.979   1.766   5.272
 3911SOL    HW112632   6.055   1.704   5.250
 3911SOL    HW212633   5.934   1.735   5.355
 3912SOL     OW12634   5.841   0.233   5.068
 3912SOL    HW112635   5.874   0.325   5.049
 3912SOL    HW212636   5.903   0.166   5.028
 3913SOL     OW12637   2.330   6.329   6.229
 3913SOL    HW112638   2.263   6.328   6.303
 3913SOL    HW212639   2.417   6.364   6.264
 3914SOL     OW12640   2.872   1.068   1.569
 3914SOL    HW112641   2.916   1.041   1.654
 3914SOL    HW212642   2.920   1.146   1.529
 3915SOL     OW12643   5.243   6.402   1.143
 3915SOL    HW112644   5.341   6.423   1.133
 3915SOL    HW212645   5.229   6.353   1.229
 3916SOL     OW12646   0.848   6.957   3.934
 3916SOL    HW112647   0.903   0.021   3.927
 3916SOL    HW212648   0.903   6.883   3.973
 3917SOL     OW12649   6.988   6.524   6.643
 3917SOL    HW112650   6.921   6.451   6.656
 3917SOL    HW212651   6.957   6.586   6.571
 3918SOL     OW12652   5.549   5.817   1.245
 3918SOL    HW112653   5.614   5.798   1.319
 3918SOL    HW212654   5.599   5.853   1.166
 3919SOL     OW12655   4.556   6.897   0.495
 3919SOL    HW112656   4.570   6.908   0.396
 3919SOL    HW212657   4.639   6.927   0.543
 3920SOL     OW12658   2.644   3.411   0.612
 3920SOL    HW112659   2.735   3.404   0.570
 3920SOL    HW212660   2.655   3.435   0.709
 3921SOL     OW12661   0.137   3.225   1.356
 3921SOL    HW112662   0.185   3.257   1.438
 3921SOL    HW212663   0.124   3.126   1.361
 3922SOL     OW12664   6.755   3.680   1.897
 3922SOL    HW112665   6.853   3.699   1.902
 3922SOL    HW212666   6.706   3.744   1.957
 3923SOL     OW12667   0.562   1.176   0.355
 3923SOL    HW112668   0.488   1.239   0.329
 3923SOL    HW212669   0.611   1.213   0.434
 3924SOL     OW12670   4.972   5.231   3.928
 3924SOL    HW112671   4.971   5.266   4.022
 3924SOL    HW212672   5.034   5.286   3.872
 3925SOL     OW12673   1.858   5.350   1.162
 3925SOL    HW112674   1.851   5.449   1.175
 3925SOL    HW212675   1.816   5.303   1.240
 3926SOL     OW12676   5.528   4.868   2.037
 3926SOL    HW112677   5.445   4.851   1.983
 3926SOL    HW212678   5.517   4.954   2.088
 3927SOL     OW12679   6.495   2.763   4.798
 3927SOL    HW112680   6.475   2.859   4.816
 3927SOL    HW212681   6.412   2.709   4.810
 3928SOL     OW12682   3.964   5.970   6.818
 3928SOL    HW112683   3.915   6.010   6.896
 3928SOL    HW212684   4.061   5.962   6.841
 3929SOL     OW12685   0.267   0.515   4.702
 3929SOL    HW112686   0.269   0.580   4.778
 3929SOL    HW212687   0.299   0.561   4.619
 3930SOL     OW12688   2.804   2.108   4.296
 3930SOL    HW112689   2.762   2.199   4.296
 3930SOL    HW212690   2.793   2.067   4.387
 3931SOL     OW12691   1.780   1.421   1.438
 3931SOL    HW112692   1.843   1.493   1.469
 3931SOL    HW212693   1.692   1.431   1.485
 3932SOL     OW12694   0.877   4.516   3.947
 3932SOL    HW112695   0.927   4.573   4.013
 3932SOL    HW212696   0.779   4.521   3.966
 3933SOL     OW12697   1.935   6.216   6.703
 3933SOL    HW112698   1.906   6.257   6.617
 3933SOL    HW212699   2.031   6.240   6.720
 3934SOL     OW12700   0.073   1.054   0.009
 3934SOL    HW112701   0.019   1.066   0.091
 3934SOL    HW212702   0.162   1.100   0.020
 3935SOL     OW12703   2.884   6.795   6.757
 3935SOL    HW112704   2.961   6.731   6.757
 3935SOL    HW212705   2.897   6.861   6.684
 3936SOL     OW12706   6.609   5.097   5.091
 3936SOL    HW112707   6.603   5.120   4.993
 3936SOL    HW212708   6.704   5.108   5.122
 3937SOL     OW12709   0.487   1.789   3.021
 3937SOL    HW112710   0.560   1.765   2.956
 3937SOL    HW212711   0.411   1.830   2.972
 3938SOL     OW12712   0.546   2.169   3.293
 3938SOL    HW112713   0.501   2.141   3.377
 3938SOL    HW212714   0.570   2.266   3.298
 3939SOL     OW12715   1.862   3.147   3.015
 3939SOL    HW112716   1.818   3.232   2.987
 3939SOL    HW212717   1.884   3.151   3.113
 3940SOL     OW12718   4.934   4.340   1.206
 3940SOL    HW112719   4.934   4.336   1.106
 3940SOL    HW212720   5.013   4.392   1.238
 3941SOL     OW12721   5.452   3.400   5.223
 3941SOL    HW112722   5.505   3.475   5.264
 3941SOL    HW212723   5.466   3.400   5.124
 3942SOL     OW12724   0.463   6.654   6.756
 3942SOL    HW112725   0.371   6.652   6.717
 3942SOL    HW212726   0.514   6.574   6.726
 3943SOL     OW12727   0.233   2.734   3.602
 3943SOL    HW112728   0.148   2.746   3.654
 3943SOL    HW212729   0.311   2.731   3.665
 3944SOL     OW12730   5.029   2.634   4.895
 3944SOL    HW112731   4.982   2.714   4.932
 3944SOL    HW212732   4.969   2.554   4.903
 3945SOL     OW12733   0.303   2.162   0.462
 3945SOL    HW112734   0.321   2.255   0.495
 3945SOL    HW212735   0.372   2.100   0.500
 3946SOL     OW12736   5.407   4.676   4.632
 3946SOL    HW112737   5.330   4.671   4.696
 3946SOL    HW212738   5.375   4.707   4.543
 3947SOL     OW12739   5.495   6.173   0.156
 3947SOL    HW112740   5.507   6.163   0.058
 3947SOL    HW212741   5.560   6.241   0.190
 3948SOL     OW12742   6.710   5.064   2.772
 3948SOL    HW112743   6.697   4.992   2.839
 3948SOL    HW212744   6.808   5.081   2.759
 3949SOL     OW12745   5.274   6.938   3.364
 3949SOL    HW112746   5.369   6.967   3.357
 3949SOL    HW212747   5.262   6.884   3.447
 3950SOL     OW12748   1.967   4.191   0.699
 3950SOL    HW112749   1.907   4.267   0.672
 3950SOL    HW212750   1.913   4.107   0.704
 3951SOL     OW12751   4.620   0.651   1.272
 3951SOL    HW112752   4.552   0.607   1.331
 3951SOL    HW212753   4.576   0.687   1.190
 3952SOL     OW12754   6.741   2.738   1.890
 3952SOL    HW112755   6.824   2.719   1.838
 3952SOL    HW212756   6.763   2.752   1.986
 3953SOL     OW12757   4.176   4.898   1.468
 3953SOL    HW112758   4.157   4.800   1.464
 3953SOL    HW212759   4.110   4.947   1.410
 3954SOL     OW12760   3.902   5.222   5.341
 3954SOL    HW112761   3.976   5.201   5.278
 3954SOL    HW212762   3.843   5.293   5.302
 3955SOL     OW12763   2.906   0.406   6.304
 3955SOL    HW112764   2.951   0.324   6.269
 3955SOL    HW212765   2.974   0.467   6.343
 3956SOL     OW12766   1.094   0.736   2.857
 3956SOL    HW112767   1.077   0.680   2.776
 3956SOL    HW212768   1.192   0.734   2.879
 3957SOL     OW12769   4.630   0.023   3.916
 3957SOL    HW112770   4.729   0.017   3.902
 3957SOL    HW212771   4.609   0.091   3.986
 3958SOL     OW12772   5.420   1.401   4.318
 3958SOL    HW112773   5.320   1.400   4.308
 3958SOL    HW212774   5.444   1.383   4.414
 3959SOL     OW12775   4.817   6.460   0.218
 3959SOL    HW112776   4.861   6.490   0.303
 3959SOL    HW212777   4.810   6.537   0.155
 3960SOL     OW12778   5.070   0.852   6.598
 3960SOL    HW112779   5.165   0.868   6.571
 3960SOL    HW212780   5.035   0.770   6.553
 3961SOL     OW12781   5.444   1.103   2.526
 3961SOL    HW112782   5.406   1.018   2.489
 3961SOL    HW212783   5.452   1.095   2.625
 3962SOL     OW12784   2.360   5.123   6.579
 3962SOL    HW112785   2.369   5.095   6.674
 3962SOL    HW212786   2.342   5.043   6.522
 3963SOL     OW12787   4.574   5.502   2.718
 3963SOL    HW112788   4.506   5.568   2.750
 3963SOL    HW212789   4.660   5.518   2.765
 3964SOL     OW12790   4.272   4.760   3.518
 3964SOL    HW112791   4.308   4.851   3.496
 3964SOL    HW212792   4.239   4.716   3.434
 3965SOL     OW12793   4.868   3.158   4.398
 3965SOL    HW112794   4.966   3.171   4.408
 3965SOL    HW212795   4.820   3.242   4.422
 3966SOL     OW12796   4.264   5.963   6.814
 3966SOL    HW112797   4.317   6.041   6.847
 3966SOL    HW212798   4.302   5.930   6.728
 3967SOL     OW12799   2.240   4.053   2.093
 3967SOL    HW112800   2.153   4.087   2.057
 3967SOL    HW212801   2.236   3.954   2.100
 3968SOL     OW12802   4.418   0.811   0.656
 3968SOL    HW112803   4.491   0.872   0.628
 3968SOL    HW212804   4.451   0.716   0.654
 3969SOL     OW12805   1.294   4.848   2.086
 3969SOL    HW112806   1.325   4.755   2.063
 3969SOL    HW212807   1.326   4.873   2.177
 3970SOL     OW12808   5.069   6.164   3.100
 3970SOL    HW112809   5.083   6.180   3.197
 3970SOL    HW212810   5.030   6.247   3.058
 3971SOL     OW12811   3.193   5.178   4.113
 3971SOL    HW112812   3.217   5.215   4.023
 3971SOL    HW212813   3.207   5.079   4.113
 3972SOL     OW12814   1.516   3.730   0.512
 3972SOL    HW112815   1.536   3.638   0.544
 3972SOL    HW212816   1.527   3.795   0.588
 3973SOL     OW12817   1.383   5.620   6.373
 3973SOL    HW112818   1.464   5.627   6.430
 3973SOL    HW212819   1.404   5.650   6.280
 3974SOL     OW12820   1.955   6.619   5.387
 3974SOL    HW112821   2.005   6.631   5.301
 3974SOL    HW212822   1.951   6.522   5.410
 3975SOL     OW12823   5.472   1.238   6.210
 3975SOL    HW112824   5.530   1.281   6.280
 3975SOL    HW212825   5.393   1.196   6.253
 3976SOL     OW12826   1.873   6.320   2.412
 3976SOL    HW112827   1.970   6.329   2.394
 3976SOL    HW212828   1.859   6.259   2.491
 3977SOL     OW12829   1.987   3.232   6.068
 3977SOL    HW112830   2.052   3.307   6.076
 3977SOL    HW212831   1.968   3.194   6.158
 3978SOL     OW12832   5.664   5.300   3.346
 3978SOL    HW112833   5.590   5.341   3.292
 3978SOL    HW212834   5.683   5.208   3.312
 3979SOL     OW12835   4.311   0.961   6.668
 3979SOL    HW112836   4.261   0.920   6.591
 3979SOL    HW212837   4.302   0.902   6.748
 3980SOL     OW12838   5.595   6.365   6.629
 3980SOL    HW112839   5.535   6.439   6.659
 3980SOL    HW212840   5.556   6.321   6.548
 3981SOL     OW12841   3.599   6.437   0.406
 3981SOL    HW112842   3.586   6.467   0.500
 3981SOL    HW212843   3.694   6.409   0.392
 3982SOL     OW12844   2.476   6.537   3.482
 3982SOL    HW112845   2.499   6.444   3.454
 3982SOL    HW212846   2.550   6.575   3.537
 3983SOL     OW12847   4.683   4.853   4.045
 3983SOL    HW112848   4.729   4.818   4.127
 3983SOL    HW212849   4.679   4.953   4.050
 3984SOL     OW12850   6.693   1.080   1.841
 3984SOL    HW112851   6.768   1.088   1.906
 3984SOL    HW212852   6.728   1.049   1.753
 3985SOL     OW12853   2.969   4.659   6.735
 3985SOL    HW112854   3.056   4.616   6.758
 3985SOL    HW212855   2.907   4.651   6.813
 3986SOL     OW12856   5.069   1.609   2.534
 3986SOL    HW112857   5.079   1.688   2.595
 3986SOL    HW212858   5.080   1.638   2.439
 3987SOL     OW12859   3.680   5.215   3.732
 3987SOL    HW112860   3.631   5.234   3.817
 3987SOL    HW212861   3.693   5.116   3.722
 3988SOL     OW12862   3.281   4.945   7.017
 3988SOL    HW112863   3.247   4.887   6.943
 3988SOL    HW212864   3.247   4.911   0.085
 3989SOL     OW12865   6.563   2.412   6.870
 3989SOL    HW112866   6.650   2.404   6.821
 3989SOL    HW212867   6.531   2.507   6.866
 3990SOL     OW12868   4.471   2.506   2.609
 3990SOL    HW112869   4.553   2.451   2.621
 3990SOL    HW212870   4.481   2.564   2.528
 3991SOL     OW12871   6.820   1.264   2.139
 3991SOL    HW112872   6.790   1.223   2.225
 3991SOL    HW212873   6.745   1.317   2.100
 3992SOL     OW12874   3.145   1.391   0.111
 3992SOL    HW112875   3.196   1.474   0.088
 3992SOL    HW212876   3.134   1.335   0.029
 3993SOL     OW12877   1.553   3.092   2.084
 3993SOL    HW112878   1.538   3.010   2.028
 3993SOL    HW212879   1.650   3.100   2.106
 3994SOL     OW12880   2.888   6.974   5.964
 3994SOL    HW112881   2.927   6.893   5.921
 3994SOL    HW212882   2.788   6.965   5.966
 3995SOL     OW12883   2.072   4.072   6.062
 3995SOL    HW112884   2.035   3.992   6.110
 3995SOL    HW212885   2.167   4.054   6.036
 3996SOL     OW12886   0.792   6.727   4.643
 3996SOL    HW112887   0.739   6.690   4.567
 3996SOL    HW212888   0.742   6.712   4.729
 3997SOL     OW12889   5.808   2.007   3.178
 3997SOL    HW112890   5.757   2.092   3.191
 3997SOL    HW212891   5.750   1.929   3.201
 3998SOL     OW12892   3.875   1.290   3.927
 3998SOL    HW112893   3.955   1.243   3.965
 3998SOL    HW212894   3.791   1.249   3.963
 3999SOL     OW12895   5.840   2.455   3.861
 3999SOL    HW112896   5.930   2.412   3.865
 3999SOL    HW212897   5.822   2.502   3.947
 4000SOL     OW12898   2.910   0.095   3.751
 4000SOL    HW112899   2.921   0.173   3.813
 4000SOL    HW212900   2.827   0.045   3.775
 4001SOL     OW12901   2.634   1.830   4.141
 4001SOL    HW112902   2.584   1.890   4.203
 4001SOL    HW212903   2.708   1.881   4.097
 4002SOL     OW12904   3.159   4.291   1.448
 4002SOL    HW112905   3.193   4.384   1.464
 4002SOL    HW212906   3.067   4.295   1.410
 4003SOL     OW12907   3.199   0.209   4.041
 4003SOL    HW112908   3.141   0.229   3.962
 4003SOL    HW212909   3.294   0.197   4.010
 4004SOL     OW12910   5.779   2.175   4.642
 4004SOL    HW112911   5.768   2.111   4.565
 4004SOL    HW212912   5.804   2.125   4.724
 4005SOL     OW12913   5.136   5.242   6.454
 4005SOL    HW112914   5.119   5.161   6.510
 4005SOL    HW212915   5.232   5.266   6.458
 4006SOL     OW12916   4.276   5.326   2.061
 4006SOL    HW112917   4.292   5.229   2.077
 4006SOL    HW212918   4.191   5.354   2.104
 4007SOL     OW12919   6.947   2.709   6.932
 4007SOL    HW112920   0.010   2.753   6.898
 4007SOL    HW212921   6.876   2.778   6.948
 4008SOL     OW12922   2.709   2.077   4.901
 4008SOL    HW112923   2.609   2.076   4.913
 4008SOL    HW212924   2.734   2.158   4.847
 4009SOL     OW12925   4.526   3.171   1.366
 4009SOL    HW112926   4.569   3.091   1.323
 4009SOL    HW212927   4.515   3.155   1.464
 4010SOL     OW12928   2.425   2.917   1.411
 4010SOL    HW112929   2.519   2.947   1.430
 4010SOL    HW212930   2.361   2.989   1.440
 4011SOL     OW12931   0.979   1.764   1.935
 4011SOL    HW112932   1.029   1.847   1.910
 4011SOL    HW212933   0.892   1.762   1.886
 4012SOL     OW12934   6.590   4.316   2.089
 4012SOL    HW112935   6.646   4.248   2.043
 4012SOL    HW212936   6.494   4.292   2.080
 4013SOL     OW12937   3.480   2.025   4.790
 4013SOL    HW112938   3.528   2.077   4.719
 4013SOL    HW212939   3.538   2.018   4.871
 4014SOL     OW12940   5.955   6.276   2.329
 4014SOL    HW112941   5.894   6.326   2.267
 4014SOL    HW212942   5.901   6.216   2.388
 4015SOL     OW12943   5.028   4.307   6.095
 4015SOL    HW112944   5.018   4.381   6.162
 4015SOL    HW212945   5.080   4.340   6.016
 4016SOL     OW12946   2.412   5.852   5.996
 4016SOL    HW112947   2.404   5.899   6.085
 4016SOL    HW212948   2.467   5.908   5.934
 4017SOL     OW12949   6.924   6.178   0.713
 4017SOL    HW112950   6.916   6.080   0.700
 4017SOL    HW212951   7.015   6.199   0.752
 4018SOL     OW12952   4.467   6.180   2.069
 4018SOL    HW112953   4.538   6.234   2.115
 4018SOL    HW212954   4.382   6.189   2.120
 4019SOL     OW12955   5.166   4.548   2.924
 4019SOL    HW112956   5.078   4.518   2.888
 4019SOL    HW212957   5.189   4.637   2.885
 4020SOL     OW12958   4.447   2.527   4.990
 4020SOL    HW112959   4.355   2.503   5.021
 4020SOL    HW212960   4.486   2.597   5.051
 4021SOL     OW12961   3.424   5.244   6.583
 4021SOL    HW112962   3.492   5.299   6.633
 4021SOL    HW212963   3.352   5.215   6.647
 4022SOL     OW12964   4.747   1.789   0.153
 4022SOL    HW112965   4.813   1.848   0.106
 4022SOL    HW212966   4.751   1.808   0.251
 4023SOL     OW12967   6.570   2.264   4.697
 4023SOL    HW112968   6.579   2.165   4.686
 4023SOL    HW212969   6.632   2.295   4.768
 4024SOL     OW12970   3.933   5.682   4.301
 4024SOL    HW112971   3.846   5.632   4.294
 4024SOL    HW212972   3.965   5.705   4.209
 4025SOL     OW12973   0.842   3.866   3.417
 4025SOL    HW112974   0.941   3.852   3.418
 4025SOL    HW212975   0.820   3.951   3.463
 4026SOL     OW12976   5.091   6.436   3.877
 4026SOL    HW112977   5.113   6.340   3.894
 4026SOL    HW212978   5.147   6.470   3.802
 4027SOL     OW12979   3.781   4.561   1.605
 4027SOL    HW112980   3.727   4.567   1.521
 4027SOL    HW212981   3.730   4.601   1.681
 4028SOL     OW12982   1.838   1.958   4.202
 4028SOL    HW112983   1.783   2.011   4.267
 4028SOL    HW212984   1.858   1.868   4.241
 4029SOL     OW12985   2.223   4.031   5.588
 4029SOL    HW112986   2.271   4.059   5.671
 4029SOL    HW212987   2.284   4.037   5.509
 4030SOL     OW12988   0.140   1.996   5.603
 4030SOL    HW112989   0.224   1.946   5.582
 4030SOL    HW212990   0.091   1.949   5.677
 4031SOL     OW12991   4.044   5.691   4.045
 4031SOL    HW112992   3.961   5.635   4.050
 4031SOL    HW212993   4.107   5.652   3.979
 4032SOL     OW12994   5.537   6.981   3.414
 4032SOL    HW112995   5.523   0.045   3.466
 4032SOL    HW212996   5.519   6.902   3.473
 4033SOL     OW12997   3.020   3.269   4.339
 4033SOL    HW112998   3.099   3.214   4.366
 4033SOL    HW212999   3.001   3.255   4.242
 4034SOL     OW13000   6.581   1.613   4.417
 4034SOL    HW113001   6.520   1.613   4.496
 4034SOL    HW213002   6.527   1.615   4.333
 4035SOL     OW13003   0.789   3.960   6.377
 4035SOL    HW113004   0.693   3.948   6.399
 4035SOL    HW213005   0.840   3.986   6.459
 4036SOL     OW13006   6.151   6.420   2.724
 4036SOL    HW113007   6.204   6.341   2.693
 4036SOL    HW213008   6.138   6.414   2.823
 4037SOL     OW13009   0.878   3.464   6.545
 4037SOL    HW113010   0.941   3.389   6.526
 4037SOL    HW213011   0.800   3.459   6.483
 4038SOL     OW13012   5.319   4.665   3.230
 4038SOL    HW113013   5.396   4.612   3.193
 4038SOL    HW213014   5.256   4.689   3.156
 4039SOL     OW13015   5.687   6.368   0.229
 4039SOL    HW113016   5.772   6.329   0.263
 4039SOL    HW213017   5.687   6.467   0.244
 4040SOL     OW13018   3.556   6.620   1.444
 4040SOL    HW113019   3.476   6.593   1.390
 4040SOL    HW213020   3.632   6.558   1.425
 4041SOL     OW13021   1.211   6.189   3.738
 4041SOL    HW113022   1.222   6.097   3.701
 4041SOL    HW213023   1.203   6.254   3.663
 4042SOL     OW13024   5.794   5.328   1.806
 4042SOL    HW113025   5.733   5.274   1.747
 4042SOL    HW213026   5.843   5.395   1.750
 4043SOL     OW13027   5.727   1.883   1.927
 4043SOL    HW113028   5.654   1.901   1.861
 4043SOL    HW213029   5.757   1.788   1.918
 4044SOL     OW13030   6.061   0.013   3.262
 4044SOL    HW113031   6.159   7.011   3.253
 4044SOL    HW213032   6.047   0.110   3.244
 4045SOL     OW13033   1.640   5.310   6.628
 4045SOL    HW113034   1.619   5.248   6.553
 4045SOL    HW213035   1.568   5.379   6.636
 4046SOL     OW13036   0.800   2.858   1.575
 4046SOL    HW113037   0.832   2.916   1.650
 4046SOL    HW213038   0.701   2.845   1.583
 4047SOL     OW13039   2.751   3.756   1.711
 4047SOL    HW113040   2.709   3.847   1.709
 4047SOL    HW213041   2.850   3.766   1.721
 4048SOL     OW13042   4.719   0.406   0.965
 4048SOL    HW113043   4.715   0.323   0.909
 4048SOL    HW213044   4.635   0.413   1.019
 4049SOL     OW13045   5.492   6.734   5.294
 4049SOL    HW113046   5.453   6.797   5.361
 4049SOL    HW213047   5.460   6.641   5.313
 4050SOL     OW13048   1.688   6.759   0.849
 4050SOL    HW113049   1.776   6.712   0.851
 4050SOL    HW213050   1.628   6.714   0.783
 4051SOL     OW13051   3.197   4.208   1.056
 4051SOL    HW113052   3.146   4.140   1.108
 4051SOL    HW213053   3.140   4.245   0.983
 4052SOL     OW13054   0.410   0.987   0.741
 4052SOL    HW113055   0.372   1.074   0.709
 4052SOL    HW213056   0.339   0.917   0.737
 4053SOL     OW13057   3.514   4.986   3.595
 4053SOL    HW113058   3.420   4.971   3.626
 4053SOL    HW213059   3.526   5.081   3.568
 4054SOL     OW13060   3.596   2.554   1.046
 4054SOL    HW113061   3.523   2.494   1.080
 4054SOL    HW213062   3.568   2.649   1.054
 4055SOL     OW13063   4.010   1.856   5.750
 4055SOL    HW113064   3.943   1.930   5.760
 4055SOL    HW213065   4.052   1.837   5.839
 4056SOL     OW13066   3.700   3.390   0.306
 4056SOL    HW113067   3.662   3.483   0.305
 4056SOL    HW213068   3.649   3.335   0.372
 4057SOL     OW13069   4.409   2.636   6.393
 4057SOL    HW113070   4.407   2.720   6.448
 4057SOL    HW213071   4.503   2.621   6.360
 4058SOL     OW13072   2.261   0.880   5.605
 4058SOL    HW113073   2.305   0.886   5.515
 4058SOL    HW213074   2.179   0.938   5.606
 4059SOL     OW13075   1.025   1.759   5.438
 4059SOL    HW113076   1.106   1.780   5.384
 4059SOL    HW213077   0.966   1.839   5.443
 4060SOL     OW13078   4.416   5.100   4.300
 4060SOL    HW113079   4.459   5.181   4.341
 4060SOL    HW213080   4.317   5.113   4.296
 4061SOL     OW13081   3.191   3.818   2.379
 4061SOL    HW113082   3.204   3.908   2.337
 4061SOL    HW213083   3.115   3.771   2.334
 4062SOL     OW13084   3.021   0.876   3.301
 4062SOL    HW113085   3.085   0.952   3.294
 4062SOL    HW213086   2.963   0.873   3.220
 4063SOL     OW13087   2.437   5.088   6.205
 4063SOL    HW113088   2.486   5.016   6.254
 4063SOL    HW213089   2.474   5.177   6.232
 4064SOL     OW13090   6.639   1.444   3.645
 4064SOL    HW113091   6.685   1.506   3.709
 4064SOL    HW213092   6.643   1.351   3.680
 4065SOL     OW13093   0.066   0.006   0.186
 4065SOL    HW113094   0.159   0.022   0.221
 4065SOL    HW213095   0.069   0.003   0.086
 4066SOL     OW13096   6.179   4.538   1.679
 4066SOL    HW113097   6.219   4.481   1.751
 4066SOL    HW213098   6.218   4.512   1.590
 4067SOL     OW13099   6.194   1.488   2.356
 4067SOL    HW113100   6.131   1.487   2.278
 4067SOL    HW213101   6.264   1.557   2.341
 4068SOL     OW13102   5.824   0.233   3.587
 4068SOL    HW113103   5.760   0.158   3.606
 4068SOL    HW213104   5.886   0.205   3.514
 4069SOL     OW13105   5.826   4.887   1.140
 4069SOL    HW113106   5.872   4.965   1.183
 4069SOL    HW213107   5.821   4.903   1.041
 4070SOL     OW13108   1.716   3.630   3.109
 4070SOL    HW113109   1.681   3.540   3.136
 4070SOL    HW213110   1.773   3.667   3.183
 4071SOL     OW13111   0.889   0.234   4.130
 4071SOL    HW113112   0.797   0.197   4.142
 4071SOL    HW213113   0.883   0.330   4.102
 4072SOL     OW13114   1.776   0.017   4.857
 4072SOL    HW113115   1.710   7.002   4.789
 4072SOL    HW213116   1.726   0.059   4.933
 4073SOL     OW13117   2.216   6.167   0.283
 4073SOL    HW113118   2.147   6.189   0.214
 4073SOL    HW213119   2.224   6.067   0.291
 4074SOL     OW13120   1.498   2.967   1.031
 4074SOL    HW113121   1.549   2.954   0.946
 4074SOL    HW213122   1.521   3.055   1.072
 4075SOL     OW13123   4.739   1.946   3.262
 4075SOL    HW113124   4.681   2.026   3.280
 4075SOL    HW213125   4.833   1.976   3.248
 4076SOL     OW13126   1.523   3.772   4.325
 4076SOL    HW113127   1.592   3.831   4.286
 4076SOL    HW213128   1.547   3.676   4.308
 4077SOL     OW13129   3.683   1.214   0.854
 4077SOL    HW113130   3.723   1.184   0.767
 4077SOL    HW213131   3.653   1.309   0.846
 4078SOL     OW13132   6.224   3.985   1.081
 4078SOL    HW113133   6.190   3.915   1.145
 4078SOL    HW213134   6.323   3.994   1.090
 4079SOL     OW13135   0.336   0.839   3.696
 4079SOL    HW113136   0.323   0.918   3.756
 4079SOL    HW213137   0.264   0.838   3.626
 4080SOL     OW13138   3.396   3.869   1.785
 4080SOL    HW113139   3.399   3.770   1.774
 4080SOL    HW213140   3.326   3.893   1.852
 4081SOL     OW13141   2.055   2.294   5.732
 4081SOL    HW113142   2.030   2.327   5.823
 4081SOL    HW213143   2.024   2.199   5.721
 4082SOL     OW13144   1.198   2.933   4.385
 4082SOL    HW113145   1.158   2.925   4.293
 4082SOL    HW213146   1.296   2.950   4.377
 4083SOL     OW13147   5.435   5.308   2.753
 4083SOL    HW113148   5.363   5.277   2.691
 4083SOL    HW213149   5.430   5.408   2.762
 4084SOL     OW13150   4.489   0.806   3.445
 4084SOL    HW113151   4.474   0.786   3.348
 4084SOL    HW213152   4.403   0.795   3.495
 4085SOL     OW13153   3.025   5.096   2.010
 4085SOL    HW113154   3.038   5.101   2.109
 4085SOL    HW213155   3.066   5.013   1.975
 4086SOL     OW13156   6.169   5.248   5.936
 4086SOL    HW113157   6.072   5.265   5.917
 4086SOL    HW213158   6.213   5.334   5.962
 4087SOL     OW13159   2.816   0.111   2.493
 4087SOL    HW113160   2.798   0.015   2.511
 4087SOL    HW213161   2.913   0.130   2.506
 4088SOL     OW13162   0.718   1.597   5.843
 4088SOL    HW113163   0.645   1.651   5.885
 4088SOL    HW213164   0.700   1.586   5.745
 4089SOL     OW13165   0.282   0.294   3.835
 4089SOL    HW113166   0.192   0.251   3.829
 4089SOL    HW213167   0.271   0.392   3.854
 4090SOL     OW13168   2.635   0.514   5.678
 4090SOL    HW113169   2.726   0.496   5.715
 4090SOL    HW213170   2.630   0.608   5.644
 4091SOL     OW13171   2.000   5.622   1.769
 4091SOL    HW113172   2.021   5.651   1.675
 4091SOL    HW213173   2.077   5.645   1.828
 4092SOL     OW13174   4.959   2.968   3.796
 4092SOL    HW113175   4.973   2.870   3.810
 4092SOL    HW213176   4.957   2.988   3.698
 4093SOL     OW13177   4.028   5.281   2.737
 4093SOL    HW113178   4.083   5.364   2.736
 4093SOL    HW213179   4.060   5.220   2.809
 4094SOL     OW13180   6.546   5.495   6.472
 4094SOL    HW113181   6.591   5.579   6.441
 4094SOL    HW213182   6.554   5.487   6.571
 4095SOL     OW13183   0.506   4.875   6.660
 4095SOL    HW113184   0.548   4.906   6.574
 4095SOL    HW213185   0.461   4.952   6.705
 4096SOL     OW13186   1.745   1.592   6.799
 4096SOL    HW113187   1.646   1.574   6.799
 4096SOL    HW213188   1.760   1.691   6.802
 4097SOL     OW13189   0.221   5.106   4.616
 4097SOL    HW113190   0.172   5.043   4.556
 4097SOL    HW213191   0.299   5.060   4.656
 4098SOL     OW13192   2.399   4.851   3.338
 4098SOL    HW113193   2.393   4.876   3.241
 4098SOL    HW213194   2.307   4.847   3.378
 4099SOL     OW13195   4.790   4.739   5.864
 4099SOL    HW113196   4.799   4.824   5.811
 4099SOL    HW213197   4.727   4.678   5.817
 4100SOL     OW13198   1.287   0.121   3.659
 4100SOL    HW113199   1.281   0.065   3.576
 4100SOL    HW213200   1.200   0.118   3.708
 4101SOL     OW13201   6.236   6.980   0.671
 4101SOL    HW113202   6.260   7.008   0.764
 4101SOL    HW213203   6.141   7.006   0.652
 4102SOL     OW13204   1.254   0.934   7.002
 4102SOL    HW113205   1.236   0.866   0.054
 4102SOL    HW213206   1.290   1.018   0.024
 4103SOL     OW13207   1.339   6.632   2.848
 4103SOL    HW113208   1.420   6.683   2.821
 4103SOL    HW213209   1.350   6.598   2.941
 4104SOL     OW13210   0.868   6.078   4.453
 4104SOL    HW113211   0.957   6.056   4.492
 4104SOL    HW213212   0.824   5.993   4.423
 4105SOL     OW13213   4.790   1.213   1.245
 4105SOL    HW113214   4.776   1.217   1.344
 4105SOL    HW213215   4.736   1.139   1.207
 4106SOL     OW13216   0.043   2.418   3.504
 4106SOL    HW113217   0.045   2.509   3.461
 4106SOL    HW213218   6.969   2.384   3.505
 4107SOL     OW13219   0.229   6.479   6.672
 4107SOL    HW113220   0.130   6.489   6.658
 4107SOL    HW213221   0.247   6.453   6.767
 4108SOL     OW13222   6.226   5.364   3.952
 4108SOL    HW113223   6.131   5.394   3.948
 4108SOL    HW213224   6.286   5.444   3.954
 4109SOL     OW13225   6.055   6.698   2.704
 4109SOL    HW113226   5.968   6.720   2.747
 4109SOL    HW213227   6.078   6.602   2.721
 4110SOL     OW13228   4.331   4.014   0.265
 4110SOL    HW113229   4.313   3.984   0.172
 4110SOL    HW213230   4.301   4.109   0.276
 4111SOL     OW13231   6.255   4.129   4.127
 4111SOL    HW113232   6.166   4.171   4.144
 4111SOL    HW213233   6.248   4.030   4.144
 4112SOL     OW13234   5.083   6.871   5.369
 4112SOL    HW113235   5.085   6.884   5.270
 4112SOL    HW213236   5.102   6.775   5.390
 4113SOL     OW13237   4.177   5.062   5.040
 4113SOL    HW113238   4.132   5.035   5.125
 4113SOL    HW213239   4.236   4.987   5.009
 4114SOL     OW13240   0.395   1.950   2.002
 4114SOL    HW113241   0.399   1.890   1.922
 4114SOL    HW213242   0.339   2.030   1.981
 4115SOL     OW13243   3.861   5.192   4.385
 4115SOL    HW113244   3.772   5.156   4.359
 4115SOL    HW213245   3.871   5.189   4.485
 4116SOL     OW13246   5.512   2.724   3.507
 4116SOL    HW113247   5.527   2.805   3.564
 4116SOL    HW213248   5.522   2.749   3.410
 4117SOL     OW13249   1.171   2.070   3.151
 4117SOL    HW113250   1.188   1.972   3.150
 4117SOL    HW213251   1.081   2.089   3.113
 4118SOL     OW13252   0.427   6.425   5.921
 4118SOL    HW113253   0.443   6.472   5.834
 4118SOL    HW213254   0.393   6.333   5.903
 4119SOL     OW13255   1.878   1.518   3.698
 4119SOL    HW113256   1.799   1.475   3.741
 4119SOL    HW213257   1.960   1.462   3.715
 4120SOL     OW13258   1.596   0.969   6.258
 4120SOL    HW113259   1.524   1.027   6.296
 4120SOL    HW213260   1.683   0.992   6.300
 4121SOL     OW13261   6.596   6.657   1.835
 4121SOL    HW113262   6.622   6.604   1.754
 4121SOL    HW213263   6.666   6.727   1.852
 4122SOL     OW13264   6.644   4.801   3.509
 4122SOL    HW113265   6.597   4.714   3.524
 4122SOL    HW213266   6.579   4.876   3.521
 4123SOL     OW13267   3.983   5.405   2.139
 4123SOL    HW113268   3.913   5.464   2.180
 4123SOL    HW213269   3.953   5.310   2.142
 4124SOL     OW13270   6.692   5.874   0.202
 4124SOL    HW113271   6.597   5.891   0.229
 4124SOL    HW213272   6.744   5.844   0.282
 4125SOL     OW13273   5.752   1.625   1.873
 4125SOL    HW113274   5.825   1.562   1.901
 4125SOL    HW213275   5.663   1.583   1.891
 4126SOL     OW13276   1.272   3.519   2.399
 4126SOL    HW113277   1.308   3.503   2.307
 4126SOL    HW213278   1.270   3.617   2.418
 4127SOL     OW13279   3.950   1.682   3.756
 4127SOL    HW113280   3.983   1.746   3.826
 4127SOL    HW213281   3.885   1.729   3.696
 4128SOL     OW13282   0.302   3.142   0.645
 4128SOL    HW113283   0.276   3.233   0.679
 4128SOL    HW213284   0.219   3.092   0.620
 4129SOL     OW13285   2.372   2.414   0.390
 4129SOL    HW113286   2.460   2.435   0.348
 4129SOL    HW213287   2.332   2.497   0.429
 4130SOL     OW13288   5.103   2.770   0.981
 4130SOL    HW113289   5.191   2.784   1.027
 4130SOL    HW213290   5.071   2.858   0.944
 4131SOL     OW13291   4.560   0.653   2.885
 4131SOL    HW113292   4.578   0.673   2.789
 4131SOL    HW213293   4.531   0.558   2.895
 4132SOL     OW13294   6.552   4.695   3.858
 4132SOL    HW113295   6.642   4.679   3.819
 4132SOL    HW213296   6.553   4.675   3.956
 4133SOL     OW13297   5.729   0.066   2.613
 4133SOL    HW113298   5.709   0.025   2.524
 4133SOL    HW213299   5.667   0.028   2.681
 4134SOL     OW13300   2.007   3.163   1.216
 4134SOL    HW113301   2.012   3.094   1.144
 4134SOL    HW213302   1.928   3.223   1.198
 4135SOL     OW13303   0.003   1.446   2.852
 4135SOL    HW113304   0.096   1.461   2.819
 4135SOL    HW213305   6.995   1.522   2.910
 4136SOL     OW13306   1.790   4.677   1.669
 4136SOL    HW113307   1.710   4.689   1.728
 4136SOL    HW213308   1.862   4.739   1.697
 4137SOL     OW13309   1.915   2.218   0.092
 4137SOL    HW113310   1.964   2.237   0.177
 4137SOL    HW213311   1.981   2.195   0.020
 4138SOL     OW13312   4.995   6.552   0.806
 4138SOL    HW113313   5.066   6.558   0.875
 4138SOL    HW213314   4.967   6.645   0.779
 4139SOL     OW13315   2.108   2.748   2.592
 4139SOL    HW113316   2.146   2.712   2.677
 4139SOL    HW213317   2.110   2.847   2.593
 4140SOL     OW13318   2.442   2.611   5.331
 4140SOL    HW113319   2.388   2.627   5.414
 4140SOL    HW213320   2.518   2.550   5.353
 4141SOL     OW13321   4.751   6.752   6.475
 4141SOL    HW113322   4.794   6.780   6.389
 4141SOL    HW213323   4.753   6.652   6.483
 4142SOL     OW13324   6.913   4.190   3.037
 4142SOL    HW113325   6.814   4.174   3.043
 4142SOL    HW213326   6.959   4.139   3.109
 4143SOL     OW13327   5.866   3.263   0.364
 4143SOL    HW113328   5.902   3.228   0.451
 4143SOL    HW213329   5.768   3.282   0.374
 4144SOL     OW13330   5.699   2.205   0.837
 4144SOL    HW113331   5.709   2.260   0.920
 4144SOL    HW213332   5.629   2.135   0.853
 4145SOL     OW13333   6.986   6.899   1.491
 4145SOL    HW113334   0.054   6.929   1.454
 4145SOL    HW213335   6.999   6.818   1.548
 4146SOL     OW13336   5.024   6.381   3.456
 4146SOL    HW113337   5.022   6.289   3.419
 4146SOL    HW213338   4.948   6.434   3.419
 4147SOL     OW13339   5.381   3.998   5.956
 4147SOL    HW113340   5.321   4.039   6.025
 4147SOL    HW213341   5.473   4.035   5.965
 4148SOL     OW13342   2.771   1.328   5.970
 4148SOL    HW113343   2.835   1.265   5.926
 4148SOL    HW213344   2.678   1.293   5.961
 4149SOL     OW13345   2.122   2.823   0.254
 4149SOL    HW113346   2.165   2.907   0.284
 4149SOL    HW213347   2.023   2.829   0.268
 4150SOL     OW13348   5.985   2.023   5.646
 4150SOL    HW113349   5.925   1.961   5.697
 4150SOL    HW213350   5.944   2.114   5.641
 4151SOL     OW13351   2.434   6.763   4.253
 4151SOL    HW113352   2.464   6.677   4.211
 4151SOL    HW213353   2.403   6.746   4.346
 4152SOL     OW13354   2.840   5.035   1.145
 4152SOL    HW113355   2.798   5.120   1.114
 4152SOL    HW213356   2.847   5.035   1.245
 4153SOL     OW13357   6.926   5.186   1.651
 4153SOL    HW113358   7.000   5.180   1.584
 4153SOL    HW213359   6.958   5.149   1.738
 4154SOL     OW13360   1.156   5.990   4.299
 4154SOL    HW113361   1.131   6.087   4.290
 4154SOL    HW213362   1.147   5.962   4.394
 4155SOL     OW13363   0.665   2.042   1.130
 4155SOL    HW113364   0.584   2.084   1.088
 4155SOL    HW213365   0.747   2.086   1.095
 4156SOL     OW13366   6.553   5.518   5.027
 4156SOL    HW113367   6.640   5.469   5.016
 4156SOL    HW213368   6.495   5.469   5.092
 4157SOL     OW13369   6.546   6.233   2.143
 4157SOL    HW113370   6.558   6.138   2.112
 4157SOL    HW213371   6.590   6.244   2.233
 4158SOL     OW13372   1.392   2.632   2.287
 4158SOL    HW113373   1.344   2.633   2.375
 4158SOL    HW213374   1.467   2.565   2.291
 4159SOL     OW13375   2.944   1.392   3.775
 4159SOL    HW113376   2.863   1.430   3.731
 4159SOL    HW213377   2.937   1.402   3.874
 4160SOL     OW13378   6.474   6.932   6.507
 4160SOL    HW113379   6.511   6.928   6.414
 4160SOL    HW213380   6.518   7.007   6.556
 4161SOL     OW13381   3.300   2.402   1.554
 4161SOL    HW113382   3.288   2.471   1.482
 4161SOL    HW213383   3.268   2.438   1.641
 4162SOL     OW13384   5.962   5.766   1.721
 4162SOL    HW113385   5.950   5.842   1.657
 4162SOL    HW213386   6.013   5.798   1.801
 4163SOL     OW13387   3.940   6.856   1.172
 4163SOL    HW113388   3.939   6.915   1.091
 4163SOL    HW213389   3.867   6.886   1.235
 4164SOL     OW13390   6.347   0.070   4.792
 4164SOL    HW113391   6.306   0.111   4.710
 4164SOL    HW213392   6.397   7.006   4.765
 4165SOL     OW13393   4.825   1.161   5.364
 4165SOL    HW113394   4.747   1.164   5.426
 4165SOL    HW213395   4.801   1.110   5.281
 4166SOL     OW13396   5.937   0.999   1.932
 4166SOL    HW113397   5.963   0.902   1.938
 4166SOL    HW213398   6.020   1.055   1.935
 4167SOL     OW13399   4.356   5.244   5.398
 4167SOL    HW113400   4.293   5.256   5.321
 4167SOL    HW213401   4.437   5.302   5.384
 4168SOL     OW13402   5.015   4.301   6.768
 4168SOL    HW113403   4.944   4.368   6.750
 4168SOL    HW213404   5.024   4.240   6.689
 4169SOL     OW13405   4.879   3.850   4.944
 4169SOL    HW113406   4.816   3.772   4.946
 4169SOL    HW213407   4.970   3.820   4.971
 4170SOL     OW13408   6.332   3.837   4.487
 4170SOL    HW113409   6.296   3.763   4.544
 4170SOL    HW213410   6.417   3.807   4.444
 4171SOL     OW13411   0.852   3.597   0.958
 4171SOL    HW113412   0.872   3.570   0.864
 4171SOL    HW213413   0.894   3.686   0.977
 4172SOL     OW13414   2.674   4.189   0.433
 4172SOL    HW113415   2.743   4.157   0.497
 4172SOL    HW213416   2.584   4.160   0.465
 4173SOL     OW13417   4.952   2.909   5.264
 4173SOL    HW113418   4.931   2.962   5.346
 4173SOL    HW213419   4.919   2.816   5.275
 4174SOL     OW13420   3.862   0.962   4.654
 4174SOL    HW113421   3.815   0.873   4.659
 4174SOL    HW213422   3.958   0.950   4.678
 4175SOL     OW13423   1.609   4.488   6.716
 4175SOL    HW113424   1.600   4.476   6.617
 4175SOL    HW213425   1.661   4.411   6.754
 4176SOL     OW13426   5.088   6.661   6.355
 4176SOL    HW113427   5.180   6.645   6.391
 4176SOL    HW213428   5.061   6.585   6.296
 4177SOL     OW13429   4.471   4.495   3.375
 4177SOL    HW113430   4.518   4.577   3.342
 4177SOL    HW213431   4.415   4.518   3.454
 4178SOL     OW13432   3.544   5.469   2.111
 4178SOL    HW113433   3.538   5.424   2.200
 4178SOL    HW213434   3.534   5.567   2.122
 4179SOL     OW13435   4.808   3.079   4.888
 4179SOL    HW113436   4.893   3.073   4.940
 4179SOL    HW213437   4.755   3.158   4.920
 4180SOL     OW13438   5.000   3.637   0.305
 4180SOL    HW113439   5.038   3.557   0.257
 4180SOL    HW213440   4.929   3.679   0.249
 4181SOL     OW13441   4.884   0.297   5.507
 4181SOL    HW113442   4.931   0.290   5.419
 4181SOL    HW213443   4.950   0.323   5.578
 4182SOL     OW13444   6.915   6.304   4.148
 4182SOL    HW113445   6.855   6.354   4.211
 4182SOL    HW213446   6.929   6.211   4.181
 4183SOL     OW13447   3.390   1.687   1.909
 4183SOL    HW113448   3.439   1.703   1.995
 4183SOL    HW213449   3.317   1.755   1.899
 4184SOL     OW13450   3.045   5.817   3.505
 4184SOL    HW113451   3.036   5.717   3.498
 4184SOL    HW213452   2.992   5.849   3.584
 4185SOL     OW13453   6.378   3.630   3.191
 4185SOL    HW113454   6.282   3.600   3.194
 4185SOL    HW213455   6.397   3.673   3.103
 4186SOL     OW13456   1.421   6.247   0.246
 4186SOL    HW113457   1.433   6.157   0.288
 4186SOL    HW213458   1.452   6.318   0.309
 4187SOL     OW13459   1.683   3.612   0.100
 4187SOL    HW113460   1.699   3.686   0.164
 4187SOL    HW213461   1.768   3.590   0.052
 4188SOL     OW13462   4.824   0.071   6.739
 4188SOL    HW113463   4.742   0.027   6.775
 4188SOL    HW213464   4.807   0.100   6.645
 4189SOL     OW13465   4.817   5.491   2.855
 4189SOL    HW113466   4.833   5.589   2.851
 4189SOL    HW213467   4.904   5.443   2.865
 4190SOL     OW13468   0.359   7.004   1.066
 4190SOL    HW113469   0.371   6.976   1.161
 4190SOL    HW213470   0.354   0.085   1.061
 4191SOL     OW13471   4.646   4.303   6.317
 4191SOL    HW113472   4.558   4.323   6.360
 4191SOL    HW213473   4.648   4.342   6.225
 4192SOL     OW13474   1.521   2.421   1.953
 4192SOL    HW113475   1.463   2.422   2.034
 4192SOL    HW213476   1.478   2.364   1.882
 4193SOL     OW13477   6.525   0.825   0.939
 4193SOL    HW113478   6.506   0.734   0.902
 4193SOL    HW213479   6.548   0.888   0.865
 4194SOL     OW13480   4.411   0.845   5.290
 4194SOL    HW113481   4.485   0.872   5.351
 4194SOL    HW213482   4.358   0.771   5.333
 4195SOL     OW13483   4.679   5.817   1.664
 4195SOL    HW113484   4.635   5.734   1.629
 4195SOL    HW213485   4.774   5.796   1.689
 4196SOL     OW13486   6.922   2.181   3.229
 4196SOL    HW113487   6.885   2.251   3.291
 4196SOL    HW213488   0.000   2.197   3.216
 4197SOL     OW13489   3.455   6.478   6.195
 4197SOL    HW113490   3.382   6.461   6.129
 4197SOL    HW213491   3.473   6.394   6.247
 4198SOL     OW13492   6.338   0.984   2.232
 4198SOL    HW113493   6.419   1.038   2.254
 4198SOL    HW213494   6.358   0.927   2.151
 4199SOL     OW13495   1.290   3.731   5.986
 4199SOL    HW113496   1.295   3.793   5.907
 4199SOL    HW213497   1.366   3.667   5.982
 4200SOL     OW13498   4.729   0.635   4.756
 4200SOL    HW113499   4.791   0.561   4.782
 4200SOL    HW213500   4.773   0.693   4.687
 4201SOL     OW13501   5.506   0.136   3.631
 4201SOL    HW113502   5.507   0.231   3.599
 4201SOL    HW213503   5.446   0.128   3.711
 4202SOL     OW13504   4.276   5.287   0.448
 4202SOL    HW113505   4.344   5.359   0.444
 4202SOL    HW213506   4.282   5.231   0.365
 4203SOL     OW13507   5.925   5.506   6.956
 4203SOL    HW113508   5.928   5.574   0.010
 4203SOL    HW213509   5.940   5.551   6.868
 4204SOL     OW13510   3.080   3.544   5.744
 4204SOL    HW113511   3.096   3.446   5.752
 4204SOL    HW213512   3.157   3.594   5.783
 4205SOL     OW13513   3.634   5.329   5.261
 4205SOL    HW113514   3.618   5.346   5.164
 4205SOL    HW213515   3.549   5.347   5.312
 4206SOL     OW13516   1.916   1.978   4.791
 4206SOL    HW113517   1.826   1.995   4.831
 4206SOL    HW213518   1.986   2.016   4.851
 4207SOL     OW13519   2.009   2.199   1.537
 4207SOL    HW113520   1.984   2.199   1.633
 4207SOL    HW213521   2.109   2.205   1.529
 4208SOL     OW13522   1.914   3.787   5.137
 4208SOL    HW113523   1.984   3.715   5.146
 4208SOL    HW213524   1.900   3.808   5.040
 4209SOL     OW13525   0.057   6.101   2.668
 4209SOL    HW113526   0.082   6.170   2.600
 4209SOL    HW213527   0.140   6.070   2.716
 4210SOL     OW13528   4.138   3.513   4.610
 4210SOL    HW113529   4.109   3.420   4.631
 4210SOL    HW213530   4.142   3.525   4.511
 4211SOL     OW13531   3.794   2.149   5.270
 4211SOL    HW113532   3.855   2.108   5.338
 4211SOL    HW213533   3.717   2.193   5.318
 4212SOL     OW13534   6.744   1.518   3.402
 4212SOL    HW113535   6.763   1.616   3.413
 4212SOL    HW213536   6.685   1.487   3.477
 4213SOL     OW13537   3.273   0.420   2.850
 4213SOL    HW113538   3.347   0.482   2.874
 4213SOL    HW213539   3.304   0.325   2.860
 4214SOL     OW13540   1.160   5.169   4.309
 4214SOL    HW113541   1.259   5.187   4.306
 4214SOL    HW213542   1.111   5.249   4.274
 4215SOL     OW13543   4.675   6.349   5.100
 4215SOL    HW113544   4.612   6.374   5.026
 4215SOL    HW213545   4.738   6.279   5.067
 4216SOL     OW13546   2.319   0.169   2.463
 4216SOL    HW113547   2.235   0.132   2.503
 4216SOL    HW213548   2.371   0.218   2.534
 4217SOL     OW13549   1.082   0.692   2.009
 4217SOL    HW113550   1.044   0.642   2.087
 4217SOL    HW213551   1.153   0.636   1.965
 4218SOL     OW13552   3.434   1.229   1.493
 4218SOL    HW113553   3.532   1.231   1.470
 4218SOL    HW213554   3.414   1.302   1.558
 4219SOL     OW13555   3.965   6.503   3.683
 4219SOL    HW113556   3.898   6.442   3.641
 4219SOL    HW213557   3.950   6.505   3.782
 4220SOL     OW13558   4.334   2.315   1.560
 4220SOL    HW113559   4.418   2.360   1.590
 4220SOL    HW213560   4.331   2.222   1.597
 4221SOL     OW13561   6.365   5.660   6.027
 4221SOL    HW113562   6.337   5.709   6.110
 4221SOL    HW213563   6.459   5.686   6.003
 4222SOL     OW13564   5.275   2.191   3.723
 4222SOL    HW113565   5.310   2.108   3.679
 4222SOL    HW213566   5.207   2.234   3.663
 4223SOL     OW13567   3.880   4.327   1.500
 4223SOL    HW113568   3.976   4.328   1.473
 4223SOL    HW213569   3.853   4.418   1.532
 4224SOL     OW13570   5.015   4.027   4.652
 4224SOL    HW113571   5.092   3.995   4.709
 4224SOL    HW213572   5.045   4.105   4.598
 4225SOL     OW13573   0.930   2.355   5.039
 4225SOL    HW113574   0.966   2.413   5.112
 4225SOL    HW213575   0.833   2.373   5.026
 4226SOL     OW13576   1.022   5.573   4.804
 4226SOL    HW113577   1.089   5.601   4.873
 4226SOL    HW213578   1.046   5.613   4.716
 4227SOL     OW13579   4.885   5.683   1.801
 4227SOL    HW113580   4.849   5.754   1.862
 4227SOL    HW213581   4.933   5.614   1.856
 4228SOL     OW13582   1.094   5.978   4.617
 4228SOL    HW113583   1.173   5.919   4.628
 4228SOL    HW213584   1.033   5.966   4.696
 4229SOL     OW13585   5.753   5.228   6.464
 4229SOL    HW113586   5.819   5.301   6.481
 4229SOL    HW213587   5.771   5.152   6.527
 4230SOL     OW13588   1.416   0.290   2.427
 4230SOL    HW113589   1.396   0.355   2.353
 4230SOL    HW213590   1.369   0.204   2.409
 4231SOL     OW13591   5.587   0.884   5.237
 4231SOL    HW113592   5.531   0.802   5.248
 4231SOL    HW213593   5.646   0.896   5.316
 4232SOL     OW13594   2.203   5.434   4.128
 4232SOL    HW113595   2.256   5.488   4.193
 4232SOL    HW213596   2.241   5.444   4.037
 4233SOL     OW13597   5.718   6.552   3.487
 4233SOL    HW113598   5.695   6.530   3.582
 4233SOL    HW213599   5.812   6.525   3.468
 4234SOL     OW13600   2.129   5.447   5.771
 4234SOL    HW113601   2.060   5.458   5.699
 4234SOL    HW213602   2.195   5.523   5.765
 4235SOL     OW13603   6.707   4.506   5.522
 4235SOL    HW113604   6.700   4.411   5.553
 4235SOL    HW213605   6.760   4.559   5.589
 4236SOL     OW13606   0.479   4.910   2.205
 4236SOL    HW113607   0.577   4.926   2.218
 4236SOL    HW213608   0.427   4.982   2.251
 4237SOL     OW13609   6.675   4.178   4.082
 4237SOL    HW113610   6.667   4.079   4.088
 4237SOL    HW213611   6.691   4.216   4.173
 4238SOL     OW13612   1.477   0.947   2.992
 4238SOL    HW113613   1.526   1.031   2.972
 4238SOL    HW213614   1.458   0.942   3.090
 4239SOL     OW13615   4.085   1.082   3.118
 4239SOL    HW113616   4.008   1.046   3.065
 4239SOL    HW213617   4.051   1.149   3.184
 4240SOL     OW13618   0.951   5.223   0.601
 4240SOL    HW113619   0.927   5.139   0.650
 4240SOL    HW213620   0.880   5.243   0.533
 4241SOL     OW13621   6.909   1.776   0.239
 4241SOL    HW113622   6.981   1.831   0.283
 4241SOL    HW213623   6.820   1.816   0.260
 4242SOL     OW13624   2.522   2.228   4.467
 4242SOL    HW113625   2.434   2.205   4.507
 4242SOL    HW213626   2.572   2.289   4.528
 4243SOL     OW13627   5.491   0.737   2.983
 4243SOL    HW113628   5.462   0.745   3.079
 4243SOL    HW213629   5.580   0.779   2.971
 4244SOL     OW13630   3.655   3.705   2.267
 4244SOL    HW113631   3.623   3.779   2.327
 4244SOL    HW213632   3.677   3.742   2.177
 4245SOL     OW13633   0.023   1.931   5.854
 4245SOL    HW113634   6.975   2.002   5.874
 4245SOL    HW213635   0.113   1.962   5.883
 4246SOL     OW13636   6.694   3.609   3.213
 4246SOL    HW113637   6.606   3.566   3.233
 4246SOL    HW213638   6.684   3.671   3.135
 4247SOL     OW13639   6.973   5.976   5.386
 4247SOL    HW113640   0.047   6.012   5.389
 4247SOL    HW213641   6.969   5.898   5.324
 4248SOL     OW13642   1.443   2.640   5.581
 4248SOL    HW113643   1.349   2.667   5.559
 4248SOL    HW213644   1.499   2.722   5.591
 4249SOL     OW13645   6.561   2.893   5.471
 4249SOL    HW113646   6.647   2.845   5.455
 4249SOL    HW213647   6.579   2.991   5.485
 4250SOL     OW13648   6.850   5.241   3.521
 4250SOL    HW113649   6.801   5.295   3.452
 4250SOL    HW213650   6.845   5.145   3.496
 4251SOL     OW13651   5.615   4.096   0.424
 4251SOL    HW113652   5.637   3.999   0.419
 4251SOL    HW213653   5.552   4.120   0.351
 4252SOL     OW13654   6.354   6.056   5.082
 4252SOL    HW113655   6.431   6.065   5.145
 4252SOL    HW213656   6.293   6.134   5.094
 4253SOL     OW13657   4.475   1.304   1.626
 4253SOL    HW113658   4.445   1.214   1.595
 4253SOL    HW213659   4.496   1.362   1.547
 4254SOL     OW13660   1.765   3.279   1.540
 4254SOL    HW113661   1.687   3.324   1.583
 4254SOL    HW213662   1.746   3.266   1.442
 4255SOL     OW13663   5.880   2.704   3.715
 4255SOL    HW113664   5.969   2.750   3.719
 4255SOL    HW213665   5.893   2.606   3.729
 4256SOL     OW13666   1.552   6.990   1.586
 4256SOL    HW113667   1.511   6.979   1.677
 4256SOL    HW213668   1.489   6.955   1.517
 4257SOL     OW13669   3.337   1.720   5.046
 4257SOL    HW113670   3.372   1.811   5.070
 4257SOL    HW213671   3.321   1.667   5.129
 4258SOL     OW13672   5.751   6.565   2.006
 4258SOL    HW113673   5.813   6.595   1.934
 4258SOL    HW213674   5.656   6.585   1.979
 4259SOL     OW13675   2.553   1.700   6.898
 4259SOL    HW113676   2.566   1.623   6.960
 4259SOL    HW213677   2.590   1.677   6.809
 4260SOL     OW13678   4.086   5.770   3.718
 4260SOL    HW113679   4.028   5.713   3.660
 4260SOL    HW213680   4.129   5.841   3.663
 4261SOL     OW13681   2.346   6.431   1.715
 4261SOL    HW113682   2.314   6.526   1.718
 4261SOL    HW213683   2.289   6.374   1.774
 4262SOL     OW13684   1.580   4.938   6.393
 4262SOL    HW113685   1.491   4.921   6.351
 4262SOL    HW213686   1.584   4.892   6.482
 4263SOL     OW13687   2.225   5.966   4.976
 4263SOL    HW113688   2.310   5.914   4.986
 4263SOL    HW213689   2.213   5.992   4.880
 4264SOL     OW13690   6.671   1.912   0.345
 4264SOL    HW113691   6.599   1.946   0.284
 4264SOL    HW213692   6.662   1.956   0.435
 4265SOL     OW13693   6.378   2.031   0.046
 4265SOL    HW113694   6.395   2.029   6.967
 4265SOL    HW213695   6.400   2.121   0.082
 4266SOL     OW13696   2.858   5.532   0.241
 4266SOL    HW113697   2.848   5.477   0.158
 4266SOL    HW213698   2.795   5.610   0.237
 4267SOL     OW13699   2.158   3.692   5.048
 4267SOL    HW113700   2.188   3.783   5.019
 4267SOL    HW213701   2.196   3.623   4.987
 4268SOL     OW13702   1.618   6.404   0.512
 4268SOL    HW113703   1.697   6.458   0.484
 4268SOL    HW213704   1.644   6.307   0.516
 4269SOL     OW13705   2.754   2.659   0.160
 4269SOL    HW113706   2.846   2.679   0.126
 4269SOL    HW213707   2.751   2.670   0.259
 4270SOL     OW13708   3.741   3.053   4.369
 4270SOL    HW113709   3.822   3.109   4.384
 4270SOL    HW213710   3.761   2.982   4.302
 4271SOL     OW13711   0.197   6.969   5.351
 4271SOL    HW113712   0.143   6.898   5.395
 4271SOL    HW213713   0.264   7.006   5.415
 4272SOL     OW13714   0.018   5.059   4.973
 4272SOL    HW113715   6.967   5.009   4.922
 4272SOL    HW213716   0.049   5.137   4.918
 4273SOL     OW13717   4.407   6.336   4.907
 4273SOL    HW113718   4.415   6.386   4.821
 4273SOL    HW213719   4.456   6.249   4.899
 4274SOL     OW13720   0.945   6.585   3.373
 4274SOL    HW113721   1.019   6.590   3.441
 4274SOL    HW213722   0.912   6.491   3.368
 4275SOL     OW13723   0.053   1.027   5.831
 4275SOL    HW113724   6.989   1.060   5.788
 4275SOL    HW213725   0.056   1.057   5.926
 4276SOL     OW13726   2.064   5.027   3.049
 4276SOL    HW113727   2.131   5.080   3.102
 4276SOL    HW213728   2.022   4.958   3.109
 4277SOL     OW13729   6.331   5.202   3.769
 4277SOL    HW113730   6.369   5.113   3.794
 4277SOL    HW213731   6.285   5.242   3.848
 4278SOL     OW13732   6.357   6.497   4.932
 4278SOL    HW113733   6.298   6.427   4.892
 4278SOL    HW213734   6.353   6.491   5.031
 4279SOL     OW13735   3.590   6.619   5.449
 4279SOL    HW113736   3.586   6.718   5.457
 4279SOL    HW213737   3.523   6.577   5.510
 4280SOL     OW13738   6.188   1.607   5.186
 4280SOL    HW113739   6.257   1.553   5.233
 4280SOL    HW213740   6.168   1.567   5.096
 4281SOL     OW13741   1.895   4.852   4.934
 4281SOL    HW113742   1.816   4.820   4.882
 4281SOL    HW213743   1.955   4.775   4.955
 4282SOL     OW13744   2.663   2.663   6.901
 4282SOL    HW113745   2.704   2.747   6.864
 4282SOL    HW213746   2.705   2.641   6.988
 4283SOL     OW13747   1.561   0.087   3.626
 4283SOL    HW113748   1.593   0.177   3.655
 4283SOL    HW213749   1.462   0.083   3.633
 4284SOL     OW13750   5.547   0.427   2.641
 4284SOL    HW113751   5.539   0.434   2.740
 4284SOL    HW213752   5.554   0.331   2.614
 4285SOL     OW13753   0.064   6.762   5.748
 4285SOL    HW113754   6.987   6.768   5.773
 4285SOL    HW213755   0.108   6.691   5.803
 4286SOL     OW13756   4.865   5.457   6.806
 4286SOL    HW113757   4.950   5.419   6.770
 4286SOL    HW213758   4.882   5.547   6.846
 4287SOL     OW13759   5.959   6.811   5.065
 4287SOL    HW113760   5.993   6.900   5.034
 4287SOL    HW213761   5.905   6.823   5.148
 4288SOL     OW13762   0.580   6.939   3.951
 4288SOL    HW113763   0.571   6.852   3.902
 4288SOL    HW213764   0.675   6.970   3.946
 4289SOL     OW13765   5.285   2.248   1.410
 4289SOL    HW113766   5.348   2.312   1.366
 4289SOL    HW213767   5.260   2.176   1.346
 4290SOL     OW13768   2.042   6.673   1.815
 4290SOL    HW113769   2.026   6.735   1.892
 4290SOL    HW213770   2.119   6.708   1.760
 4291SOL     OW13771   4.809   3.160   1.140
 4291SOL    HW113772   4.787   3.197   1.231
 4291SOL    HW213773   4.844   3.067   1.150
 4292SOL     OW13774   6.581   4.465   5.277
 4292SOL    HW113775   6.649   4.442   5.347
 4292SOL    HW213776   6.489   4.457   5.315
 4293SOL     OW13777   0.035   3.895   6.464
 4293SOL    HW113778   6.984   3.852   6.521
 4293SOL    HW213779   7.017   3.915   6.374
 4294SOL     OW13780   3.991   2.285   6.393
 4294SOL    HW113781   4.047   2.365   6.374
 4294SOL    HW213782   3.983   2.229   6.310
 4295SOL     OW13783   3.474   0.293   4.971
 4295SOL    HW113784   3.509   0.246   5.052
 4295SOL    HW213785   3.496   0.240   4.889
 4296SOL     OW13786   2.618   2.170   0.470
 4296SOL    HW113787   2.653   2.080   0.498
 4296SOL    HW213788   2.552   2.203   0.536
 4297SOL     OW13789   4.764   6.220   4.788
 4297SOL    HW113790   4.801   6.209   4.880
 4297SOL    HW213791   4.800   6.148   4.729
 4298SOL     OW13792   1.595   5.883   0.989
 4298SOL    HW113793   1.626   5.940   0.913
 4298SOL    HW213794   1.603   5.786   0.963
 4299SOL     OW13795   1.063   3.435   6.007
 4299SOL    HW113796   1.000   3.378   6.059
 4299SOL    HW213797   1.013   3.511   5.965
 4300SOL     OW13798   2.985   1.196   6.713
 4300SOL    HW113799   2.897   1.192   6.664
 4300SOL    HW213800   3.040   1.116   6.689
 4301SOL     OW13801   2.252   1.830   0.475
 4301SOL    HW113802   2.274   1.819   0.378
 4301SOL    HW213803   2.161   1.792   0.493
 4302SOL     OW13804   1.442   6.027   6.344
 4302SOL    HW113805   1.491   6.109   6.376
 4302SOL    HW213806   1.508   5.952   6.334
 4303SOL     OW13807   6.629   4.247   3.062
 4303SOL    HW113808   6.620   4.303   2.980
 4303SOL    HW213809   6.595   4.155   3.044
 4304SOL     OW13810   3.625   3.537   4.033
 4304SOL    HW113811   3.537   3.492   4.044
 4304SOL    HW213812   3.676   3.532   4.119
 4305SOL     OW13813   6.175   1.196   3.243
 4305SOL    HW113814   6.184   1.276   3.183
 4305SOL    HW213815   6.191   1.223   3.338
 4306SOL     OW13816   0.138   3.927   6.141
 4306SOL    HW113817   0.109   4.020   6.117
 4306SOL    HW213818   0.060   3.876   6.177
 4307SOL     OW13819   4.885   3.948   5.755
 4307SOL    HW113820   4.910   3.972   5.848
 4307SOL    HW213821   4.840   3.858   5.755
 4308SOL     OW13822   4.988   5.829   5.506
 4308SOL    HW113823   4.892   5.848   5.525
 4308SOL    HW213824   5.035   5.915   5.486
 4309SOL     OW13825   1.242   0.703   0.663
 4309SOL    HW113826   1.272   0.622   0.613
 4309SOL    HW213827   1.142   0.712   0.656
 4310SOL     OW13828   1.811   2.830   3.500
 4310SOL    HW113829   1.752   2.884   3.441
 4310SOL    HW213830   1.765   2.814   3.587
 4311SOL     OW13831   1.481   6.116   2.800
 4311SOL    HW113832   1.525   6.119   2.890
 4311SOL    HW213833   1.385   6.142   2.808
 4312SOL     OW13834   1.612   5.857   1.842
 4312SOL    HW113835   1.531   5.865   1.900
 4312SOL    HW213836   1.687   5.817   1.894
 4313SOL     OW13837   5.651   1.183   1.449
 4313SOL    HW113838   5.672   1.245   1.374
 4313SOL    HW213839   5.728   1.121   1.463
 4314SOL     OW13840   4.713   2.693   2.812
 4314SOL    HW113841   4.721   2.696   2.712
 4314SOL    HW213842   4.651   2.619   2.838
 4315SOL     OW13843   2.705   0.974   2.193
 4315SOL    HW113844   2.666   0.894   2.149
 4315SOL    HW213845   2.637   1.047   2.197
 4316SOL     OW13846   4.750   6.865   1.127
 4316SOL    HW113847   4.801   6.949   1.144
 4316SOL    HW213848   4.653   6.885   1.114
 4317SOL     OW13849   3.526   1.543   5.526
 4317SOL    HW113850   3.435   1.503   5.518
 4317SOL    HW213851   3.522   1.623   5.587
 4318SOL     OW13852   0.943   4.049   4.083
 4318SOL    HW113853   1.003   4.073   4.008
 4318SOL    HW213854   0.989   3.985   4.144
 4319SOL     OW13855   2.450   3.577   6.499
 4319SOL    HW113856   2.501   3.565   6.414
 4319SOL    HW213857   2.396   3.661   6.494
 4320SOL     OW13858   1.564   6.430   2.431
 4320SOL    HW113859   1.639   6.396   2.374
 4320SOL    HW213860   1.583   6.524   2.457
 4321SOL     OW13861   6.237   0.711   4.698
 4321SOL    HW113862   6.184   0.694   4.615
 4321SOL    HW213863   6.241   0.810   4.715
 4322SOL     OW13864   0.211   1.247   6.363
 4322SOL    HW113865   0.136   1.303   6.399
 4322SOL    HW213866   0.225   1.168   6.422
 4323SOL     OW13867   5.712   2.844   2.073
 4323SOL    HW113868   5.618   2.816   2.055
 4323SOL    HW213869   5.753   2.782   2.140
 4324SOL     OW13870   5.798   3.723   6.485
 4324SOL    HW113871   5.895   3.708   6.503
 4324SOL    HW213872   5.776   3.692   6.392
 4325SOL     OW13873   2.326   0.414   0.018
 4325SOL    HW113874   2.392   0.405   6.964
 4325SOL    HW213875   2.281   0.326   0.035
 4326SOL     OW13876   6.781   3.209   4.993
 4326SOL    HW113877   6.878   3.186   5.000
 4326SOL    HW213878   6.726   3.134   5.031
 4327SOL     OW13879   5.145   5.289   2.253
 4327SOL    HW113880   5.208   5.232   2.200
 4327SOL    HW213881   5.187   5.379   2.268
 4328SOL     OW13882   4.685   5.135   6.106
 4328SOL    HW113883   4.720   5.197   6.036
 4328SOL    HW213884   4.627   5.065   6.063
 4329SOL     OW13885   3.374   1.822   6.053
 4329SOL    HW113886   3.432   1.748   6.018
 4329SOL    HW213887   3.402   1.909   6.012
 4330SOL     OW13888   2.529   0.174   5.842
 4330SOL    HW113889   2.509   0.259   5.890
 4330SOL    HW213890   2.544   0.193   5.745
 4331SOL     OW13891   5.131   3.346   0.525
 4331SOL    HW113892   5.035   3.319   0.513
 4331SOL    HW213893   5.187   3.265   0.539
 4332SOL     OW13894   5.214   3.470   2.160
 4332SOL    HW113895   5.183   3.565   2.158
 4332SOL    HW213896   5.308   3.466   2.193
 4333SOL     OW13897   5.097   1.378   5.232
 4333SOL    HW113898   5.024   1.347   5.171
 4333SOL    HW213899   5.064   1.377   5.327
 4334SOL     OW13900   3.023   2.066   2.059
 4334SOL    HW113901   2.991   2.160   2.072
 4334SOL    HW213902   2.949   2.002   2.081
 4335SOL     OW13903   2.920   3.413   3.924
 4335SOL    HW113904   2.970   3.477   3.983
 4335SOL    HW213905   2.900   3.457   3.836
 4336SOL     OW13906   1.503   6.116   5.484
 4336SOL    HW113907   1.493   6.071   5.395
 4336SOL    HW213908   1.486   6.214   5.474
 4337SOL     OW13909   0.546   5.056   0.314
 4337SOL    HW113910   0.509   5.135   0.265
 4337SOL    HW213911   0.541   4.975   0.256
 4338SOL     OW13912   5.588   5.255   4.816
 4338SOL    HW113913   5.490   5.278   4.821
 4338SOL    HW213914   5.641   5.329   4.857
 4339SOL     OW13915   6.146   2.613   4.595
 4339SOL    HW113916   6.140   2.701   4.641
 4339SOL    HW213917   6.059   2.565   4.601
 4340SOL     OW13918   6.812   2.967   2.581
 4340SOL    HW113919   6.767   2.882   2.606
 4340SOL    HW213920   6.786   2.993   2.488
 4341SOL     OW13921   1.744   4.232   2.128
 4341SOL    HW113922   1.712   4.253   2.036
 4341SOL    HW213923   1.724   4.137   2.150
 4342SOL     OW13924   0.576   2.451   3.303
 4342SOL    HW113925   0.618   2.521   3.244
 4342SOL    HW213926   0.487   2.484   3.334
 4343SOL     OW13927   3.872   1.070   6.833
 4343SOL    HW113928   3.818   1.144   6.793
 4343SOL    HW213929   3.893   1.091   6.929
 4344SOL     OW13930   1.672   4.862   3.479
 4344SOL    HW113931   1.583   4.837   3.517
 4344SOL    HW213932   1.674   4.960   3.461
 4345SOL     OW13933   1.629   3.171   5.345
 4345SOL    HW113934   1.715   3.121   5.352
 4345SOL    HW213935   1.627   3.243   5.413
 4346SOL     OW13936   2.554   2.946   1.740
 4346SOL    HW113937   2.581   3.035   1.703
 4346SOL    HW213938   2.454   2.944   1.751
 4347SOL     OW13939   7.013   0.502   1.604
 4347SOL    HW113940   0.005   0.552   1.690
 4347SOL    HW213941   0.037   0.552   1.530
 4348SOL     OW13942   0.432   3.751   1.808
 4348SOL    HW113943   0.529   3.767   1.825
 4348SOL    HW213944   0.389   3.718   1.893
 4349SOL     OW13945   0.559   1.729   3.297
 4349SOL    HW113946   0.541   1.764   3.205
 4349SOL    HW213947   0.612   1.645   3.292
 4350SOL     OW13948   5.247   2.438   4.481
 4350SOL    HW113949   5.240   2.412   4.577
 4350SOL    HW213950   5.300   2.522   4.473
 4351SOL     OW13951   2.462   6.272   2.092
 4351SOL    HW113952   2.536   6.290   2.158
 4351SOL    HW213953   2.405   6.197   2.125
 4352SOL     OW13954   0.604   2.071   1.647
 4352SOL    HW113955   0.664   2.073   1.727
 4352SOL    HW213956   0.660   2.067   1.564
 4353SOL     OW13957   2.132   5.753   1.212
 4353SOL    HW113958   2.099   5.794   1.127
 4353SOL    HW213959   2.198   5.681   1.192
 4354SOL     OW13960   2.206   6.593   0.175
 4354SOL    HW113961   2.158   6.570   0.259
 4354SOL    HW213962   2.276   6.524   0.156
 4355SOL     OW13963   4.174   0.896   1.278
 4355SOL    HW113964   4.245   0.942   1.224
 4355SOL    HW213965   4.159   0.804   1.243
 4356SOL     OW13966   4.720   3.945   1.648
 4356SOL    HW113967   4.704   3.857   1.605
 4356SOL    HW213968   4.747   3.931   1.743
 4357SOL     OW13969   5.832   0.655   0.206
 4357SOL    HW113970   5.827   0.601   0.122
 4357SOL    HW213971   5.839   0.752   0.184
 4358SOL     OW13972   0.139   6.814   1.110
 4358SOL    HW113973   0.169   6.806   1.205
 4358SOL    HW213974   0.202   6.766   1.050
 4359SOL     OW13975   1.127   2.589   4.739
 4359SOL    HW113976   1.134   2.663   4.671
 4359SOL    HW213977   1.071   2.620   4.816
 4360SOL     OW13978   0.753   4.056   2.527
 4360SOL    HW113979   0.778   4.143   2.569
 4360SOL    HW213980   0.794   4.050   2.436
 4361SOL     OW13981   4.163   2.736   1.505
 4361SOL    HW113982   4.243   2.787   1.538
 4361SOL    HW213983   4.080   2.786   1.527
 4362SOL     OW13984   6.128   3.397   5.507
 4362SOL    HW113985   6.203   3.459   5.528
 4362SOL    HW213986   6.139   3.312   5.559
 4363SOL     OW13987   4.766   2.284   5.259
 4363SOL    HW113988   4.822   2.270   5.340
 4363SOL    HW213989   4.674   2.248   5.275
 4364SOL     OW13990   2.985   4.035   5.080
 4364SOL    HW113991   2.924   4.102   5.123
 4364SOL    HW213992   3.075   4.039   5.123
 4365SOL     OW13993   3.651   1.949   2.520
 4365SOL    HW113994   3.685   2.036   2.484
 4365SOL    HW213995   3.632   1.887   2.444
 4366SOL     OW13996   6.283   6.827   1.485
 4366SOL    HW113997   6.346   6.772   1.431
 4366SOL    HW213998   6.249   6.774   1.562
 4367SOL     OW13999   1.094   4.975   5.337
 4367SOL    HW114000   1.081   5.017   5.427
 4367SOL    HW214001   1.174   5.015   5.293
 4368SOL     OW14002   4.877   5.205   1.503
 4368SOL    HW114003   4.841   5.297   1.487
 4368SOL    HW214004   4.930   5.175   1.424
 4369SOL     OW14005   4.751   4.906   2.407
 4369SOL    HW114006   4.692   4.957   2.344
 4369SOL    HW214007   4.840   4.952   2.413
 4370SOL     OW14008   5.694   4.773   3.250
 4370SOL    HW114009   5.764   4.747   3.316
 4370SOL    HW214010   5.716   4.733   3.161
 4371SOL     OW14011   6.690   0.707   1.945
 4371SOL    HW114012   6.640   0.632   1.988
 4371SOL    HW214013   6.731   0.676   1.859
 4372SOL     OW14014   4.514   1.096   3.011
 4372SOL    HW114015   4.478   1.039   2.936
 4372SOL    HW214016   4.445   1.105   3.082
 4373SOL     OW14017   6.522   2.775   6.515
 4373SOL    HW114018   6.449   2.777   6.446
 4373SOL    HW214019   6.557   2.682   6.524
 4374SOL     OW14020   1.414   2.033   2.075
 4374SOL    HW114021   1.464   2.100   2.130
 4374SOL    HW214022   1.446   1.941   2.097
 4375SOL     OW14023   2.699   7.003   3.875
 4375SOL    HW114024   2.615   6.974   3.830
 4375SOL    HW214025   2.721   6.939   3.949
 4376SOL     OW14026   6.611   6.851   2.542
 4376SOL    HW114027   6.513   6.852   2.561
 4376SOL    HW214028   6.652   6.936   2.576
 4377SOL     OW14029   5.446   3.778   0.339
 4377SOL    HW114030   5.525   3.774   0.400
 4377SOL    HW214031   5.382   3.847   0.373
 4378SOL     OW14032   2.404   0.507   3.763
 4378SOL    HW114033   2.357   0.467   3.841
 4378SOL    HW214034   2.350   0.584   3.728
 4379SOL     OW14035   2.692   1.266   5.074
 4379SOL    HW114036   2.701   1.182   5.127
 4379SOL    HW214037   2.604   1.267   5.027
 4380SOL     OW14038   1.248   0.986   1.315
 4380SOL    HW114039   1.238   0.947   1.407
 4380SOL    HW214040   1.342   1.017   1.302
 4381SOL     OW14041   0.802   5.340   5.063
 4381SOL    HW114042   0.808   5.344   5.163
 4381SOL    HW214043   0.836   5.251   5.031
 4382SOL     OW14044   6.626   3.487   5.314
 4382SOL    HW114045   6.558   3.418   5.339
 4382SOL    HW214046   6.639   3.487   5.215
 4383SOL     OW14047   5.799   2.771   6.202
 4383SOL    HW114048   5.786   2.676   6.233
 4383SOL    HW214049   5.877   2.775   6.140
 4384SOL     OW14050   7.006   1.051   3.509
 4384SOL    HW114051   6.930   1.065   3.445
 4384SOL    HW214052   0.061   1.004   3.462
 4385SOL     OW14053   4.701   1.933   4.469
 4385SOL    HW114054   4.694   2.030   4.447
 4385SOL    HW214055   4.733   1.922   4.563
 4386SOL     OW14056   1.310   3.936   5.811
 4386SOL    HW114057   1.224   3.986   5.800
 4386SOL    HW214058   1.383   3.985   5.763
 4387SOL     OW14059   6.003   3.533   0.643
 4387SOL    HW114060   6.058   3.593   0.702
 4387SOL    HW214061   5.908   3.534   0.676
 4388SOL     OW14062   5.367   1.570   6.305
 4388SOL    HW114063   5.362   1.542   6.209
 4388SOL    HW214064   5.444   1.632   6.318
 4389SOL     OW14065   0.028   3.378   1.918
 4389SOL    HW114066   6.984   3.380   1.995
 4389SOL    HW214067   6.996   3.390   1.833
 4390SOL     OW14068   5.768   6.937   0.689
 4390SOL    HW114069   5.671   6.952   0.707
 4390SOL    HW214070   5.797   6.851   0.731
 4391SOL     OW14071   1.903   5.361   6.507
 4391SOL    HW114072   1.815   5.364   6.556
 4391SOL    HW214073   1.913   5.443   6.451
 4392SOL     OW14074   0.685   1.765   4.075
 4392SOL    HW114075   0.744   1.717   4.009
 4392SOL    HW214076   0.743   1.808   4.144
 4393SOL     OW14077   6.211   0.548   1.616
 4393SOL    HW114078   6.183   0.460   1.655
 4393SOL    HW214079   6.201   0.546   1.517
 4394SOL     OW14080   0.973   0.530   1.407
 4394SOL    HW114081   1.058   0.583   1.404
 4394SOL    HW214082   0.980   0.461   1.478
 4395SOL     OW14083   2.097   0.071   2.070
 4395SOL    HW114084   2.094   0.168   2.048
 4395SOL    HW214085   2.192   0.041   2.076
 4396SOL     OW14086   1.704   1.345   3.809
 4396SOL    HW114087   1.610   1.377   3.818
 4396SOL    HW214088   1.709   1.248   3.834
 4397SOL     OW14089   2.448   2.633   3.653
 4397SOL    HW114090   2.512   2.621   3.577
 4397SOL    HW214091   2.499   2.635   3.739
 4398SOL     OW14092   2.060   3.817   6.204
 4398SOL    HW114093   2.032   3.724   6.230
 4398SOL    HW214094   2.036   3.881   6.277
 4399SOL     OW14095   2.188   6.293   1.910
 4399SOL    HW114096   2.099   6.337   1.902
 4399SOL    HW214097   2.192   6.240   1.995
 4400SOL     OW14098   1.241   6.788   3.879
 4400SOL    HW114099   1.264   6.871   3.930
 4400SOL    HW214100   1.185   6.812   3.800
 4401SOL     OW14101   3.740   6.269   5.444
 4401SOL    HW114102   3.758   6.242   5.538
 4401SOL    HW214103   3.694   6.194   5.396
 4402SOL     OW14104   1.352   0.732   2.911
 4402SOL    HW114105   1.403   0.812   2.942
 4402SOL    HW214106   1.416   0.657   2.890
 4403SOL     OW14107   0.948   5.393   1.370
 4403SOL    HW114108   0.966   5.490   1.350
 4403SOL    HW214109   0.857   5.385   1.411
 4404SOL     OW14110   1.249   5.581   5.875
 4404SOL    HW114111   1.265   5.679   5.887
 4404SOL    HW214112   1.257   5.535   5.964
 4405SOL     OW14113   2.789   4.870   3.220
 4405SOL    HW114114   2.772   4.811   3.299
 4405SOL    HW214115   2.758   4.824   3.136
 4406SOL     OW14116   6.174   3.161   2.040
 4406SOL    HW114117   6.165   3.193   1.946
 4406SOL    HW214118   6.217   3.231   2.096
 4407SOL     OW14119   0.085   5.861   2.467
 4407SOL    HW114120   0.133   5.804   2.533
 4407SOL    HW214121   0.150   5.894   2.399
 4408SOL     OW14122   3.758   6.718   6.966
 4408SOL    HW114123   3.806   6.779   6.904
 4408SOL    HW214124   3.730   6.636   6.916
 4409SOL     OW14125   3.815   0.614   2.834
 4409SOL    HW114126   3.766   0.679   2.891
 4409SOL    HW214127   3.851   0.660   2.753
 4410SOL     OW14128   0.347   6.137   1.113
 4410SOL    HW114129   0.354   6.147   1.014
 4410SOL    HW214130   0.439   6.133   1.152
 4411SOL     OW14131   3.381   4.566   5.996
 4411SOL    HW114132   3.309   4.500   6.017
 4411SOL    HW214133   3.441   4.528   5.927
 4412SOL     OW14134   4.558   6.503   3.994
 4412SOL    HW114135   4.573   6.411   3.956
 4412SOL    HW214136   4.640   6.531   4.044
 4413SOL     OW14137   3.232   0.118   4.338
 4413SOL    HW114138   3.215   0.196   4.399
 4413SOL    HW214139   3.287   0.148   4.260
 4414SOL     OW14140   5.059   5.010   1.917
 4414SOL    HW114141   5.000   4.981   1.992
 4414SOL    HW214142   5.007   5.010   1.832
 4415SOL     OW14143   3.192   4.203   1.755
 4415SOL    HW114144   3.149   4.241   1.673
 4415SOL    HW214145   3.283   4.169   1.731
 4416SOL     OW14146   3.981   1.570   4.471
 4416SOL    HW114147   4.019   1.527   4.388
 4416SOL    HW214148   3.900   1.623   4.447
 4417SOL     OW14149   0.381   3.021   4.295
 4417SOL    HW114150   0.334   3.069   4.220
 4417SOL    HW214151   0.477   3.049   4.297
 4418SOL     OW14152   6.374   1.199   1.609
 4418SOL    HW114153   6.369   1.100   1.597
 4418SOL    HW214154   6.428   1.221   1.690
 4419SOL     OW14155   6.578   5.749   5.731
 4419SOL    HW114156   6.574   5.828   5.670
 4419SOL    HW214157   6.661   5.753   5.787
 4420SOL     OW14158   3.878   2.138   1.497
 4420SOL    HW114159   3.885   2.182   1.586
 4420SOL    HW214160   3.965   2.092   1.476
 4421SOL     OW14161   1.266   2.839   4.805
 4421SOL    HW114162   1.291   2.874   4.896
 4421SOL    HW214163   1.218   2.910   4.755
 4422SOL     OW14164   0.721   4.609   0.191
 4422SOL    HW114165   0.740   4.594   0.094
 4422SOL    HW214166   0.706   4.521   0.237
 4423SOL     OW14167   6.477   4.342   6.048
 4423SOL    HW114168   6.570   4.349   6.086
 4423SOL    HW214169   6.412   4.325   6.122
 4424SOL     OW14170   4.798   5.623   4.401
 4424SOL    HW114171   4.874   5.568   4.368
 4424SOL    HW214172   4.713   5.594   4.357
 4425SOL     OW14173   1.754   4.793   1.420
 4425SOL    HW114174   1.769   4.752   1.510
 4425SOL    HW214175   1.659   4.824   1.413
 4426SOL     OW14176   1.103   0.284   4.325
 4426SOL    HW114177   1.036   0.258   4.396
 4426SOL    HW214178   1.077   0.241   4.239
 4427SOL     OW14179   3.318   6.556   2.838
 4427SOL    HW114180   3.297   6.459   2.821
 4427SOL    HW214181   3.288   6.611   2.760
 4428SOL     OW14182   5.622   0.828   4.178
 4428SOL    HW114183   5.534   0.802   4.218
 4428SOL    HW214184   5.682   0.865   4.249
 4429SOL     OW14185   2.796   6.539   3.392
 4429SOL    HW114186   2.771   6.594   3.312
 4429SOL    HW214187   2.748   6.451   3.389
 4430SOL     OW14188   5.420   4.639   3.706
 4430SOL    HW114189   5.393   4.699   3.781
 4430SOL    HW214190   5.356   4.649   3.629
 4431SOL     OW14191   3.738   0.514   3.975
 4431SOL    HW114192   3.644   0.546   3.962
 4431SOL    HW214193   3.737   0.419   4.008
 4432SOL     OW14194   1.501   3.693   6.548
 4432SOL    HW114195   1.403   3.674   6.556
 4432SOL    HW214196   1.535   3.656   6.462
 4433SOL     OW14197   0.799   1.680   4.969
 4433SOL    HW114198   0.757   1.596   4.935
 4433SOL    HW214199   0.871   1.709   4.906
 4434SOL     OW14200   6.879   1.702   1.373
 4434SOL    HW114201   6.977   1.700   1.359
 4434SOL    HW214202   6.849   1.617   1.417
 4435SOL     OW14203   2.881   3.765   0.580
 4435SOL    HW114204   2.789   3.736   0.606
 4435SOL    HW214205   2.876   3.844   0.518
 4436SOL     OW14206   4.703   2.198   0.952
 4436SOL    HW114207   4.659   2.262   1.015
 4436SOL    HW214208   4.740   2.248   0.874
 4437SOL     OW14209   0.171   3.626   2.396
 4437SOL    HW114210   0.103   3.657   2.330
 4437SOL    HW214211   0.150   3.663   2.486
 4438SOL     OW14212   4.614   6.227   5.752
 4438SOL    HW114213   4.574   6.270   5.833
 4438SOL    HW214214   4.574   6.267   5.669
 4439SOL     OW14215   1.503   6.818   3.123
 4439SOL    HW114216   1.421   6.869   3.099
 4439SOL    HW214217   1.513   6.740   3.062
 4440SOL     OW14218   1.738   4.932   0.910
 4440SOL    HW114219   1.812   4.989   0.946
 4440SOL    HW214220   1.657   4.988   0.892
 4441SOL     OW14221   1.000   1.775   0.374
 4441SOL    HW114222   1.099   1.765   0.360
 4441SOL    HW214223   0.964   1.690   0.412
 4442SOL     OW14224   1.519   4.973   6.089
 4442SOL    HW114225   1.535   4.874   6.095
 4442SOL    HW214226   1.421   4.990   6.077
 4443SOL     OW14227   0.773   4.707   6.718
 4443SOL    HW114228   0.819   4.738   6.635
 4443SOL    HW214229   0.693   4.763   6.736
 4444SOL     OW14230   4.774   4.377   0.776
 4444SOL    HW114231   4.840   4.328   0.833
 4444SOL    HW214232   4.725   4.444   0.831
 4445SOL     OW14233   0.087   5.781   6.721
 4445SOL    HW114234   0.160   5.842   6.752
 4445SOL    HW214235   0.061   5.720   6.796
 4446SOL     OW14236   4.945   1.053   0.589
 4446SOL    HW114237   4.873   1.113   0.555
 4446SOL    HW214238   4.976   0.993   0.515
 4447SOL     OW14239   5.594   4.821   5.025
 4447SOL    HW114240   5.613   4.769   4.941
 4447SOL    HW214241   5.608   4.919   5.007
 4448SOL     OW14242   2.899   6.664   1.556
 4448SOL    HW114243   2.834   6.595   1.588
 4448SOL    HW214244   2.849   6.746   1.527
 4449SOL     OW14245   4.529   1.066   6.488
 4449SOL    HW114246   4.616   1.114   6.496
 4449SOL    HW214247   4.530   0.985   6.546
 4450SOL     OW14248   4.164   1.128   7.012
 4450SOL    HW114249   4.110   1.142   0.075
 4450SOL    HW214250   4.235   1.061   0.010
 4451SOL     OW14251   4.616   4.861   3.607
 4451SOL    HW114252   4.650   4.791   3.670
 4451SOL    HW214253   4.601   4.820   3.517
 4452SOL     OW14254   5.348   6.107   4.720
 4452SOL    HW114255   5.374   6.196   4.685
 4452SOL    HW214256   5.250   6.092   4.706
 4453SOL     OW14257   0.294   3.519   1.161
 4453SOL    HW114258   0.293   3.419   1.158
 4453SOL    HW214259   0.333   3.549   1.248
 4454SOL     OW14260   0.737   1.659   0.060
 4454SOL    HW114261   0.723   1.594   7.006
 4454SOL    HW214262   0.799   1.731   0.030
 4455SOL     OW14263   6.065   5.524   4.617
 4455SOL    HW114264   6.108   5.447   4.569
 4455SOL    HW214265   6.100   5.610   4.580
 4456SOL     OW14266   1.564   6.814   3.755
 4456SOL    HW114267   1.657   6.786   3.733
 4456SOL    HW214268   1.557   6.914   3.747
 4457SOL     OW14269   1.423   2.056   4.868
 4457SOL    HW114270   1.335   2.055   4.819
 4457SOL    HW214271   1.446   2.151   4.892
 4458SOL     OW14272   2.308   3.840   1.831
 4458SOL    HW114273   2.229   3.808   1.884
 4458SOL    HW214274   2.384   3.775   1.843
 4459SOL     OW14275   1.405   2.624   4.532
 4459SOL    HW114276   1.482   2.675   4.570
 4459SOL    HW214277   1.319   2.667   4.560
 4460SOL     OW14278   0.308   3.472   4.319
 4460SOL    HW114279   0.236   3.413   4.355
 4460SOL    HW214280   0.282   3.504   4.227
 4461SOL     OW14281   2.635   0.880   1.489
 4461SOL    HW114282   2.712   0.939   1.514
 4461SOL    HW214283   2.624   0.809   1.560
 4462SOL     OW14284   6.258   3.509   1.848
 4462SOL    HW114285   6.223   3.574   1.916
 4462SOL    HW214286   6.195   3.431   1.842
 4463SOL     OW14287   5.144   1.619   1.281
 4463SOL    HW114288   5.183   1.587   1.367
 4463SOL    HW214289   5.049   1.587   1.274
 4464SOL     OW14290   0.173   5.536   0.209
 4464SOL    HW114291   0.086   5.529   0.257
 4464SOL    HW214292   0.248   5.538   0.275
 4465SOL     OW14293   2.041   5.838   0.628
 4465SOL    HW114294   1.969   5.845   0.559
 4465SOL    HW214295   2.121   5.891   0.599
 4466SOL     OW14296   2.051   2.105   4.078
 4466SOL    HW114297   1.990   2.039   4.122
 4466SOL    HW214298   2.042   2.194   4.123
 4467SOL     OW14299   2.876   5.946   3.729
 4467SOL    HW114300   2.778   5.959   3.712
 4467SOL    HW214301   2.921   6.035   3.731
 4468SOL     OW14302   1.449   2.938   1.898
 4468SOL    HW114303   1.393   2.910   1.976
 4468SOL    HW214304   1.446   2.867   1.828
 4469SOL     OW14305   2.868   0.054   1.532
 4469SOL    HW114306   2.792   7.017   1.565
 4469SOL    HW214307   2.836   0.112   1.457
 4470SOL     OW14308   1.264   0.549   2.697
 4470SOL    HW114309   1.241   0.527   2.602
 4470SOL    HW214310   1.327   0.627   2.699
 4471SOL     OW14311   2.274   2.127   6.392
 4471SOL    HW114312   2.250   2.181   6.472
 4471SOL    HW214313   2.260   2.181   6.309
 4472SOL     OW14314   1.651   3.339   1.285
 4472SOL    HW114315   1.683   3.344   1.190
 4472SOL    HW214316   1.588   3.262   1.295
 4473SOL     OW14317   0.306   3.185   4.071
 4473SOL    HW114318   0.207   3.167   4.064
 4473SOL    HW214319   0.321   3.283   4.077
 4474SOL     OW14320   3.508   0.965   1.917
 4474SOL    HW114321   3.531   1.060   1.937
 4474SOL    HW214322   3.587   0.906   1.937
 4475SOL     OW14323   0.902   3.927   2.176
 4475SOL    HW114324   0.858   3.992   2.114
 4475SOL    HW214325   0.853   3.840   2.172
 4476SOL     OW14326   5.334   1.261   3.964
 4476SOL    HW114327   5.371   1.214   3.884
 4476SOL    HW214328   5.336   1.359   3.949
 4477SOL     OW14329   3.095   0.130   5.621
 4477SOL    HW114330   3.018   0.075   5.652
 4477SOL    HW214331   3.061   0.209   5.570
 4478SOL     OW14332   1.292   0.200   0.407
 4478SOL    HW114333   1.331   0.158   0.489
 4478SOL    HW214334   1.344   0.172   0.326
 4479SOL     OW14335   0.405   2.371   0.227
 4479SOL    HW114336   0.489   2.368   0.173
 4479SOL    HW214337   0.406   2.451   0.286
 4480SOL     OW14338   6.425   5.321   4.739
 4480SOL    HW114339   6.420   5.366   4.828
 4480SOL    HW214340   6.337   5.332   4.691
 4481SOL     OW14341   2.340   4.947   5.746
 4481SOL    HW114342   2.389   4.949   5.833
 4481SOL    HW214343   2.347   4.855   5.706
 4482SOL     OW14344   2.747   5.199   6.384
 4482SOL    HW114345   2.701   5.115   6.413
 4482SOL    HW214346   2.813   5.178   6.312
 4483SOL     OW14347   0.649   2.868   2.048
 4483SOL    HW114348   0.661   2.941   2.116
 4483SOL    HW214349   0.708   2.886   1.969
 4484SOL     OW14350   2.475   3.170   6.937
 4484SOL    HW114351   2.503   3.150   6.843
 4484SOL    HW214352   2.390   3.121   6.959
 4485SOL     OW14353   4.525   2.412   4.603
 4485SOL    HW114354   4.576   2.490   4.640
 4485SOL    HW214355   4.468   2.442   4.527
 4486SOL     OW14356   5.296   4.726   5.292
 4486SOL    HW114357   5.357   4.805   5.285
 4486SOL    HW214358   5.305   4.669   5.211
 4487SOL     OW14359   1.549   2.623   0.137
 4487SOL    HW114360   1.536   2.666   0.048
 4487SOL    HW214361   1.559   2.524   0.126
 4488SOL     OW14362   0.884   4.854   4.159
 4488SOL    HW114363   0.943   4.780   4.124
 4488SOL    HW214364   0.789   4.823   4.160
 4489SOL     OW14365   4.540   5.445   5.348
 4489SOL    HW114366   4.523   5.531   5.395
 4489SOL    HW214367   4.618   5.398   5.390
 4490SOL     OW14368   5.300   1.914   1.037
 4490SOL    HW114369   5.330   1.824   1.069
 4490SOL    HW214370   5.248   1.960   1.109
 4491SOL     OW14371   1.385   2.943   3.103
 4491SOL    HW114372   1.303   2.973   3.053
 4491SOL    HW214373   1.392   2.843   3.099
 4492SOL     OW14374   5.511   0.516   1.839
 4492SOL    HW114375   5.439   0.495   1.906
 4492SOL    HW214376   5.600   0.497   1.879
 4493SOL     OW14377   5.188   6.972   4.772
 4493SOL    HW114378   5.121   6.942   4.704
 4493SOL    HW214379   5.214   6.894   4.830
 4494SOL     OW14380   0.315   0.521   6.945
 4494SOL    HW114381   0.364   0.513   6.858
 4494SOL    HW214382   0.285   0.615   6.958
 4495SOL     OW14383   3.753   6.127   2.099
 4495SOL    HW114384   3.798   6.149   2.186
 4495SOL    HW214385   3.768   6.031   2.078
 4496SOL     OW14386   4.035   6.463   5.993
 4496SOL    HW114387   4.055   6.374   6.033
 4496SOL    HW214388   3.936   6.480   5.998
 4497SOL     OW14389   4.008   1.938   6.408
 4497SOL    HW114390   4.005   1.964   6.311
 4497SOL    HW214391   4.087   1.981   6.451
 4498SOL     OW14392   6.901   5.155   5.583
 4498SOL    HW114393   6.811   5.198   5.583
 4498SOL    HW214394   6.930   5.138   5.677
 4499SOL     OW14395   6.100   1.697   2.544
 4499SOL    HW114396   6.117   1.601   2.520
 4499SOL    HW214397   6.163   1.755   2.494
 4500SOL     OW14398   3.770   5.389   0.536
 4500SOL    HW114399   3.685   5.352   0.498
 4500SOL    HW214400   3.756   5.414   0.632
 4501SOL     OW14401   6.026   1.526   1.902
 4501SOL    HW114402   6.116   1.560   1.872
 4501SOL    HW214403   6.033   1.490   1.995
 4502SOL     OW14404   0.712   3.294   0.014
 4502SOL    HW114405   0.621   3.334   0.006
 4502SOL    HW214406   0.763   3.309   6.948
 4503SOL     OW14407   2.927   0.533   2.265
 4503SOL    HW114408   3.016   0.494   2.288
 4503SOL    HW214409   2.861   0.458   2.252
 4504SOL     OW14410   0.312   2.057   3.437
 4504SOL    HW114411   0.236   2.051   3.502
 4504SOL    HW214412   0.300   1.986   3.366
 4505SOL     OW14413   6.293   4.027   2.547
 4505SOL    HW114414   6.302   4.075   2.460
 4505SOL    HW214415   6.203   3.983   2.552
 4506SOL     OW14416   5.159   2.819   4.607
 4506SOL    HW114417   5.080   2.759   4.623
 4506SOL    HW214418   5.190   2.856   4.695
 4507SOL     OW14419   6.599   3.236   3.315
 4507SOL    HW114420   6.669   3.280   3.259
 4507SOL    HW214421   6.527   3.199   3.256
 4508SOL     OW14422   0.370   4.944   0.984
 4508SOL    HW114423   0.345   4.953   1.080
 4508SOL    HW214424   0.307   4.881   0.939
 4509SOL     OW14425   4.269   1.796   2.357
 4509SOL    HW114426   4.348   1.738   2.374
 4509SOL    HW214427   4.282   1.884   2.402
 4510SOL     OW14428   4.717   1.548   4.406
 4510SOL    HW114429   4.804   1.585   4.439
 4510SOL    HW214430   4.727   1.451   4.386
 4511SOL     OW14431   0.284   4.634   1.266
 4511SOL    HW114432   0.381   4.610   1.262
 4511SOL    HW214433   0.230   4.565   1.218
 4512SOL     OW14434   3.807   2.353   5.610
 4512SOL    HW114435   3.833   2.412   5.534
 4512SOL    HW214436   3.810   2.406   5.695
 4513SOL     OW14437   1.589   5.976   6.732
 4513SOL    HW114438   1.531   5.910   6.685
 4513SOL    HW214439   1.684   5.963   6.704
 4514SOL     OW14440   3.346   3.555   6.614
 4514SOL    HW114441   3.317   3.648   6.590
 4514SOL    HW214442   3.273   3.510   6.665
 4515SOL     OW14443   5.207   6.773   4.981
 4515SOL    HW114444   5.207   6.675   5.000
 4515SOL    HW214445   5.294   6.813   5.011
 4516SOL     OW14446   3.431   1.752   5.690
 4516SOL    HW114447   3.350   1.785   5.643
 4516SOL    HW214448   3.485   1.829   5.723
 4517SOL     OW14449   4.392   0.385   5.727
 4517SOL    HW114450   4.328   0.326   5.677
 4517SOL    HW214451   4.482   0.381   5.683
 4518SOL     OW14452   2.129   0.122   1.365
 4518SOL    HW114453   2.092   0.090   1.452
 4518SOL    HW214454   2.182   0.049   1.322
 4519SOL     OW14455   5.740   6.651   0.304
 4519SOL    HW114456   5.750   6.717   0.229
 4519SOL    HW214457   5.817   6.660   0.367
 4520SOL     OW14458   4.019   6.608   4.998
 4520SOL    HW114459   4.013   6.568   4.906
 4520SOL    HW214460   4.039   6.706   4.990
 4521SOL     OW14461   5.062   2.415   5.180
 4521SOL    HW114462   5.019   2.409   5.089
 4521SOL    HW214463   4.995   2.390   5.250
 4522SOL     OW14464   5.233   3.443   3.379
 4522SOL    HW114465   5.196   3.431   3.471
 4522SOL    HW214466   5.311   3.381   3.366
 4523SOL     OW14467   0.453   3.695   6.299
 4523SOL    HW114468   0.444   3.647   6.387
 4523SOL    HW214469   0.394   3.776   6.300
 4524SOL     OW14470   0.412   3.048   2.817
 4524SOL    HW114471   0.405   3.084   2.909
 4524SOL    HW214472   0.356   3.103   2.755
 4525SOL     OW14473   2.072   2.666   5.842
 4525SOL    HW114474   2.113   2.639   5.929
 4525SOL    HW214475   2.144   2.684   5.776
 4526SOL     OW14476   0.828   0.084   6.241
 4526SOL    HW114477   0.781   0.108   6.326
 4526SOL    HW214478   0.783   0.005   6.199
 4527SOL     OW14479   6.565   0.052   2.974
 4527SOL    HW114480   6.634   7.000   2.989
 4527SOL    HW214481   6.605   0.141   2.994
 4528SOL     OW14482   4.408   1.342   4.979
 4528SOL    HW114483   4.458   1.383   5.055
 4528SOL    HW214484   4.441   1.249   4.963
 4529SOL     OW14485   2.828   0.919   5.427
 4529SOL    HW114486   2.754   0.978   5.396
 4529SOL    HW214487   2.867   0.870   5.349
 4530SOL     OW14488   2.343   6.308   4.951
 4530SOL    HW114489   2.328   6.376   4.879
 4530SOL    HW214490   2.264   6.248   4.957
 4531SOL     OW14491   0.880   4.891   6.221
 4531SOL    HW114492   0.879   4.841   6.135
 4531SOL    HW214493   0.913   4.832   6.295
 4532SOL     OW14494   5.550   0.473   2.901
 4532SOL    HW114495   5.532   0.564   2.937
 4532SOL    HW214496   5.643   0.445   2.926
 4533SOL     OW14497   2.332   0.815   2.187
 4533SOL    HW114498   2.373   0.865   2.263
 4533SOL    HW214499   2.283   0.879   2.128
 4534SOL     OW14500   4.528   1.747   4.365
 4534SOL    HW114501   4.601   1.806   4.399
 4534SOL    HW214502   4.559   1.652   4.364
 4535SOL     OW14503   2.892   1.810   1.177
 4535SOL    HW114504   2.931   1.843   1.090
 4535SOL    HW214505   2.954   1.742   1.217
 4536SOL     OW14506   2.694   1.759   5.936
 4536SOL    HW114507   2.703   1.794   6.029
 4536SOL    HW214508   2.685   1.836   5.873
 4537SOL     OW14509   3.380   4.183   4.546
 4537SOL    HW114510   3.457   4.230   4.503
 4537SOL    HW214511   3.390   4.188   4.646
 4538SOL     OW14512   6.650   2.622   1.187
 4538SOL    HW114513   6.581   2.569   1.236
 4538SOL    HW214514   6.721   2.561   1.152
 4539SOL     OW14515   1.336   5.446   5.465
 4539SOL    HW114516   1.391   5.524   5.496
 4539SOL    HW214517   1.370   5.414   5.376
 4540SOL     OW14518   6.962   1.283   1.016
 4540SOL    HW114519   6.912   1.329   0.942
 4540SOL    HW214520   6.909   1.204   1.047
 4541SOL     OW14521   4.238   1.964   6.148
 4541SOL    HW114522   4.307   1.909   6.194
 4541SOL    HW214523   4.190   1.908   6.080
 4542SOL     OW14524   6.845   2.780   1.327
 4542SOL    HW114525   6.865   2.701   1.386
 4542SOL    HW214526   6.782   2.751   1.254
 4543SOL     OW14527   3.324   2.020   6.709
 4543SOL    HW114528   3.291   2.110   6.738
 4543SOL    HW214529   3.422   2.014   6.724
 4544SOL     OW14530   5.762   5.034   0.548
 4544SOL    HW114531   5.709   4.987   0.477
 4544SOL    HW214532   5.840   4.978   0.574
 4545SOL     OW14533   1.567   3.704   4.910
 4545SOL    HW114534   1.590   3.738   4.819
 4545SOL    HW214535   1.564   3.781   4.974
 4546SOL     OW14536   2.506   1.279   5.902
 4546SOL    HW114537   2.406   1.281   5.891
 4546SOL    HW214538   2.538   1.370   5.929
 4547SOL     OW14539   6.090   0.540   0.335
 4547SOL    HW114540   6.016   0.608   0.330
 4547SOL    HW214541   6.121   0.531   0.429
 4548SOL     OW14542   2.124   3.062   2.440
 4548SOL    HW114543   2.157   3.034   2.530
 4548SOL    HW214544   2.101   3.159   2.442
 4549SOL     OW14545   5.802   4.157   2.323
 4549SOL    HW114546   5.763   4.070   2.352
 4549SOL    HW214547   5.729   4.218   2.293
 4550SOL     OW14548   0.587   4.613   2.800
 4550SOL    HW114549   0.554   4.520   2.781
 4550SOL    HW214550   0.574   4.633   2.897
 4551SOL     OW14551   1.571   3.467   5.067
 4551SOL    HW114552   1.595   3.502   5.158
 4551SOL    HW214553   1.544   3.544   5.008
 4552SOL     OW14554   6.074   1.199   1.613
 4552SOL    HW114555   6.006   1.267   1.640
 4552SOL    HW214556   6.163   1.223   1.652
 4553SOL     OW14557   5.467   4.789   6.147
 4553SOL    HW114558   5.436   4.860   6.085
 4553SOL    HW214559   5.522   4.830   6.220
 4554SOL     OW14560   0.408   6.742   1.516
 4554SOL    HW114561   0.499   6.702   1.508
 4554SOL    HW214562   0.392   6.768   1.612
 4555SOL     OW14563   1.026   1.104   6.760
 4555SOL    HW114564   0.965   1.147   6.826
 4555SOL    HW214565   0.992   1.122   6.667
 4556SOL     OW14566   6.306   3.179   5.858
 4556SOL    HW114567   6.373   3.114   5.895
 4556SOL    HW214568   6.239   3.202   5.929
 4557SOL     OW14569   5.622   5.026   3.170
 4557SOL    HW114570   5.524   5.018   3.189
 4557SOL    HW214571   5.669   4.944   3.204
 4558SOL     OW14572   6.619   3.008   5.085
 4558SOL    HW114573   6.666   2.921   5.103
 4558SOL    HW214574   6.543   3.019   5.148
 4559SOL     OW14575   0.958   2.931   2.811
 4559SOL    HW114576   1.002   3.017   2.784
 4559SOL    HW214577   0.861   2.947   2.827
 4560SOL     OW14578   6.307   4.849   2.187
 4560SOL    HW114579   6.368   4.857   2.265
 4560SOL    HW214580   6.361   4.827   2.105
 4561SOL     OW14581   3.430   2.142   4.335
 4561SOL    HW114582   3.333   2.120   4.331
 4561SOL    HW214583   3.473   2.121   4.247
 4562SOL     OW14584   1.889   0.225   0.832
 4562SOL    HW114585   1.806   0.233   0.777
 4562SOL    HW214586   1.865   0.220   0.929
 4563SOL     OW14587   0.369   3.182   1.864
 4563SOL    HW114588   0.281   3.154   1.904
 4563SOL    HW214589   0.443   3.149   1.922
 4564SOL     OW14590   0.077   4.444   1.933
 4564SOL    HW114591   0.108   4.354   1.903
 4564SOL    HW214592   0.004   4.433   2.001
 4565SOL     OW14593   2.266   6.928   4.805
 4565SOL    HW114594   2.359   6.912   4.837
 4565SOL    HW214595   2.200   6.896   4.873
 4566SOL     OW14596   6.760   4.371   1.727
 4566SOL    HW114597   6.774   4.361   1.826
 4566SOL    HW214598   6.846   4.396   1.683
 4567SOL     OW14599   0.419   6.892   6.059
 4567SOL    HW114600   0.411   6.854   5.967
 4567SOL    HW214601   0.404   6.991   6.056
 4568SOL     OW14602   0.654   5.106   3.945
 4568SOL    HW114603   0.588   5.177   3.917
 4568SOL    HW214604   0.735   5.150   3.984
 4569SOL     OW14605   3.182   1.348   3.161
 4569SOL    HW114606   3.086   1.360   3.188
 4569SOL    HW214607   3.220   1.437   3.135
 4570SOL     OW14608   6.343   5.856   1.247
 4570SOL    HW114609   6.419   5.826   1.304
 4570SOL    HW214610   6.340   5.956   1.245
 4571SOL     OW14611   3.687   2.984   6.442
 4571SOL    HW114612   3.607   2.932   6.472
 4571SOL    HW214613   3.739   3.014   6.522
 4572SOL     OW14614   2.453   2.976   0.668
 4572SOL    HW114615   2.462   3.066   0.712
 4572SOL    HW214616   2.500   2.907   0.723
 4573SOL     OW14617   1.026   6.677   1.300
 4573SOL    HW114618   1.047   6.704   1.206
 4573SOL    HW214619   0.928   6.662   1.309
 4574SOL     OW14620   6.598   3.207   0.515
 4574SOL    HW114621   6.574   3.134   0.452
 4574SOL    HW214622   6.553   3.292   0.487
 4575SOL     OW14623   6.216   0.779   4.227
 4575SOL    HW114624   6.217   0.863   4.282
 4575SOL    HW214625   6.194   0.801   4.133
 4576SOL     OW14626   2.617   5.362   5.009
 4576SOL    HW114627   2.673   5.332   5.086
 4576SOL    HW214628   2.573   5.283   4.967
 4577SOL     OW14629   2.154   1.817   3.214
 4577SOL    HW114630   2.095   1.898   3.207
 4577SOL    HW214631   2.241   1.842   3.256
 4578SOL     OW14632   1.665   0.560   2.591
 4578SOL    HW114633   1.750   0.612   2.591
 4578SOL    HW214634   1.679   0.473   2.637
 4579SOL     OW14635   4.276   0.071   2.002
 4579SOL    HW114636   4.306   0.052   1.909
 4579SOL    HW214637   4.312   7.019   2.063
 4580SOL     OW14638   6.390   3.461   0.021
 4580SOL    HW114639   6.482   3.499   0.007
 4580SOL    HW214640   6.376   3.445   0.118
 4581SOL     OW14641   3.520   6.687   2.122
 4581SOL    HW114642   3.593   6.745   2.157
 4581SOL    HW214643   3.558   6.602   2.086
 4582SOL     OW14644   5.832   0.679   2.800
 4582SOL    HW114645   5.888   0.605   2.838
 4582SOL    HW214646   5.822   0.751   2.869
 4583SOL     OW14647   2.133   0.129   6.599
 4583SOL    HW114648   2.080   0.141   6.515
 4583SOL    HW214649   2.071   0.127   6.677
 4584SOL     OW14650   1.818   0.247   6.065
 4584SOL    HW114651   1.839   0.262   5.968
 4584SOL    HW214652   1.891   0.287   6.120
 4585SOL     OW14653   1.489   4.471   3.169
 4585SOL    HW114654   1.500   4.570   3.165
 4585SOL    HW214655   1.408   4.449   3.222
 4586SOL     OW14656   5.191   4.253   7.004
 4586SOL    HW114657   5.141   4.209   0.059
 4586SOL    HW214658   5.127   4.295   6.941
 4587SOL     OW14659   3.177   3.731   4.616
 4587SOL    HW114660   3.123   3.814   4.601
 4587SOL    HW214661   3.118   3.660   4.655
 4588SOL     OW14662   2.653   4.064   6.019
 4588SOL    HW114663   2.715   4.039   6.093
 4588SOL    HW214664   2.603   3.983   5.987
 4589SOL     OW14665   5.225   6.208   2.384
 4589SOL    HW114666   5.312   6.164   2.405
 4589SOL    HW214667   5.169   6.146   2.329
 4590SOL     OW14668   3.527   5.242   1.967
 4590SOL    HW114669   3.542   5.311   2.039
 4590SOL    HW214670   3.438   5.199   1.981
 4591SOL     OW14671   2.536   6.858   5.386
 4591SOL    HW114672   2.494   6.921   5.452
 4591SOL    HW214673   2.632   6.881   5.375
 4592SOL     OW14674   2.447   1.253   4.948
 4592SOL    HW114675   2.455   1.328   4.882
 4592SOL    HW214676   2.351   1.233   4.964
 4593SOL     OW14677   6.830   5.878   3.224
 4593SOL    HW114678   6.895   5.893   3.149
 4593SOL    HW214679   6.854   5.938   3.300
 4594SOL     OW14680   2.154   0.262   2.894
 4594SOL    HW114681   2.208   0.324   2.951
 4594SOL    HW214682   2.137   0.304   2.805
 4595SOL     OW14683   4.958   1.317   6.341
 4595SOL    HW114684   4.964   1.219   6.321
 4595SOL    HW214685   5.047   1.359   6.324
 4596SOL     OW14686   0.738   1.008   2.268
 4596SOL    HW114687   0.749   0.928   2.209
 4596SOL    HW214688   0.666   1.067   2.231
 4597SOL     OW14689   2.448   5.370   0.309
 4597SOL    HW114690   2.450   5.385   0.210
 4597SOL    HW214691   2.538   5.337   0.340
 4598SOL     OW14692   1.678   5.543   0.199
 4598SOL    HW114693   1.749   5.473   0.195
 4598SOL    HW214694   1.663   5.571   0.294
 4599SOL     OW14695   1.424   3.986   2.844
 4599SOL    HW114696   1.407   4.036   2.759
 4599SOL    HW214697   1.501   4.028   2.892
 4600SOL     OW14698   0.162   6.348   5.605
 4600SOL    HW114699   0.109   6.340   5.520
 4600SOL    HW214700   0.245   6.292   5.597
 4601SOL     OW14701   0.658   1.153   4.278
 4601SOL    HW114702   0.673   1.091   4.200
 4601SOL    HW214703   0.733   1.220   4.282
 4602SOL     OW14704   3.199   0.594   6.656
 4602SOL    HW114705   3.175   0.663   6.725
 4602SOL    HW214706   3.214   0.506   6.702
 4603SOL     OW14707   4.447   5.818   1.386
 4603SOL    HW114708   4.527   5.834   1.328
 4603SOL    HW214709   4.364   5.826   1.332
 4604SOL     OW14710   5.047   6.712   5.984
 4604SOL    HW114711   5.010   6.649   6.053
 4604SOL    HW214712   5.116   6.771   6.027
 4605SOL     OW14713   2.525   7.001   1.881
 4605SOL    HW114714   2.440   0.001   1.832
 4605SOL    HW214715   2.590   6.958   1.819
 4606SOL     OW14716   0.279   6.640   2.918
 4606SOL    HW114717   0.375   6.666   2.919
 4606SOL    HW214718   0.232   6.689   2.844
 4607SOL     OW14719   1.870   3.781   2.926
 4607SOL    HW114720   1.963   3.749   2.904
 4607SOL    HW214721   1.808   3.703   2.925
 4608SOL     OW14722   6.754   3.265   4.724
 4608SOL    HW114723   6.744   3.229   4.817
 4608SOL    HW214724   6.826   3.334   4.723
 4609SOL     OW14725   4.197   6.461   6.727
 4609SOL    HW114726   4.141   6.389   6.768
 4609SOL    HW214727   4.137   6.532   6.689
 4610SOL     OW14728   5.392   2.264   0.405
 4610SOL    HW114729   5.441   2.319   0.474
 4610SOL    HW214730   5.297   2.294   0.400
 4611SOL     OW14731   0.943   0.536   5.749
 4611SOL    HW114732   1.024   0.490   5.785
 4611SOL    HW214733   0.868   0.529   5.815
 4612SOL     OW14734   2.123   6.365   2.338
 4612SOL    HW114735   2.137   6.291   2.272
 4612SOL    HW214736   2.122   6.453   2.290
 4613SOL     OW14737   2.068   4.639   1.563
 4613SOL    HW114738   2.075   4.590   1.650
 4613SOL    HW214739   2.074   4.737   1.580
 4614SOL     OW14740   5.866   3.476   4.492
 4614SOL    HW114741   5.889   3.417   4.415
 4614SOL    HW214742   5.783   3.442   4.536
 4615SOL     OW14743   1.327   1.402   1.157
 4615SOL    HW114744   1.229   1.414   1.145
 4615SOL    HW214745   1.349   1.398   1.254
 4616SOL     OW14746   6.195   2.831   4.389
 4616SOL    HW114747   6.233   2.923   4.388
 4616SOL    HW214748   6.261   2.768   4.430
 4617SOL     OW14749   0.677   2.590   1.996
 4617SOL    HW114750   0.772   2.563   1.980
 4617SOL    HW214751   0.676   2.683   2.034
 4618SOL     OW14752   2.432   4.145   5.750
 4618SOL    HW114753   2.502   4.104   5.692
 4618SOL    HW214754   2.418   4.241   5.723
 4619SOL     OW14755   3.103   5.759   4.739
 4619SOL    HW114756   3.039   5.755   4.815
 4619SOL    HW214757   3.054   5.746   4.653
 4620SOL     OW14758   0.787   5.467   1.969
 4620SOL    HW114759   0.828   5.471   2.060
 4620SOL    HW214760   0.815   5.384   1.923
 4621SOL     OW14761   5.112   0.605   2.596
 4621SOL    HW114762   5.087   0.515   2.631
 4621SOL    HW214763   5.028   0.657   2.578
 4622SOL     OW14764   4.012   5.697   1.199
 4622SOL    HW114765   3.963   5.759   1.139
 4622SOL    HW214766   4.028   5.610   1.151
 4623SOL     OW14767   3.249   5.229   1.215
 4623SOL    HW114768   3.307   5.272   1.147
 4623SOL    HW214769   3.179   5.174   1.170
 4624SOL     OW14770   3.627   1.097   3.346
 4624SOL    HW114771   3.712   1.142   3.375
 4624SOL    HW214772   3.649   1.020   3.286
 4625SOL     OW14773   1.861   5.104   1.904
 4625SOL    HW114774   1.936   5.169   1.909
 4625SOL    HW214775   1.882   5.033   1.836
 4626SOL     OW14776   3.985   4.119   1.748
 4626SOL    HW114777   3.976   4.217   1.726
 4626SOL    HW214778   4.075   4.087   1.718
 4627SOL     OW14779   6.807   6.349   4.789
 4627SOL    HW114780   6.895   6.394   4.770
 4627SOL    HW214781   6.808   6.313   4.882
 4628SOL     OW14782   4.748   5.172   3.198
 4628SOL    HW114783   4.769   5.263   3.234
 4628SOL    HW214784   4.681   5.180   3.125
 4629SOL     OW14785   1.743   5.594   6.901
 4629SOL    HW114786   1.818   5.529   6.884
 4629SOL    HW214787   1.686   5.560   6.976
 4630SOL     OW14788   1.515   4.525   2.349
 4630SOL    HW114789   1.577   4.452   2.377
 4630SOL    HW214790   1.556   4.576   2.273
 4631SOL     OW14791   0.051   0.976   4.173
 4631SOL    HW114792   6.979   0.955   4.208
 4631SOL    HW214793   0.046   0.991   4.074
 4632SOL     OW14794   3.101   5.171   2.483
 4632SOL    HW114795   3.169   5.174   2.556
 4632SOL    HW214796   3.126   5.236   2.411
 4633SOL     OW14797   4.912   1.350   3.993
 4633SOL    HW114798   5.005   1.329   4.022
 4633SOL    HW214799   4.881   1.282   3.926
 4634SOL     OW14800   3.028   3.367   4.904
 4634SOL    HW114801   3.058   3.302   4.834
 4634SOL    HW214802   2.983   3.319   4.979
 4635SOL     OW14803   5.427   5.730   0.591
 4635SOL    HW114804   5.404   5.644   0.545
 4635SOL    HW214805   5.418   5.717   0.690
 4636SOL     OW14806   1.870   5.346   0.168
 4636SOL    HW114807   1.865   5.260   0.117
 4636SOL    HW214808   1.872   5.326   0.266
 4637SOL     OW14809   1.836   0.020   2.189
 4637SOL    HW114810   1.898   0.072   2.130
 4637SOL    HW214811   1.881   0.003   2.277
 4638SOL     OW14812   3.855   4.989   0.839
 4638SOL    HW114813   3.948   4.951   0.834
 4638SOL    HW214814   3.802   4.938   0.906
 4639SOL     OW14815   2.009   2.232   0.352
 4639SOL    HW114816   1.974   2.286   0.429
 4639SOL    HW214817   2.090   2.182   0.381
 4640SOL     OW14818   6.352   3.075   5.423
 4640SOL    HW114819   6.281   3.039   5.362
 4640SOL    HW214820   6.404   2.998   5.462
 4641SOL     OW14821   0.788   5.926   3.772
 4641SOL    HW114822   0.879   5.888   3.756
 4641SOL    HW214823   0.792   6.026   3.767
 4642SOL     OW14824   1.950   1.880   3.444
 4642SOL    HW114825   1.983   1.789   3.468
 4642SOL    HW214826   1.966   1.897   3.347
 4643SOL     OW14827   6.849   2.275   0.052
 4643SOL    HW114828   6.763   2.322   0.031
 4643SOL    HW214829   6.851   2.251   0.149
 4644SOL     OW14830   1.828   0.945   0.042
 4644SOL    HW114831   1.898   0.991   7.007
 4644SOL    HW214832   1.869   0.868   0.092
 4645SOL     OW14833   1.309   0.969   3.633
 4645SOL    HW114834   1.254   1.050   3.610
 4645SOL    HW214835   1.250   0.897   3.668
 4646SOL     OW14836   2.107   5.525   3.647
 4646SOL    HW114837   2.163   5.587   3.593
 4646SOL    HW214838   2.015   5.565   3.658
 4647SOL     OW14839   1.852   6.461   2.843
 4647SOL    HW114840   1.783   6.411   2.790
 4647SOL    HW214841   1.823   6.465   2.939
 4648SOL     OW14842   3.242   1.355   4.041
 4648SOL    HW114843   3.208   1.265   4.015
 4648SOL    HW214844   3.165   1.420   4.044
 4649SOL     OW14845   5.948   0.581   0.666
 4649SOL    HW114846   6.022   0.540   0.720
 4649SOL    HW214847   5.987   0.627   0.586
 4650SOL     OW14848   5.091   6.284   1.374
 4650SOL    HW114849   5.098   6.359   1.439
 4650SOL    HW214850   5.033   6.212   1.412
 4651SOL     OW14851   6.643   3.340   6.131
 4651SOL    HW114852   6.634   3.351   6.230
 4651SOL    HW214853   6.577   3.272   6.099
 4652SOL     OW14854   6.848   6.411   4.398
 4652SOL    HW114855   6.854   6.509   4.383
 4652SOL    HW214856   6.757   6.387   4.433
 4653SOL     OW14857   5.238   5.678   0.843
 4653SOL    HW114858   5.308   5.738   0.880
 4653SOL    HW214859   5.192   5.724   0.766
 4654SOL     OW14860   6.790   6.646   4.615
 4654SOL    HW114861   6.695   6.636   4.643
 4654SOL    HW214862   6.843   6.569   4.649
 4655SOL     OW14863   4.728   2.559   0.893
 4655SOL    HW114864   4.631   2.546   0.916
 4655SOL    HW214865   4.783   2.553   0.976
 4656SOL     OW14866   0.556   1.264   1.477
 4656SOL    HW114867   0.524   1.215   1.558
 4656SOL    HW214868   0.610   1.203   1.420
 4657SOL     OW14869   5.205   6.671   2.263
 4657SOL    HW114870   5.130   6.682   2.198
 4657SOL    HW214871   5.196   6.583   2.310
 4658SOL     OW14872   2.704   2.394   5.142
 4658SOL    HW114873   2.761   2.315   5.121
 4658SOL    HW214874   2.639   2.408   5.067
 4659SOL     OW14875   3.251   4.709   0.845
 4659SOL    HW114876   3.346   4.680   0.858
 4659SOL    HW214877   3.202   4.641   0.790
 4660SOL     OW14878   1.172   6.536   4.085
 4660SOL    HW114879   1.238   6.486   4.029
 4660SOL    HW214880   1.118   6.470   4.138
 4661SOL     OW14881   2.072   3.764   5.821
 4661SOL    HW114882   2.026   3.811   5.896
 4661SOL    HW214883   2.034   3.796   5.734
 4662SOL     OW14884   3.115   6.466   4.616
 4662SOL    HW114885   3.017   6.448   4.605
 4662SOL    HW214886   3.168   6.387   4.587
 4663SOL     OW14887   1.087   0.574   6.938
 4663SOL    HW114888   1.033   0.491   6.945
 4663SOL    HW214889   1.091   0.604   6.843
 4664SOL     OW14890   6.657   6.954   0.506
 4664SOL    HW114891   6.695   0.009   0.561
 4664SOL    HW214892   6.725   6.925   0.439
 4665SOL     OW14893   2.144   0.537   5.558
 4665SOL    HW114894   2.167   0.464   5.494
 4665SOL    HW214895   2.173   0.625   5.519
 4666SOL     OW14896   2.003   2.566   6.332
 4666SOL    HW114897   2.092   2.607   6.312
 4666SOL    HW214898   2.010   2.513   6.417
 4667SOL     OW14899   6.482   3.387   1.713
 4667SOL    HW114900   6.420   3.421   1.782
 4667SOL    HW214901   6.469   3.288   1.703
 4668SOL     OW14902   4.103   2.165   4.693
 4668SOL    HW114903   4.164   2.196   4.621
 4668SOL    HW214904   4.014   2.141   4.653
 4669SOL     OW14905   5.458   6.710   0.325
 4669SOL    HW114906   5.445   6.800   0.367
 4669SOL    HW214907   5.553   6.682   0.335
 4670SOL     OW14908   1.269   3.456   0.207
 4670SOL    HW114909   1.188   3.448   0.266
 4670SOL    HW214910   1.251   3.410   0.120
 4671SOL     OW14911   0.880   3.739   0.313
 4671SOL    HW114912   0.845   3.647   0.330
 4671SOL    HW214913   0.921   3.774   0.397
 4672SOL     OW14914   3.616   4.217   5.897
 4672SOL    HW114915   3.716   4.221   5.900
 4672SOL    HW214916   3.588   4.149   5.828
 4673SOL     OW14917   5.602   0.526   6.460
 4673SOL    HW114918   5.557   0.606   6.499
 4673SOL    HW214919   5.560   0.504   6.372
 4674SOL     OW14920   0.521   1.878   0.283
 4674SOL    HW114921   0.593   1.930   0.237
 4674SOL    HW214922   0.452   1.941   0.318
 4675SOL     OW14923   3.194   5.800   0.335
 4675SOL    HW114924   3.269   5.792   0.400
 4675SOL    HW214925   3.175   5.711   0.295
 4676SOL     OW14926   0.634   6.610   4.431
 4676SOL    HW114927   0.599   6.516   4.423
 4676SOL    HW214928   0.688   6.632   4.350
 4677SOL     OW14929   4.209   0.309   6.753
 4677SOL    HW114930   4.264   0.345   6.828
 4677SOL    HW214931   4.113   0.332   6.768
 4678SOL     OW14932   2.065   4.810   0.846
 4678SOL    HW114933   2.043   4.869   0.924
 4678SOL    HW214934   2.140   4.852   0.794
 4679SOL     OW14935   2.756   0.722   6.231
 4679SOL    HW114936   2.706   0.659   6.171
 4679SOL    HW214937   2.700   0.744   6.310
 4680SOL     OW14938   1.627   4.653   1.040
 4680SOL    HW114939   1.707   4.610   0.998
 4680SOL    HW214940   1.609   4.741   0.996
 4681SOL     OW14941   0.350   4.987   5.564
 4681SOL    HW114942   0.393   5.056   5.622
 4681SOL    HW214943   0.363   4.897   5.606
 4682SOL     OW14944   3.930   6.650   0.136
 4682SOL    HW114945   3.855   6.677   0.076
 4682SOL    HW214946   3.924   6.701   0.222
 4683SOL     OW14947   6.218   3.834   2.289
 4683SOL    HW114948   6.261   3.746   2.311
 4683SOL    HW214949   6.261   3.906   2.342
 4684SOL     OW14950   1.145   2.383   4.562
 4684SOL    HW114951   1.092   2.416   4.484
 4684SOL    HW214952   1.164   2.459   4.624
 4685SOL     OW14953   5.420   5.212   4.009
 4685SOL    HW114954   5.504   5.188   4.057
 4685SOL    HW214955   5.442   5.239   3.915
 4686SOL     OW14956   5.093   5.399   6.682
 4686SOL    HW114957   5.136   5.344   6.753
 4686SOL    HW214958   5.067   5.340   6.605
 4687SOL     OW14959   6.261   4.390   4.653
 4687SOL    HW114960   6.315   4.400   4.737
 4687SOL    HW214961   6.194   4.317   4.664
 4688SOL     OW14962   0.454   3.428   0.009
 4688SOL    HW114963   0.515   3.507   0.013
 4688SOL    HW214964   0.443   3.399   6.934
 4689SOL     OW14965   6.859   6.221   5.291
 4689SOL    HW114966   6.882   6.138   5.343
 4689SOL    HW214967   6.894   6.301   5.340
 4690SOL     OW14968   1.853   1.360   6.982
 4690SOL    HW114969   1.810   1.439   6.937
 4690SOL    HW214970   1.911   1.312   6.917
 4691SOL     OW14971   2.485   4.300   0.755
 4691SOL    HW114972   2.535   4.217   0.778
 4691SOL    HW214973   2.517   4.376   0.812
 4692SOL     OW14974   6.982   4.968   2.964
 4692SOL    HW114975   6.995   4.892   3.028
 4692SOL    HW214976   0.018   5.046   2.993
 4693SOL     OW14977   0.473   1.116   4.465
 4693SOL    HW114978   0.547   1.134   4.400
 4693SOL    HW214979   0.397   1.179   4.447
 4694SOL     OW14980   2.005   1.472   0.149
 4694SOL    HW114981   2.023   1.568   0.127
 4694SOL    HW214982   1.946   1.432   0.079
 4695SOL     OW14983   3.863   3.126   1.808
 4695SOL    HW114984   3.902   3.034   1.800
 4695SOL    HW214985   3.937   3.193   1.801
 4696SOL     OW14986   0.263   3.527   5.788
 4696SOL    HW114987   0.251   3.580   5.872
 4696SOL    HW214988   0.175   3.520   5.741
 4697SOL     OW14989   1.105   4.221   6.949
 4697SOL    HW114990   1.117   4.156   0.005
 4697SOL    HW214991   1.175   4.292   6.955
 4698SOL     OW14992   5.505   4.117   1.334
 4698SOL    HW114993   5.423   4.060   1.325
 4698SOL    HW214994   5.568   4.075   1.399
 4699SOL     OW14995   0.223   0.538   2.634
 4699SOL    HW114996   0.192   0.628   2.603
 4699SOL    HW214997   0.147   0.489   2.677
 4700SOL     OW14998   5.345   1.542   0.937
 4700SOL    HW114999   5.376   1.573   0.847
 4700SOL    HW215000   5.350   1.442   0.940
 4701SOL     OW15001   0.933   1.474   0.205
 4701SOL    HW115002   1.018   1.479   0.153
 4701SOL    HW215003   0.871   1.547   0.175
 4702SOL     OW15004   3.669   4.013   6.660
 4702SOL    HW115005   3.621   4.069   6.727
 4702SOL    HW215006   3.643   3.917   6.672
 4703SOL     OW15007   1.913   1.070   3.020
 4703SOL    HW115008   1.997   1.037   2.977
 4703SOL    HW215009   1.936   1.114   3.107
 4704SOL     OW15010   0.471   0.093   0.762
 4704SOL    HW115011   0.528   0.116   0.841
 4704SOL    HW215012   0.439   0.177   0.718
 4705SOL     OW15013   3.569   3.224   4.154
 4705SOL    HW115014   3.640   3.168   4.195
 4705SOL    HW215015   3.587   3.236   4.056
 4706SOL     OW15016   3.754   6.188   6.984
 4706SOL    HW115017   3.661   6.166   6.954
 4706SOL    HW215018   3.786   6.120   0.030
 4707SOL     OW15019   1.866   5.629   1.326
 4707SOL    HW115020   1.873   5.708   1.264
 4707SOL    HW215021   1.790   5.571   1.298
 4708SOL     OW15022   3.349   2.815   1.345
 4708SOL    HW115023   3.341   2.912   1.367
 4708SOL    HW215024   3.401   2.804   1.260
 4709SOL     OW15025   3.942   4.784   5.579
 4709SOL    HW115026   3.885   4.713   5.619
 4709SOL    HW215027   3.890   4.870   5.575
 4710SOL     OW15028   5.187   0.757   6.860
 4710SOL    HW115029   5.169   0.839   6.914
 4710SOL    HW215030   5.178   0.779   6.763
 4711SOL     OW15031   3.100   0.011   2.439
 4711SOL    HW115032   3.063   6.942   2.467
 4711SOL    HW215033   3.135   0.059   2.519
 4712SOL     OW15034   2.087   4.527   0.813
 4712SOL    HW115035   2.054   4.620   0.803
 4712SOL    HW215036   2.132   4.497   0.729
 4713SOL     OW15037   2.191   5.427   1.389
 4713SOL    HW115038   2.107   5.470   1.422
 4713SOL    HW215039   2.173   5.332   1.362
 4714SOL     OW15040   3.027   1.669   1.654
 4714SOL    HW115041   2.984   1.591   1.700
 4714SOL    HW215042   3.102   1.703   1.710
 4715SOL     OW15043   0.051   2.491   3.107
 4715SOL    HW115044   0.081   2.450   3.020
 4715SOL    HW215045   7.004   2.563   3.088
 4716SOL     OW15046   3.556   5.594   0.331
 4716SOL    HW115047   3.617   5.571   0.407
 4716SOL    HW215048   3.485   5.656   0.364
 4717SOL     OW15049   0.903   5.829   3.128
 4717SOL    HW115050   0.819   5.854   3.177
 4717SOL    HW215051   0.956   5.911   3.109
 4718SOL     OW15052   5.635   1.432   6.390
 4718SOL    HW115053   5.578   1.417   6.470
 4718SOL    HW215054   5.724   1.389   6.403
 4719SOL     OW15055   5.540   3.548   1.954
 4719SOL    HW115056   5.456   3.525   1.905
 4719SOL    HW215057   5.601   3.469   1.953
 4720SOL     OW15058   2.472   6.758   5.890
 4720SOL    HW115059   2.491   6.840   5.944
 4720SOL    HW215060   2.431   6.688   5.950
 4721SOL     OW15061   1.692   2.200   1.041
 4721SOL    HW115062   1.644   2.169   0.959
 4721SOL    HW215063   1.633   2.261   1.094
 4722SOL     OW15064   1.623   6.807   0.426
 4722SOL    HW115065   1.694   6.739   0.408
 4722SOL    HW215066   1.660   6.899   0.412
 4723SOL     OW15067   2.723   6.451   6.458
 4723SOL    HW115068   2.739   6.358   6.492
 4723SOL    HW215069   2.661   6.499   6.520
 4724SOL     OW15070   4.058   6.633   2.004
 4724SOL    HW115071   4.043   6.630   1.905
 4724SOL    HW215072   3.982   6.588   2.051
 4725SOL     OW15073   5.523   6.486   2.995
 4725SOL    HW115074   5.435   6.534   2.998
 4725SOL    HW215075   5.547   6.456   3.087
 4726SOL     OW15076   0.905   3.635   6.927
 4726SOL    HW115077   0.978   3.693   6.890
 4726SOL    HW215078   0.930   3.605   7.019
 4727SOL     OW15079   6.986   5.686   0.018
 4727SOL    HW115080   0.012   5.628   0.086
 4727SOL    HW215081   6.972   5.777   0.056
 4728SOL     OW15082   6.752   0.782   6.680
 4728SOL    HW115083   6.812   0.862   6.669
 4728SOL    HW215084   6.808   0.700   6.693
 4729SOL     OW15085   3.167   0.002   2.157
 4729SOL    HW115086   3.137   0.011   2.252
 4729SOL    HW215087   3.266   0.010   2.153
 4730SOL     OW15088   2.289   6.183   5.810
 4730SOL    HW115089   2.245   6.273   5.816
 4730SOL    HW215090   2.368   6.188   5.749
 4731SOL     OW15091   5.822   0.948   4.872
 4731SOL    HW115092   5.864   0.926   4.960
 4731SOL    HW215093   5.724   0.965   4.885
 4732SOL     OW15094   6.976   3.269   6.702
 4732SOL    HW115095   0.033   3.334   6.710
 4732SOL    HW215096   6.907   3.291   6.770
 4733SOL     OW15097   0.009   3.685   3.720
 4733SOL    HW115098   0.051   3.773   3.699
 4733SOL    HW215099   0.031   3.620   3.647
 4734SOL     OW15100   4.300   3.636   0.059
 4734SOL    HW115101   4.299   3.675   0.151
 4734SOL    HW215102   4.384   3.665   0.013
 4735SOL     OW15103   0.612   4.850   4.029
 4735SOL    HW115104   0.627   4.948   4.015
 4735SOL    HW215105   0.588   4.807   3.943
 4736SOL     OW15106   1.182   0.895   6.716
 4736SOL    HW115107   1.117   0.971   6.706
 4736SOL    HW215108   1.213   0.889   6.811
 4737SOL     OW15109   2.538   5.010   1.912
 4737SOL    HW115110   2.504   5.093   1.869
 4737SOL    HW215111   2.600   5.034   1.987
 4738SOL     OW15112   6.966   6.676   1.894
 4738SOL    HW115113   6.892   6.743   1.903
 4738SOL    HW215114   6.941   6.593   1.945
 4739SOL     OW15115   4.065   0.719   2.437
 4739SOL    HW115116   4.102   0.633   2.472
 4739SOL    HW215117   4.034   0.706   2.343
 4740SOL     OW15118   0.848   1.791   2.685
 4740SOL    HW115119   0.829   1.700   2.648
 4740SOL    HW215120   0.782   1.856   2.649
 4741SOL     OW15121   4.310   3.383   1.645
 4741SOL    HW115122   4.298   3.369   1.547
 4741SOL    HW215123   4.368   3.463   1.660
 4742SOL     OW15124   3.133   6.906   0.568
 4742SOL    HW115125   3.137   6.816   0.524
 4742SOL    HW215126   3.039   6.925   0.596
 4743SOL     OW15127   2.158   4.818   1.275
 4743SOL    HW115128   2.206   4.741   1.315
 4743SOL    HW215129   2.059   4.799   1.274
 4744SOL     OW15130   2.056   6.764   1.059
 4744SOL    HW115131   2.063   6.858   1.027
 4744SOL    HW215132   2.043   6.763   1.158
 4745SOL     OW15133   1.857   4.200   0.390
 4745SOL    HW115134   1.869   4.292   0.427
 4745SOL    HW215135   1.901   4.133   0.451
 4746SOL     OW15136   4.514   5.349   4.384
 4746SOL    HW115137   4.605   5.308   4.382
 4746SOL    HW215138   4.523   5.448   4.397
 4747SOL     OW15139   1.863   2.421   0.696
 4747SOL    HW115140   1.962   2.431   0.685
 4747SOL    HW215141   1.826   2.366   0.622
 4748SOL     OW15142   2.211   6.708   3.214
 4748SOL    HW115143   2.164   6.637   3.265
 4748SOL    HW215144   2.282   6.667   3.156
 4749SOL     OW15145   1.693   0.192   0.574
 4749SOL    HW115146   1.730   0.285   0.579
 4749SOL    HW215147   1.721   0.150   0.488
 4750SOL     OW15148   5.614   3.577   5.304
 4750SOL    HW115149   5.651   3.649   5.245
 4750SOL    HW215150   5.690   3.533   5.353
 4751SOL     OW15151   4.804   1.147   2.955
 4751SOL    HW115152   4.848   1.208   3.021
 4751SOL    HW215153   4.709   1.132   2.982
 4752SOL     OW15154   4.076   2.021   0.039
 4752SOL    HW115155   4.090   2.112   0.078
 4752SOL    HW215156   4.034   2.029   6.968
 4753SOL     OW15157   2.628   6.099   5.016
 4753SOL    HW115158   2.620   6.139   4.925
 4753SOL    HW215159   2.563   6.144   5.078
 4754SOL     OW15160   4.386   4.908   6.547
 4754SOL    HW115161   4.362   4.975   6.476
 4754SOL    HW215162   4.326   4.829   6.540
 4755SOL     OW15163   1.237   0.792   1.555
 4755SOL    HW115164   1.271   0.726   1.487
 4755SOL    HW215165   1.315   0.832   1.604
 4756SOL     OW15166   6.340   4.452   6.568
 4756SOL    HW115167   6.316   4.448   6.665
 4756SOL    HW215168   6.439   4.440   6.558
 4757SOL     OW15169   2.060   3.060   1.474
 4757SOL    HW115170   2.048   3.112   1.389
 4757SOL    HW215171   2.146   3.089   1.518
 4758SOL     OW15172   1.790   0.035   2.700
 4758SOL    HW115173   1.807   0.134   2.692
 4758SOL    HW215174   1.862   7.013   2.755
 4759SOL     OW15175   1.096   4.709   1.681
 4759SOL    HW115176   1.098   4.768   1.762
 4759SOL    HW215177   1.025   4.740   1.619
 4760SOL     OW15178   1.934   6.337   0.822
 4760SOL    HW115179   1.980   6.296   0.743
 4760SOL    HW215180   1.974   6.301   0.906
 4761SOL     OW15181   0.649   6.943   1.070
 4761SOL    HW115182   0.654   6.851   1.030
 4761SOL    HW215183   0.568   6.989   1.036
 4762SOL     OW15184   2.076   5.498   2.389
 4762SOL    HW115185   2.102   5.404   2.413
 4762SOL    HW215186   2.151   5.560   2.415
 4763SOL     OW15187   4.827   5.913   1.927
 4763SOL    HW115188   4.860   5.947   2.015
 4763SOL    HW215189   4.731   5.939   1.916
 4764SOL     OW15190   4.225   3.803   5.795
 4764SOL    HW115191   4.313   3.797   5.749
 4764SOL    HW215192   4.220   3.735   5.868
 4765SOL     OW15193   3.857   1.447   5.140
 4765SOL    HW115194   3.941   1.464   5.192
 4765SOL    HW215195   3.790   1.519   5.159
 4766SOL     OW15196   6.833   0.022   4.237
 4766SOL    HW115197   6.830   6.983   4.156
 4766SOL    HW215198   6.793   6.993   4.314
 4767SOL     OW15199   2.254   5.450   4.930
 4767SOL    HW115200   2.321   5.406   4.870
 4767SOL    HW215201   2.259   5.409   5.021
 4768SOL     OW15202   4.500   2.292   0.413
 4768SOL    HW115203   4.582   2.236   0.427
 4768SOL    HW215204   4.426   2.235   0.379
 4769SOL     OW15205   3.359   5.984   1.629
 4769SOL    HW115206   3.302   6.034   1.564
 4769SOL    HW215207   3.328   5.889   1.633
 4770SOL     OW15208   0.423   1.463   5.741
 4770SOL    HW115209   0.511   1.468   5.694
 4770SOL    HW215210   0.402   1.551   5.783
 4771SOL     OW15211   2.421   6.784   5.137
 4771SOL    HW115212   2.420   6.688   5.110
 4771SOL    HW215213   2.459   6.793   5.229
 4772SOL     OW15214   2.322   6.281   1.221
 4772SOL    HW115215   2.371   6.348   1.277
 4772SOL    HW215216   2.295   6.204   1.278
 4773SOL     OW15217   2.469   5.524   5.321
 4773SOL    HW115218   2.486   5.613   5.365
 4773SOL    HW215219   2.517   5.453   5.372
 4774SOL     OW15220   1.816   3.796   0.305
 4774SOL    HW115221   1.773   3.874   0.351
 4774SOL    HW215222   1.907   3.822   0.272
 4775SOL     OW15223   6.082   6.583   5.239
 4775SOL    HW115224   6.073   6.660   5.176
 4775SOL    HW215225   6.032   6.602   5.323
 4776SOL     OW15226   1.042   0.749   6.229
 4776SOL    HW115227   1.091   0.666   6.203
 4776SOL    HW215228   1.084   0.828   6.185
 4777SOL     OW15229   0.866   6.399   0.933
 4777SOL    HW115230   0.799   6.328   0.910
 4777SOL    HW215231   0.835   6.448   1.015
 4778SOL     OW15232   1.299   2.793   5.325
 4778SOL    HW115233   1.335   2.865   5.384
 4778SOL    HW215234   1.213   2.758   5.363
 4779SOL     OW15235   5.298   0.852   3.525
 4779SOL    HW115236   5.370   0.837   3.592
 4779SOL    HW215237   5.259   0.943   3.536
 4780SOL     OW15238   6.539   2.415   5.057
 4780SOL    HW115239   6.484   2.487   5.016
 4780SOL    HW215240   6.612   2.389   4.993
 4781SOL     OW15241   2.351   6.044   2.735
 4781SOL    HW115242   2.358   5.966   2.798
 4781SOL    HW215243   2.298   6.117   2.777
 4782SOL     OW15244   5.909   5.190   4.643
 4782SOL    HW115245   5.927   5.245   4.725
 4782SOL    HW215246   5.879   5.250   4.569
 4783SOL     OW15247   6.516   2.876   1.051
 4783SOL    HW115248   6.516   2.787   1.097
 4783SOL    HW215249   6.608   2.916   1.056
 4784SOL     OW15250   5.598   2.017   6.442
 4784SOL    HW115251   5.519   1.974   6.486
 4784SOL    HW215252   5.658   2.054   6.513
 4785SOL     OW15253   0.583   6.238   3.776
 4785SOL    HW115254   0.617   6.265   3.685
 4785SOL    HW215255   0.645   6.274   3.846
 4786SOL     OW15256   2.666   6.500   0.806
 4786SOL    HW115257   2.697   6.580   0.856
 4786SOL    HW215258   2.592   6.525   0.743
 4787SOL     OW15259   3.684   1.472   4.546
 4787SOL    HW115260   3.759   1.487   4.610
 4787SOL    HW215261   3.600   1.452   4.597
 4788SOL     OW15262   6.355   6.272   6.559
 4788SOL    HW115263   6.400   6.360   6.545
 4788SOL    HW215264   6.257   6.287   6.570
 4789SOL     OW15265   5.006   0.596   2.292
 4789SOL    HW115266   5.080   0.635   2.348
 4789SOL    HW215267   5.006   0.640   2.203
 4790SOL     OW15268   6.088   2.556   5.012
 4790SOL    HW115269   6.007   2.512   4.973
 4790SOL    HW215270   6.137   2.491   5.069
 4791SOL     OW15271   6.714   2.297   0.776
 4791SOL    HW115272   6.655   2.374   0.800
 4791SOL    HW215273   6.682   2.214   0.821
 4792SOL     OW15274   2.143   3.742   3.851
 4792SOL    HW115275   2.175   3.721   3.759
 4792SOL    HW215276   2.147   3.660   3.908
 4793SOL     OW15277   1.039   3.662   5.704
 4793SOL    HW115278   1.124   3.615   5.678
 4793SOL    HW215279   1.052   3.707   5.792
 4794SOL     OW15280   4.730   0.834   4.191
 4794SOL    HW115281   4.699   0.810   4.099
 4794SOL    HW215282   4.745   0.933   4.196
 4795SOL     OW15283   1.074   0.718   5.369
 4795SOL    HW115284   1.069   0.622   5.340
 4795SOL    HW215285   1.049   0.776   5.292
 4796SOL     OW15286   3.823   1.656   5.623
 4796SOL    HW115287   3.860   1.727   5.683
 4796SOL    HW215288   3.763   1.697   5.555
 4797SOL     OW15289   1.073   5.614   4.534
 4797SOL    HW115290   1.026   5.672   4.468
 4797SOL    HW215291   1.025   5.527   4.541
 4798SOL     OW15292   5.052   4.662   5.966
 4798SOL    HW115293   4.965   4.634   5.925
 4798SOL    HW215294   5.036   4.739   6.028
 4799SOL     OW15295   3.700   3.114   6.753
 4799SOL    HW115296   3.708   3.178   6.829
 4799SOL    HW215297   3.611   3.125   6.709
 4800SOL     OW15298   1.135   4.666   7.005
 4800SOL    HW115299   1.097   4.737   6.946
 4800SOL    HW215300   1.097   4.578   6.979
 4801SOL     OW15301   4.877   2.335   1.533
 4801SOL    HW115302   4.893   2.361   1.628
 4801SOL    HW215303   4.959   2.292   1.495
 4802SOL     OW15304   6.947   6.922   2.101
 4802SOL    HW115305   6.899   7.008   2.114
 4802SOL    HW215306   0.006   6.936   2.041
 4803SOL     OW15307   5.656   4.081   5.917
 4803SOL    HW115308   5.667   4.005   5.853
 4803SOL    HW215309   5.734   4.083   5.980
 4804SOL     OW15310   5.409   1.292   0.882
 4804SOL    HW115311   5.468   1.289   0.801
 4804SOL    HW215312   5.337   1.223   0.873
 4805SOL     OW15313   6.185   1.950   0.942
 4805SOL    HW115314   6.280   1.920   0.949
 4805SOL    HW215315   6.133   1.916   1.020
 4806SOL     OW15316   1.009   2.345   3.461
 4806SOL    HW115317   0.921   2.305   3.435
 4806SOL    HW215318   1.080   2.314   3.398
 4807SOL     OW15319   1.103   2.932   6.339
 4807SOL    HW115320   1.113   3.006   6.273
 4807SOL    HW215321   1.123   2.845   6.294
 4808SOL     OW15322   4.420   5.969   0.705
 4808SOL    HW115323   4.372   6.011   0.781
 4808SOL    HW215324   4.409   5.870   0.709
 4809SOL     OW15325   3.642   4.922   1.657
 4809SOL    HW115326   3.622   4.961   1.566
 4809SOL    HW215327   3.561   4.873   1.690
 4810SOL     OW15328   1.021   4.530   3.731
 4810SOL    HW115329   0.982   4.526   3.823
 4810SOL    HW215330   0.983   4.609   3.682
 4811SOL     OW15331   2.960   3.616   4.756
 4811SOL    HW115332   2.982   3.532   4.806
 4811SOL    HW215333   2.927   3.592   4.665
 4812SOL     OW15334   0.305   0.213   2.212
 4812SOL    HW115335   0.396   0.227   2.174
 4812SOL    HW215336   0.286   0.115   2.217
 4813SOL     OW15337   6.314   1.534   7.016
 4813SOL    HW115338   6.326   1.467   6.943
 4813SOL    HW215339   6.363   1.619   6.992
 4814SOL     OW15340   0.363   3.658   1.408
 4814SOL    HW115341   0.349   3.588   1.477
 4814SOL    HW215342   0.391   3.743   1.453
 4815SOL     OW15343   5.634   4.750   2.530
 4815SOL    HW115344   5.706   4.681   2.529
 4815SOL    HW215345   5.594   4.756   2.621
 4816SOL     OW15346   1.698   0.211   2.386
 4816SOL    HW115347   1.616   0.268   2.381
 4816SOL    HW215348   1.715   0.169   2.296
 4817SOL     OW15349   4.055   1.147   1.317
 4817SOL    HW115350   4.061   1.193   1.228
 4817SOL    HW215351   4.129   1.081   1.326
 4818SOL     OW15352   3.593   0.552   4.950
 4818SOL    HW115353   3.530   0.624   4.978
 4818SOL    HW215354   3.547   0.464   4.953
 4819SOL     OW15355   3.359   0.876   1.243
 4819SOL    HW115356   3.340   0.974   1.247
 4819SOL    HW215357   3.276   0.826   1.220
 4820SOL     OW15358   6.806   3.804   2.406
 4820SOL    HW115359   6.754   3.812   2.491
 4820SOL    HW215360   6.904   3.811   2.426
 4821SOL     OW15361   6.669   5.231   1.686
 4821SOL    HW115362   6.599   5.220   1.616
 4821SOL    HW215363   6.753   5.185   1.657
 4822SOL     OW15364   1.921   4.254   3.037
 4822SOL    HW115365   1.966   4.341   3.053
 4822SOL    HW215366   1.956   4.186   3.101
 4823SOL     OW15367   1.032   0.493   4.642
 4823SOL    HW115368   0.967   0.421   4.618
 4823SOL    HW215369   0.982   0.578   4.659
 4824SOL     OW15370   5.328   2.302   2.289
 4824SOL    HW115371   5.336   2.367   2.364
 4824SOL    HW215372   5.297   2.214   2.325
 4825SOL     OW15373   1.312   3.466   3.389
 4825SOL    HW115374   1.223   3.503   3.418
 4825SOL    HW215375   1.324   3.480   3.291
 4826SOL     OW15376   0.258   6.477   0.548
 4826SOL    HW115377   0.274   6.572   0.576
 4826SOL    HW215378   0.282   6.466   0.451
 4827SOL     OW15379   4.668   0.957   1.200
 4827SOL    HW115380   4.757   0.934   1.160
 4827SOL    HW215381   4.601   0.888   1.175
 4828SOL     OW15382   4.757   3.403   1.673
 4828SOL    HW115383   4.818   3.479   1.649
 4828SOL    HW215384   4.773   3.376   1.768
 4829SOL     OW15385   3.049   1.148   5.926
 4829SOL    HW115386   3.012   1.064   5.887
 4829SOL    HW215387   3.148   1.150   5.911
 4830SOL     OW15388   4.690   6.739   3.798
 4830SOL    HW115389   4.723   6.669   3.861
 4830SOL    HW215390   4.615   6.790   3.840
 4831SOL     OW15391   6.898   4.534   5.143
 4831SOL    HW115392   6.927   4.520   5.238
 4831SOL    HW215393   6.845   4.618   5.136
 4832SOL     OW15394   2.980   3.073   5.899
 4832SOL    HW115395   2.950   3.004   5.834
 4832SOL    HW215396   2.901   3.108   5.949
 4833SOL     OW15397   4.118   1.532   3.493
 4833SOL    HW115398   4.112   1.632   3.487
 4833SOL    HW215399   4.040   1.497   3.544
 4834SOL     OW15400   4.521   1.553   2.076
 4834SOL    HW115401   4.429   1.589   2.092
 4834SOL    HW215402   4.517   1.453   2.073
 4835SOL     OW15403   2.371   7.007   6.610
 4835SOL    HW115404   2.288   0.043   6.603
 4835SOL    HW215405   2.450   0.047   6.627
 4836SOL     OW15406   4.936   1.935   4.236
 4836SOL    HW115407   4.917   1.972   4.327
 4836SOL    HW215408   5.032   1.907   4.231
 4837SOL     OW15409   2.542   2.305   0.934
 4837SOL    HW115410   2.598   2.313   1.016
 4837SOL    HW215411   2.451   2.270   0.959
 4838SOL     OW15412   3.541   4.924   2.183
 4838SOL    HW115413   3.449   4.887   2.190
 4838SOL    HW215414   3.589   4.880   2.107
 4839SOL     OW15415   0.401   5.354   5.518
 4839SOL    HW115416   0.429   5.266   5.555
 4839SOL    HW215417   0.384   5.345   5.420
 4840SOL     OW15418   6.159   6.263   7.013
 4840SOL    HW115419   6.160   6.189   6.946
 4840SOL    HW215420   6.244   6.316   7.005
 4841SOL     OW15421   2.795   5.412   2.076
 4841SOL    HW115422   2.770   5.507   2.055
 4841SOL    HW215423   2.882   5.390   2.032
 4842SOL     OW15424   4.112   6.082   1.471
 4842SOL    HW115425   4.205   6.072   1.509
 4842SOL    HW215426   4.048   6.031   1.529
 4843SOL     OW15427   6.852   3.857   6.984
 4843SOL    HW115428   6.834   3.884   6.889
 4843SOL    HW215429   6.936   3.804   6.989
 4844SOL     OW15430   6.353   2.711   6.301
 4844SOL    HW115431   6.332   2.620   6.266
 4844SOL    HW215432   6.269   2.763   6.314
 4845SOL     OW15433   5.358   5.272   3.740
 4845SOL    HW115434   5.430   5.334   3.710
 4845SOL    HW215435   5.359   5.190   3.682
 4846SOL     OW15436   1.764   2.896   1.360
 4846SOL    HW115437   1.717   2.869   1.276
 4846SOL    HW215438   1.845   2.950   1.336
 4847SOL     OW15439   3.406   1.957   5.154
 4847SOL    HW115440   3.499   1.960   5.119
 4847SOL    HW215441   3.349   2.022   5.102
 4848SOL     OW15442   2.432   1.509   3.027
 4848SOL    HW115443   2.357   1.568   2.994
 4848SOL    HW215444   2.405   1.413   3.019
 4849SOL     OW15445   1.716   0.407   0.412
 4849SOL    HW115446   1.799   0.428   0.360
 4849SOL    HW215447   1.637   0.408   0.351
 4850SOL     OW15448   4.246   0.511   1.640
 4850SOL    HW115449   4.208   0.432   1.688
 4850SOL    HW215450   4.307   0.561   1.701
 4851SOL     OW15451   4.315   5.939   5.515
 4851SOL    HW115452   4.344   5.878   5.588
 4851SOL    HW215453   4.251   5.891   5.455
 4852SOL     OW15454   2.407   0.755   6.864
 4852SOL    HW115455   2.426   0.840   6.814
 4852SOL    HW215456   2.493   0.719   6.902
 4853SOL     OW15457   3.763   1.475   2.662
 4853SOL    HW115458   3.672   1.461   2.623
 4853SOL    HW215459   3.782   1.573   2.669
 4854SOL     OW15460   4.789   6.052   2.200
 4854SOL    HW115461   4.858   6.064   2.272
 4854SOL    HW215462   4.752   6.142   2.174
 4855SOL     OW15463   5.714   1.348   2.074
 4855SOL    HW115464   5.747   1.295   1.996
 4855SOL    HW215465   5.702   1.287   2.152
 4856SOL     OW15466   2.745   5.026   4.071
 4856SOL    HW115467   2.761   4.928   4.081
 4856SOL    HW215468   2.675   5.041   4.001
 4857SOL     OW15469   0.847   1.860   6.017
 4857SOL    HW115470   0.874   1.930   5.951
 4857SOL    HW215471   0.872   1.770   5.982
 4858SOL     OW15472   1.661   2.198   4.358
 4858SOL    HW115473   1.661   2.276   4.421
 4858SOL    HW215474   1.611   2.122   4.399
 4859SOL     OW15475   1.747   5.907   5.260
 4859SOL    HW115476   1.827   5.926   5.202
 4859SOL    HW215477   1.773   5.842   5.331
 4860SOL     OW15478   4.441   5.491   1.729
 4860SOL    HW115479   4.506   5.522   1.798
 4860SOL    HW215480   4.415   5.396   1.749
 4861SOL     OW15481   5.141   4.398   5.853
 4861SOL    HW115482   5.118   4.491   5.882
 4861SOL    HW215483   5.138   4.393   5.753
 4862SOL     OW15484   1.174   5.370   2.716
 4862SOL    HW115485   1.260   5.329   2.747
 4862SOL    HW215486   1.139   5.319   2.637
 4863SOL     OW15487   5.772   4.110   0.119
 4863SOL    HW115488   5.834   4.188   0.130
 4863SOL    HW215489   5.701   4.133   0.052
 4864SOL     OW15490   2.844   1.294   3.333
 4864SOL    HW115491   2.849   1.384   3.375
 4864SOL    HW215492   2.836   1.224   3.405
 4865SOL     OW15493   2.904   5.748   4.927
 4865SOL    HW115494   2.819   5.696   4.918
 4865SOL    HW215495   2.883   5.842   4.956
 4866SOL     OW15496   0.389   3.822   0.879
 4866SOL    HW115497   0.308   3.814   0.820
 4866SOL    HW215498   0.361   3.823   0.975
 4867SOL     OW15499   4.733   5.945   2.638
 4867SOL    HW115500   4.765   5.882   2.567
 4867SOL    HW215501   4.731   5.897   2.726
 4868SOL     OW15502   6.433   4.411   1.669
 4868SOL    HW115503   6.408   4.401   1.765
 4868SOL    HW215504   6.488   4.333   1.640
 4869SOL     OW15505   0.941   1.744   6.559
 4869SOL    HW115506   0.939   1.798   6.474
 4869SOL    HW215507   0.907   1.652   6.540
 4870SOL     OW15508   0.479   6.011   2.138
 4870SOL    HW115509   0.546   5.944   2.106
 4870SOL    HW215510   0.526   6.097   2.158
 4871SOL     OW15511   1.046   0.561   4.301
 4871SOL    HW115512   1.021   0.597   4.391
 4871SOL    HW215513   1.085   0.470   4.311
 4872SOL     OW15514   7.000   6.417   3.370
 4872SOL    HW115515   6.919   6.410   3.428
 4872SOL    HW215516   0.016   6.510   3.374
 4873SOL     OW15517   6.693   6.006   4.806
 4873SOL    HW115518   6.686   6.044   4.898
 4873SOL    HW215519   6.763   5.934   4.805
 4874SOL     OW15520   4.761   2.520   3.487
 4874SOL    HW115521   4.738   2.609   3.528
 4874SOL    HW215522   4.806   2.463   3.556
 4875SOL     OW15523   5.036   6.547   7.016
 4875SOL    HW115524   4.951   6.508   6.981
 4875SOL    HW215525   5.104   6.474   0.006
 4876SOL     OW15526   1.810   1.544   3.140
 4876SOL    HW115527   1.901   1.542   3.181
 4876SOL    HW215528   1.760   1.624   3.173
 4877SOL     OW15529   0.651   1.803   4.605
 4877SOL    HW115530   0.748   1.782   4.596
 4877SOL    HW215531   0.639   1.877   4.671
 4878SOL     OW15532   6.431   1.844   1.839
 4878SOL    HW115533   6.470   1.936   1.841
 4878SOL    HW215534   6.501   1.778   1.866
 4879SOL     OW15535   4.754   1.729   2.781
 4879SOL    HW115536   4.743   1.747   2.879
 4879SOL    HW215537   4.822   1.657   2.767
 4880SOL     OW15538   6.183   3.065   6.833
 4880SOL    HW115539   6.268   3.111   6.858
 4880SOL    HW215540   6.161   3.086   6.737
 4881SOL     OW15541   1.731   2.415   1.556
 4881SOL    HW115542   1.644   2.465   1.553
 4881SOL    HW215543   1.748   2.385   1.650
 4882SOL     OW15544   4.241   2.069   5.046
 4882SOL    HW115545   4.218   1.979   5.008
 4882SOL    HW215546   4.227   2.067   5.145
 4883SOL     OW15547   5.483   3.710   1.149
 4883SOL    HW115548   5.565   3.664   1.118
 4883SOL    HW215549   5.435   3.750   1.070
 4884SOL     OW15550   1.095   6.109   1.476
 4884SOL    HW115551   1.054   6.169   1.407
 4884SOL    HW215552   1.039   6.109   1.558
 4885SOL     OW15553   2.575   5.003   1.469
 4885SOL    HW115554   2.670   5.032   1.479
 4885SOL    HW215555   2.561   4.917   1.517
 4886SOL     OW15556   3.591   0.426   2.511
 4886SOL    HW115557   3.518   0.365   2.481
 4886SOL    HW215558   3.674   0.374   2.528
 4887SOL     OW15559   1.332   6.899   2.062
 4887SOL    HW115560   1.278   6.976   2.096
 4887SOL    HW215561   1.335   6.827   2.132
 4888SOL     OW15562   2.677   6.650   3.178
 4888SOL    HW115563   2.609   6.697   3.235
 4888SOL    HW215564   2.736   6.717   3.134
 4889SOL     OW15565   6.420   2.301   3.694
 4889SOL    HW115566   6.377   2.230   3.638
 4889SOL    HW215567   6.360   2.381   3.698
 4890SOL     OW15568   1.299   0.815   5.572
 4890SOL    HW115569   1.387   0.774   5.550
 4890SOL    HW215570   1.226   0.764   5.526
 4891SOL     OW15571   2.193   5.169   6.316
 4891SOL    HW115572   2.237   5.249   6.357
 4891SOL    HW215573   2.236   5.149   6.228
 4892SOL     OW15574   5.831   6.973   2.376
 4892SOL    HW115575   5.816   6.882   2.415
 4892SOL    HW215576   5.906   7.018   2.425
 4893SOL     OW15577   0.293   3.684   2.032
 4893SOL    HW115578   0.278   3.587   2.054
 4893SOL    HW215579   0.343   3.728   2.107
 4894SOL     OW15580   3.717   6.827   2.242
 4894SOL    HW115581   3.802   6.775   2.253
 4894SOL    HW215582   3.728   6.918   2.283
 4895SOL     OW15583   6.959   4.470   2.947
 4895SOL    HW115584   6.975   4.372   2.960
 4895SOL    HW215585   6.893   4.503   3.015
 4896SOL     OW15586   1.474   5.246   3.631
 4896SOL    HW115587   1.411   5.312   3.672
 4896SOL    HW215588   1.533   5.207   3.703
 4897SOL     OW15589   1.710   5.561   6.044
 4897SOL    HW115590   1.729   5.578   5.947
 4897SOL    HW215591   1.631   5.616   6.072
 4898SOL     OW15592   4.011   1.307   4.903
 4898SOL    HW115593   4.086   1.358   4.861
 4898SOL    HW215594   4.003   1.332   5.000
 4899SOL     OW15595   6.031   5.416   2.183
 4899SOL    HW115596   5.952   5.355   2.175
 4899SOL    HW215597   6.088   5.408   2.101
 4900SOL     OW15598   4.125   6.354   5.457
 4900SOL    HW115599   4.189   6.410   5.403
 4900SOL    HW215600   4.160   6.344   5.550
 4901SOL     OW15601   0.880   2.074   5.815
 4901SOL    HW115602   0.923   2.125   5.889
 4901SOL    HW215603   0.950   2.020   5.768
 4902SOL     OW15604   2.166   0.401   6.584
 4902SOL    HW115605   2.187   0.445   6.672
 4902SOL    HW215606   2.194   0.305   6.588
 4903SOL     OW15607   4.977   5.299   1.280
 4903SOL    HW115608   5.059   5.314   1.335
 4903SOL    HW215609   4.924   5.383   1.277
 4904SOL     OW15610   2.021   0.691   6.694
 4904SOL    HW115611   2.101   0.663   6.748
 4904SOL    HW215612   2.008   0.626   6.619
 4905SOL     OW15613   3.066   0.011   2.780
 4905SOL    HW115614   3.105   6.969   2.848
 4905SOL    HW215615   3.136   0.037   2.714
 4906SOL     OW15616   4.769   3.325   5.248
 4906SOL    HW115617   4.809   3.281   5.167
 4906SOL    HW215618   4.712   3.402   5.219
 4907SOL     OW15619   4.606   1.567   0.305
 4907SOL    HW115620   4.690   1.620   0.302
 4907SOL    HW215621   4.600   1.508   0.225
 4908SOL     OW15622   4.903   7.002   0.226
 4908SOL    HW115623   4.922   6.905   0.213
 4908SOL    HW215624   4.819   7.013   0.279
 4909SOL     OW15625   6.056   3.996   3.337
 4909SOL    HW115626   6.122   3.946   3.280
 4909SOL    HW215627   6.050   4.090   3.306
 4910SOL     OW15628   5.445   0.501   4.995
 4910SOL    HW115629   5.350   0.492   4.963
 4910SOL    HW215630   5.507   0.468   4.924
 4911SOL     OW15631   1.599   2.091   2.469
 4911SOL    HW115632   1.515   2.040   2.489
 4911SOL    HW215633   1.627   2.141   2.550
 4912SOL     OW15634   5.400   2.003   5.511
 4912SOL    HW115635   5.419   2.101   5.520
 4912SOL    HW215636   5.412   1.975   5.416
 4913SOL     OW15637   5.302   2.290   5.290
 4913SOL    HW115638   5.215   2.334   5.266
 4913SOL    HW215639   5.328   2.226   5.218
 4914SOL     OW15640   4.932   0.444   4.739
 4914SOL    HW115641   4.944   0.376   4.668
 4914SOL    HW215642   4.894   0.401   4.821
 4915SOL     OW15643   3.185   5.755   5.143
 4915SOL    HW115644   3.121   5.757   5.067
 4915SOL    HW215645   3.264   5.698   5.119
 4916SOL     OW15646   6.090   0.663   4.464
 4916SOL    HW115647   6.003   0.614   4.468
 4916SOL    HW215648   6.137   0.642   4.378
 4917SOL     OW15649   3.632   6.067   0.761
 4917SOL    HW115650   3.674   6.065   0.671
 4917SOL    HW215651   3.550   6.125   0.759
 4918SOL     OW15652   6.329   5.672   2.207
 4918SOL    HW115653   6.412   5.717   2.239
 4918SOL    HW215654   6.249   5.719   2.243
 4919SOL     OW15655   4.058   3.368   1.744
 4919SOL    HW115656   4.155   3.379   1.723
 4919SOL    HW215657   4.036   3.416   1.829
 4920SOL     OW15658   5.797   0.367   5.461
 4920SOL    HW115659   5.730   0.440   5.464
 4920SOL    HW215660   5.868   0.383   5.530
 4921SOL     OW15661   0.278   6.661   0.939
 4921SOL    HW115662   0.241   6.568   0.943
 4921SOL    HW215663   0.336   6.670   0.859
 4922SOL     OW15664   3.076   1.929   5.164
 4922SOL    HW115665   3.116   1.960   5.078
 4922SOL    HW215666   3.086   2.000   5.233
 4923SOL     OW15667   3.495   1.778   3.143
 4923SOL    HW115668   3.530   1.832   3.067
 4923SOL    HW215669   3.395   1.787   3.147
 4924SOL     OW15670   2.670   1.562   5.685
 4924SOL    HW115671   2.700   1.539   5.777
 4924SOL    HW215672   2.711   1.499   5.619
 4925SOL     OW15673   4.661   6.623   2.840
 4925SOL    HW115674   4.592   6.686   2.875
 4925SOL    HW215675   4.617   6.547   2.794
 4926SOL     OW15676   5.295   1.514   1.535
 4926SOL    HW115677   5.248   1.532   1.621
 4926SOL    HW215678   5.383   1.470   1.553
 4927SOL     OW15679   2.776   1.963   6.474
 4927SOL    HW115680   2.865   1.977   6.429
 4927SOL    HW215681   2.790   1.954   6.572
 4928SOL     OW15682   1.283   1.845   1.134
 4928SOL    HW115683   1.287   1.923   1.071
 4928SOL    HW215684   1.361   1.785   1.118
 4929SOL     OW15685   0.141   0.469   3.599
 4929SOL    HW115686   0.089   0.545   3.560
 4929SOL    HW215687   0.202   0.503   3.670
 4930SOL     OW15688   5.891   6.933   1.910
 4930SOL    HW115689   5.897   6.835   1.887
 4930SOL    HW215690   5.797   6.955   1.934
 4931SOL     OW15691   6.421   6.465   2.087
 4931SOL    HW115692   6.326   6.435   2.083
 4931SOL    HW215693   6.481   6.385   2.096
 4932SOL     OW15694   2.943   3.735   3.038
 4932SOL    HW115695   2.950   3.768   2.944
 4932SOL    HW215696   3.013   3.778   3.094
 4933SOL     OW15697   2.589   6.239   4.756
 4933SOL    HW115698   2.528   6.288   4.818
 4933SOL    HW215699   2.541   6.160   4.717
 4934SOL     OW15700   3.321   6.103   2.956
 4934SOL    HW115701   3.323   6.167   2.879
 4934SOL    HW215702   3.339   6.153   3.040
 4935SOL     OW15703   1.402   1.866   6.841
 4935SOL    HW115704   1.347   1.854   6.758
 4935SOL    HW215705   1.341   1.874   6.920
 4936SOL     OW15706   2.152   3.843   1.316
 4936SOL    HW115707   2.113   3.928   1.350
 4936SOL    HW215708   2.205   3.861   1.233
 4937SOL     OW15709   4.891   3.330   4.984
 4937SOL    HW115710   4.855   3.419   5.013
 4937SOL    HW215711   4.989   3.339   4.966
 4938SOL     OW15712   3.905   5.492   5.711
 4938SOL    HW115713   3.810   5.509   5.685
 4938SOL    HW215714   3.951   5.443   5.637
 4939SOL     OW15715   4.640   3.134   5.636
 4939SOL    HW115716   4.548   3.104   5.611
 4939SOL    HW215717   4.705   3.061   5.616
 4940SOL     OW15718   1.891   6.505   4.913
 4940SOL    HW115719   1.873   6.539   4.821
 4940SOL    HW215720   1.823   6.543   4.976
 4941SOL     OW15721   4.760   1.241   6.759
 4941SOL    HW115722   4.710   1.205   6.837
 4941SOL    HW215723   4.819   1.170   6.720
 4942SOL     OW15724   5.166   3.639   5.479
 4942SOL    HW115725   5.114   3.631   5.563
 4942SOL    HW215726   5.190   3.547   5.446
 4943SOL     OW15727   3.900   2.247   0.703
 4943SOL    HW115728   3.857   2.178   0.761
 4943SOL    HW215729   3.829   2.309   0.668
 4944SOL     OW15730   2.404   4.449   3.400
 4944SOL    HW115731   2.329   4.448   3.334
 4944SOL    HW215732   2.473   4.382   3.372
 4945SOL     OW15733   0.152   6.872   4.202
 4945SOL    HW115734   0.157   6.950   4.139
 4945SOL    HW215735   0.061   6.831   4.196
 4946SOL     OW15736   1.800   3.032   2.149
 4946SOL    HW115737   1.804   3.007   2.246
 4946SOL    HW215738   1.884   3.081   2.124
 4947SOL     OW15739   1.047   0.222   0.561
 4947SOL    HW115740   1.027   0.274   0.644
 4947SOL    HW215741   1.119   0.267   0.509
 4948SOL     OW15742   2.527   1.182   2.579
 4948SOL    HW115743   2.581   1.232   2.512
 4948SOL    HW215744   2.587   1.128   2.638
 4949SOL     OW15745   5.598   0.118   5.010
 4949SOL    HW115746   5.681   0.169   5.030
 4949SOL    HW215747   5.523   0.152   5.066
 4950SOL     OW15748   2.811   5.789   5.243
 4950SOL    HW115749   2.721   5.822   5.216
 4950SOL    HW215750   2.801   5.719   5.314
 4951SOL     OW15751   4.377   1.783   4.605
 4951SOL    HW115752   4.309   1.710   4.610
 4951SOL    HW215753   4.433   1.770   4.523
 4952SOL     OW15754   0.209   6.616   5.121
 4952SOL    HW115755   0.129   6.566   5.087
 4952SOL    HW215756   0.262   6.651   5.044
 4953SOL     OW15757   1.668   5.789   1.493
 4953SOL    HW115758   1.748   5.734   1.468
 4953SOL    HW215759   1.692   5.850   1.568
 4954SOL     OW15760   5.636   5.615   0.263
 4954SOL    HW115761   5.560   5.676   0.241
 4954SOL    HW215762   5.612   5.522   0.238
 4955SOL     OW15763   1.029   6.711   1.586
 4955SOL    HW115764   1.022   6.674   1.493
 4955SOL    HW215765   1.112   6.767   1.594
 4956SOL     OW15766   4.213   6.920   4.556
 4956SOL    HW115767   4.141   6.920   4.625
 4956SOL    HW215768   4.177   6.885   4.470
 4957SOL     OW15769   0.922   0.915   3.978
 4957SOL    HW115770   0.935   0.928   4.076
 4957SOL    HW215771   0.876   0.828   3.961
 4958SOL     OW15772   0.704   6.223   6.255
 4958SOL    HW115773   0.709   6.182   6.346
 4958SOL    HW215774   0.609   6.249   6.236
 4959SOL     OW15775   0.944   0.440   0.775
 4959SOL    HW115776   0.866   0.502   0.764
 4959SOL    HW215777   0.922   0.369   0.841
 4960SOL     OW15778   3.728   5.933   4.295
 4960SOL    HW115779   3.799   5.929   4.365
 4960SOL    HW215780   3.719   5.844   4.251
 4961SOL     OW15781   5.099   0.195   4.695
 4961SOL    HW115782   5.137   0.106   4.719
 4961SOL    HW215783   5.040   0.187   4.615
 4962SOL     OW15784   6.046   2.668   1.782
 4962SOL    HW115785   6.141   2.635   1.779
 4962SOL    HW215786   6.044   2.758   1.826
 4963SOL     OW15787   0.655   5.149   1.727
 4963SOL    HW115788   0.655   5.049   1.733
 4963SOL    HW215789   0.688   5.188   1.813
 4964SOL     OW15790   3.380   6.705   3.462
 4964SOL    HW115791   3.392   6.610   3.433
 4964SOL    HW215792   3.458   6.733   3.517
 4965SOL     OW15793   6.895   0.361   4.367
 4965SOL    HW115794   6.982   0.331   4.407
 4965SOL    HW215795   6.833   0.283   4.361
 4966SOL     OW15796   3.213   5.659   5.423
 4966SOL    HW115797   3.296   5.708   5.448
 4966SOL    HW215798   3.182   5.687   5.332
 4967SOL     OW15799   3.829   2.473   6.597
 4967SOL    HW115800   3.870   2.564   6.602
 4967SOL    HW215801   3.899   2.406   6.571
 4968SOL     OW15802   5.322   3.071   4.211
 4968SOL    HW115803   5.274   3.158   4.200
 4968SOL    HW215804   5.266   3.008   4.265
 4969SOL     OW15805   1.499   1.075   1.434
 4969SOL    HW115806   1.570   1.070   1.364
 4969SOL    HW215807   1.520   1.011   1.508
 4970SOL     OW15808   1.233   1.971   5.046
 4970SOL    HW115809   1.322   1.997   5.008
 4970SOL    HW215810   1.192   1.899   4.990
 4971SOL     OW15811   6.438   6.578   3.169
 4971SOL    HW115812   6.522   6.527   3.150
 4971SOL    HW215813   6.359   6.519   3.152
 4972SOL     OW15814   1.827   3.552   0.398
 4972SOL    HW115815   1.826   3.648   0.370
 4972SOL    HW215816   1.785   3.496   0.326
 4973SOL     OW15817   6.117   5.785   2.594
 4973SOL    HW115818   6.190   5.738   2.545
 4973SOL    HW215819   6.037   5.793   2.534
 4974SOL     OW15820   5.462   6.066   2.455
 4974SOL    HW115821   5.481   6.111   2.541
 4974SOL    HW215822   5.427   5.974   2.472
 4975SOL     OW15823   6.233   6.104   0.572
 4975SOL    HW115824   6.320   6.116   0.620
 4975SOL    HW215825   6.232   6.161   0.490
 4976SOL     OW15826   3.731   0.965   5.332
 4976SOL    HW115827   3.763   0.877   5.299
 4976SOL    HW215828   3.662   1.001   5.269
 4977SOL     OW15829   3.967   3.624   0.873
 4977SOL    HW115830   4.062   3.622   0.842
 4977SOL    HW215831   3.944   3.537   0.917
 4978SOL     OW15832   5.924   3.221   5.628
 4978SOL    HW115833   5.857   3.149   5.643
 4978SOL    HW215834   6.015   3.181   5.619
 4979SOL     OW15835   0.585   0.248   5.984
 4979SOL    HW115836   0.613   0.183   5.913
 4979SOL    HW215837   0.660   0.313   6.000
 4980SOL     OW15838   3.790   5.500   2.307
 4980SOL    HW115839   3.792   5.460   2.399
 4980SOL    HW215840   3.771   5.598   2.315
 4981SOL     OW15841   4.282   6.520   5.348
 4981SOL    HW115842   4.311   6.583   5.277
 4981SOL    HW215843   4.303   6.558   5.438
 4982SOL     OW15844   2.182   2.461   6.924
 4982SOL    HW115845   2.174   2.430   7.018
 4982SOL    HW215846   2.254   2.529   6.917
 4983SOL     OW15847   5.542   2.627   4.182
 4983SOL    HW115848   5.613   2.580   4.235
 4983SOL    HW215849   5.528   2.719   4.219
 4984SOL     OW15850   4.818   3.896   4.158
 4984SOL    HW115851   4.842   3.801   4.135
 4984SOL    HW215852   4.811   3.905   4.257
 4985SOL     OW15853   5.140   4.928   2.493
 4985SOL    HW115854   5.100   4.837   2.500
 4985SOL    HW215855   5.074   4.991   2.452
 4986SOL     OW15856   5.515   4.488   3.140
 4986SOL    HW115857   5.516   4.438   3.227
 4986SOL    HW215858   5.606   4.524   3.121
 4987SOL     OW15859   0.104   3.080   1.920
 4987SOL    HW115860   0.063   3.169   1.900
 4987SOL    HW215861   0.083   3.016   1.846
 4988SOL     OW15862   0.308   1.319   4.414
 4988SOL    HW115863   0.298   1.349   4.319
 4988SOL    HW215864   0.301   1.398   4.475
 4989SOL     OW15865   6.854   1.305   0.606
 4989SOL    HW115866   6.857   1.386   0.548
 4989SOL    HW215867   6.830   1.225   0.550
 4990SOL     OW15868   0.381   2.751   5.380
 4990SOL    HW115869   0.406   2.820   5.313
 4990SOL    HW215870   0.322   2.792   5.451
 4991SOL     OW15871   0.953   3.185   4.217
 4991SOL    HW115872   0.968   3.104   4.160
 4991SOL    HW215873   0.995   3.265   4.173
 4992SOL     OW15874   3.481   0.952   5.488
 4992SOL    HW115875   3.443   1.014   5.419
 4992SOL    HW215876   3.580   0.946   5.477
 4993SOL     OW15877   2.579   6.241   4.023
 4993SOL    HW115878   2.492   6.270   4.063
 4993SOL    HW215879   2.567   6.154   3.976
 4994SOL     OW15880   0.586   0.140   3.038
 4994SOL    HW115881   0.505   0.196   3.022
 4994SOL    HW215882   0.654   0.193   3.088
 4995SOL     OW15883   6.558   2.715   5.935
 4995SOL    HW115884   6.477   2.658   5.944
 4995SOL    HW215885   6.589   2.744   6.025
 4996SOL     OW15886   0.347   1.973   2.422
 4996SOL    HW115887   0.377   2.037   2.492
 4996SOL    HW215888   0.247   1.979   2.413
 4997SOL     OW15889   6.891   2.824   3.529
 4997SOL    HW115890   6.808   2.771   3.545
 4997SOL    HW215891   6.945   2.781   3.457
 4998SOL     OW15892   1.322   5.779   4.602
 4998SOL    HW115893   1.232   5.736   4.592
 4998SOL    HW215894   1.364   5.750   4.688
 4999SOL     OW15895   5.567   5.535   0.847
 4999SOL    HW115896   5.660   5.516   0.879
 4999SOL    HW215897   5.519   5.448   0.830
 5000SOL     OW15898   0.563   0.820   4.546
 5000SOL    HW115899   0.503   0.895   4.517
 5000SOL    HW215900   0.624   0.853   4.618
 5001SOL     OW15901   3.254   4.456   5.326
 5001SOL    HW115902   3.179   4.401   5.288
 5001SOL    HW215903   3.218   4.519   5.394
 5002SOL     OW15904   2.540   1.187   2.225
 5002SOL    HW115905   2.555   1.205   2.128
 5002SOL    HW215906   2.566   1.268   2.278
 5003SOL     OW15907   6.683   6.212   2.400
 5003SOL    HW115908   6.729   6.301   2.400
 5003SOL    HW215909   6.746   6.143   2.435
 5004SOL     OW15910   2.562   6.140   6.673
 5004SOL    HW115911   2.599   6.117   6.583
 5004SOL    HW215912   2.561   6.239   6.685
 5005SOL     OW15913   4.480   2.918   0.058
 5005SOL    HW115914   4.473   2.959   0.149
 5005SOL    HW215915   4.489   2.819   0.067
 5006SOL     OW15916   5.145   6.492   5.074
 5006SOL    HW115917   5.148   6.394   5.095
 5006SOL    HW215918   5.070   6.534   5.125
 5007SOL     OW15919   4.607   1.160   5.532
 5007SOL    HW115920   4.547   1.235   5.504
 5007SOL    HW215921   4.655   1.187   5.616
 5008SOL     OW15922   5.783   1.150   3.673
 5008SOL    HW115923   5.804   1.238   3.715
 5008SOL    HW215924   5.865   1.093   3.671
 5009SOL     OW15925   0.911   6.704   2.582
 5009SOL    HW115926   0.967   6.739   2.657
 5009SOL    HW215927   0.966   6.642   2.527
 5010SOL     OW15928   4.033   3.794   3.868
 5010SOL    HW115929   4.053   3.739   3.787
 5010SOL    HW215930   4.092   3.764   3.943
 5011SOL     OW15931   1.030   2.866   2.181
 5011SOL    HW115932   0.965   2.851   2.256
 5011SOL    HW215933   1.032   2.785   2.123
 5012SOL     OW15934   6.687   2.387   5.986
 5012SOL    HW115935   6.729   2.474   5.960
 5012SOL    HW215936   6.695   2.322   5.911
 5013SOL     OW15937   4.628   1.380   5.949
 5013SOL    HW115938   4.597   1.461   5.899
 5013SOL    HW215939   4.549   1.326   5.978
 5014SOL     OW15940   6.025   6.085   0.734
 5014SOL    HW115941   6.093   6.078   0.662
 5014SOL    HW215942   6.071   6.095   0.822
 5015SOL     OW15943   4.391   2.430   3.432
 5015SOL    HW115944   4.422   2.446   3.525
 5015SOL    HW215945   4.451   2.477   3.368
 5016SOL     OW15946   2.335   0.513   2.757
 5016SOL    HW115947   2.351   0.602   2.713
 5016SOL    HW215948   2.324   0.526   2.855
 5017SOL     OW15949   2.862   2.356   0.640
 5017SOL    HW115950   2.875   2.266   0.682
 5017SOL    HW215951   2.791   2.405   0.689
 5018SOL     OW15952   5.976   4.921   3.798
 5018SOL    HW115953   5.987   4.842   3.738
 5018SOL    HW215954   5.941   4.999   3.745
 5019SOL     OW15955   1.596   4.306   0.240
 5019SOL    HW115956   1.534   4.230   0.221
 5019SOL    HW215957   1.672   4.274   0.295
 5020SOL     OW15958   4.441   4.984   6.948
 5020SOL    HW115959   4.473   4.936   6.866
 5020SOL    HW215960   4.503   5.059   6.969
 5021SOL     OW15961   2.016   4.894   5.635
 5021SOL    HW115962   1.929   4.863   5.675
 5021SOL    HW215963   2.060   4.958   5.696
 5022SOL     OW15964   1.456   6.104   0.663
 5022SOL    HW115965   1.362   6.138   0.666
 5022SOL    HW215966   1.513   6.155   0.727
 5023SOL     OW15967   6.323   3.465   0.881
 5023SOL    HW115968   6.271   3.415   0.951
 5023SOL    HW215969   6.274   3.549   0.856
 5024SOL     OW15970   6.113   3.600   4.161
 5024SOL    HW115971   6.121   3.604   4.261
 5024SOL    HW215972   6.090   3.691   4.127
 5025SOL     OW15973   5.210   2.048   3.304
 5025SOL    HW115974   5.309   2.047   3.295
 5025SOL    HW215975   5.184   2.017   3.396
 5026SOL     OW15976   6.640   6.004   4.347
 5026SOL    HW115977   6.574   6.007   4.272
 5026SOL    HW215978   6.718   5.947   4.321
 5027SOL     OW15979   0.590   6.716   3.555
 5027SOL    HW115980   0.497   6.753   3.553
 5027SOL    HW215981   0.601   6.649   3.481
 5028SOL     OW15982   0.352   0.015   3.140
 5028SOL    HW115983   0.433   0.014   3.081
 5028SOL    HW215984   0.290   0.088   3.111
 5029SOL     OW15985   6.981   2.226   1.507
 5029SOL    HW115986   6.999   2.144   1.562
 5029SOL    HW215987   0.017   2.222   1.423
 5030SOL     OW15988   6.988   0.355   6.908
 5030SOL    HW115989   6.898   0.390   6.935
 5030SOL    HW215990   6.996   0.260   6.935
 5031SOL     OW15991   5.780   0.414   4.256
 5031SOL    HW115992   5.814   0.323   4.279
 5031SOL    HW215993   5.843   0.458   4.193
 5032SOL     OW15994   1.234   4.987   0.859
 5032SOL    HW115995   1.206   5.055   0.791
 5032SOL    HW215996   1.251   5.032   0.947
 5033SOL     OW15997   2.649   4.540   5.613
 5033SOL    HW115998   2.698   4.615   5.658
 5033SOL    HW215999   2.698   4.513   5.531
 5034SOL     OW16000   6.513   2.585   1.940
 5034SOL    HW116001   6.583   2.650   1.909
 5034SOL    HW216002   6.435   2.636   1.975
 5035SOL     OW16003   5.670   5.455   0.534
 5035SOL    HW116004   5.642   5.487   0.625
 5035SOL    HW216005   5.616   5.501   0.464
 5036SOL     OW16006   1.279   0.127   1.651
 5036SOL    HW116007   1.192   0.145   1.698
 5036SOL    HW216008   1.349   0.104   1.718
 5037SOL     OW16009   4.730   1.864   3.514
 5037SOL    HW116010   4.787   1.859   3.432
 5037SOL    HW216011   4.651   1.923   3.494
 5038SOL     OW16012   1.286   5.954   5.525
 5038SOL    HW116013   1.283   5.880   5.458
 5038SOL    HW216014   1.342   6.029   5.488
 5039SOL     OW16015   2.254   2.812   5.221
 5039SOL    HW116016   2.343   2.766   5.230
 5039SOL    HW216017   2.266   2.898   5.171
 5040SOL     OW16018   3.242   3.850   5.629
 5040SOL    HW116019   3.207   3.758   5.612
 5040SOL    HW216020   3.232   3.904   5.545
 5041SOL     OW16021   1.018   3.226   1.663
 5041SOL    HW116022   1.037   3.302   1.724
 5041SOL    HW216023   0.946   3.251   1.598
 5042SOL     OW16024   5.461   3.001   6.362
 5042SOL    HW116025   5.409   2.935   6.415
 5042SOL    HW216026   5.411   3.088   6.359
 5043SOL     OW16027   3.761   0.504   3.698
 5043SOL    HW116028   3.755   0.513   3.797
 5043SOL    HW216029   3.828   0.569   3.663
 5044SOL     OW16030   6.076   5.209   3.134
 5044SOL    HW116031   6.122   5.120   3.126
 5044SOL    HW216032   5.977   5.196   3.129
 5045SOL     OW16033   6.119   2.605   6.796
 5045SOL    HW116034   6.176   2.648   6.866
 5045SOL    HW216035   6.129   2.654   6.710
 5046SOL     OW16036   3.499   3.076   5.138
 5046SOL    HW116037   3.465   3.157   5.090
 5046SOL    HW216038   3.535   3.010   5.072
 5047SOL     OW16039   7.007   1.065   2.597
 5047SOL    HW116040   0.047   1.111   2.531
 5047SOL    HW216041   0.009   1.099   2.689
 5048SOL     OW16042   6.955   2.545   1.410
 5048SOL    HW116043   6.914   2.492   1.335
 5048SOL    HW216044   6.974   2.484   1.487
 5049SOL     OW16045   1.224   2.301   2.088
 5049SOL    HW116046   1.153   2.245   2.130
 5049SOL    HW216047   1.310   2.249   2.086
 5050SOL     OW16048   0.702   3.128   1.755
 5050SOL    HW116049   0.627   3.061   1.749
 5050SOL    HW216050   0.705   3.182   1.671
 5051SOL     OW16051   2.865   4.440   0.599
 5051SOL    HW116052   2.781   4.489   0.575
 5051SOL    HW216053   2.843   4.346   0.624
 5052SOL     OW16054   5.228   5.010   1.199
 5052SOL    HW116055   5.194   5.103   1.215
 5052SOL    HW216056   5.302   4.990   1.264
 5053SOL     OW16057   2.965   3.910   0.980
 5053SOL    HW116058   2.869   3.938   0.974
 5053SOL    HW216059   2.996   3.919   1.075
 5054SOL     OW16060   3.749   5.706   5.036
 5054SOL    HW116061   3.702   5.644   4.973
 5054SOL    HW216062   3.738   5.673   5.130
 5055SOL     OW16063   0.646   1.423   5.351
 5055SOL    HW116064   0.551   1.396   5.337
 5055SOL    HW216065   0.700   1.342   5.378
 5056SOL     OW16066   0.230   3.117   5.600
 5056SOL    HW116067   0.278   3.165   5.674
 5056SOL    HW216068   0.262   3.023   5.595
 5057SOL     OW16069   0.054   5.976   3.470
 5057SOL    HW116070   7.000   5.909   3.462
 5057SOL    HW216071   0.143   5.929   3.470
 5058SOL     OW16072   4.710   4.442   6.080
 5058SOL    HW116073   4.715   4.540   6.100
 5058SOL    HW216074   4.779   4.419   6.011
 5059SOL     OW16075   3.245   1.951   4.689
 5059SOL    HW116076   3.236   1.968   4.591
 5059SOL    HW216077   3.338   1.972   4.719
 5060SOL     OW16078   0.496   2.976   5.275
 5060SOL    HW116079   0.524   3.069   5.298
 5060SOL    HW216080   0.577   2.921   5.253
 5061SOL     OW16081   3.637   2.966   4.608
 5061SOL    HW116082   3.697   2.977   4.529
 5061SOL    HW216083   3.665   3.029   4.680
 5062SOL     OW16084   4.834   0.908   3.130
 5062SOL    HW116085   4.826   0.979   3.060
 5062SOL    HW216086   4.795   0.942   3.216
 5063SOL     OW16087   1.168   6.997   2.653
 5063SOL    HW116088   1.152   6.899   2.637
 5063SOL    HW216089   1.259   7.009   2.693
 5064SOL     OW16090   4.618   5.330   0.637
 5064SOL    HW116091   4.582   5.376   0.555
 5064SOL    HW216092   4.548   5.268   0.673
 5065SOL     OW16093   2.485   0.209   3.152
 5065SOL    HW116094   2.533   0.287   3.113
 5065SOL    HW216095   2.442   0.156   3.078
 5066SOL     OW16096   2.322   4.206   1.531
 5066SOL    HW116097   2.242   4.153   1.500
 5066SOL    HW216098   2.367   4.245   1.451
 5067SOL     OW16099   4.130   3.124   1.527
 5067SOL    HW116100   4.089   3.037   1.555
 5067SOL    HW216101   4.194   3.154   1.598
 5068SOL     OW16102   3.412   6.214   0.616
 5068SOL    HW116103   3.352   6.134   0.622
 5068SOL    HW216104   3.488   6.193   0.554
 5069SOL     OW16105   3.183   4.425   6.097
 5069SOL    HW116106   3.109   4.491   6.110
 5069SOL    HW216107   3.222   4.401   6.186
 5070SOL     OW16108   6.209   3.367   4.045
 5070SOL    HW116109   6.206   3.298   4.118
 5070SOL    HW216110   6.189   3.457   4.083
 5071SOL     OW16111   3.563   1.149   3.603
 5071SOL    HW116112   3.575   1.248   3.602
 5071SOL    HW216113   3.574   1.113   3.511
 5072SOL     OW16114   1.667   0.963   0.752
 5072SOL    HW116115   1.573   0.986   0.774
 5072SOL    HW216116   1.727   1.039   0.776
 5073SOL     OW16117   2.538   6.642   2.219
 5073SOL    HW116118   2.458   6.586   2.196
 5073SOL    HW216119   2.621   6.589   2.201
 5074SOL     OW16120   3.883   2.224   1.777
 5074SOL    HW116121   3.893   2.129   1.805
 5074SOL    HW216122   3.787   2.252   1.783
 5075SOL     OW16123   1.372   3.265   6.568
 5075SOL    HW116124   1.339   3.273   6.474
 5075SOL    HW216125   1.334   3.339   6.624
 5076SOL     OW16126   5.599   0.559   0.689
 5076SOL    HW116127   5.619   0.559   0.591
 5076SOL    HW216128   5.558   0.646   0.716
 5077SOL     OW16129   0.723   5.065   3.540
 5077SOL    HW116130   0.726   4.989   3.475
 5077SOL    HW216131   0.774   5.040   3.623
 5078SOL     OW16132   6.932   1.206   3.742
 5078SOL    HW116133   6.979   1.154   3.670
 5078SOL    HW216134   6.845   1.240   3.707
 5079SOL     OW16135   1.640   2.360   6.087
 5079SOL    HW116136   1.604   2.290   6.026
 5079SOL    HW216137   1.621   2.336   6.182
 5080SOL     OW16138   6.289   5.005   5.943
 5080SOL    HW116139   6.243   5.092   5.956
 5080SOL    HW216140   6.244   4.953   5.871
 5081SOL     OW16141   3.591   6.111   5.813
 5081SOL    HW116142   3.684   6.109   5.776
 5081SOL    HW216143   3.583   6.187   5.877
 5082SOL     OW16144   5.137   6.550   1.512
 5082SOL    HW116145   5.181   6.604   1.440
 5082SOL    HW216146   5.056   6.599   1.546
 5083SOL     OW16147   2.568   0.423   3.020
 5083SOL    HW116148   2.475   0.456   3.030
 5083SOL    HW216149   2.631   0.501   3.014
 5084SOL     OW16150   0.922   4.870   5.124
 5084SOL    HW116151   0.844   4.870   5.186
 5084SOL    HW216152   1.007   4.879   5.176
 5085SOL     OW16153   0.884   3.662   6.287
 5085SOL    HW116154   0.828   3.656   6.371
 5085SOL    HW216155   0.895   3.758   6.262
 5086SOL     OW16156   1.684   4.620   2.145
 5086SOL    HW116157   1.694   4.720   2.143
 5086SOL    HW216158   1.773   4.578   2.126
 5087SOL     OW16159   6.375   5.314   2.943
 5087SOL    HW116160   6.351   5.273   3.031
 5087SOL    HW216161   6.474   5.309   2.930
 5088SOL     OW16162   4.181   6.071   2.165
 5088SOL    HW116163   4.142   6.153   2.122
 5088SOL    HW216164   4.207   6.006   2.094
 5089SOL     OW16165   5.586   4.487   4.460
 5089SOL    HW116166   5.580   4.395   4.422
 5089SOL    HW216167   5.498   4.512   4.500
 5090SOL     OW16168   2.327   0.465   4.344
 5090SOL    HW116169   2.307   0.546   4.290
 5090SOL    HW216170   2.271   0.466   4.427
 5091SOL     OW16171   6.279   6.890   0.258
 5091SOL    HW116172   6.376   6.913   0.250
 5091SOL    HW216173   6.239   6.940   0.335
 5092SOL     OW16174   3.781   3.665   4.964
 5092SOL    HW116175   3.819   3.735   4.904
 5092SOL    HW216176   3.846   3.590   4.974
 5093SOL     OW16177   2.201   1.667   2.954
 5093SOL    HW116178   2.207   1.696   3.049
 5093SOL    HW216179   2.125   1.602   2.943
 5094SOL     OW16180   2.199   5.652   6.797
 5094SOL    HW116181   2.166   5.571   6.748
 5094SOL    HW216182   2.299   5.656   6.793
 5095SOL     OW16183   0.325   1.425   2.826
 5095SOL    HW116184   0.328   1.472   2.738
 5095SOL    HW216185   0.348   1.329   2.814
 5096SOL     OW16186   5.344   2.776   6.127
 5096SOL    HW116187   5.255   2.820   6.120
 5096SOL    HW216188   5.368   2.734   6.039
 5097SOL     OW16189   0.282   6.141   6.154
 5097SOL    HW116190   0.189   6.132   6.119
 5097SOL    HW216191   0.339   6.068   6.116
 5098SOL     OW16192   3.807   1.968   1.932
 5098SOL    HW116193   3.731   1.919   1.889
 5098SOL    HW216194   3.771   2.043   1.988
 5099SOL     OW16195   0.674   6.168   1.925
 5099SOL    HW116196   0.651   6.083   1.972
 5099SOL    HW216197   0.736   6.222   1.981
 5100SOL     OW16198   5.006   4.343   2.579
 5100SOL    HW116199   5.012   4.249   2.613
 5100SOL    HW216200   5.066   4.354   2.500
 5101SOL     OW16201   4.222   6.846   5.229
 5101SOL    HW116202   4.190   6.755   5.202
 5101SOL    HW216203   4.187   6.914   5.166
 5102SOL     OW16204   5.212   5.132   4.178
 5102SOL    HW116205   5.278   5.150   4.106
 5102SOL    HW216206   5.260   5.121   4.265
 5103SOL     OW16207   0.842   0.369   5.550
 5103SOL    HW116208   0.873   0.286   5.597
 5103SOL    HW216209   0.882   0.449   5.595
 5104SOL     OW16210   3.676   4.861   1.029
 5104SOL    HW116211   3.632   4.800   0.963
 5104SOL    HW216212   3.726   4.806   1.097
 5105SOL     OW16213   3.360   3.082   0.042
 5105SOL    HW116214   3.408   3.032   0.113
 5105SOL    HW216215   3.323   3.168   0.079
 5106SOL     OW16216   3.867   2.898   0.753
 5106SOL    HW116217   3.792   2.917   0.816
 5106SOL    HW216218   3.954   2.912   0.801
 5107SOL     OW16219   4.815   2.601   1.209
 5107SOL    HW116220   4.880   2.614   1.284
 5107SOL    HW216221   4.730   2.564   1.246
 5108SOL     OW16222   4.282   3.408   6.419
 5108SOL    HW116223   4.209   3.367   6.474
 5108SOL    HW216224   4.288   3.506   6.440
 5109SOL     OW16225   1.882   2.709   0.655
 5109SOL    HW116226   1.879   2.625   0.601
 5109SOL    HW216227   1.945   2.697   0.732
 5110SOL     OW16228   5.980   0.185   6.121
 5110SOL    HW116229   5.926   0.111   6.080
 5110SOL    HW216230   5.926   0.231   6.191
 5111SOL     OW16231   1.527   6.039   5.205
 5111SOL    HW116232   1.597   5.971   5.227
 5111SOL    HW216233   1.546   6.080   5.116
 5112SOL     OW16234   0.049   0.700   3.498
 5112SOL    HW116235   6.970   0.692   3.478
 5112SOL    HW216236   0.081   0.790   3.469
 5113SOL     OW16237   1.897   5.203   0.807
 5113SOL    HW116238   1.852   5.192   0.718
 5113SOL    HW216239   1.960   5.280   0.803
 5114SOL     OW16240   3.988   6.761   0.789
 5114SOL    HW116241   3.928   6.682   0.807
 5114SOL    HW216242   4.033   6.749   0.700
 5115SOL     OW16243   1.592   4.086   1.314
 5115SOL    HW116244   1.526   4.141   1.364
 5115SOL    HW216245   1.589   4.111   1.217
 5116SOL     OW16246   2.528   6.846   6.433
 5116SOL    HW116247   2.571   6.772   6.485
 5116SOL    HW216248   2.479   6.907   6.495
 5117SOL     OW16249   1.696   2.751   4.280
 5117SOL    HW116250   1.630   2.783   4.348
 5117SOL    HW216251   1.750   2.676   4.319
 5118SOL     OW16252   6.431   6.663   0.339
 5118SOL    HW116253   6.524   6.681   0.306
 5118SOL    HW216254   6.376   6.746   0.328
 5119SOL     OW16255   5.281   2.072   0.234
 5119SOL    HW116256   5.348   2.136   0.272
 5119SOL    HW216257   5.188   2.103   0.258
 5120SOL     OW16258   5.594   6.940   4.669
 5120SOL    HW116259   5.558   0.010   4.692
 5120SOL    HW216260   5.663   6.913   4.735
 5121SOL     OW16261   2.750   3.974   0.049
 5121SOL    HW116262   2.689   3.974   6.989
 5121SOL    HW216263   2.825   3.911   0.033
 5122SOL     OW16264   4.495   5.402   3.456
 5122SOL    HW116265   4.479   5.459   3.537
 5122SOL    HW216266   4.420   5.337   3.446
 5123SOL     OW16267   4.195   2.276   2.278
 5123SOL    HW116268   4.171   2.260   2.182
 5123SOL    HW216269   4.292   2.300   2.285
 5124SOL     OW16270   1.918   6.444   3.644
 5124SOL    HW116271   1.991   6.489   3.696
 5124SOL    HW216272   1.904   6.351   3.679
 5125SOL     OW16273   1.002   2.059   3.936
 5125SOL    HW116274   0.908   2.093   3.938
 5125SOL    HW216275   1.033   2.040   4.029
 5126SOL     OW16276   1.796   6.809   1.436
 5126SOL    HW116277   1.807   6.877   1.363
 5126SOL    HW216278   1.861   6.734   1.421
 5127SOL     OW16279   1.827   5.499   0.692
 5127SOL    HW116280   1.869   5.521   0.780
 5127SOL    HW216281   1.890   5.443   0.638
 5128SOL     OW16282   6.393   6.140   1.888
 5128SOL    HW116283   6.462   6.158   1.959
 5128SOL    HW216284   6.332   6.067   1.919
 5129SOL     OW16285   4.485   6.657   1.312
 5129SOL    HW116286   4.482   6.570   1.361
 5129SOL    HW216287   4.578   6.691   1.309
 5130SOL     OW16288   6.055   4.745   3.568
 5130SOL    HW116289   6.129   4.754   3.501
 5130SOL    HW216290   5.973   4.711   3.523
 5131SOL     OW16291   1.417   2.546   3.577
 5131SOL    HW116292   1.469   2.595   3.648
 5131SOL    HW216293   1.401   2.452   3.606
 5132SOL     OW16294   3.186   4.994   6.495
 5132SOL    HW116295   3.273   5.024   6.457
 5132SOL    HW216296   3.114   5.002   6.426
 5133SOL     OW16297   3.817   6.033   6.565
 5133SOL    HW116298   3.878   6.016   6.643
 5133SOL    HW216299   3.871   6.035   6.481
 5134SOL     OW16300   0.676   3.759   1.378
 5134SOL    HW116301   0.696   3.850   1.414
 5134SOL    HW216302   0.644   3.700   1.452
 5135SOL     OW16303   0.141   1.818   4.697
 5135SOL    HW116304   0.239   1.824   4.678
 5135SOL    HW216305   0.119   1.875   4.776
 5136SOL     OW16306   5.178   0.515   4.192
 5136SOL    HW116307   5.188   0.415   4.196
 5136SOL    HW216308   5.253   0.553   4.139
 5137SOL     OW16309   4.821   3.824   6.281
 5137SOL    HW116310   4.754   3.897   6.269
 5137SOL    HW216311   4.841   3.813   6.378
 5138SOL     OW16312   2.705   3.749   6.399
 5138SOL    HW116313   2.758   3.704   6.471
 5138SOL    HW216314   2.677   3.682   6.331
 5139SOL     OW16315   1.121   7.019   4.254
 5139SOL    HW116316   1.180   7.003   4.333
 5139SOL    HW216317   1.025   7.013   4.284
 5140SOL     OW16318   3.375   2.866   0.424
 5140SOL    HW116319   3.436   2.896   0.350
 5140SOL    HW216320   3.320   2.943   0.455
 5141SOL     OW16321   5.604   3.375   0.487
 5141SOL    HW116322   5.572   3.442   0.420
 5141SOL    HW216323   5.533   3.306   0.501
 5142SOL     OW16324   5.641   3.408   4.612
 5142SOL    HW116325   5.588   3.489   4.589
 5142SOL    HW216326   5.579   3.331   4.628
 5143SOL     OW16327   6.865   4.971   3.797
 5143SOL    HW116328   6.829   4.894   3.851
 5143SOL    HW216329   6.794   5.003   3.735
 5144SOL     OW16330   1.574   0.351   6.141
 5144SOL    HW116331   1.604   0.446   6.154
 5144SOL    HW216332   1.654   0.292   6.129
 5145SOL     OW16333   2.291   5.193   5.642
 5145SOL    HW116334   2.374   5.246   5.658
 5145SOL    HW216335   2.305   5.100   5.675
 5146SOL     OW16336   3.605   3.753   6.651
 5146SOL    HW116337   3.522   3.778   6.602
 5146SOL    HW216338   3.665   3.700   6.591
 5147SOL     OW16339   6.944   3.936   0.698
 5147SOL    HW116340   6.939   3.865   0.627
 5147SOL    HW216341   6.891   4.016   0.670
 5148SOL     OW16342   0.267   5.856   1.538
 5148SOL    HW116343   0.186   5.867   1.480
 5148SOL    HW216344   0.346   5.897   1.493
 5149SOL     OW16345   5.853   1.306   3.229
 5149SOL    HW116346   5.860   1.224   3.286
 5149SOL    HW216347   5.912   1.295   3.148
 5150SOL     OW16348   1.444   5.960   3.694
 5150SOL    HW116349   1.443   6.057   3.672
 5150SOL    HW216350   1.354   5.920   3.674
 5151SOL     OW16351   4.937   1.029   6.284
 5151SOL    HW116352   5.020   0.984   6.251
 5151SOL    HW216353   4.865   1.018   6.215
 5152SOL     OW16354   0.967   4.452   0.054
 5152SOL    HW116355   0.990   4.447   0.151
 5152SOL    HW216356   1.001   4.371   0.008
 5153SOL     OW16357   1.669   2.101   0.779
 5153SOL    HW116358   1.699   2.135   0.691
 5153SOL    HW216359   1.623   2.013   0.767
 5154SOL     OW16360   1.855   3.536   5.893
 5154SOL    HW116361   1.909   3.594   5.954
 5154SOL    HW216362   1.799   3.595   5.833
 5155SOL     OW16363   4.108   6.326   2.101
 5155SOL    HW116364   4.162   6.366   2.027
 5155SOL    HW216365   4.017   6.365   2.100
 5156SOL     OW16366   7.004   2.377   5.547
 5156SOL    HW116367   6.984   2.283   5.519
 5156SOL    HW216368   0.016   2.378   5.642
 5157SOL     OW16369   5.343   2.993   3.608
 5157SOL    HW116370   5.438   2.990   3.575
 5157SOL    HW216371   5.312   3.087   3.615
 5158SOL     OW16372   3.713   1.020   1.043
 5158SOL    HW116373   3.719   1.104   0.989
 5158SOL    HW216374   3.804   0.981   1.055
 5159SOL     OW16375   0.736   3.354   3.851
 5159SOL    HW116376   0.807   3.299   3.895
 5159SOL    HW216377   0.765   3.450   3.848
 5160SOL     OW16378   1.604   3.819   4.661
 5160SOL    HW116379   1.508   3.842   4.642
 5160SOL    HW216380   1.625   3.730   4.620
 5161SOL     OW16381   1.318   3.580   5.641
 5161SOL    HW116382   1.297   3.660   5.585
 5161SOL    HW216383   1.375   3.517   5.589
 5162SOL     OW16384   6.845   6.012   4.109
 5162SOL    HW116385   6.759   6.061   4.095
 5162SOL    HW216386   6.874   5.971   4.022
 5163SOL     OW16387   5.754   4.934   0.852
 5163SOL    HW116388   5.839   4.981   0.872
 5163SOL    HW216389   5.720   4.962   0.762
 5164SOL     OW16390   6.090   2.972   5.327
 5164SOL    HW116391   6.044   3.061   5.324
 5164SOL    HW216392   6.071   2.928   5.414
 5165SOL     OW16393   6.141   4.610   4.456
 5165SOL    HW116394   6.201   4.556   4.515
 5165SOL    HW216395   6.195   4.655   4.385
 5166SOL     OW16396   1.417   4.625   2.051
 5166SOL    HW116397   1.515   4.617   2.064
 5166SOL    HW216398   1.375   4.534   2.056
 5167SOL     OW16399   0.146   6.640   6.002
 5167SOL    HW116400   0.104   6.591   6.077
 5167SOL    HW216401   0.245   6.648   6.018
 5168SOL     OW16402   4.203   2.211   2.957
 5168SOL    HW116403   4.260   2.259   3.024
 5168SOL    HW216404   4.228   2.242   2.865
 5169SOL     OW16405   3.288   3.887   6.040
 5169SOL    HW116406   3.313   3.850   6.129
 5169SOL    HW216407   3.189   3.888   6.031
 5170SOL     OW16408   6.276   4.877   4.759
 5170SOL    HW116409   6.214   4.801   4.736
 5170SOL    HW216410   6.291   4.878   4.858
 5171SOL     OW16411   2.420   4.877   4.452
 5171SOL    HW116412   2.493   4.813   4.473
 5171SOL    HW216413   2.435   4.963   4.502
 5172SOL     OW16414   0.414   4.306   2.162
 5172SOL    HW116415   0.453   4.335   2.250
 5172SOL    HW216416   0.388   4.386   2.109
 5173SOL     OW16417   5.156   3.093   5.967
 5173SOL    HW116418   5.154   2.994   5.954
 5173SOL    HW216419   5.064   3.126   5.988
 5174SOL     OW16420   1.317   5.017   5.590
 5174SOL    HW116421   1.290   5.112   5.573
 5174SOL    HW216422   1.402   4.997   5.542
 5175SOL     OW16423   1.614   4.545   0.411
 5175SOL    HW116424   1.535   4.600   0.436
 5175SOL    HW216425   1.585   4.471   0.350
 5176SOL     OW16426   3.959   3.864   1.026
 5176SOL    HW116427   3.939   3.784   0.970
 5176SOL    HW216428   4.058   3.881   1.027
 5177SOL     OW16429   4.507   6.118   6.024
 5177SOL    HW116430   4.426   6.123   5.966
 5177SOL    HW216431   4.478   6.113   6.120
 5178SOL     OW16432   3.045   2.934   1.707
 5178SOL    HW116433   3.085   2.878   1.634
 5178SOL    HW216434   2.946   2.919   1.710
 5179SOL     OW16435   3.768   6.595   5.710
 5179SOL    HW116436   3.808   6.589   5.618
 5179SOL    HW216437   3.706   6.674   5.714
 5180SOL     OW16438   3.155   1.855   0.502
 5180SOL    HW116439   3.176   1.939   0.451
 5180SOL    HW216440   3.240   1.817   0.538
 5181SOL     OW16441   4.523   7.009   2.603
 5181SOL    HW116442   4.605   0.048   2.606
 5181SOL    HW216443   4.464   0.012   2.680
 5182SOL     OW16444   5.896   4.242   1.911
 5182SOL    HW116445   5.992   4.220   1.891
 5182SOL    HW216446   5.841   4.160   1.898
 5183SOL     OW16447   4.429   6.946   2.167
 5183SOL    HW116448   4.527   6.937   2.187
 5183SOL    HW216449   4.386   6.856   2.168
 5184SOL     OW16450   1.298   1.328   3.501
 5184SOL    HW116451   1.340   1.391   3.436
 5184SOL    HW216452   1.337   1.236   3.488
 5185SOL     OW16453   3.506   6.911   2.458
 5185SOL    HW116454   3.580   6.978   2.449
 5185SOL    HW216455   3.522   6.835   2.394
 5186SOL     OW16456   6.772   4.106   1.155
 5186SOL    HW116457   6.785   4.016   1.196
 5186SOL    HW216458   6.849   4.125   1.093
 5187SOL     OW16459   6.223   1.899   3.193
 5187SOL    HW116460   6.171   1.819   3.223
 5187SOL    HW216461   6.252   1.886   3.098
 5188SOL     OW16462   0.458   4.833   6.119
 5188SOL    HW116463   0.448   4.860   6.024
 5188SOL    HW216464   0.555   4.831   6.143
 5189SOL     OW16465   5.061   5.024   6.620
 5189SOL    HW116466   4.968   5.059   6.610
 5189SOL    HW216467   5.057   4.930   6.656
 5190SOL     OW16468   1.246   2.237   3.919
 5190SOL    HW116469   1.213   2.288   3.839
 5190SOL    HW216470   1.192   2.155   3.931
 5191SOL     OW16471   3.735   1.299   2.014
 5191SOL    HW116472   3.796   1.237   2.063
 5191SOL    HW216473   3.788   1.376   1.977
 5192SOL     OW16474   5.381   5.805   2.531
 5192SOL    HW116475   5.402   5.713   2.500
 5192SOL    HW216476   5.427   5.823   2.618
 5193SOL     OW16477   4.761   4.085   3.949
 5193SOL    HW116478   4.813   4.055   3.869
 5193SOL    HW216479   4.765   4.016   4.021
 5194SOL     OW16480   5.405   0.587   5.793
 5194SOL    HW116481   5.493   0.541   5.806
 5194SOL    HW216482   5.346   0.529   5.736
 5195SOL     OW16483   6.527   6.652   5.305
 5195SOL    HW116484   6.530   6.691   5.397
 5195SOL    HW216485   6.433   6.655   5.271
 5196SOL     OW16486   0.584   4.394   1.932
 5196SOL    HW116487   0.507   4.332   1.917
 5196SOL    HW216488   0.646   4.355   2.000
 5197SOL     OW16489   2.192   6.056   4.711
 5197SOL    HW116490   2.204   5.999   4.630
 5197SOL    HW216491   2.209   6.152   4.688
 5198SOL     OW16492   3.731   6.043   5.209
 5198SOL    HW116493   3.797   6.000   5.147
 5198SOL    HW216494   3.656   6.082   5.156
 5199SOL     OW16495   2.050   5.714   1.517
 5199SOL    HW116496   2.007   5.700   1.428
 5199SOL    HW216497   2.129   5.775   1.506
 5200SOL     OW16498   0.505   1.415   4.744
 5200SOL    HW116499   0.559   1.424   4.827
 5200SOL    HW216500   0.449   1.332   4.748
 5201SOL     OW16501   5.243   4.700   3.501
 5201SOL    HW116502   5.268   4.710   3.404
 5201SOL    HW216503   5.167   4.763   3.522
 5202SOL     OW16504   4.079   3.061   6.187
 5202SOL    HW116505   4.115   2.974   6.153
 5202SOL    HW216506   4.031   3.109   6.113
 5203SOL     OW16507   2.304   0.454   0.707
 5203SOL    HW116508   2.352   0.541   0.690
 5203SOL    HW216509   2.225   0.447   0.646
 5204SOL     OW16510   3.614   1.027   6.593
 5204SOL    HW116511   3.653   1.091   6.660
 5204SOL    HW216512   3.545   0.970   6.639
 5205SOL     OW16513   0.037   5.947   1.083
 5205SOL    HW116514   0.098   5.992   1.017
 5205SOL    HW216515   6.991   5.890   1.034
 5206SOL     OW16516   0.597   4.705   5.154
 5206SOL    HW116517   0.654   4.667   5.081
 5206SOL    HW216518   0.638   4.790   5.187
 5207SOL     OW16519   0.317   0.892   4.777
 5207SOL    HW116520   0.266   0.863   4.858
 5207SOL    HW216521   0.253   0.909   4.702
 5208SOL     OW16522   4.493   2.397   0.711
 5208SOL    HW116523   4.440   2.312   0.718
 5208SOL    HW216524   4.503   2.422   0.615
 5209SOL     OW16525   4.801   5.845   2.873
 5209SOL    HW116526   4.874   5.869   2.936
 5209SOL    HW216527   4.713   5.849   2.920
 5210SOL     OW16528   5.085   4.247   0.462
 5210SOL    HW116529   5.094   4.201   0.550
 5210SOL    HW216530   4.998   4.297   0.459
 5211SOL     OW16531   4.696   2.512   4.327
 5211SOL    HW116532   4.708   2.556   4.416
 5211SOL    HW216533   4.779   2.526   4.272
 5212SOL     OW16534   1.185   3.577   0.813
 5212SOL    HW116535   1.189   3.611   0.907
 5212SOL    HW216536   1.089   3.561   0.788
 5213SOL     OW16537   4.105   3.337   2.496
 5213SOL    HW116538   4.133   3.364   2.588
 5213SOL    HW216539   4.034   3.267   2.501
 5214SOL     OW16540   5.778   3.638   6.225
 5214SOL    HW116541   5.682   3.659   6.207
 5214SOL    HW216542   5.836   3.693   6.165
 5215SOL     OW16543   6.861   4.058   4.928
 5215SOL    HW116544   6.798   3.981   4.943
 5215SOL    HW216545   6.835   4.106   4.844
 5216SOL     OW16546   5.735   4.680   0.611
 5216SOL    HW116547   5.747   4.586   0.641
 5216SOL    HW216548   5.640   4.708   0.623
 5217SOL     OW16549   3.861   5.865   3.857
 5217SOL    HW116550   3.920   5.800   3.809
 5217SOL    HW216551   3.915   5.919   3.922
 5218SOL     OW16552   0.771   0.623   0.661
 5218SOL    HW116553   0.854   0.662   0.620
 5218SOL    HW216554   0.693   0.681   0.639
 5219SOL     OW16555   2.201   2.298   5.022
 5219SOL    HW116556   2.225   2.277   5.116
 5219SOL    HW216557   2.181   2.396   5.013
 5220SOL     OW16558   1.630   4.415   3.442
 5220SOL    HW116559   1.633   4.329   3.391
 5220SOL    HW216560   1.724   4.450   3.452
 5221SOL     OW16561   6.625   0.394   1.706
 5221SOL    HW116562   6.707   0.369   1.655
 5221SOL    HW216563   6.545   0.389   1.646
 5222SOL     OW16564   4.722   4.854   1.700
 5222SOL    HW116565   4.758   4.772   1.744
 5222SOL    HW216566   4.669   4.827   1.619
 5223SOL     OW16567   0.635   3.121   1.301
 5223SOL    HW116568   0.602   3.179   1.226
 5223SOL    HW216569   0.705   3.059   1.265
 5224SOL     OW16570   0.515   2.006   4.034
 5224SOL    HW116571   0.562   1.918   4.030
 5224SOL    HW216572   0.429   2.001   3.983
 5225SOL     OW16573   0.458   1.729   5.143
 5225SOL    HW116574   0.542   1.726   5.197
 5225SOL    HW216575   0.478   1.704   5.048
 5226SOL     OW16576   6.942   6.430   3.918
 5226SOL    HW116577   0.021   6.431   3.899
 5226SOL    HW216578   6.924   6.368   3.994
 5227SOL     OW16579   0.130   2.559   4.832
 5227SOL    HW116580   0.173   2.514   4.911
 5227SOL    HW216581   0.051   2.612   4.863
 5228SOL     OW16582   1.622   2.968   5.834
 5228SOL    HW116583   1.678   2.897   5.876
 5228SOL    HW216584   1.647   2.980   5.738
 5229SOL     OW16585   4.536   0.639   6.284
 5229SOL    HW116586   4.533   0.588   6.198
 5229SOL    HW216587   4.622   0.689   6.290
 5230SOL     OW16588   6.943   0.141   1.876
 5230SOL    HW116589   6.843   0.145   1.877
 5230SOL    HW216590   6.979   0.207   1.943
 5231SOL     OW16591   6.275   1.738   2.232
 5231SOL    HW116592   6.357   1.795   2.231
 5231SOL    HW216593   6.200   1.785   2.186
 5232SOL     OW16594   1.936   3.429   5.634
 5232SOL    HW116595   1.909   3.453   5.727
 5232SOL    HW216596   2.005   3.494   5.602
 5233SOL     OW16597   2.918   0.727   2.492
 5233SOL    HW116598   2.865   0.648   2.460
 5233SOL    HW216599   3.014   0.714   2.467
 5234SOL     OW16600   1.986   2.382   1.329
 5234SOL    HW116601   1.893   2.417   1.316
 5234SOL    HW216602   1.988   2.319   1.406
 5235SOL     OW16603   2.497   1.770   1.132
 5235SOL    HW116604   2.556   1.851   1.125
 5235SOL    HW216605   2.464   1.762   1.226
 5236SOL     OW16606   3.190   5.581   2.113
 5236SOL    HW116607   3.148   5.653   2.057
 5236SOL    HW216608   3.290   5.588   2.106
 5237SOL     OW16609   1.986   2.349   4.181
 5237SOL    HW116610   2.063   2.395   4.136
 5237SOL    HW216611   1.957   2.404   4.260
 5238SOL     OW16612   1.025   6.107   2.761
 5238SOL    HW116613   0.947   6.092   2.700
 5238SOL    HW216614   1.070   6.193   2.736
 5239SOL     OW16615   3.099   3.700   1.365
 5239SOL    HW116616   3.115   3.621   1.424
 5239SOL    HW216617   3.077   3.780   1.421
 5240SOL     OW16618   2.714   3.392   5.714
 5240SOL    HW116619   2.771   3.468   5.682
 5240SOL    HW216620   2.618   3.414   5.696
 5241SOL     OW16621   0.718   5.752   2.246
 5241SOL    HW116622   0.777   5.809   2.303
 5241SOL    HW216623   0.625   5.754   2.284
 5242SOL     OW16624   5.060   0.882   0.180
 5242SOL    HW116625   5.024   0.814   0.116
 5242SOL    HW216626   5.157   0.896   0.163
 5243SOL     OW16627   1.906   6.295   1.962
 5243SOL    HW116628   1.834   6.359   1.937
 5243SOL    HW216629   1.873   6.238   2.038
 5244SOL     OW16630   4.467   3.408   6.894
 5244SOL    HW116631   4.484   3.472   6.969
 5244SOL    HW216632   4.553   3.362   6.870
 5245SOL     OW16633   3.647   4.240   1.097
 5245SOL    HW116634   3.648   4.214   1.194
 5245SOL    HW216635   3.679   4.334   1.088
 5246SOL     OW16636   5.451   3.088   1.030
 5246SOL    HW116637   5.409   3.158   1.087
 5246SOL    HW216638   5.548   3.080   1.052
 5247SOL     OW16639   4.100   1.748   6.006
 5247SOL    HW116640   4.013   1.700   6.016
 5247SOL    HW216641   4.170   1.701   6.060
 5248SOL     OW16642   6.074   1.654   3.234
 5248SOL    HW116643   6.148   1.590   3.211
 5248SOL    HW216644   5.989   1.621   3.193
 5249SOL     OW16645   0.439   5.148   6.233
 5249SOL    HW116646   0.382   5.138   6.315
 5249SOL    HW216647   0.483   5.238   6.235
 5250SOL     OW16648   2.103   5.812   0.902
 5250SOL    HW116649   2.090   5.831   0.805
 5250SOL    HW216650   2.183   5.860   0.936
 5251SOL     OW16651   0.695   4.411   1.194
 5251SOL    HW116652   0.651   4.476   1.255
 5251SOL    HW216653   0.626   4.373   1.131
 5252SOL     OW16654   4.041   0.225   2.572
 5252SOL    HW116655   4.101   0.218   2.651
 5252SOL    HW216656   4.068   0.303   2.515
 5253SOL     OW16657   6.012   4.735   4.655
 5253SOL    HW116658   6.056   4.705   4.571
 5253SOL    HW216659   5.939   4.672   4.679
 5254SOL     OW16660   5.905   0.324   2.728
 5254SOL    HW116661   5.986   0.267   2.742
 5254SOL    HW216662   5.835   0.271   2.679
 5255SOL     OW16663   6.256   1.232   4.798
 5255SOL    HW116664   6.336   1.289   4.781
 5255SOL    HW216665   6.174   1.280   4.768
 5256SOL     OW16666   5.757   0.829   3.032
 5256SOL    HW116667   5.841   0.882   3.044
 5256SOL    HW216668   5.714   0.815   3.121
 5257SOL     OW16669   4.570   0.345   6.042
 5257SOL    HW116670   4.482   0.297   6.048
 5257SOL    HW216671   4.555   0.437   6.006
 5258SOL     OW16672   4.628   2.082   2.208
 5258SOL    HW116673   4.669   2.086   2.299
 5258SOL    HW216674   4.568   2.002   2.202
 5259SOL     OW16675   4.995   5.105   3.074
 5259SOL    HW116676   4.973   5.081   2.979
 5259SOL    HW216677   4.914   5.140   3.119
 5260SOL     OW16678   2.302   0.254   0.413
 5260SOL    HW116679   2.367   0.290   0.346
 5260SOL    HW216680   2.349   0.235   0.499
 5261SOL     OW16681   6.567   4.586   0.301
 5261SOL    HW116682   6.493   4.577   0.234
 5261SOL    HW216683   6.586   4.683   0.317
 5262SOL     OW16684   2.382   0.977   2.398
 5262SOL    HW116685   2.316   1.051   2.406
 5262SOL    HW216686   2.469   1.006   2.438
 5263SOL     OW16687   2.049   0.920   3.356
 5263SOL    HW116688   2.011   0.936   3.265
 5263SOL    HW216689   2.089   1.005   3.391
 5264SOL     OW16690   0.148   2.524   1.786
 5264SOL    HW116691   0.206   2.544   1.707
 5264SOL    HW216692   0.111   2.431   1.778
 5265SOL     OW16693   5.668   3.868   4.720
 5265SOL    HW116694   5.709   3.928   4.789
 5265SOL    HW216695   5.722   3.785   4.712
 5266SOL     OW16696   2.433   0.201   0.642
 5266SOL    HW116697   2.457   0.290   0.605
 5266SOL    HW216698   2.508   0.136   0.625
 5267SOL     OW16699   4.247   2.240   4.446
 5267SOL    HW116700   4.271   2.333   4.474
 5267SOL    HW216701   4.329   2.193   4.412
 5268SOL     OW16702   5.835   0.775   6.490
 5268SOL    HW116703   5.756   0.728   6.531
 5268SOL    HW216704   5.821   0.874   6.492
 5269SOL     OW16705   0.518   6.745   2.890
 5269SOL    HW116706   0.555   6.747   2.797
 5269SOL    HW216707   0.583   6.787   2.953
 5270SOL     OW16708   6.870   2.177   6.695
 5270SOL    HW116709   6.874   2.107   6.767
 5270SOL    HW216710   6.954   2.174   6.641
 5271SOL     OW16711   6.099   5.677   4.037
 5271SOL    HW116712   6.095   5.620   4.119
 5271SOL    HW216713   6.045   5.634   3.964
 5272SOL     OW16714   4.337   0.312   6.994
 5272SOL    HW116715   4.373   0.220   6.980
 5272SOL    HW216716   4.412   0.378   6.986
 5273SOL     OW16717   1.165   3.099   2.382
 5273SOL    HW116718   1.148   3.194   2.407
 5273SOL    HW216719   1.220   3.096   2.298
 5274SOL     OW16720   4.601   6.276   2.451
 5274SOL    HW116721   4.699   6.295   2.452
 5274SOL    HW216722   4.572   6.244   2.541
 5275SOL     OW16723   3.899   0.820   6.730
 5275SOL    HW116724   3.934   0.825   6.636
 5275SOL    HW216725   3.882   0.913   6.764
 5276SOL     OW16726   3.085   6.540   2.408
 5276SOL    HW116727   2.992   6.533   2.372
 5276SOL    HW216728   3.144   6.476   2.360
 5277SOL     OW16729   2.147   1.510   2.070
 5277SOL    HW116730   2.149   1.411   2.062
 5277SOL    HW216731   2.229   1.549   2.028
 5278SOL     OW16732   4.152   5.280   1.703
 5278SOL    HW116733   4.205   5.265   1.786
 5278SOL    HW216734   4.172   5.206   1.638
 5279SOL     OW16735   2.875   4.958   1.409
 5279SOL    HW116736   2.886   5.010   1.494
 5279SOL    HW216737   2.958   4.906   1.391
 5280SOL     OW16738   3.881   5.923   4.957
 5280SOL    HW116739   3.929   5.876   4.883
 5280SOL    HW216740   3.794   5.877   4.974
 5281SOL     OW16741   0.836   1.998   1.379
 5281SOL    HW116742   0.775   1.920   1.387
 5281SOL    HW216743   0.851   2.019   1.282
 5282SOL     OW16744   3.347   1.815   3.710
 5282SOL    HW116745   3.333   1.849   3.617
 5282SOL    HW216746   3.434   1.765   3.715
 5283SOL     OW16747   5.438   5.518   6.812
 5283SOL    HW116748   5.515   5.572   6.844
 5283SOL    HW216749   5.441   5.511   6.713
 5284SOL     OW16750   5.720   3.155   2.646
 5284SOL    HW116751   5.780   3.208   2.586
 5284SOL    HW216752   5.773   3.089   2.698
 5285SOL     OW16753   3.025   5.138   3.268
 5285SOL    HW116754   2.991   5.058   3.319
 5285SOL    HW216755   3.094   5.185   3.323
 5286SOL     OW16756   1.785   4.336   1.387
 5286SOL    HW116757   1.734   4.254   1.363
 5286SOL    HW216758   1.803   4.390   1.305
 5287SOL     OW16759   2.282   2.133   0.372
 5287SOL    HW116760   2.346   2.070   0.416
 5287SOL    HW216761   2.318   2.226   0.375
 5288SOL     OW16762   3.642   6.926   0.940
 5288SOL    HW116763   3.728   6.970   0.966
 5288SOL    HW216764   3.567   6.962   0.996
 5289SOL     OW16765   1.453   5.422   1.567
 5289SOL    HW116766   1.491   5.331   1.582
 5289SOL    HW216767   1.358   5.414   1.536
 5290SOL     OW16768   4.688   6.056   0.733
 5290SOL    HW116769   4.732   6.026   0.648
 5290SOL    HW216770   4.593   6.023   0.734
 5291SOL     OW16771   1.600   5.168   5.850
 5291SOL    HW116772   1.581   5.097   5.917
 5291SOL    HW216773   1.644   5.128   5.770
 5292SOL     OW16774   4.533   2.672   5.906
 5292SOL    HW116775   4.582   2.746   5.952
 5292SOL    HW216776   4.445   2.705   5.872
 5293SOL     OW16777   0.704   0.613   4.439
 5293SOL    HW116778   0.758   0.643   4.361
 5293SOL    HW216779   0.639   0.685   4.465
 5294SOL     OW16780   6.338   2.553   5.975
 5294SOL    HW116781   6.247   2.594   5.985
 5294SOL    HW216782   6.337   2.459   6.010
 5295SOL     OW16783   6.579   1.115   2.249
 5295SOL    HW116784   6.627   1.032   2.218
 5295SOL    HW216785   6.616   1.144   2.337
 5296SOL     OW16786   0.580   4.788   1.473
 5296SOL    HW116787   0.531   4.755   1.553
 5296SOL    HW216788   0.533   4.869   1.437
 5297SOL     OW16789   2.176   1.854   1.284
 5297SOL    HW116790   2.187   1.911   1.202
 5297SOL    HW216791   2.101   1.888   1.339
 5298SOL     OW16792   0.809   5.812   1.513
 5298SOL    HW116793   0.891   5.769   1.475
 5298SOL    HW216794   0.778   5.761   1.593
 5299SOL     OW16795   2.946   0.701   2.062
 5299SOL    HW116796   2.947   0.617   2.117
 5299SOL    HW216797   2.865   0.755   2.086
 5300SOL     OW16798   6.361   5.934   3.436
 5300SOL    HW116799   6.354   5.874   3.357
 5300SOL    HW216800   6.399   5.883   3.513
 5301SOL     OW16801   4.038   1.442   6.904
 5301SOL    HW116802   3.981   1.395   6.971
 5301SOL    HW216803   4.130   1.454   6.941
 5302SOL     OW16804   5.860   4.155   2.656
 5302SOL    HW116805   5.841   4.241   2.703
 5302SOL    HW216806   5.870   4.172   2.558
 5303SOL     OW16807   6.695   4.174   3.459
 5303SOL    HW116808   6.665   4.093   3.408
 5303SOL    HW216809   6.690   4.254   3.400
 5304SOL     OW16810   5.432   1.607   5.742
 5304SOL    HW116811   5.396   1.533   5.685
 5304SOL    HW216812   5.457   1.570   5.832
 5305SOL     OW16813   2.424   1.105   3.513
 5305SOL    HW116814   2.493   1.150   3.456
 5305SOL    HW216815   2.464   1.022   3.553
 5306SOL     OW16816   2.833   7.007   5.628
 5306SOL    HW116817   2.748   6.955   5.626
 5306SOL    HW216818   2.820   0.070   5.684
 5307SOL     OW16819   4.718   6.705   0.141
 5307SOL    HW116820   4.813   6.735   0.152
 5307SOL    HW216821   4.668   6.772   0.085
 5308SOL     OW16822   0.515   1.589   2.368
 5308SOL    HW116823   0.490   1.653   2.295
 5308SOL    HW216824   0.609   1.604   2.395
 5309SOL     OW16825   3.437   4.193   3.683
 5309SOL    HW116826   3.377   4.155   3.754
 5309SOL    HW216827   3.394   4.180   3.593
 5310SOL     OW16828   4.774   2.173   0.650
 5310SOL    HW116829   4.821   2.128   0.727
 5310SOL    HW216830   4.736   2.103   0.590
 5311SOL     OW16831   1.126   5.756   6.830
 5311SOL    HW116832   1.153   5.764   6.734
 5311SOL    HW216833   1.190   5.808   6.887
 5312SOL     OW16834   0.275   3.783   3.269
 5312SOL    HW116835   0.214   3.816   3.341
 5312SOL    HW216836   0.360   3.835   3.270
 5313SOL     OW16837   1.221   5.784   0.607
 5313SOL    HW116838   1.200   5.879   0.582
 5313SOL    HW216839   1.167   5.722   0.550
 5314SOL     OW16840   3.937   5.277   1.099
 5314SOL    HW116841   3.977   5.241   1.183
 5314SOL    HW216842   3.855   5.223   1.075
 5315SOL     OW16843   5.474   2.725   2.034
 5315SOL    HW116844   5.475   2.626   2.041
 5315SOL    HW216845   5.392   2.755   1.984
 5316SOL     OW16846   6.159   4.516   3.753
 5316SOL    HW116847   6.259   4.513   3.762
 5316SOL    HW216848   6.134   4.594   3.695
 5317SOL     OW16849   5.888   6.527   2.471
 5317SOL    HW116850   5.932   6.617   2.467
 5317SOL    HW216851   5.912   6.475   2.390
 5318SOL     OW16852   0.626   2.446   4.522
 5318SOL    HW116853   0.560   2.438   4.597
 5318SOL    HW216854   0.640   2.356   4.480
 5319SOL     OW16855   4.958   0.625   0.824
 5319SOL    HW116856   5.017   0.545   0.827
 5319SOL    HW216857   4.925   0.645   0.917
 5320SOL     OW16858   5.791   2.961   5.829
 5320SOL    HW116859   5.780   2.886   5.764
 5320SOL    HW216860   5.701   2.994   5.858
 5321SOL     OW16861   2.008   5.503   6.061
 5321SOL    HW116862   2.067   5.497   5.981
 5321SOL    HW216863   1.925   5.449   6.046
 5322SOL     OW16864   3.256   6.090   0.170
 5322SOL    HW116865   3.212   6.173   0.203
 5322SOL    HW216866   3.189   6.032   0.124
 5323SOL     OW16867   5.163   3.086   0.842
 5323SOL    HW116868   5.258   3.056   0.828
 5323SOL    HW216869   5.120   3.100   0.753
 5324SOL     OW16870   3.756   3.513   1.668
 5324SOL    HW116871   3.703   3.581   1.617
 5324SOL    HW216872   3.792   3.444   1.606
 5325SOL     OW16873   5.382   5.617   3.104
 5325SOL    HW116874   5.358   5.699   3.156
 5325SOL    HW216875   5.346   5.625   3.011
 5326SOL     OW16876   6.944   6.380   1.700
 5326SOL    HW116877   6.985   6.325   1.628
 5326SOL    HW216878   7.015   6.414   1.761
 5327SOL     OW16879   6.681   0.918   3.811
 5327SOL    HW116880   6.634   0.868   3.883
 5327SOL    HW216881   6.780   0.911   3.825
 5328SOL     OW16882   3.899   4.523   0.534
 5328SOL    HW116883   3.839   4.443   0.536
 5328SOL    HW216884   3.843   4.605   0.519
 5329SOL     OW16885   6.991   4.743   0.013
 5329SOL    HW116886   6.907   4.690   0.027
 5329SOL    HW216887   0.034   4.728   0.089
 5330SOL     OW16888   4.647   4.375   1.278
 5330SOL    HW116889   4.610   4.282   1.287
 5330SOL    HW216890   4.744   4.370   1.258
 5331SOL     OW16891   4.530   3.737   6.976
 5331SOL    HW116892   4.601   3.694   6.921
 5331SOL    HW216893   4.570   3.814   0.008
 5332SOL     OW16894   5.854   3.504   0.198
 5332SOL    HW116895   5.871   3.418   0.247
 5332SOL    HW216896   5.857   3.487   0.099
 5333SOL     OW16897   1.934   1.388   4.005
 5333SOL    HW116898   1.964   1.300   4.043
 5333SOL    HW216899   1.859   1.373   3.940
 5334SOL     OW16900   4.238   5.066   2.123
 5334SOL    HW116901   4.237   4.981   2.177
 5334SOL    HW216902   4.167   5.060   2.053
 5335SOL     OW16903   6.987   4.387   1.366
 5335SOL    HW116904   0.032   4.431   1.304
 5335SOL    HW216905   6.896   4.426   1.354
 5336SOL     OW16906   1.594   3.459   4.320
 5336SOL    HW116907   1.612   3.361   4.328
 5336SOL    HW216908   1.527   3.486   4.388
 5337SOL     OW16909   6.730   4.135   0.829
 5337SOL    HW116910   6.766   4.210   0.884
 5337SOL    HW216911   6.752   4.149   0.733
 5338SOL     OW16912   6.774   2.946   1.077
 5338SOL    HW116913   6.848   2.908   1.132
 5338SOL    HW216914   6.783   3.046   1.073
 5339SOL     OW16915   5.909   3.154   2.986
 5339SOL    HW116916   5.880   3.088   2.917
 5339SOL    HW216917   5.829   3.192   3.032
 5340SOL     OW16918   5.456   2.458   2.049
 5340SOL    HW116919   5.447   2.418   1.958
 5340SOL    HW216920   5.408   2.401   2.116
 5341SOL     OW16921   4.206   5.565   3.855
 5341SOL    HW116922   4.168   5.473   3.845
 5341SOL    HW216923   4.160   5.627   3.792
 5342SOL     OW16924   5.832   6.739   4.055
 5342SOL    HW116925   5.777   6.671   4.104
 5342SOL    HW216926   5.807   6.738   3.958
 5343SOL     OW16927   3.778   3.546   6.987
 5343SOL    HW116928   3.770   3.465   6.929
 5343SOL    HW216929   3.875   3.565   7.004
 5344SOL     OW16930   1.585   1.728   5.984
 5344SOL    HW116931   1.603   1.753   5.889
 5344SOL    HW216932   1.670   1.734   6.037
 5345SOL     OW16933   4.879   2.386   0.188
 5345SOL    HW116934   4.963   2.441   0.181
 5345SOL    HW216935   4.800   2.446   0.197
 5346SOL     OW16936   3.136   5.690   3.772
 5346SOL    HW116937   3.202   5.756   3.735
 5346SOL    HW216938   3.089   5.731   3.850
 5347SOL     OW16939   5.826   1.699   4.147
 5347SOL    HW116940   5.819   1.605   4.114
 5347SOL    HW216941   5.915   1.736   4.119
 5348SOL     OW16942   5.268   1.948   2.649
 5348SOL    HW116943   5.250   1.887   2.572
 5348SOL    HW216944   5.352   1.920   2.696
 5349SOL     OW16945   0.114   3.709   2.659
 5349SOL    HW116946   0.170   3.654   2.721
 5349SOL    HW216947   0.038   3.750   2.710
 5350SOL     OW16948   1.381   6.175   6.782
 5350SOL    HW116949   1.432   6.115   6.720
 5350SOL    HW216950   1.444   6.212   6.851
 5351SOL     OW16951   6.849   6.059   2.144
 5351SOL    HW116952   6.858   6.055   2.244
 5351SOL    HW216953   6.762   6.019   2.117
 5352SOL     OW16954   1.199   3.209   5.008
 5352SOL    HW116955   1.111   3.248   4.980
 5352SOL    HW216956   1.192   3.110   5.014
 5353SOL     OW16957   3.912   5.364   3.654
 5353SOL    HW116958   3.830   5.319   3.687
 5353SOL    HW216959   3.981   5.296   3.628
 5354SOL     OW16960   4.403   6.073   1.191
 5354SOL    HW116961   4.335   6.007   1.219
 5354SOL    HW216962   4.495   6.034   1.202
 5355SOL     OW16963   4.963   4.409   5.126
 5355SOL    HW116964   4.970   4.406   5.026
 5355SOL    HW216965   4.911   4.330   5.158
 5356SOL     OW16966   0.435   4.980   1.359
 5356SOL    HW116967   0.493   5.018   1.287
 5356SOL    HW216968   0.344   4.960   1.322
 5357SOL     OW16969   5.553   3.869   1.975
 5357SOL    HW116970   5.493   3.925   2.032
 5357SOL    HW216971   5.533   3.772   1.993
 5358SOL     OW16972   4.336   1.900   0.333
 5358SOL    HW116973   4.376   1.848   0.257
 5358SOL    HW216974   4.310   1.991   0.301
 5359SOL     OW16975   3.012   1.711   6.725
 5359SOL    HW116976   3.107   1.734   6.748
 5359SOL    HW216977   2.956   1.794   6.728
 5360SOL     OW16978   5.122   4.151   3.186
 5360SOL    HW116979   5.194   4.218   3.165
 5360SOL    HW216980   5.102   4.154   3.284
 5361SOL     OW16981   2.467   5.603   2.270
 5361SOL    HW116982   2.505   5.693   2.249
 5361SOL    HW216983   2.397   5.580   2.203
 5362SOL     OW16984   5.967   0.720   1.898
 5362SOL    HW116985   6.000   0.628   1.876
 5362SOL    HW216986   5.873   0.715   1.932
 5363SOL     OW16987   5.624   5.374   3.648
 5363SOL    HW116988   5.655   5.338   3.560
 5363SOL    HW216989   5.612   5.473   3.640
 5364SOL     OW16990   4.907   1.270   2.510
 5364SOL    HW116991   4.810   1.284   2.531
 5364SOL    HW216992   4.954   1.240   2.593
 5365SOL     OW16993   3.864   3.005   3.452
 5365SOL    HW116994   3.772   2.969   3.467
 5365SOL    HW216995   3.871   3.038   3.358
 5366SOL     OW16996   6.599   6.332   2.666
 5366SOL    HW116997   6.512   6.347   2.713
 5366SOL    HW216998   6.586   6.339   2.568
 5367SOL     OW16999   6.606   5.575   1.473
 5367SOL    HW117000   6.593   5.619   1.562
 5367SOL    HW217001   6.680   5.508   1.479
 5368SOL     OW17002   6.525   5.837   3.832
 5368SOL    HW117003   6.441   5.845   3.886
 5368SOL    HW217004   6.574   5.924   3.833
 5369SOL     OW17005   2.683   5.896   2.432
 5369SOL    HW117006   2.761   5.838   2.407
 5369SOL    HW217007   2.707   5.992   2.419
 5370SOL     OW17008   1.767   3.636   1.328
 5370SOL    HW117009   1.677   3.595   1.318
 5370SOL    HW217010   1.781   3.704   1.256
 5371SOL     OW17011   5.652   5.715   4.716
 5371SOL    HW117012   5.747   5.742   4.697
 5371SOL    HW217013   5.611   5.781   4.779
 5372SOL     OW17014   0.897   0.065   3.265
 5372SOL    HW117015   0.993   0.078   3.290
 5372SOL    HW217016   0.868   6.993   3.291
 5373SOL     OW17017   3.563   1.407   6.574
 5373SOL    HW117018   3.593   1.488   6.523
 5373SOL    HW217019   3.521   1.342   6.510
 5374SOL     OW17020   2.275   4.606   2.783
 5374SOL    HW117021   2.256   4.603   2.685
 5374SOL    HW217022   2.229   4.686   2.823
 5375SOL     OW17023   1.462   4.882   3.896
 5375SOL    HW117024   1.411   4.899   3.981
 5375SOL    HW217025   1.515   4.798   3.906
 5376SOL     OW17026   0.566   0.259   6.564
 5376SOL    HW117027   0.534   0.172   6.527
 5376SOL    HW217028   0.665   0.267   6.550
 5377SOL     OW17029   2.475   0.582   3.365
 5377SOL    HW117030   2.393   0.528   3.343
 5377SOL    HW217031   2.449   0.678   3.375
 5378SOL     OW17032   5.043   0.948   2.247
 5378SOL    HW117033   4.952   0.983   2.266
 5378SOL    HW217034   5.038   0.874   2.180
 5379SOL     OW17035   1.583   1.970   6.203
 5379SOL    HW117036   1.545   1.904   6.267
 5379SOL    HW217037   1.629   1.922   6.129
 5380SOL     OW17038   4.171   6.528   1.294
 5380SOL    HW117039   4.201   6.539   1.200
 5380SOL    HW217040   4.188   6.435   1.325
 5381SOL     OW17041   4.455   7.005   3.690
 5381SOL    HW117042   4.505   7.016   3.776
 5381SOL    HW217043   4.447   6.908   3.668
 5382SOL     OW17044   3.872   1.497   1.905
 5382SOL    HW117045   3.865   1.574   1.968
 5382SOL    HW217046   3.852   1.527   1.812
 5383SOL     OW17047   2.002   2.528   4.781
 5383SOL    HW117048   2.018   2.430   4.784
 5383SOL    HW217049   1.904   2.546   4.791
 5384SOL     OW17050   5.598   5.562   4.155
 5384SOL    HW117051   5.608   5.474   4.201
 5384SOL    HW217052   5.533   5.618   4.206
 5385SOL     OW17053   3.999   2.678   5.669
 5385SOL    HW117054   3.915   2.631   5.694
 5385SOL    HW217055   3.990   2.776   5.686
 5386SOL     OW17056   5.920   4.430   3.614
 5386SOL    HW117057   5.947   4.341   3.580
 5386SOL    HW217058   5.997   4.473   3.660
 5387SOL     OW17059   1.442   1.060   3.409
 5387SOL    HW117060   1.508   1.134   3.416
 5387SOL    HW217061   1.408   1.038   3.500
 5388SOL     OW17062   0.804   6.307   2.185
 5388SOL    HW117063   0.710   6.290   2.217
 5388SOL    HW217064   0.810   6.399   2.149
 5389SOL     OW17065   4.679   2.051   4.097
 5389SOL    HW117066   4.731   2.134   4.117
 5389SOL    HW217067   4.741   1.973   4.094
 5390SOL     OW17068   0.555   2.622   2.920
 5390SOL    HW117069   0.539   2.526   2.896
 5390SOL    HW217070   0.528   2.680   2.844
 5391SOL     OW17071   2.603   3.734   0.688
 5391SOL    HW117072   2.594   3.645   0.734
 5391SOL    HW217073   2.534   3.743   0.617
 5392SOL     OW17074   5.454   1.974   3.592
 5392SOL    HW117075   5.463   1.952   3.495
 5392SOL    HW217076   5.523   2.041   3.618
 5393SOL     OW17077   3.653   1.677   5.157
 5393SOL    HW117078   3.634   1.775   5.169
 5393SOL    HW217079   3.622   1.648   5.066
 5394SOL     OW17080   1.709   1.503   1.026
 5394SOL    HW117081   1.635   1.469   0.968
 5394SOL    HW217082   1.786   1.439   1.021
 5395SOL     OW17083   6.675   1.704   1.061
 5395SOL    HW117084   6.705   1.749   1.145
 5395SOL    HW217085   6.628   1.619   1.085
 5396SOL     OW17086   5.392   4.444   1.918
 5396SOL    HW117087   5.444   4.371   1.873
 5396SOL    HW217088   5.342   4.406   1.996
 5397SOL     OW17089   0.755   1.556   2.551
 5397SOL    HW117090   0.783   1.461   2.567
 5397SOL    HW217091   0.790   1.586   2.462
 5398SOL     OW17092   5.468   1.712   2.646
 5398SOL    HW117093   5.448   1.646   2.719
 5398SOL    HW217094   5.539   1.675   2.586
 5399SOL     OW17095   2.044   0.949   6.569
 5399SOL    HW117096   2.056   0.856   6.604
 5399SOL    HW217097   2.120   1.006   6.599
 5400SOL     OW17098   4.512   3.549   1.651
 5400SOL    HW117099   4.592   3.502   1.688
 5400SOL    HW217100   4.541   3.635   1.610
 5401SOL     OW17101   5.739   3.336   0.934
 5401SOL    HW117102   5.655   3.326   0.880
 5401SOL    HW217103   5.780   3.246   0.947
 5402SOL     OW17104   0.919   6.040   1.735
 5402SOL    HW117105   0.930   6.123   1.791
 5402SOL    HW217106   0.982   5.970   1.767
 5403SOL     OW17107   4.764   3.431   6.739
 5403SOL    HW117108   4.775   3.434   6.640
 5403SOL    HW217109   4.762   3.525   6.775
 5404SOL     OW17110   6.718   1.129   0.461
 5404SOL    HW117111   6.685   1.134   0.367
 5404SOL    HW217112   6.724   1.034   0.491
 5405SOL     OW17113   6.237   5.312   6.962
 5405SOL    HW117114   6.324   5.346   6.926
 5405SOL    HW217115   6.191   5.256   6.893
 5406SOL     OW17116   2.751   0.291   5.362
 5406SOL    HW117117   2.783   0.235   5.285
 5406SOL    HW217118   2.824   0.298   5.430
 5407SOL     OW17119   2.087   0.265   3.193
 5407SOL    HW117120   2.013   0.243   3.256
 5407SOL    HW217121   2.060   0.240   3.099
 5408SOL     OW17122   3.693   2.148   4.145
 5408SOL    HW117123   3.741   2.235   4.148
 5408SOL    HW217124   3.728   2.093   4.068
 5409SOL     OW17125   0.830   2.639   1.369
 5409SOL    HW117126   0.851   2.698   1.447
 5409SOL    HW217127   0.822   2.545   1.400
 5410SOL     OW17128   1.190   2.099   0.597
 5410SOL    HW117129   1.225   2.080   0.689
 5410SOL    HW217130   1.234   2.181   0.561
 5411SOL     OW17131   3.150   5.519   0.253
 5411SOL    HW117132   3.056   5.488   0.239
 5411SOL    HW217133   3.211   5.474   0.189
 5412SOL     OW17134   6.921   1.836   6.153
 5412SOL    HW117135   6.973   1.767   6.103
 5412SOL    HW217136   6.826   1.835   6.121
 5413SOL     OW17137   6.619   6.083   5.282
 5413SOL    HW117138   6.688   6.156   5.280
 5413SOL    HW217139   6.660   5.999   5.245
 5414SOL     OW17140   5.685   3.979   5.517
 5414SOL    HW117141   5.717   3.885   5.515
 5414SOL    HW217142   5.602   3.985   5.573
 5415SOL     OW17143   4.821   0.533   0.251
 5415SOL    HW117144   4.794   0.558   0.344
 5415SOL    HW217145   4.739   0.528   0.193
 5416SOL     OW17146   3.110   5.958   6.720
 5416SOL    HW117147   3.167   5.992   6.645
 5416SOL    HW217148   3.060   5.877   6.690
 5417SOL     OW17149   4.352   6.635   4.164
 5417SOL    HW117150   4.260   6.648   4.127
 5417SOL    HW217151   4.398   6.563   4.113
 5418SOL     OW17152   6.253   3.136   4.193
 5418SOL    HW117153   6.245   3.071   4.117
 5418SOL    HW217154   6.348   3.140   4.223
 5419SOL     OW17155   4.850   6.341   6.613
 5419SOL    HW117156   4.924   6.332   6.547
 5419SOL    HW217157   4.762   6.343   6.565
 5420SOL     OW17158   0.949   1.168   1.925
 5420SOL    HW117159   1.024   1.121   1.972
 5420SOL    HW217160   0.869   1.108   1.921
 5421SOL     OW17161   3.969   4.867   2.233
 5421SOL    HW117162   3.950   4.864   2.331
 5421SOL    HW217163   4.051   4.813   2.213
 5422SOL     OW17164   3.010   5.420   3.788
 5422SOL    HW117165   3.041   5.336   3.833
 5422SOL    HW217166   3.068   5.497   3.816
 5423SOL     OW17167   5.496   6.169   1.827
 5423SOL    HW117168   5.435   6.174   1.748
 5423SOL    HW217169   5.591   6.159   1.796
 5424SOL     OW17170   4.328   4.011   5.388
 5424SOL    HW117171   4.289   4.038   5.476
 5424SOL    HW217172   4.411   3.957   5.404
 5425SOL     OW17173   1.520   4.127   5.719
 5425SOL    HW117174   1.613   4.094   5.735
 5425SOL    HW217175   1.516   4.174   5.631
 5426SOL     OW17176   6.013   5.076   1.543
 5426SOL    HW117177   6.076   5.152   1.557
 5426SOL    HW217178   6.060   4.989   1.561
 5427SOL     OW17179   4.832   2.173   6.288
 5427SOL    HW117180   4.760   2.121   6.334
 5427SOL    HW217181   4.906   2.110   6.261
 5428SOL     OW17182   6.120   5.748   2.883
 5428SOL    HW117183   6.047   5.689   2.918
 5428SOL    HW217184   6.115   5.751   2.783
 5429SOL     OW17185   3.853   0.514   4.939
 5429SOL    HW117186   3.754   0.521   4.937
 5429SOL    HW217187   3.888   0.561   5.020
 5430SOL     OW17188   2.594   3.720   5.641
 5430SOL    HW117189   2.680   3.670   5.643
 5430SOL    HW217190   2.535   3.684   5.569
 5431SOL     OW17191   3.217   4.283   7.014
 5431SOL    HW117192   3.273   4.298   0.076
 5431SOL    HW217193   3.223   4.186   6.988
 5432SOL     OW17194   6.602   5.277   0.102
 5432SOL    HW117195   6.578   5.373   0.118
 5432SOL    HW217196   6.684   5.254   0.155
 5433SOL     OW17197   1.674   0.413   1.670
 5433SOL    HW117198   1.662   0.507   1.701
 5433SOL    HW217199   1.747   0.410   1.602
 5434SOL     OW17200   6.162   0.089   5.364
 5434SOL    HW117201   6.070   0.087   5.325
 5434SOL    HW217202   6.222   0.030   5.310
 5435SOL     OW17203   0.024   4.306   0.815
 5435SOL    HW117204   0.042   4.246   0.894
 5435SOL    HW217205   0.078   4.275   0.737
 5436SOL     OW17206   1.322   5.228   2.520
 5436SOL    HW117207   1.410   5.204   2.561
 5436SOL    HW217208   1.335   5.304   2.456
 5437SOL     OW17209   3.274   5.646   1.277
 5437SOL    HW117210   3.210   5.694   1.217
 5437SOL    HW217211   3.364   5.641   1.232
 5438SOL     OW17212   4.072   5.909   2.426
 5438SOL    HW117213   4.120   5.939   2.343
 5438SOL    HW217214   4.122   5.832   2.467
 5439SOL     OW17215   1.101   4.917   1.910
 5439SOL    HW117216   1.012   4.944   1.945
 5439SOL    HW217217   1.157   4.882   1.985
 5440SOL     OW17218   6.645   6.681   3.586
 5440SOL    HW117219   6.603   6.762   3.628
 5440SOL    HW217220   6.574   6.614   3.565
 5441SOL     OW17221   5.915   3.168   3.975
 5441SOL    HW117222   6.000   3.172   3.921
 5441SOL    HW217223   5.873   3.078   3.965
 5442SOL     OW17224   4.246   0.211   5.572
 5442SOL    HW117225   4.159   0.231   5.618
 5442SOL    HW217226   4.231   0.209   5.473
 5443SOL     OW17227   4.605   0.727   3.947
 5443SOL    HW117228   4.579   0.641   3.904
 5443SOL    HW217229   4.681   0.768   3.896
 5444SOL     OW17230   6.197   0.986   4.701
 5444SOL    HW117231   6.107   0.976   4.660
 5444SOL    HW217232   6.202   1.075   4.747
 5445SOL     OW17233   5.885   5.791   4.342
 5445SOL    HW117234   5.924   5.882   4.324
 5445SOL    HW217235   5.813   5.799   4.411
 5446SOL     OW17236   0.034   4.667   5.797
 5446SOL    HW117237   0.008   4.729   5.724
 5446SOL    HW217238   0.111   4.611   5.768
 5447SOL     OW17239   1.445   2.554   0.828
 5447SOL    HW117240   1.463   2.565   0.730
 5447SOL    HW217241   1.398   2.467   0.843
 5448SOL     OW17242   4.155   5.174   2.948
 5448SOL    HW117243   4.171   5.097   2.886
 5448SOL    HW217244   4.102   5.144   3.027
 5449SOL     OW17245   3.379   1.471   1.734
 5449SOL    HW117246   3.389   1.552   1.792
 5449SOL    HW217247   3.431   1.395   1.773
 5450SOL     OW17248   3.771   5.814   1.599
 5450SOL    HW117249   3.815   5.755   1.532
 5450SOL    HW217250   3.836   5.885   1.629
 5451SOL     OW17251   6.734   0.084   2.584
 5451SOL    HW117252   6.647   0.105   2.627
 5451SOL    HW217253   6.730   0.105   2.486
 5452SOL     OW17254   2.355   4.306   2.036
 5452SOL    HW117255   2.323   4.217   2.067
 5452SOL    HW217256   2.303   4.379   2.080
 5453SOL     OW17257   5.781   3.758   2.674
 5453SOL    HW117258   5.710   3.813   2.631
 5453SOL    HW217259   5.743   3.709   2.752
 5454SOL     OW17260   5.465   4.663   2.347
 5454SOL    HW117261   5.531   4.703   2.410
 5454SOL    HW217262   5.512   4.633   2.264
 5455SOL     OW17263   1.863   1.800   3.889
 5455SOL    HW117264   1.802   1.801   3.968
 5455SOL    HW217265   1.937   1.734   3.905
 5456SOL     OW17266   5.875   1.472   0.802
 5456SOL    HW117267   5.963   1.518   0.813
 5456SOL    HW217268   5.828   1.509   0.722
 5457SOL     OW17269   5.586   1.423   6.650
 5457SOL    HW117270   5.666   1.405   6.707
 5457SOL    HW217271   5.503   1.407   6.703
 5458SOL     OW17272   6.308   3.867   0.014
 5458SOL    HW117273   6.354   3.819   0.088
 5458SOL    HW217274   6.233   3.922   0.051
 5459SOL     OW17275   1.846   3.183   5.606
 5459SOL    HW117276   1.877   3.163   5.512
 5459SOL    HW217277   1.850   3.282   5.622
 5460SOL     OW17278   1.545   0.645   1.422
 5460SOL    HW117279   1.620   0.706   1.448
 5460SOL    HW217280   1.544   0.634   1.322
 5461SOL     OW17281   6.658   1.366   5.161
 5461SOL    HW117282   6.682   1.270   5.154
 5461SOL    HW217283   6.579   1.385   5.103
 5462SOL     OW17284   4.807   4.519   5.682
 5462SOL    HW117285   4.808   4.536   5.584
 5462SOL    HW217286   4.781   4.424   5.700
 5463SOL     OW17287   1.414   3.013   6.957
 5463SOL    HW117288   1.401   2.990   0.034
 5463SOL    HW217289   1.326   3.014   6.911
 5464SOL     OW17290   0.686   6.029   5.765
 5464SOL    HW117291   0.663   6.096   5.835
 5464SOL    HW217292   0.642   5.942   5.787
 5465SOL     OW17293   6.524   6.453   3.458
 5465SOL    HW117294   6.428   6.438   3.437
 5465SOL    HW217295   6.559   6.378   3.515
 5466SOL     OW17296   5.872   2.327   5.282
 5466SOL    HW117297   5.892   2.330   5.184
 5466SOL    HW217298   5.821   2.244   5.303
 5467SOL     OW17299   4.859   2.912   4.268
 5467SOL    HW117300   4.845   2.976   4.344
 5467SOL    HW217301   4.829   2.954   4.183
 5468SOL     OW17302   0.337   2.090   1.591
 5468SOL    HW117303   0.307   2.014   1.534
 5468SOL    HW217304   0.432   2.078   1.617
 5469SOL     OW17305   3.024   0.577   5.034
 5469SOL    HW117306   3.050   0.660   5.083
 5469SOL    HW217307   3.106   0.522   5.017
 5470SOL     OW17308   3.591   5.879   3.408
 5470SOL    HW117309   3.518   5.870   3.341
 5470SOL    HW217310   3.579   5.810   3.480
 5471SOL     OW17311   4.728   0.937   3.398
 5471SOL    HW117312   4.692   1.028   3.381
 5471SOL    HW217313   4.652   0.874   3.417
 5472SOL     OW17314   2.504   1.926   6.522
 5472SOL    HW117315   2.445   2.007   6.522
 5472SOL    HW217316   2.590   1.948   6.475
 5473SOL     OW17317   2.614   4.452   1.684
 5473SOL    HW117318   2.526   4.423   1.721
 5473SOL    HW217319   2.681   4.458   1.757
 5474SOL     OW17320   0.989   5.540   3.793
 5474SOL    HW117321   0.994   5.460   3.733
 5474SOL    HW217322   0.917   5.527   3.860
 5475SOL     OW17323   6.810   1.985   5.306
 5475SOL    HW117324   6.858   1.925   5.243
 5475SOL    HW217325   6.737   2.033   5.257
 5476SOL     OW17326   2.929   6.694   5.889
 5476SOL    HW117327   2.882   6.655   5.968
 5476SOL    HW217328   3.011   6.640   5.868
 5477SOL     OW17329   1.741   4.205   3.719
 5477SOL    HW117330   1.789   4.166   3.797
 5477SOL    HW217331   1.799   4.202   3.638
 5478SOL     OW17332   5.866   4.178   5.492
 5478SOL    HW117333   5.813   4.262   5.484
 5478SOL    HW217334   5.804   4.100   5.501
 5479SOL     OW17335   3.443   1.415   4.806
 5479SOL    HW117336   3.532   1.459   4.820
 5479SOL    HW217337   3.370   1.483   4.814
 5480SOL     OW17338   0.247   3.811   4.229
 5480SOL    HW117339   0.284   3.742   4.167
 5480SOL    HW217340   0.161   3.847   4.191
 5481SOL     OW17341   4.783   0.786   6.763
 5481SOL    HW117342   4.741   0.825   6.680
 5481SOL    HW217343   4.832   0.702   6.739
 5482SOL     OW17344   4.596   3.192   0.958
 5482SOL    HW117345   4.520   3.153   1.009
 5482SOL    HW217346   4.681   3.178   1.009
 5483SOL     OW17347   0.265   3.341   5.425
 5483SOL    HW117348   0.199   3.321   5.353
 5483SOL    HW217349   0.264   3.267   5.493
 5484SOL     OW17350   6.050   6.298   3.711
 5484SOL    HW117351   6.144   6.272   3.735
 5484SOL    HW217352   6.048   6.340   3.621
 5485SOL     OW17353   3.678   6.901   5.368
 5485SOL    HW117354   3.617   6.941   5.436
 5485SOL    HW217355   3.752   6.965   5.347
 5486SOL     OW17356   0.600   0.895   3.738
 5486SOL    HW117357   0.506   0.862   3.734
 5486SOL    HW217358   0.661   0.825   3.701
 5487SOL     OW17359   6.076   4.648   0.126
 5487SOL    HW117360   6.095   4.677   0.032
 5487SOL    HW217361   6.012   4.571   0.124
 5488SOL     OW17362   4.964   1.857   6.544
 5488SOL    HW117363   4.961   1.909   6.629
 5488SOL    HW217364   4.985   1.918   6.468
 5489SOL     OW17365   1.289   4.641   2.799
 5489SOL    HW117366   1.212   4.690   2.758
 5489SOL    HW217367   1.365   4.638   2.733
 5490SOL     OW17368   2.301   1.675   0.838
 5490SOL    HW117369   2.336   1.665   0.745
 5490SOL    HW217370   2.378   1.682   0.902
 5491SOL     OW17371   0.996   4.596   0.860
 5491SOL    HW117372   1.073   4.532   0.858
 5491SOL    HW217373   1.013   4.670   0.794
 5492SOL     OW17374   1.146   1.281   6.377
 5492SOL    HW117375   1.203   1.315   6.452
 5492SOL    HW217376   1.157   1.341   6.298
 5493SOL     OW17377   3.569   3.757   6.933
 5493SOL    HW117378   3.653   3.747   6.987
 5493SOL    HW217379   3.591   3.757   6.836
 5494SOL     OW17380   5.497   3.085   1.330
 5494SOL    HW117381   5.432   3.021   1.372
 5494SOL    HW217382   5.447   3.155   1.280
 5495SOL     OW17383   3.803   3.538   2.497
 5495SOL    HW117384   3.886   3.518   2.549
 5495SOL    HW217385   3.761   3.621   2.532
 5496SOL     OW17386   3.649   6.207   1.500
 5496SOL    HW117387   3.617   6.127   1.450
 5496SOL    HW217388   3.622   6.200   1.596
 5497SOL     OW17389   0.041   1.021   2.057
 5497SOL    HW117390   0.032   1.120   2.062
 5497SOL    HW217391   0.004   0.988   1.969
 5498SOL     OW17392   4.741   1.254   5.749
 5498SOL    HW117393   4.820   1.314   5.764
 5498SOL    HW217394   4.668   1.279   5.813
 5499SOL     OW17395   6.754   1.476   3.119
 5499SOL    HW117396   6.739   1.482   3.218
 5499SOL    HW217397   6.832   1.533   3.094
 5500SOL     OW17398   1.825   5.825   1.140
 5500SOL    HW117399   1.742   5.852   1.090
 5500SOL    HW217400   1.899   5.888   1.118
 5501SOL     OW17401   3.027   0.859   1.853
 5501SOL    HW117402   2.994   0.805   1.930
 5501SOL    HW217403   2.976   0.944   1.846
 5502SOL     OW17404   5.768   3.773   5.938
 5502SOL    HW117405   5.730   3.686   5.908
 5502SOL    HW217406   5.864   3.760   5.965
 5503SOL     OW17407   1.032   5.187   3.282
 5503SOL    HW117408   1.112   5.181   3.223
 5503SOL    HW217409   1.059   5.178   3.378
 5504SOL     OW17410   3.021   1.637   4.403
 5504SOL    HW117411   3.008   1.679   4.493
 5504SOL    HW217412   2.940   1.583   4.379
 5505SOL     OW17413   3.628   5.480   6.024
 5505SOL    HW117414   3.643   5.423   6.105
 5505SOL    HW217415   3.716   5.517   5.993
 5506SOL     OW17416   5.833   0.626   5.639
 5506SOL    HW117417   5.750   0.646   5.587
 5506SOL    HW217418   5.813   0.625   5.737
 5507SOL     OW17419   2.381   6.600   3.843
 5507SOL    HW117420   2.428   6.628   3.759
 5507SOL    HW217421   2.448   6.595   3.918
 5508SOL     OW17422   3.029   0.926   6.443
 5508SOL    HW117423   2.956   0.857   6.443
 5508SOL    HW217424   3.018   0.985   6.362
 5509SOL     OW17425   6.083   6.657   6.809
 5509SOL    HW117426   6.084   6.604   6.893
 5509SOL    HW217427   6.121   6.602   6.735
 5510SOL     OW17428   5.655   0.076   5.853
 5510SOL    HW117429   5.614   0.086   5.944
 5510SOL    HW217430   5.667   6.999   5.832
 5511SOL     OW17431   0.949   0.999   2.437
 5511SOL    HW117432   0.868   1.013   2.380
 5511SOL    HW217433   0.950   0.904   2.470
 5512SOL     OW17434   0.790   0.628   6.585
 5512SOL    HW117435   0.777   0.529   6.591
 5512SOL    HW217436   0.887   0.649   6.596
 5513SOL     OW17437   4.844   4.116   4.857
 5513SOL    HW117438   4.811   4.027   4.887
 5513SOL    HW217439   4.923   4.104   4.797
 5514SOL     OW17440   5.253   4.825   1.943
 5514SOL    HW117441   5.190   4.899   1.919
 5514SOL    HW217442   5.217   4.776   2.022
 5515SOL     OW17443   6.664   2.459   2.124
 5515SOL    HW117444   6.609   2.506   2.056
 5515SOL    HW217445   6.754   2.438   2.086
 5516SOL     OW17446   1.131   3.387   6.754
 5516SOL    HW117447   1.099   3.338   6.673
 5516SOL    HW217448   1.211   3.442   6.730
 5517SOL     OW17449   2.822   1.569   1.413
 5517SOL    HW117450   2.746   1.629   1.437
 5517SOL    HW217451   2.893   1.621   1.366
 5518SOL     OW17452   5.942   4.891   5.297
 5518SOL    HW117453   5.938   4.823   5.370
 5518SOL    HW217454   5.947   4.845   5.208
 5519SOL     OW17455   5.349   3.743   3.777
 5519SOL    HW117456   5.253   3.764   3.759
 5519SOL    HW217457   5.366   3.747   3.875
 5520SOL     OW17458   0.931   4.275   2.306
 5520SOL    HW117459   1.001   4.212   2.272
 5520SOL    HW217460   0.973   4.363   2.330
 5521SOL     OW17461   5.939   5.509   1.648
 5521SOL    HW117462   5.908   5.482   1.556
 5521SOL    HW217463   5.934   5.608   1.657
 5522SOL     OW17464   2.627   3.507   1.721
 5522SOL    HW117465   2.651   3.604   1.725
 5522SOL    HW217466   2.532   3.496   1.749
 5523SOL     OW17467   3.259   0.167   2.625
 5523SOL    HW117468   3.297   0.170   2.532
 5523SOL    HW217469   3.331   0.184   2.691
 5524SOL     OW17470   6.817   4.732   6.253
 5524SOL    HW117471   6.839   4.732   6.350
 5524SOL    HW217472   6.897   4.704   6.200
 5525SOL     OW17473   6.556   5.505   5.823
 5525SOL    HW117474   6.511   5.495   5.911
 5525SOL    HW217475   6.542   5.598   5.789
 5526SOL     OW17476   6.514   3.619   4.398
 5526SOL    HW117477   6.424   3.584   4.372
 5526SOL    HW217478   6.524   3.614   4.497
 5527SOL     OW17479   1.835   2.860   1.639
 5527SOL    HW117480   1.796   2.783   1.691
 5527SOL    HW217481   1.808   2.853   1.544
 5528SOL     OW17482   0.185   3.049   4.495
 5528SOL    HW117483   0.208   3.098   4.579
 5528SOL    HW217484   0.267   3.004   4.460
 5529SOL     OW17485   2.601   0.785   4.672
 5529SOL    HW117486   2.619   0.720   4.598
 5529SOL    HW217487   2.502   0.790   4.690
 5530SOL     OW17488   0.631   2.138   0.216
 5530SOL    HW117489   0.593   2.216   0.265
 5530SOL    HW217490   0.728   2.129   0.239
 5531SOL     OW17491   4.185   2.898   5.585
 5531SOL    HW117492   4.093   2.917   5.621
 5531SOL    HW217493   4.178   2.880   5.487
 5532SOL     OW17494   2.393   1.381   0.891
 5532SOL    HW117495   2.446   1.427   0.819
 5532SOL    HW217496   2.454   1.348   0.962
 5533SOL     OW17497   4.040   0.981   2.150
 5533SOL    HW117498   3.996   1.068   2.174
 5533SOL    HW217499   3.976   0.906   2.162
 5534SOL     OW17500   0.540   3.911   6.496
 5534SOL    HW117501   0.474   3.900   6.422
 5534SOL    HW217502   0.499   3.885   6.583
 5535SOL     OW17503   6.653   2.943   3.264
 5535SOL    HW117504   6.604   2.980   3.343
 5535SOL    HW217505   6.678   2.848   3.282
 5536SOL     OW17506   2.322   1.100   4.494
 5536SOL    HW117507   2.409   1.150   4.488
 5536SOL    HW217508   2.335   1.006   4.463
 5537SOL     OW17509   4.509   0.124   5.109
 5537SOL    HW117510   4.603   0.155   5.094
 5537SOL    HW217511   4.463   0.186   5.172
 5538SOL     OW17512   4.030   1.556   6.336
 5538SOL    HW117513   3.931   1.559   6.327
 5538SOL    HW217514   4.059   1.463   6.359
 5539SOL     OW17515   2.297   0.258   1.934
 5539SOL    HW117516   2.292   0.200   1.853
 5539SOL    HW217517   2.280   0.353   1.908
 5540SOL     OW17518   4.994   2.072   6.743
 5540SOL    HW117519   4.903   2.059   6.783
 5540SOL    HW217520   5.025   2.166   6.759
 5541SOL     OW17521   4.500   3.729   6.396
 5541SOL    HW117522   4.403   3.710   6.412
 5541SOL    HW217523   4.515   3.746   6.299
 5542SOL     OW17524   5.842   4.154   6.154
 5542SOL    HW117525   5.758   4.199   6.186
 5542SOL    HW217526   5.871   4.086   6.221
 5543SOL     OW17527   1.930   0.164   1.105
 5543SOL    HW117528   2.007   0.165   1.169
 5543SOL    HW217529   1.852   0.210   1.148
 5544SOL     OW17530   4.726   5.405   6.326
 5544SOL    HW117531   4.793   5.417   6.252
 5544SOL    HW217532   4.678   5.319   6.314
 5545SOL     OW17533   4.219   0.797   2.665
 5545SOL    HW117534   4.287   0.868   2.648
 5545SOL    HW217535   4.173   0.773   2.579
 5546SOL     OW17536   0.373   6.453   4.728
 5546SOL    HW117537   0.374   6.494   4.820
 5546SOL    HW217538   0.442   6.380   4.724
 5547SOL     OW17539   5.250   1.594   5.936
 5547SOL    HW117540   5.303   1.603   5.851
 5547SOL    HW217541   5.197   1.677   5.950
 5548SOL     OW17542   0.044   3.868   5.538
 5548SOL    HW117543   0.023   3.784   5.487
 5548SOL    HW217544   6.998   3.939   5.514
 5549SOL     OW17545   4.298   3.792   1.618
 5549SOL    HW117546   4.242   3.713   1.641
 5549SOL    HW217547   4.281   3.866   1.684
 5550SOL     OW17548   1.686   4.447   2.969
 5550SOL    HW117549   1.612   4.430   3.034
 5550SOL    HW217550   1.751   4.371   2.972
 5551SOL     OW17551   2.102   5.378   3.158
 5551SOL    HW117552   2.154   5.295   3.138
 5551SOL    HW217553   2.040   5.362   3.234
 5552SOL     OW17554   6.940   6.693   6.438
 5552SOL    HW117555   6.945   6.792   6.453
 5552SOL    HW217556   6.937   6.675   6.339
 5553SOL     OW17557   4.916   0.557   6.641
 5553SOL    HW117558   4.843   0.519   6.585
 5553SOL    HW217559   4.973   0.483   6.677
 5554SOL     OW17560   5.085   2.899   0.394
 5554SOL    HW117561   5.152   2.956   0.441
 5554SOL    HW217562   5.007   2.883   0.454
 5555SOL     OW17563   1.293   3.924   3.160
 5555SOL    HW117564   1.385   3.889   3.142
 5555SOL    HW217565   1.292   4.023   3.146
 5556SOL     OW17566   6.156   1.048   4.288
 5556SOL    HW117567   6.246   1.081   4.317
 5556SOL    HW217568   6.100   1.125   4.258
 5557SOL     OW17569   3.291   5.961   1.930
 5557SOL    HW117570   3.370   6.018   1.951
 5557SOL    HW217571   3.310   5.905   1.849
 5558SOL     OW17572   3.373   4.303   0.254
 5558SOL    HW117573   3.328   4.358   0.324
 5558SOL    HW217574   3.385   4.209   0.288
 5559SOL     OW17575   0.872   0.470   2.994
 5559SOL    HW117576   0.940   0.442   2.926
 5559SOL    HW217577   0.806   0.531   2.952
 5560SOL     OW17578   0.388   5.743   3.164
 5560SOL    HW117579   0.396   5.828   3.111
 5560SOL    HW217580   0.370   5.765   3.260
 5561SOL     OW17581   2.931   0.922   4.950
 5561SOL    HW117582   2.897   1.015   4.937
 5561SOL    HW217583   2.864   0.857   4.914
 5562SOL     OW17584   4.345   4.468   6.995
 5562SOL    HW117585   4.369   4.499   0.067
 5562SOL    HW217586   4.245   4.463   6.987
 5563SOL     OW17587   3.183   4.898   2.629
 5563SOL    HW117588   3.191   4.987   2.584
 5563SOL    HW217589   3.233   4.900   2.716
 5564SOL     OW17590   5.091   6.595   5.746
 5564SOL    HW117591   5.075   6.663   5.818
 5564SOL    HW217592   5.044   6.510   5.770
 5565SOL     OW17593   3.859   3.532   0.633
 5565SOL    HW117594   3.896   3.445   0.601
 5565SOL    HW217595   3.916   3.566   0.708
 5566SOL     OW17596   1.232   4.251   0.419
 5566SOL    HW117597   1.217   4.196   0.337
 5566SOL    HW217598   1.175   4.333   0.415
 5567SOL     OW17599   6.647   3.478   2.062
 5567SOL    HW117600   6.547   3.480   2.062
 5567SOL    HW217601   6.682   3.537   1.989
 5568SOL     OW17602   4.235   6.222   2.696
 5568SOL    HW117603   4.171   6.147   2.676
 5568SOL    HW217604   4.186   6.296   2.742
 5569SOL     OW17605   2.645   1.807   3.747
 5569SOL    HW117606   2.579   1.880   3.762
 5569SOL    HW217607   2.659   1.756   3.832
 5570SOL     OW17608   6.112   3.454   3.253
 5570SOL    HW117609   6.015   3.442   3.275
 5570SOL    HW217610   6.162   3.371   3.275
 5571SOL     OW17611   6.472   5.239   2.138
 5571SOL    HW117612   6.387   5.217   2.185
 5571SOL    HW217613   6.456   5.309   2.069
 5572SOL     OW17614   1.668   4.543   4.947
 5572SOL    HW117615   1.638   4.633   4.915
 5572SOL    HW217616   1.759   4.551   4.988
 5573SOL     OW17617   1.519   5.304   5.222
 5573SOL    HW117618   1.570   5.245   5.160
 5573SOL    HW217619   1.553   5.293   5.315
 5574SOL     OW17620   0.720   2.983   6.628
 5574SOL    HW117621   0.820   2.980   6.626
 5574SOL    HW217622   0.687   2.954   6.718
 5575SOL     OW17623   0.474   0.227   1.830
 5575SOL    HW117624   0.385   0.271   1.844
 5575SOL    HW217625   0.502   0.181   1.914
 5576SOL     OW17626   1.754   4.036   3.377
 5576SOL    HW117627   1.835   4.087   3.406
 5576SOL    HW217628   1.678   4.100   3.364
 5577SOL     OW17629   1.530   3.297   0.054
 5577SOL    HW117630   1.500   3.377   0.003
 5577SOL    HW217631   1.488   3.215   0.015
 5578SOL     OW17632   3.539   3.881   2.745
 5578SOL    HW117633   3.470   3.855   2.813
 5578SOL    HW217634   3.585   3.964   2.775
 5579SOL     OW17635   0.305   3.264   1.041
 5579SOL    HW117636   0.286   3.302   0.950
 5579SOL    HW217637   0.257   3.176   1.051
 5580SOL     OW17638   5.149   1.836   5.980
 5580SOL    HW117639   5.227   1.860   6.037
 5580SOL    HW217640   5.064   1.847   6.032
 5581SOL     OW17641   1.267   1.856   1.406
 5581SOL    HW117642   1.341   1.856   1.473
 5581SOL    HW217643   1.306   1.857   1.314
 5582SOL     OW17644   2.571   3.981   6.847
 5582SOL    HW117645   2.542   4.075   6.829
 5582SOL    HW217646   2.506   3.917   6.806
 5583SOL     OW17647   4.481   0.706   2.377
 5583SOL    HW117648   4.412   0.702   2.304
 5583SOL    HW217649   4.555   0.642   2.357
 5584SOL     OW17650   6.135   4.212   4.483
 5584SOL    HW117651   6.212   4.275   4.487
 5584SOL    HW217652   6.051   4.261   4.508
 5585SOL     OW17653   4.865   4.721   2.971
 5585SOL    HW117654   4.901   4.628   2.984
 5585SOL    HW217655   4.819   4.750   3.055
 5586SOL     OW17656   6.724   3.529   5.555
 5586SOL    HW117657   6.680   3.523   5.466
 5586SOL    HW217658   6.815   3.569   5.545
 5587SOL     OW17659   4.863   0.313   0.016
 5587SOL    HW117660   4.776   0.333   6.989
 5587SOL    HW217661   4.911   0.241   6.986
 5588SOL     OW17662   2.344   6.700   2.902
 5588SOL    HW117663   2.275   6.628   2.902
 5588SOL    HW217664   2.311   6.778   2.849
 5589SOL     OW17665   5.876   4.412   6.711
 5589SOL    HW117666   5.915   4.504   6.706
 5589SOL    HW217667   5.932   4.349   6.657
 5590SOL     OW17668   5.635   6.448   3.739
 5590SOL    HW117669   5.554   6.447   3.797
 5590SOL    HW217670   5.713   6.414   3.790
 5591SOL     OW17671   0.325   1.876   1.363
 5591SOL    HW117672   0.421   1.848   1.355
 5591SOL    HW217673   0.267   1.795   1.375
 5592SOL     OW17674   1.352   5.217   3.251
 5592SOL    HW117675   1.318   5.176   3.166
 5592SOL    HW217676   1.437   5.266   3.232
 5593SOL     OW17677   0.115   2.920   6.751
 5593SOL    HW117678   0.076   2.947   6.663
 5593SOL    HW217679   0.194   2.860   6.735
 5594SOL     OW17680   5.195   0.413   4.879
 5594SOL    HW117681   5.186   0.321   4.841
 5594SOL    HW217682   5.199   0.480   4.805
 5595SOL     OW17683   1.240   1.823   5.302
 5595SOL    HW117684   1.241   1.889   5.227
 5595SOL    HW217685   1.232   1.730   5.265
 5596SOL     OW17686   4.138   6.427   2.839
 5596SOL    HW117687   4.121   6.467   2.748
 5596SOL    HW217688   4.184   6.495   2.896
 5597SOL     OW17689   5.136   2.317   4.267
 5597SOL    HW117690   5.221   2.319   4.215
 5597SOL    HW217691   5.149   2.362   4.355
 5598SOL     OW17692   4.924   3.109   4.036
 5598SOL    HW117693   4.920   3.044   3.959
 5598SOL    HW217694   5.019   3.126   4.060
 5599SOL     OW17695   1.167   0.701   4.088
 5599SOL    HW117696   1.131   0.663   4.173
 5599SOL    HW217697   1.092   0.722   4.025
 5600SOL     OW17698   0.937   2.078   2.675
 5600SOL    HW117699   0.958   1.981   2.660
 5600SOL    HW217700   0.845   2.086   2.712
 5601SOL     OW17701   2.870   0.184   5.798
 5601SOL    HW117702   2.876   0.115   5.870
 5601SOL    HW217703   2.815   0.261   5.831
 5602SOL     OW17704   0.590   1.649   1.012
 5602SOL    HW117705   0.516   1.714   1.029
 5602SOL    HW217706   0.565   1.559   1.046
 5603SOL     OW17707   4.984   2.168   0.033
 5603SOL    HW117708   5.074   2.186   7.013
 5603SOL    HW217709   4.950   2.251   0.078
 5604SOL     OW17710   6.868   2.101   5.947
 5604SOL    HW117711   6.787   2.067   5.997
 5604SOL    HW217712   6.839   2.159   5.872
 5605SOL     OW17713   0.734   0.915   4.768
 5605SOL    HW117714   0.772   1.003   4.740
 5605SOL    HW217715   0.726   0.912   4.867
 5606SOL     OW17716   5.940   6.570   1.084
 5606SOL    HW117717   5.869   6.623   1.038
 5606SOL    HW217718   6.009   6.632   1.121
 5607SOL     OW17719   5.519   0.580   2.315
 5607SOL    HW117720   5.485   0.611   2.404
 5607SOL    HW217721   5.467   0.625   2.243
 5608SOL     OW17722   4.399   0.361   4.513
 5608SOL    HW117723   4.381   0.275   4.465
 5608SOL    HW217724   4.313   0.407   4.533
 5609SOL     OW17725   2.290   5.255   0.596
 5609SOL    HW117726   2.386   5.277   0.582
 5609SOL    HW217727   2.252   5.310   0.670
 5610SOL     OW17728   4.941   6.822   0.746
 5610SOL    HW117729   4.945   6.907   0.694
 5610SOL    HW217730   4.997   6.831   0.828
 5611SOL     OW17731   2.111   4.828   2.380
 5611SOL    HW117732   2.037   4.768   2.412
 5611SOL    HW217733   2.195   4.775   2.373
 5612SOL     OW17734   3.686   1.972   6.430
 5612SOL    HW117735   3.731   1.975   6.341
 5612SOL    HW217736   3.638   1.885   6.440
 5613SOL     OW17737   4.756   4.041   2.801
 5613SOL    HW117738   4.818   3.970   2.768
 5613SOL    HW217739   4.808   4.125   2.818
 5614SOL     OW17740   4.356   2.327   3.889
 5614SOL    HW117741   4.315   2.247   3.844
 5614SOL    HW217742   4.349   2.407   3.830
 5615SOL     OW17743   0.526   0.580   6.102
 5615SOL    HW117744   0.530   0.652   6.172
 5615SOL    HW217745   0.457   0.512   6.129
 5616SOL     OW17746   2.339   0.747   5.350
 5616SOL    HW117747   2.413   0.680   5.352
 5616SOL    HW217748   2.334   0.790   5.260
 5617SOL     OW17749   2.899   6.903   6.304
 5617SOL    HW117750   2.888   6.814   6.347
 5617SOL    HW217751   2.961   6.896   6.226
 5618SOL     OW17752   6.551   3.643   4.671
 5618SOL    HW117753   6.493   3.602   4.741
 5618SOL    HW217754   6.574   3.736   4.697
 5619SOL     OW17755   2.749   3.977   6.240
 5619SOL    HW117756   2.839   4.013   6.264
 5619SOL    HW217757   2.727   3.899   6.298
 5620SOL     OW17758   3.662   3.201   0.865
 5620SOL    HW117759   3.668   3.185   0.767
 5620SOL    HW217760   3.729   3.271   0.891
 5621SOL     OW17761   1.235   2.081   5.898
 5621SOL    HW117762   1.258   1.993   5.940
 5621SOL    HW217763   1.235   2.071   5.798
 5622SOL     OW17764   4.196   6.951   5.805
 5622SOL    HW117765   4.153   6.883   5.864
 5622SOL    HW217766   4.285   6.918   5.774
 5623SOL     OW17767   2.021   6.279   6.228
 5623SOL    HW117768   2.006   6.251   6.133
 5623SOL    HW217769   2.099   6.341   6.233
 5624SOL     OW17770   1.316   4.226   3.099
 5624SOL    HW117771   1.323   4.269   3.009
 5624SOL    HW217772   1.253   4.278   3.156
 5625SOL     OW17773   5.888   2.293   4.209
 5625SOL    HW117774   5.800   2.254   4.183
 5625SOL    HW217775   5.873   2.371   4.269
 5626SOL     OW17776   2.715   6.523   4.803
 5626SOL    HW117777   2.754   6.459   4.737
 5626SOL    HW217778   2.776   6.531   4.882
 5627SOL     OW17779   0.966   5.912   0.831
 5627SOL    HW117780   1.064   5.926   0.847
 5627SOL    HW217781   0.938   5.825   0.874
 5628SOL     OW17782   1.466   2.161   6.019
 5628SOL    HW117783   1.515   2.081   6.054
 5628SOL    HW217784   1.382   2.132   5.974
 5629SOL     OW17785   3.569   4.066   1.883
 5629SOL    HW117786   3.509   3.994   1.848
 5629SOL    HW217787   3.631   4.096   1.811
 5630SOL     OW17788   1.221   5.201   0.682
 5630SOL    HW117789   1.265   5.169   0.598
 5630SOL    HW217790   1.124   5.216   0.666
 5631SOL     OW17791   4.396   1.552   6.933
 5631SOL    HW117792   4.494   1.570   6.945
 5631SOL    HW217793   4.384   1.464   6.888
 5632SOL     OW17794   3.887   3.176   6.021
 5632SOL    HW117795   3.872   3.274   6.005
 5632SOL    HW217796   3.800   3.128   6.015
 5633SOL     OW17797   6.291   2.158   3.444
 5633SOL    HW117798   6.208   2.183   3.493
 5633SOL    HW217799   6.283   2.188   3.348
 5634SOL     OW17800   2.813   5.822   5.589
 5634SOL    HW117801   2.821   5.908   5.538
 5634SOL    HW217802   2.812   5.746   5.525
 5635SOL     OW17803   2.117   3.336   4.964
 5635SOL    HW117804   2.023   3.360   4.989
 5635SOL    HW217805   2.117   3.248   4.916
 5636SOL     OW17806   3.515   6.032   2.575
 5636SOL    HW117807   3.568   5.988   2.648
 5636SOL    HW217808   3.543   6.128   2.567
 5637SOL     OW17809   5.406   0.078   3.868
 5637SOL    HW117810   5.329   0.141   3.858
 5637SOL    HW217811   5.374   7.004   3.855
 5638SOL     OW17812   5.235   3.349   0.913
 5638SOL    HW117813   5.158   3.296   0.877
 5638SOL    HW217814   5.204   3.440   0.941
 5639SOL     OW17815   0.130   1.363   0.305
 5639SOL    HW117816   0.056   1.330   0.365
 5639SOL    HW217817   0.092   1.427   0.238
 5640SOL     OW17818   2.737   0.662   4.146
 5640SOL    HW117819   2.697   0.583   4.099
 5640SOL    HW217820   2.837   0.658   4.137
 5641SOL     OW17821   0.001   4.697   6.057
 5641SOL    HW117822   0.002   4.677   5.959
 5641SOL    HW217823   0.092   4.680   6.095
 5642SOL     OW17824   1.833   6.584   0.472
 5642SOL    HW117825   1.860   6.652   0.540
 5642SOL    HW217826   1.904   6.575   0.403
 5643SOL     OW17827   5.213   1.536   4.796
 5643SOL    HW117828   5.121   1.564   4.769
 5643SOL    HW217829   5.250   1.472   4.729
 5644SOL     OW17830   3.059   6.649   5.091
 5644SOL    HW117831   3.081   6.657   5.188
 5644SOL    HW217832   3.077   6.736   5.045
 5645SOL     OW17833   6.179   3.810   3.563
 5645SOL    HW117834   6.097   3.829   3.509
 5645SOL    HW217835   6.259   3.848   3.516
 5646SOL     OW17836   2.036   4.832   3.263
 5646SOL    HW117837   2.001   4.742   3.240
 5646SOL    HW217838   2.098   4.824   3.341
 5647SOL     OW17839   5.288   6.283   1.981
 5647SOL    HW117840   5.210   6.300   1.920
 5647SOL    HW217841   5.355   6.226   1.935
 5648SOL     OW17842   2.397   5.837   2.908
 5648SOL    HW117843   2.357   5.758   2.954
 5648SOL    HW217844   2.494   5.820   2.891
 5649SOL     OW17845   1.006   6.780   4.085
 5649SOL    HW117846   1.088   6.723   4.081
 5649SOL    HW217847   1.014   6.845   4.160
 5650SOL     OW17848   0.279   4.901   0.534
 5650SOL    HW117849   0.280   4.813   0.583
 5650SOL    HW217850   0.366   4.948   0.548
 5651SOL     OW17851   1.587   0.210   0.822
 5651SOL    HW117852   1.586   0.183   0.725
 5651SOL    HW217853   1.493   0.214   0.856
 5652SOL     OW17854   0.119   5.600   2.372
 5652SOL    HW117855   0.101   5.697   2.355
 5652SOL    HW217856   0.106   5.548   2.287
 5653SOL     OW17857   0.266   6.172   0.498
 5653SOL    HW117858   0.359   6.168   0.463
 5653SOL    HW217859   0.246   6.264   0.529
 5654SOL     OW17860   1.210   5.968   4.995
 5654SOL    HW117861   1.178   6.025   5.070
 5654SOL    HW217862   1.145   5.974   4.919
 5655SOL     OW17863   6.288   2.982   3.948
 5655SOL    HW117864   6.360   3.036   3.905
 5655SOL    HW217865   6.325   2.894   3.978
 5656SOL     OW17866   6.886   3.436   6.449
 5656SOL    HW117867   6.900   3.379   6.367
 5656SOL    HW217868   6.975   3.466   6.484
 5657SOL     OW17869   4.646   4.345   4.731
 5657SOL    HW117870   4.598   4.258   4.722
 5657SOL    HW217871   4.580   4.420   4.738
 5658SOL     OW17872   1.761   2.775   5.929
 5658SOL    HW117873   1.843   2.742   5.882
 5658SOL    HW217874   1.745   2.718   6.010
 5659SOL     OW17875   3.362   3.478   6.328
 5659SOL    HW117876   3.346   3.462   6.426
 5659SOL    HW217877   3.460   3.490   6.312
 5660SOL     OW17878   4.733   6.755   6.778
 5660SOL    HW117879   4.832   6.767   6.766
 5660SOL    HW217880   4.685   6.802   6.703
 5661SOL     OW17881   0.636   5.529   5.930
 5661SOL    HW117882   0.708   5.598   5.934
 5661SOL    HW217883   0.676   5.439   5.916
 5662SOL     OW17884   2.518   6.592   2.722
 5662SOL    HW117885   2.593   6.646   2.685
 5662SOL    HW217886   2.465   6.648   2.786
 5663SOL     OW17887   1.454   2.707   1.088
 5663SOL    HW117888   1.495   2.797   1.070
 5663SOL    HW217889   1.470   2.647   1.010
 5664SOL     OW17890   5.103   4.176   4.407
 5664SOL    HW117891   5.114   4.251   4.472
 5664SOL    HW217892   5.015   4.185   4.361
 5665SOL     OW17893   1.375   6.774   0.544
 5665SOL    HW117894   1.381   6.692   0.601
 5665SOL    HW217895   1.464   6.791   0.500
 5666SOL     OW17896   5.719   1.144   4.034
 5666SOL    HW117897   5.718   1.047   4.013
 5666SOL    HW217898   5.813   1.174   4.049
 5667SOL     OW17899   1.639   4.943   4.320
 5667SOL    HW117900   1.645   5.038   4.350
 5667SOL    HW217901   1.723   4.916   4.274
 5668SOL     OW17902   6.161   2.599   2.617
 5668SOL    HW117903   6.207   2.516   2.647
 5668SOL    HW217904   6.143   2.658   2.696
 5669SOL     OW17905   6.165   4.143   6.849
 5669SOL    HW117906   6.166   4.153   6.948
 5669SOL    HW217907   6.103   4.068   6.823
 5670SOL     OW17908   1.493   3.553   2.829
 5670SOL    HW117909   1.424   3.624   2.813
 5670SOL    HW217910   1.462   3.492   2.901
 5671SOL     OW17911   6.285   5.859   3.968
 5671SOL    HW117912   6.218   5.785   3.961
 5671SOL    HW217913   6.288   5.892   4.062
 5672SOL     OW17914   4.754   3.932   5.224
 5672SOL    HW117915   4.722   3.997   5.293
 5672SOL    HW217916   4.823   3.872   5.264
 5673SOL     OW17917   0.700   0.054   1.530
 5673SOL    HW117918   0.779   0.039   1.471
 5673SOL    HW217919   0.705   0.145   1.570
 5674SOL     OW17920   1.994   4.730   4.483
 5674SOL    HW117921   1.910   4.777   4.454
 5674SOL    HW217922   1.993   4.636   4.448
 5675SOL     OW17923   3.315   1.012   0.272
 5675SOL    HW117924   3.281   1.001   0.179
 5675SOL    HW217925   3.310   1.108   0.300
 5676SOL     OW17926   3.130   2.540   1.733
 5676SOL    HW117927   3.093   2.564   1.643
 5676SOL    HW217928   3.063   2.488   1.785
 5677SOL     OW17929   6.777   0.666   1.030
 5677SOL    HW117930   6.828   0.750   1.010
 5677SOL    HW217931   6.699   0.659   0.968
 5678SOL     OW17932   3.567   1.770   2.134
 5678SOL    HW117933   3.572   1.869   2.150
 5678SOL    HW217934   3.629   1.723   2.197
 5679SOL     OW17935   5.865   2.421   4.934
 5679SOL    HW117936   5.787   2.407   4.873
 5679SOL    HW217937   5.921   2.338   4.935
 5680SOL     OW17938   1.594   5.296   5.480
 5680SOL    HW117939   1.545   5.343   5.554
 5680SOL    HW217940   1.692   5.295   5.501
 5681SOL     OW17941   0.554   3.755   3.021
 5681SOL    HW117942   0.557   3.835   3.081
 5681SOL    HW217943   0.517   3.782   2.932
 5682SOL     OW17944   2.690   5.481   2.527
 5682SOL    HW117945   2.739   5.514   2.446
 5682SOL    HW217946   2.720   5.389   2.549
 5683SOL     OW17947   3.935   2.687   6.326
 5683SOL    HW117948   4.026   2.649   6.305
 5683SOL    HW217949   3.925   2.698   6.424
 5684SOL     OW17950   2.208   3.520   6.119
 5684SOL    HW117951   2.160   3.528   6.206
 5684SOL    HW217952   2.275   3.446   6.124
 5685SOL     OW17953   2.126   2.533   4.020
 5685SOL    HW117954   2.166   2.589   3.948
 5685SOL    HW217955   2.112   2.588   4.102
 5686SOL     OW17956   3.346   0.739   5.877
 5686SOL    HW117957   3.406   0.792   5.937
 5686SOL    HW217958   3.302   0.801   5.812
 5687SOL     OW17959   0.892   6.158   5.215
 5687SOL    HW117960   0.949   6.079   5.239
 5687SOL    HW217961   0.912   6.186   5.121
 5688SOL     OW17962   2.075   3.750   3.463
 5688SOL    HW117963   2.093   3.655   3.488
 5688SOL    HW217964   2.057   3.757   3.365
 5689SOL     OW17965   1.458   0.903   1.076
 5689SOL    HW117966   1.360   0.891   1.090
 5689SOL    HW217967   1.477   1.000   1.060
 5690SOL     OW17968   0.626   5.294   6.852
 5690SOL    HW117969   0.697   5.338   6.906
 5690SOL    HW217970   0.557   5.362   6.826
 5691SOL     OW17971   3.591   1.125   2.252
 5691SOL    HW117972   3.512   1.094   2.199
 5691SOL    HW217973   3.559   1.171   2.335
 5692SOL     OW17974   5.195   5.255   1.053
 5692SOL    HW117975   5.244   5.193   0.992
 5692SOL    HW217976   5.259   5.321   1.093
 5693SOL     OW17977   4.168   0.940   0.616
 5693SOL    HW117978   4.083   0.891   0.632
 5693SOL    HW217979   4.242   0.875   0.600
 5694SOL     OW17980   0.462   0.788   2.783
 5694SOL    HW117981   0.418   0.826   2.864
 5694SOL    HW217982   0.414   0.819   2.701
 5695SOL     OW17983   1.314   1.121   1.828
 5695SOL    HW117984   1.293   1.151   1.921
 5695SOL    HW217985   1.239   1.064   1.794
 5696SOL     OW17986   1.587   0.531   4.053
 5696SOL    HW117987   1.604   0.456   3.989
 5696SOL    HW217988   1.672   0.553   4.101
 5697SOL     OW17989   6.289   2.762   1.554
 5697SOL    HW117990   6.295   2.666   1.583
 5697SOL    HW217991   6.380   2.804   1.561
 5698SOL     OW17992   1.549   3.306   3.459
 5698SOL    HW117993   1.489   3.375   3.421
 5698SOL    HW217994   1.503   3.217   3.457
 5699SOL     OW17995   2.029   2.807   3.327
 5699SOL    HW117996   1.954   2.830   3.389
 5699SOL    HW217997   2.116   2.818   3.375
 5700SOL     OW17998   0.279   0.592   2.078
 5700SOL    HW117999   0.225   0.582   2.161
 5700SOL    HW218000   0.301   0.689   2.064
 5701SOL     OW18001   6.320   1.130   1.094
 5701SOL    HW118002   6.398   1.184   1.063
 5701SOL    HW218003   6.261   1.109   1.015
 5702SOL     OW18004   1.506   6.681   4.303
 5702SOL    HW118005   1.415   6.643   4.320
 5702SOL    HW218006   1.516   6.702   4.205
 5703SOL     OW18007   0.231   3.762   5.926
 5703SOL    HW118008   0.147   3.778   5.873
 5703SOL    HW218009   0.216   3.788   6.021
 5704SOL     OW18010   5.563   3.958   3.673
 5704SOL    HW118011   5.482   3.900   3.689
 5704SOL    HW218012   5.543   4.051   3.702
 5705SOL     OW18013   6.209   6.244   6.109
 5705SOL    HW118014   6.307   6.226   6.099
 5705SOL    HW218015   6.166   6.169   6.158
 5706SOL     OW18016   5.855   2.887   0.388
 5706SOL    HW118017   5.932   2.875   0.450
 5706SOL    HW218018   5.771   2.898   0.440
 5707SOL     OW18019   5.008   6.987   1.383
 5707SOL    HW118020   5.069   6.908   1.374
 5707SOL    HW218021   4.978   7.016   1.292
 5708SOL     OW18022   4.745   5.712   3.530
 5708SOL    HW118023   4.823   5.678   3.582
 5708SOL    HW218024   4.672   5.740   3.593
 5709SOL     OW18025   1.582   1.046   2.043
 5709SOL    HW118026   1.575   1.118   2.113
 5709SOL    HW218027   1.505   0.982   2.054
 5710SOL     OW18028   2.814   2.880   0.485
 5710SOL    HW118029   2.749   2.805   0.499
 5710SOL    HW218030   2.771   2.952   0.430
 5711SOL     OW18031   5.056   0.615   1.511
 5711SOL    HW118032   5.039   0.712   1.498
 5711SOL    HW218033   4.971   0.564   1.495
 5712SOL     OW18034   0.016   6.228   1.453
 5712SOL    HW118035   0.061   6.194   1.370
 5712SOL    HW218036   0.032   6.165   1.529
 5713SOL     OW18037   2.565   5.675   0.564
 5713SOL    HW118038   2.587   5.578   0.576
 5713SOL    HW218039   2.631   5.731   0.614
 5714SOL     OW18040   6.423   5.879   1.622
 5714SOL    HW118041   6.487   5.806   1.645
 5714SOL    HW218042   6.461   5.967   1.651
 5715SOL     OW18043   0.771   6.598   1.239
 5715SOL    HW118044   0.707   6.530   1.276
 5715SOL    HW218045   0.723   6.657   1.174
 5716SOL     OW18046   0.695   5.032   6.087
 5716SOL    HW118047   0.625   5.073   6.145
 5716SOL    HW218048   0.769   4.996   6.144
 5717SOL     OW18049   2.133   4.860   2.820
 5717SOL    HW118050   2.132   4.925   2.897
 5717SOL    HW218051   2.141   4.910   2.734
 5718SOL     OW18052   0.860   2.911   0.855
 5718SOL    HW118053   0.892   2.818   0.837
 5718SOL    HW218054   0.938   2.972   0.867
 5719SOL     OW18055   3.134   3.347   1.336
 5719SOL    HW118056   3.204   3.286   1.373
 5719SOL    HW218057   3.044   3.304   1.343
 5720SOL     OW18058   2.294   5.661   5.736
 5720SOL    HW118059   2.264   5.737   5.793
 5720SOL    HW218060   2.389   5.677   5.706
 5721SOL     OW18061   5.279   4.062   6.844
 5721SOL    HW118062   5.235   4.114   6.918
 5721SOL    HW218063   5.263   4.108   6.757
 5722SOL     OW18064   0.531   1.076   5.282
 5722SOL    HW118065   0.605   1.067   5.348
 5722SOL    HW218066   0.450   1.029   5.315
 5723SOL     OW18067   4.064   3.515   0.044
 5723SOL    HW118068   4.055   3.472   6.973
 5723SOL    HW218069   4.156   3.553   0.054
 5724SOL     OW18070   5.574   2.539   2.836
 5724SOL    HW118071   5.477   2.557   2.823
 5724SOL    HW218072   5.590   2.502   2.928
 5725SOL     OW18073   5.155   4.810   3.056
 5725SOL    HW118074   5.154   4.893   3.111
 5725SOL    HW218075   5.062   4.772   3.051
 5726SOL     OW18076   4.841   3.881   3.062
 5726SOL    HW118077   4.786   3.954   3.021
 5726SOL    HW218078   4.844   3.894   3.161
 5727SOL     OW18079   1.155   2.532   4.284
 5727SOL    HW118080   1.131   2.629   4.280
 5727SOL    HW218081   1.248   2.520   4.252
 5728SOL     OW18082   4.507   5.805   5.247
 5728SOL    HW118083   4.516   5.903   5.260
 5728SOL    HW218084   4.443   5.768   5.314
 5729SOL     OW18085   2.268   2.413   6.306
 5729SOL    HW118086   2.365   2.420   6.326
 5729SOL    HW218087   2.235   2.499   6.268
 5730SOL     OW18088   6.954   4.110   5.628
 5730SOL    HW118089   7.003   4.181   5.577
 5730SOL    HW218090   6.968   4.124   5.726
 5731SOL     OW18091   0.044   6.685   1.628
 5731SOL    HW118092   7.016   6.669   1.715
 5731SOL    HW218093   0.119   6.620   1.619
 5732SOL     OW18094   1.403   6.510   4.590
 5732SOL    HW118095   1.373   6.598   4.624
 5732SOL    HW218096   1.359   6.490   4.503
 5733SOL     OW18097   3.755   6.877   4.938
 5733SOL    HW118098   3.659   6.896   4.920
 5733SOL    HW218099   3.788   6.807   4.875
 5734SOL     OW18100   1.468   6.496   3.316
 5734SOL    HW118101   1.370   6.480   3.308
 5734SOL    HW218102   1.484   6.583   3.363
 5735SOL     OW18103   3.285   1.153   1.291
 5735SOL    HW118104   3.188   1.160   1.317
 5735SOL    HW218105   3.342   1.176   1.370
 5736SOL     OW18106   0.973   5.670   6.445
 5736SOL    HW118107   0.982   5.572   6.426
 5736SOL    HW218108   0.892   5.706   6.398
 5737SOL     OW18109   4.860   4.709   6.592
 5737SOL    HW118110   4.954   4.723   6.623
 5737SOL    HW218111   4.841   4.771   6.516
 5738SOL     OW18112   1.656   3.555   6.731
 5738SOL    HW118113   1.589   3.527   6.800
 5738SOL    HW218114   1.617   3.626   6.674
 5739SOL     OW18115   1.842   0.976   0.512
 5739SOL    HW118116   1.785   0.960   0.431
 5739SOL    HW218117   1.798   0.936   0.592
 5740SOL     OW18118   4.137   5.655   6.765
 5740SOL    HW118119   4.044   5.643   6.729
 5740SOL    HW218120   4.180   5.734   6.722
 5741SOL     OW18121   6.777   5.657   4.692
 5741SOL    HW118122   6.811   5.565   4.709
 5741SOL    HW218123   6.819   5.721   4.755
 5742SOL     OW18124   6.321   6.822   2.581
 5742SOL    HW118125   6.268   6.738   2.591
 5742SOL    HW218126   6.303   6.863   2.492
 5743SOL     OW18127   2.269   6.861   4.530
 5743SOL    HW118128   2.246   6.881   4.625
 5743SOL    HW218129   2.228   6.773   4.504
 5744SOL     OW18130   5.766   0.546   6.951
 5744SOL    HW118131   5.862   0.540   6.926
 5744SOL    HW218132   5.721   0.458   6.934
 5745SOL     OW18133   2.002   2.252   4.667
 5745SOL    HW118134   1.910   2.213   4.668
 5745SOL    HW218135   2.049   2.231   4.753
 5746SOL     OW18136   4.549   2.089   0.062
 5746SOL    HW118137   4.567   1.991   0.054
 5746SOL    HW218138   4.452   2.104   0.079
 5747SOL     OW18139   0.420   5.455   3.188
 5747SOL    HW118140   0.388   5.547   3.165
 5747SOL    HW218141   0.429   5.447   3.287
 5748SOL     OW18142   1.960   5.916   2.109
 5748SOL    HW118143   1.910   5.999   2.134
 5748SOL    HW218144   1.902   5.857   2.054
 5749SOL     OW18145   2.344   2.543   3.284
 5749SOL    HW118146   2.293   2.518   3.367
 5749SOL    HW218147   2.282   2.540   3.206
 5750SOL     OW18148   5.885   5.486   3.442
 5750SOL    HW118149   5.961   5.422   3.428
 5750SOL    HW218150   5.800   5.444   3.408
 5751SOL     OW18151   2.448   3.385   5.589
 5751SOL    HW118152   2.374   3.340   5.639
 5751SOL    HW218153   2.458   3.343   5.499
 5752SOL     OW18154   6.932   6.978   6.551
 5752SOL    HW118155   6.908   7.018   6.463
 5752SOL    HW218156   7.008   0.009   6.591
 5753SOL     OW18157   3.457   2.712   0.145
 5753SOL    HW118158   3.480   2.668   0.232
 5753SOL    HW218159   3.504   2.800   0.139
 5754SOL     OW18160   6.187   5.359   1.507
 5754SOL    HW118161   6.252   5.429   1.477
 5754SOL    HW218162   6.164   5.374   1.603
 5755SOL     OW18163   2.948   4.139   6.852
 5755SOL    HW118164   2.890   4.153   6.933
 5755SOL    HW218165   2.997   4.223   6.831
 5756SOL     OW18166   6.636   5.076   3.697
 5756SOL    HW118167   6.593   5.159   3.663
 5756SOL    HW218168   6.595   5.051   3.785
 5757SOL     OW18169   6.625   5.072   0.810
 5757SOL    HW118170   6.539   5.102   0.850
 5757SOL    HW218171   6.630   5.102   0.715
 5758SOL     OW18172   1.792   2.822   5.323
 5758SOL    HW118173   1.878   2.771   5.325
 5758SOL    HW218174   1.731   2.783   5.255
 5759SOL     OW18175   5.230   1.691   6.698
 5759SOL    HW118176   5.142   1.657   6.664
 5759SOL    HW218177   5.273   1.747   6.627
 5760SOL     OW18178   1.564   5.457   2.519
 5760SOL    HW118179   1.631   5.410   2.577
 5760SOL    HW218180   1.608   5.488   2.435
 5761SOL     OW18181   4.655   6.888   4.491
 5761SOL    HW118182   4.724   6.817   4.508
 5761SOL    HW218183   4.571   6.844   4.457
 5762SOL     OW18184   5.708   6.260   1.653
 5762SOL    HW118185   5.646   6.338   1.666
 5762SOL    HW218186   5.696   6.223   1.561
 5763SOL     OW18187   1.557   0.665   1.125
 5763SOL    HW118188   1.513   0.596   1.068
 5763SOL    HW218189   1.528   0.756   1.095
 5764SOL     OW18190   5.166   3.821   5.743
 5764SOL    HW118191   5.154   3.774   5.830
 5764SOL    HW218192   5.081   3.866   5.717
 5765SOL     OW18193   5.544   4.149   6.576
 5765SOL    HW118194   5.560   4.116   6.669
 5765SOL    HW218195   5.616   4.113   6.516
 5766SOL     OW18196   2.929   2.213   2.723
 5766SOL    HW118197   2.867   2.214   2.644
 5766SOL    HW218198   2.956   2.119   2.744
 5767SOL     OW18199   0.128   0.201   1.308
 5767SOL    HW118200   0.216   0.229   1.269
 5767SOL    HW218201   0.141   0.169   1.402
 5768SOL     OW18202   6.820   1.926   2.790
 5768SOL    HW118203   6.865   1.957   2.874
 5768SOL    HW218204   6.725   1.902   2.809
 5769SOL     OW18205   2.397   5.857   4.214
 5769SOL    HW118206   2.334   5.924   4.176
 5769SOL    HW218207   2.449   5.899   4.288
 5770SOL     OW18208   6.395   0.318   1.517
 5770SOL    HW118209   6.443   0.230   1.522
 5770SOL    HW218210   6.313   0.314   1.574
 5771SOL     OW18211   1.513   1.192   1.057
 5771SOL    HW118212   1.481   1.286   1.069
 5771SOL    HW218213   1.567   1.165   1.136
 5772SOL     OW18214   5.166   3.447   0.212
 5772SOL    HW118215   5.146   3.406   0.123
 5772SOL    HW218216   5.206   3.377   0.272
 5773SOL     OW18217   5.489   5.915   4.850
 5773SOL    HW118218   5.451   5.993   4.802
 5773SOL    HW218219   5.428   5.888   4.924
 5774SOL     OW18220   1.848   5.637   3.676
 5774SOL    HW118221   1.754   5.648   3.645
 5774SOL    HW218222   1.899   5.722   3.663
 5775SOL     OW18223   0.418   6.764   5.755
 5775SOL    HW118224   0.514   6.793   5.764
 5775SOL    HW218225   0.359   6.844   5.754
 5776SOL     OW18226   4.668   6.539   5.903
 5776SOL    HW118227   4.662   6.602   5.825
 5776SOL    HW218228   4.765   6.523   5.924
 5777SOL     OW18229   0.063   1.017   4.578
 5777SOL    HW118230   0.017   1.073   4.508
 5777SOL    HW218231   0.074   1.071   4.661
 5778SOL     OW18232   1.259   6.927   3.475
 5778SOL    HW118233   1.203   6.886   3.548
 5778SOL    HW218234   1.336   6.866   3.454
 5779SOL     OW18235   3.860   1.178   2.229
 5779SOL    HW118236   3.883   1.213   2.320
 5779SOL    HW218237   3.763   1.154   2.226
 5780SOL     OW18238   6.518   4.060   1.847
 5780SOL    HW118239   6.608   4.077   1.808
 5780SOL    HW218240   6.448   4.066   1.776
 5781SOL     OW18241   1.895   5.426   4.767
 5781SOL    HW118242   1.918   5.360   4.838
 5781SOL    HW218243   1.914   5.519   4.800
 5782SOL     OW18244   2.934   1.387   2.501
 5782SOL    HW118245   2.908   1.355   2.592
 5782SOL    HW218246   3.003   1.326   2.462
 5783SOL     OW18247   1.248   0.557   1.358
 5783SOL    HW118248   1.281   0.479   1.412
 5783SOL    HW218249   1.273   0.544   1.262
 5784SOL     OW18250   1.024   6.493   0.556
 5784SOL    HW118251   1.104   6.460   0.604
 5784SOL    HW218252   1.046   6.578   0.508
 5785SOL     OW18253   1.597   2.030   0.110
 5785SOL    HW118254   1.650   1.980   0.042
 5785SOL    HW218255   1.576   2.121   0.075
 5786SOL     OW18256   1.535   3.366   1.695
 5786SOL    HW118257   1.534   3.433   1.769
 5786SOL    HW218258   1.442   3.351   1.662
 5787SOL     OW18259   6.159   2.876   4.713
 5787SOL    HW118260   6.193   2.924   4.633
 5787SOL    HW218261   6.177   2.930   4.795
 5788SOL     OW18262   2.849   1.558   2.293
 5788SOL    HW118263   2.843   1.654   2.321
 5788SOL    HW218264   2.897   1.505   2.363
 5789SOL     OW18265   4.251   4.044   6.559
 5789SOL    HW118266   4.180   3.998   6.611
 5789SOL    HW218267   4.235   4.032   6.461
 5790SOL     OW18268   5.487   5.533   4.519
 5790SOL    HW118269   5.540   5.603   4.566
 5790SOL    HW218270   5.462   5.565   4.428
 5791SOL     OW18271   4.036   1.386   2.958
 5791SOL    HW118272   4.071   1.434   2.877
 5791SOL    HW218273   4.050   1.443   3.039
 5792SOL     OW18274   4.885   2.972   2.741
 5792SOL    HW118275   4.804   2.917   2.765
 5792SOL    HW218276   4.907   2.956   2.645
 5793SOL     OW18277   5.077   2.019   5.760
 5793SOL    HW118278   5.070   1.952   5.835
 5793SOL    HW218279   5.103   1.972   5.676
 5794SOL     OW18280   4.583   0.640   0.109
 5794SOL    HW118281   4.560   0.627   0.012
 5794SOL    HW218282   4.500   0.663   0.160
 5795SOL     OW18283   1.413   5.993   1.595
 5795SOL    HW118284   1.383   6.035   1.510
 5795SOL    HW218285   1.405   5.893   1.587
 5796SOL     OW18286   4.323   2.456   6.539
 5796SOL    HW118287   4.338   2.367   6.496
 5796SOL    HW218288   4.377   2.525   6.491
 5797SOL     OW18289   4.820   2.473   0.637
 5797SOL    HW118290   4.811   2.377   0.613
 5797SOL    HW218291   4.802   2.485   0.734
 5798SOL     OW18292   1.539   3.749   5.478
 5798SOL    HW118293   1.591   3.830   5.451
 5798SOL    HW218294   1.447   3.777   5.508
 5799SOL     OW18295   2.183   6.807   3.618
 5799SOL    HW118296   2.126   6.734   3.655
 5799SOL    HW218297   2.158   6.894   3.662
 5800SOL     OW18298   0.935   6.914   0.697
 5800SOL    HW118299   0.847   6.922   0.651
 5800SOL    HW218300   0.955   6.818   0.716
 5801SOL     OW18301   1.926   1.544   2.884
 5801SOL    HW118302   1.870   1.552   2.967
 5801SOL    HW218303   1.884   1.598   2.811
 5802SOL     OW18304   0.282   1.536   1.916
 5802SOL    HW118305   0.212   1.558   1.848
 5802SOL    HW218306   0.339   1.617   1.932
 5803SOL     OW18307   0.256   5.352   4.026
 5803SOL    HW118308   0.263   5.439   3.977
 5803SOL    HW218309   0.170   5.350   4.078
 5804SOL     OW18310   6.156   1.493   3.722
 5804SOL    HW118311   6.144   1.442   3.807
 5804SOL    HW218312   6.252   1.522   3.714
 5805SOL     OW18313   2.383   2.555   1.837
 5805SOL    HW118314   2.455   2.611   1.878
 5805SOL    HW218315   2.322   2.522   1.909
 5806SOL     OW18316   0.336   4.001   2.363
 5806SOL    HW118317   0.349   4.068   2.290
 5806SOL    HW218318   0.415   4.003   2.425
 5807SOL     OW18319   0.830   0.147   0.726
 5807SOL    HW118320   0.896   0.072   0.728
 5807SOL    HW218321   0.813   0.179   0.819
 5808SOL     OW18322   6.525   0.124   5.275
 5808SOL    HW118323   6.480   0.173   5.351
 5808SOL    HW218324   6.462   0.119   5.197
 5809SOL     OW18325   0.518   2.606   5.611
 5809SOL    HW118326   0.617   2.619   5.617
 5809SOL    HW218327   0.483   2.647   5.527
 5810SOL     OW18328   3.994   6.711   5.325
 5810SOL    HW118329   4.003   6.802   5.365
 5810SOL    HW218330   3.916   6.710   5.262
 5811SOL     OW18331   3.008   3.764   5.968
 5811SOL    HW118332   2.967   3.723   5.886
 5811SOL    HW218333   2.988   3.707   6.048
 5812SOL     OW18334   5.693   2.605   0.479
 5812SOL    HW118335   5.607   2.587   0.431
 5812SOL    HW218336   5.731   2.692   0.448
 5813SOL     OW18337   5.208   6.606   0.982
 5813SOL    HW118338   5.288   6.588   0.925
 5813SOL    HW218339   5.202   6.536   1.054
 5814SOL     OW18340   4.903   1.850   1.642
 5814SOL    HW118341   4.940   1.802   1.722
 5814SOL    HW218342   4.815   1.891   1.666
 5815SOL     OW18343   6.170   1.620   4.353
 5815SOL    HW118344   6.114   1.695   4.389
 5815SOL    HW218345   6.152   1.537   4.405
 5816SOL     OW18346   0.460   3.733   2.694
 5816SOL    HW118347   0.379   3.681   2.722
 5816SOL    HW218348   0.504   3.687   2.617
 5817SOL     OW18349   5.950   3.691   3.406
 5817SOL    HW118350   6.026   3.704   3.343
 5817SOL    HW218351   5.900   3.607   3.383
 5818SOL     OW18352   2.362   6.700   5.533
 5818SOL    HW118353   2.309   6.764   5.589
 5818SOL    HW218354   2.425   6.751   5.475
 5819SOL     OW18355   4.516   5.222   0.270
 5819SOL    HW118356   4.514   5.134   0.317
 5819SOL    HW218357   4.529   5.206   0.172
 5820SOL     OW18358   6.132   5.480   2.442
 5820SOL    HW118359   6.121   5.456   2.346
 5820SOL    HW218360   6.057   5.441   2.496
 5821SOL     OW18361   6.911   0.612   1.258
 5821SOL    HW118362   6.858   0.639   1.177
 5821SOL    HW218363   6.862   0.540   1.307
 5822SOL     OW18364   1.815   2.971   2.428
 5822SOL    HW118365   1.741   2.924   2.477
 5822SOL    HW218366   1.898   2.968   2.483
 5823SOL     OW18367   2.084   5.777   4.361
 5823SOL    HW118368   2.005   5.777   4.300
 5823SOL    HW218369   2.134   5.691   4.352
 5824SOL     OW18370   0.757   0.316   2.002
 5824SOL    HW118371   0.857   0.311   2.013
 5824SOL    HW218372   0.728   0.244   1.939
 5825SOL     OW18373   5.900   0.172   4.300
 5825SOL    HW118374   5.840   0.097   4.270
 5825SOL    HW218375   5.994   0.151   4.275
 5826SOL     OW18376   0.628   0.255   4.617
 5826SOL    HW118377   0.570   0.297   4.686
 5826SOL    HW218378   0.596   0.283   4.526
 5827SOL     OW18379   2.473   4.609   4.799
 5827SOL    HW118380   2.441   4.542   4.732
 5827SOL    HW218381   2.396   4.642   4.852
 5828SOL     OW18382   4.125   6.822   4.324
 5828SOL    HW118383   4.115   6.728   4.293
 5828SOL    HW218384   4.092   6.885   4.254
 5829SOL     OW18385   2.366   1.318   3.955
 5829SOL    HW118386   2.455   1.350   3.988
 5829SOL    HW218387   2.351   1.225   3.988
 5830SOL     OW18388   3.584   5.383   4.495
 5830SOL    HW118389   3.506   5.333   4.457
 5830SOL    HW218390   3.652   5.318   4.528
 5831SOL     OW18391   1.489   2.226   5.536
 5831SOL    HW118392   1.546   2.303   5.564
 5831SOL    HW218393   1.546   2.147   5.514
 5832SOL     OW18394   2.872   4.793   1.035
 5832SOL    HW118395   2.870   4.887   1.070
 5832SOL    HW218396   2.784   4.749   1.054
 5833SOL     OW18397   3.861   4.118   6.469
 5833SOL    HW118398   3.790   4.061   6.510
 5833SOL    HW218399   3.819   4.202   6.433
 5834SOL     OW18400   5.564   2.953   6.114
 5834SOL    HW118401   5.624   2.873   6.107
 5834SOL    HW218402   5.508   2.946   6.196
 5835SOL     OW18403   5.432   0.877   1.919
 5835SOL    HW118404   5.512   0.878   1.859
 5835SOL    HW218405   5.424   0.966   1.965
 5836SOL     OW18406   4.727   0.172   2.850
 5836SOL    HW118407   4.640   0.178   2.898
 5836SOL    HW218408   4.802   0.184   2.916
 5837SOL     OW18409   3.220   4.798   0.230
 5837SOL    HW118410   3.275   4.717   0.211
 5837SOL    HW218411   3.159   4.780   0.307
 5838SOL     OW18412   2.902   2.108   0.780
 5838SOL    HW118413   2.834   2.034   0.787
 5838SOL    HW218414   2.976   2.091   0.844
 5839SOL     OW18415   2.015   1.699   0.873
 5839SOL    HW118416   1.990   1.767   0.943
 5839SOL    HW218417   2.114   1.691   0.868
 5840SOL     OW18418   1.182   3.167   3.064
 5840SOL    HW118419   1.133   3.080   3.070
 5840SOL    HW218420   1.247   3.174   3.139
 5841SOL     OW18421   5.074   2.562   0.607
 5841SOL    HW118422   5.086   2.627   0.682
 5841SOL    HW218423   4.977   2.539   0.598
 5842SOL     OW18424   2.440   1.911   0.842
 5842SOL    HW118425   2.358   1.864   0.875
 5842SOL    HW218426   2.457   1.886   0.747
 5843SOL     OW18427   1.978   3.433   1.612
 5843SOL    HW118428   2.002   3.494   1.537
 5843SOL    HW218429   1.885   3.399   1.600
 5844SOL     OW18430   0.539   6.969   5.373
 5844SOL    HW118431   0.465   0.002   5.415
 5844SOL    HW218432   0.592   6.923   5.444
 5845SOL     OW18433   1.082   6.834   1.903
 5845SOL    HW118434   1.178   6.839   1.931
 5845SOL    HW218435   1.057   6.738   1.889
 5846SOL     OW18436   6.748   3.940   5.590
 5846SOL    HW118437   6.763   3.871   5.520
 5846SOL    HW218438   6.833   3.990   5.607
 5847SOL     OW18439   2.584   3.504   0.871
 5847SOL    HW118440   2.649   3.559   0.923
 5847SOL    HW218441   2.509   3.475   0.930
 5848SOL     OW18442   2.198   4.984   2.555
 5848SOL    HW118443   2.166   4.935   2.474
 5848SOL    HW218444   2.290   4.955   2.577
 5849SOL     OW18445   3.432   5.653   5.758
 5849SOL    HW118446   3.392   5.745   5.759
 5849SOL    HW218447   3.370   5.590   5.805
 5850SOL     OW18448   1.288   1.439   2.143
 5850SOL    HW118449   1.342   1.491   2.077
 5850SOL    HW218450   1.319   1.460   2.235
 5851SOL     OW18451   5.967   4.226   4.775
 5851SOL    HW118452   5.894   4.167   4.807
 5851SOL    HW218453   5.940   4.270   4.689
 5852SOL     OW18454   4.647   4.389   2.494
 5852SOL    HW118455   4.574   4.364   2.430
 5852SOL    HW218456   4.672   4.485   2.479
 5853SOL     OW18457   3.639   4.673   5.363
 5853SOL    HW118458   3.557   4.681   5.420
 5853SOL    HW218459   3.696   4.598   5.397
 5854SOL     OW18460   2.826   4.934   5.557
 5854SOL    HW118461   2.751   4.999   5.563
 5854SOL    HW218462   2.815   4.864   5.627
 5855SOL     OW18463   2.073   3.454   3.521
 5855SOL    HW118464   2.118   3.371   3.490
 5855SOL    HW218465   1.984   3.462   3.477
 5856SOL     OW18466   1.464   6.746   3.482
 5856SOL    HW118467   1.468   6.734   3.582
 5856SOL    HW218468   1.540   6.804   3.453
 5857SOL     OW18469   6.899   4.287   6.349
 5857SOL    HW118470   6.915   4.383   6.372
 5857SOL    HW218471   6.891   4.234   6.433
 5858SOL     OW18472   1.979   0.619   3.698
 5858SOL    HW118473   1.909   0.600   3.630
 5858SOL    HW218474   1.947   0.590   3.788
 5859SOL     OW18475   6.052   0.454   1.884
 5859SOL    HW118476   6.114   0.476   1.960
 5859SOL    HW218477   6.019   0.360   1.894
 5860SOL     OW18478   0.229   3.955   3.588
 5860SOL    HW118479   0.206   3.950   3.685
 5860SOL    HW218480   0.144   3.960   3.535
 5861SOL     OW18481   5.247   0.587   5.552
 5861SOL    HW118482   5.167   0.638   5.581
 5861SOL    HW218483   5.285   0.628   5.469
 5862SOL     OW18484   6.965   5.424   2.853
 5862SOL    HW118485   0.008   5.422   2.775
 5862SOL    HW218486   6.877   5.463   2.825
 5863SOL     OW18487   3.986   0.500   5.412
 5863SOL    HW118488   4.017   0.454   5.495
 5863SOL    HW218489   3.904   0.553   5.432
 5864SOL     OW18490   3.178   4.052   2.232
 5864SOL    HW118491   3.247   4.120   2.207
 5864SOL    HW218492   3.098   4.098   2.271
 5865SOL     OW18493   6.080   1.011   5.778
 5865SOL    HW118494   6.103   0.914   5.767
 5865SOL    HW218495   6.014   1.021   5.853
 5866SOL     OW18496   3.611   2.985   3.162
 5866SOL    HW118497   3.603   2.941   3.252
 5866SOL    HW218498   3.522   3.021   3.134
 5867SOL     OW18499   3.512   2.042   2.172
 5867SOL    HW118500   3.433   2.011   2.118
 5867SOL    HW218501   3.566   2.107   2.118
 5868SOL     OW18502   1.654   1.218   5.967
 5868SOL    HW118503   1.609   1.233   6.055
 5868SOL    HW218504   1.650   1.121   5.944
 5869SOL     OW18505   0.901   6.151   4.131
 5869SOL    HW118506   0.955   6.220   4.179
 5869SOL    HW218507   0.899   6.174   4.033
 5870SOL     OW18508   4.280   4.788   4.516
 5870SOL    HW118509   4.366   4.829   4.485
 5870SOL    HW218510   4.221   4.773   4.437
 5871SOL     OW18511   3.164   3.535   3.736
 5871SOL    HW118512   3.101   3.520   3.661
 5871SOL    HW218513   3.115   3.575   3.814
 5872SOL     OW18514   4.217   5.917   1.959
 5872SOL    HW118515   4.302   5.900   1.909
 5872SOL    HW218516   4.154   5.841   1.945
 5873SOL     OW18517   3.747   5.072   1.924
 5873SOL    HW118518   3.790   5.132   1.857
 5873SOL    HW218519   3.659   5.110   1.951
 5874SOL     OW18520   3.144   4.623   5.539
 5874SOL    HW118521   3.067   4.667   5.493
 5874SOL    HW218522   3.144   4.648   5.636
 5875SOL     OW18523   2.938   1.276   0.687
 5875SOL    HW118524   2.846   1.238   0.682
 5875SOL    HW218525   3.004   1.209   0.654
 5876SOL     OW18526   3.425   3.479   1.958
 5876SOL    HW118527   3.454   3.384   1.955
 5876SOL    HW218528   3.407   3.512   1.865
 5877SOL     OW18529   5.651   4.621   6.953
 5877SOL    HW118530   5.632   4.650   0.027
 5877SOL    HW218531   5.683   4.526   6.954
 5878SOL     OW18532   2.492   4.546   2.260
 5878SOL    HW118533   2.558   4.596   2.317
 5878SOL    HW218534   2.494   4.583   2.167
 5879SOL     OW18535   6.964   4.078   5.896
 5879SOL    HW118536   7.004   4.157   5.944
 5879SOL    HW218537   6.871   4.064   5.930
 5880SOL     OW18538   2.107   6.340   1.065
 5880SOL    HW118539   2.195   6.345   1.112
 5880SOL    HW218540   2.033   6.334   1.132
 5881SOL     OW18541   0.017   5.472   3.860
 5881SOL    HW118542   0.089   5.541   3.853
 5881SOL    HW218543   7.016   5.455   3.957
 5882SOL     OW18544   5.004   0.892   1.424
 5882SOL    HW118545   5.027   0.946   1.344
 5882SOL    HW218546   4.905   0.897   1.440
 5883SOL     OW18547   0.043   3.611   5.477
 5883SOL    HW118548   0.001   3.581   5.562
 5883SOL    HW218549   0.045   3.534   5.412
 5884SOL     OW18550   0.780   1.024   2.896
 5884SOL    HW118551   0.849   1.047   2.828
 5884SOL    HW218552   0.817   0.954   2.958
 5885SOL     OW18553   6.195   6.244   1.296
 5885SOL    HW118554   6.261   6.183   1.253
 5885SOL    HW218555   6.212   6.246   1.395
 5886SOL     OW18556   1.042   1.865   5.735
 5886SOL    HW118557   1.037   1.773   5.774
 5886SOL    HW218558   1.035   1.860   5.636
 5887SOL     OW18559   3.833   0.130   4.794
 5887SOL    HW118560   3.852   0.039   4.758
 5887SOL    HW218561   3.860   0.136   4.890
 5888SOL     OW18562   2.325   0.185   3.570
 5888SOL    HW118563   2.406   0.165   3.516
 5888SOL    HW218564   2.304   0.108   3.630
 5889SOL     OW18565   2.663   0.854   0.939
 5889SOL    HW118566   2.672   0.898   1.029
 5889SOL    HW218567   2.578   0.884   0.896
 5890SOL     OW18568   2.615   5.128   5.901
 5890SOL    HW118569   2.678   5.154   5.828
 5890SOL    HW218570   2.533   5.185   5.896
 5891SOL     OW18571   3.364   3.345   0.173
 5891SOL    HW118572   3.394   3.411   0.104
 5891SOL    HW218573   3.403   3.371   0.262
 5892SOL     OW18574   0.451   6.959   1.336
 5892SOL    HW118575   0.536   6.935   1.290
 5892SOL    HW218576   0.414   6.878   1.382
 5893SOL     OW18577   0.895   1.597   4.003
 5893SOL    HW118578   0.876   1.503   3.976
 5893SOL    HW218579   0.983   1.602   4.050
 5894SOL     OW18580   0.936   3.421   3.132
 5894SOL    HW118581   0.905   3.368   3.053
 5894SOL    HW218582   0.894   3.512   3.129
 5895SOL     OW18583   5.759   3.840   3.787
 5895SOL    HW118584   5.808   3.764   3.744
 5895SOL    HW218585   5.684   3.869   3.728
 5896SOL     OW18586   3.451   2.415   6.702
 5896SOL    HW118587   3.456   2.427   6.603
 5896SOL    HW218588   3.528   2.463   6.745
 5897SOL     OW18589   3.808   7.019   1.366
 5897SOL    HW118590   3.755   6.951   1.416
 5897SOL    HW218591   3.745   0.064   1.322
 5898SOL     OW18592   1.943   0.375   2.419
 5898SOL    HW118593   1.879   0.334   2.354
 5898SOL    HW218594   2.030   0.392   2.374
 5899SOL     OW18595   5.822   6.903   4.523
 5899SOL    HW118596   5.736   6.910   4.574
 5899SOL    HW218597   5.802   6.894   4.425
 5900SOL     OW18598   4.987   4.797   2.741
 5900SOL    HW118599   4.942   4.782   2.829
 5900SOL    HW218600   4.970   4.719   2.681
 5901SOL     OW18601   3.013   6.448   6.020
 5901SOL    HW118602   2.984   6.431   6.114
 5901SOL    HW218603   3.112   6.459   6.016
 5902SOL     OW18604   6.575   2.195   6.672
 5902SOL    HW118605   6.553   2.272   6.732
 5902SOL    HW218606   6.668   2.205   6.637
 5903SOL     OW18607   6.148   3.407   6.672
 5903SOL    HW118608   6.236   3.441   6.640
 5903SOL    HW218609   6.134   3.434   6.767
 5904SOL     OW18610   6.977   3.433   2.179
 5904SOL    HW118611   6.969   3.341   2.216
 5904SOL    HW218612   6.897   3.487   2.206
 5905SOL     OW18613   6.876   6.015   2.441
 5905SOL    HW118614   6.969   5.979   2.436
 5905SOL    HW218615   6.860   6.053   2.533
 5906SOL     OW18616   5.476   1.120   3.786
 5906SOL    HW118617   5.566   1.164   3.779
 5906SOL    HW218618   5.434   1.117   3.696
 5907SOL     OW18619   1.034   5.948   2.013
 5907SOL    HW118620   1.024   5.848   2.017
 5907SOL    HW218621   1.003   5.987   2.100
 5908SOL     OW18622   0.114   2.761   5.256
 5908SOL    HW118623   0.030   2.774   5.203
 5908SOL    HW218624   0.134   2.664   5.266
 5909SOL     OW18625   0.378   5.972   0.852
 5909SOL    HW118626   0.441   5.985   0.775
 5909SOL    HW218627   0.380   5.877   0.882
 5910SOL     OW18628   1.968   2.616   3.076
 5910SOL    HW118629   1.976   2.671   3.160
 5910SOL    HW218630   2.053   2.625   3.024
 5911SOL     OW18631   6.852   5.903   6.198
 5911SOL    HW118632   6.921   5.841   6.161
 5911SOL    HW218633   6.864   5.994   6.159
 5912SOL     OW18634   6.604   1.339   4.207
 5912SOL    HW118635   6.536   1.407   4.234
 5912SOL    HW218636   6.687   1.386   4.176
 5913SOL     OW18637   5.398   2.423   0.072
 5913SOL    HW118638   5.413   2.329   0.041
 5913SOL    HW218639   5.322   2.425   0.137
 5914SOL     OW18640   0.410   6.135   6.915
 5914SOL    HW118641   0.358   6.167   6.995
 5914SOL    HW218642   0.454   6.213   6.871
 5915SOL     OW18643   4.403   0.590   6.020
 5915SOL    HW118644   4.325   0.630   6.069
 5915SOL    HW218645   4.467   0.662   5.995
 5916SOL     OW18646   1.259   6.692   2.575
 5916SOL    HW118647   1.266   6.682   2.674
 5916SOL    HW218648   1.344   6.663   2.532
 5917SOL     OW18649   3.163   4.526   6.863
 5917SOL    HW118650   3.139   4.443   6.914
 5917SOL    HW218651   3.260   4.548   6.879
 5918SOL     OW18652   2.975   6.417   6.289
 5918SOL    HW118653   3.034   6.464   6.355
 5918SOL    HW218654   2.879   6.433   6.312
 5919SOL     OW18655   3.599   2.960   3.488
 5919SOL    HW118656   3.566   3.054   3.492
 5919SOL    HW218657   3.533   2.900   3.532
 5920SOL     OW18658   6.817   0.469   6.069
 5920SOL    HW118659   6.859   0.545   6.119
 5920SOL    HW218660   6.738   0.436   6.119
 5921SOL     OW18661   3.109   4.738   6.487
 5921SOL    HW118662   3.048   4.722   6.564
 5921SOL    HW218663   3.154   4.827   6.497
 5922SOL     OW18664   5.374   3.489   3.164
 5922SOL    HW118665   5.310   3.515   3.237
 5922SOL    HW218666   5.324   3.482   3.078
 5923SOL     OW18667   0.082   1.197   1.666
 5923SOL    HW118668   0.151   1.182   1.595
 5923SOL    HW218669   0.052   1.108   1.701
 5924SOL     OW18670   6.292   0.453   3.162
 5924SOL    HW118671   6.296   0.410   3.072
 5924SOL    HW218672   6.279   0.383   3.232
 5925SOL     OW18673   4.640   5.936   1.233
 5925SOL    HW118674   4.702   5.986   1.294
 5925SOL    HW218675   4.691   5.909   1.151
 5926SOL     OW18676   3.736   4.894   3.061
 5926SOL    HW118677   3.804   4.955   3.101
 5926SOL    HW218678   3.674   4.861   3.132
 5927SOL     OW18679   0.952   4.566   2.277
 5927SOL    HW118680   0.855   4.545   2.275
 5927SOL    HW218681   0.989   4.562   2.184
 5928SOL     OW18682   3.538   0.183   0.571
 5928SOL    HW118683   3.455   0.148   0.614
 5928SOL    HW218684   3.537   0.283   0.571
 5929SOL     OW18685   0.644   1.079   5.868
 5929SOL    HW118686   0.545   1.094   5.872
 5929SOL    HW218687   0.667   0.993   5.913
 5930SOL     OW18688   1.615   3.689   2.353
 5930SOL    HW118689   1.602   3.733   2.442
 5930SOL    HW218690   1.569   3.600   2.352
 5931SOL     OW18691   5.639   5.690   3.326
 5931SOL    HW118692   5.704   5.765   3.335
 5931SOL    HW218693   5.674   5.623   3.261
 5932SOL     OW18694   2.589   1.163   6.845
 5932SOL    HW118695   2.644   1.239   6.811
 5932SOL    HW218696   2.604   1.151   6.943
 5933SOL     OW18697   6.259   6.056   3.760
 5933SOL    HW118698   6.330   6.103   3.709
 5933SOL    HW218699   6.300   6.003   3.834
 5934SOL     OW18700   2.843   3.616   5.609
 5934SOL    HW118701   2.908   3.618   5.685
 5934SOL    HW218702   2.870   3.683   5.540
 5935SOL     OW18703   6.986   6.516   5.041
 5935SOL    HW118704   6.989   6.420   5.015
 5935SOL    HW218705   6.893   6.539   5.071
 5936SOL     OW18706   3.226   3.396   2.202
 5936SOL    HW118707   3.243   3.331   2.128
 5936SOL    HW218708   3.215   3.488   2.164
 5937SOL     OW18709   7.018   2.969   1.688
 5937SOL    HW118710   0.015   2.983   1.590
 5937SOL    HW218711   0.031   2.878   1.714
 5938SOL     OW18712   6.817   5.029   4.564
 5938SOL    HW118713   6.845   5.020   4.660
 5938SOL    HW218714   6.756   5.108   4.555
 5939SOL     OW18715   3.333   0.596   4.461
 5939SOL    HW118716   3.406   0.651   4.501
 5939SOL    HW218717   3.296   0.643   4.381
 5940SOL     OW18718   4.809   5.780   2.448
 5940SOL    HW118719   4.877   5.829   2.393
 5940SOL    HW218720   4.827   5.682   2.443
 5941SOL     OW18721   6.983   2.298   1.879
 5941SOL    HW118722   0.015   2.353   1.945
 5941SOL    HW218723   0.000   2.205   1.877
 5942SOL     OW18724   5.892   3.410   5.813
 5942SOL    HW118725   5.900   3.340   5.742
 5942SOL    HW218726   5.936   3.494   5.783
 5943SOL     OW18727   3.773   4.048   0.953
 5943SOL    HW118728   3.837   3.991   1.005
 5943SOL    HW218729   3.744   4.126   1.009
 5944SOL     OW18730   0.638   3.366   6.405
 5944SOL    HW118731   0.589   3.445   6.441
 5944SOL    HW218732   0.576   3.287   6.405
 5945SOL     OW18733   0.180   5.591   5.253
 5945SOL    HW118734   0.263   5.554   5.210
 5945SOL    HW218735   0.110   5.521   5.257
 5946SOL     OW18736   3.753   4.743   0.507
 5946SOL    HW118737   3.702   4.765   0.423
 5946SOL    HW218738   3.792   4.827   0.545
 5947SOL     OW18739   3.245   2.982   4.793
 5947SOL    HW118740   3.250   2.883   4.801
 5947SOL    HW218741   3.254   3.023   4.884
 5948SOL     OW18742   4.935   3.972   2.076
 5948SOL    HW118743   5.018   3.981   2.022
 5948SOL    HW218744   4.939   4.034   2.155
 5949SOL     OW18745   6.829   5.307   2.015
 5949SOL    HW118746   6.803   5.248   2.091
 5949SOL    HW218747   6.747   5.352   1.979
 5950SOL     OW18748   4.872   1.777   6.161
 5950SOL    HW118749   4.802   1.827   6.110
 5950SOL    HW218750   4.866   1.679   6.139
 5951SOL     OW18751   1.156   4.588   6.155
 5951SOL    HW118752   1.063   4.573   6.189
 5951SOL    HW218753   1.161   4.677   6.111
 5952SOL     OW18754   3.947   5.222   1.477
 5952SOL    HW118755   3.934   5.135   1.429
 5952SOL    HW218756   4.007   5.281   1.423
 5953SOL     OW18757   6.312   2.348   5.426
 5953SOL    HW118758   6.216   2.344   5.451
 5953SOL    HW218759   6.341   2.259   5.390
 5954SOL     OW18760   0.517   6.230   4.453
 5954SOL    HW118761   0.608   6.270   4.457
 5954SOL    HW218762   0.452   6.297   4.415
 5955SOL     OW18763   5.983   4.131   0.636
 5955SOL    HW118764   5.994   4.053   0.574
 5955SOL    HW218765   6.011   4.104   0.728
 5956SOL     OW18766   4.432   2.464   4.350
 5956SOL    HW118767   4.414   2.387   4.289
 5956SOL    HW218768   4.515   2.511   4.321
 5957SOL     OW18769   1.448   0.755   2.629
 5957SOL    HW118770   1.527   0.724   2.577
 5957SOL    HW218771   1.478   0.818   2.701
 5958SOL     OW18772   3.560   6.740   2.851
 5958SOL    HW118773   3.494   6.809   2.880
 5958SOL    HW218774   3.516   6.651   2.849
 5959SOL     OW18775   4.527   2.108   4.956
 5959SOL    HW118776   4.541   2.119   4.858
 5959SOL    HW218777   4.435   2.139   4.981
 5960SOL     OW18778   3.546   6.705   6.369
 5960SOL    HW118779   3.525   6.636   6.299
 5960SOL    HW218780   3.461   6.742   6.405
 5961SOL     OW18781   2.940   1.474   3.033
 5961SOL    HW118782   2.950   1.557   3.088
 5961SOL    HW218783   2.977   1.490   2.942
 5962SOL     OW18784   5.730   6.117   6.980
 5962SOL    HW118785   5.722   6.120   0.060
 5962SOL    HW218786   5.784   6.194   6.948
 5963SOL     OW18787   3.561   4.853   0.322
 5963SOL    HW118788   3.488   4.902   0.370
 5963SOL    HW218789   3.616   4.918   0.269
 5964SOL     OW18790   1.987   6.652   2.531
 5964SOL    HW118791   2.037   6.635   2.617
 5964SOL    HW218792   1.899   6.694   2.552
 5965SOL     OW18793   1.901   6.505   6.972
 5965SOL    HW118794   1.997   6.510   6.947
 5965SOL    HW218795   1.877   6.411   6.997
 5966SOL     OW18796   2.569   0.516   5.347
 5966SOL    HW118797   2.637   0.443   5.350
 5966SOL    HW218798   2.576   0.572   5.429
 5967SOL     OW18799   2.157   1.733   4.750
 5967SOL    HW118800   2.095   1.710   4.825
 5967SOL    HW218801   2.224   1.800   4.782
 5968SOL     OW18802   5.551   2.378   0.607
 5968SOL    HW118803   5.598   2.438   0.542
 5968SOL    HW218804   5.619   2.337   0.669
 5969SOL     OW18805   5.688   0.816   6.955
 5969SOL    HW118806   5.737   0.866   0.006
 5969SOL    HW218807   5.721   0.721   6.951
 5970SOL     OW18808   0.214   3.007   1.096
 5970SOL    HW118809   0.120   3.042   1.094
 5970SOL    HW218810   0.214   2.914   1.131
 5971SOL     OW18811   6.443   0.302   3.784
 5971SOL    HW118812   6.503   0.307   3.704
 5971SOL    HW218813   6.348   0.304   3.753
 5972SOL     OW18814   5.177   5.435   0.736
 5972SOL    HW118815   5.081   5.411   0.747
 5972SOL    HW218816   5.200   5.511   0.796
 5973SOL     OW18817   1.924   2.991   2.803
 5973SOL    HW118818   1.866   2.910   2.792
 5973SOL    HW218819   1.894   3.043   2.883
 5974SOL     OW18820   4.758   0.998   6.091
 5974SOL    HW118821   4.717   0.914   6.054
 5974SOL    HW218822   4.746   1.072   6.025
 5975SOL     OW18823   5.731   4.387   6.963
 5975SOL    HW118824   5.792   4.375   0.021
 5975SOL    HW218825   5.781   4.373   6.878
 5976SOL     OW18826   3.435   3.873   5.816
 5976SOL    HW118827   3.386   3.898   5.900
 5976SOL    HW218828   3.370   3.853   5.743
 5977SOL     OW18829   6.793   5.162   0.296
 5977SOL    HW118830   6.891   5.180   0.295
 5977SOL    HW218831   6.775   5.072   0.256
 5978SOL     OW18832   3.262   5.364   0.519
 5978SOL    HW118833   3.173   5.333   0.552
 5978SOL    HW218834   3.249   5.425   0.440
 5979SOL     OW18835   6.479   0.661   1.572
 5979SOL    HW118836   6.423   0.593   1.619
 5979SOL    HW218837   6.452   0.752   1.601
 5980SOL     OW18838   3.733   3.180   1.539
 5980SOL    HW118839   3.735   3.184   1.639
 5980SOL    HW218840   3.689   3.095   1.510
 5981SOL     OW18841   3.763   1.771   0.127
 5981SOL    HW118842   3.752   1.868   0.147
 5981SOL    HW218843   3.701   1.745   0.052
 5982SOL     OW18844   5.831   2.145   1.569
 5982SOL    HW118845   5.819   2.062   1.514
 5982SOL    HW218846   5.826   2.121   1.666
 5983SOL     OW18847   0.187   0.860   4.411
 5983SOL    HW118848   0.135   0.915   4.476
 5983SOL    HW218849   0.156   0.880   4.318
 5984SOL     OW18850   6.380   6.672   2.911
 5984SOL    HW118851   6.416   6.666   3.004
 5984SOL    HW218852   6.320   6.594   2.894
 5985SOL     OW18853   6.132   2.114   2.723
 5985SOL    HW118854   6.070   2.088   2.797
 5985SOL    HW218855   6.126   2.048   2.649
 5986SOL     OW18856   4.155   3.741   5.383
 5986SOL    HW118857   4.107   3.697   5.308
 5986SOL    HW218858   4.229   3.798   5.347
 5987SOL     OW18859   6.357   0.905   5.333
 5987SOL    HW118860   6.311   0.940   5.251
 5987SOL    HW218861   6.340   0.967   5.410
 5988SOL     OW18862   2.395   2.082   6.890
 5988SOL    HW118863   2.443   2.170   6.881
 5988SOL    HW218864   2.345   2.081   6.977
 5989SOL     OW18865   0.318   5.907   6.755
 5989SOL    HW118866   0.307   5.884   6.658
 5989SOL    HW218867   0.331   6.006   6.765
 5990SOL     OW18868   4.047   4.644   1.517
 5990SOL    HW118869   3.959   4.611   1.550
 5990SOL    HW218870   4.090   4.574   1.460
 5991SOL     OW18871   5.701   6.374   1.190
 5991SOL    HW118872   5.746   6.351   1.103
 5991SOL    HW218873   5.615   6.421   1.172
 5992SOL     OW18874   3.630   0.130   2.242
 5992SOL    HW118875   3.548   0.096   2.195
 5992SOL    HW218876   3.696   0.160   2.174
 5993SOL     OW18877   6.186   2.402   0.113
 5993SOL    HW118878   6.136   2.486   0.134
 5993SOL    HW218879   6.122   2.335   0.075
 5994SOL     OW18880   6.902   2.806   0.415
 5994SOL    HW118881   6.854   2.756   0.344
 5994SOL    HW218882   6.837   2.833   0.487
 5995SOL     OW18883   4.937   3.608   1.631
 5995SOL    HW118884   4.939   3.687   1.570
 5995SOL    HW218885   5.000   3.538   1.597
 5996SOL     OW18886   2.657   5.575   1.521
 5996SOL    HW118887   2.608   5.635   1.584
 5996SOL    HW218888   2.706   5.630   1.454
 5997SOL     OW18889   6.966   6.830   3.279
 5997SOL    HW118890   7.008   6.827   3.188
 5997SOL    HW218891   6.882   6.776   3.278
 5998SOL     OW18892   6.777   0.648   1.685
 5998SOL    HW118893   6.858   0.603   1.646
 5998SOL    HW218894   6.699   0.634   1.624
 5999SOL     OW18895   4.019   3.612   1.243
 5999SOL    HW118896   4.005   3.556   1.325
 5999SOL    HW218897   3.960   3.579   1.170
 6000SOL     OW18898   6.753   4.971   0.095
 6000SOL    HW118899   6.670   4.972   0.040
 6000SOL    HW218900   6.816   4.903   0.059
 6001SOL     OW18901   5.184   6.015   5.238
 6001SOL    HW118902   5.264   6.051   5.189
 6001SOL    HW218903   5.157   5.928   5.196
 6002SOL     OW18904   6.244   6.697   4.672
 6002SOL    HW118905   6.211   6.785   4.706
 6002SOL    HW218906   6.218   6.625   4.736
 6003SOL     OW18907   6.659   2.995   4.234
 6003SOL    HW118908   6.612   2.913   4.267
 6003SOL    HW218909   6.699   2.976   4.144
 6004SOL     OW18910   5.294   2.867   3.864
 6004SOL    HW118911   5.364   2.801   3.893
 6004SOL    HW218912   5.324   2.912   3.780
 6005SOL     OW18913   4.366   4.640   6.187
 6005SOL    HW118914   4.307   4.622   6.266
 6005SOL    HW218915   4.431   4.712   6.210
 6006SOL     OW18916   3.494   6.406   5.650
 6006SOL    HW118917   3.470   6.315   5.616
 6006SOL    HW218918   3.593   6.410   5.666
 6007SOL     OW18919   1.118   4.485   5.584
 6007SOL    HW118920   1.099   4.522   5.675
 6007SOL    HW218921   1.037   4.438   5.549
 6008SOL     OW18922   2.288   5.156   5.362
 6008SOL    HW118923   2.282   5.213   5.444
 6008SOL    HW218924   2.240   5.070   5.376
 6009SOL     OW18925   4.048   5.120   3.575
 6009SOL    HW118926   4.060   5.110   3.476
 6009SOL    HW218927   4.052   5.031   3.619
 6010SOL     OW18928   0.030   4.733   4.714
 6010SOL    HW118929   0.033   4.785   4.628
 6010SOL    HW218930   0.114   4.678   4.722
 6011SOL     OW18931   6.090   1.202   2.525
 6011SOL    HW118932   6.079   1.203   2.426
 6011SOL    HW218933   6.174   1.250   2.550
 6012SOL     OW18934   6.896   0.657   6.223
 6012SOL    HW118935   6.920   0.613   6.310
 6012SOL    HW218936   6.970   0.719   6.196
 6013SOL     OW18937   5.692   0.901   2.677
 6013SOL    HW118938   5.782   0.939   2.701
 6013SOL    HW218939   5.692   0.803   2.694
 6014SOL     OW18940   4.085   3.196   3.907
 6014SOL    HW118941   4.128   3.205   3.817
 6014SOL    HW218942   4.004   3.137   3.900
 6015SOL     OW18943   6.472   1.872   4.617
 6015SOL    HW118944   6.560   1.908   4.646
 6015SOL    HW218945   6.442   1.918   4.533
 6016SOL     OW18946   4.971   1.612   4.703
 6016SOL    HW118947   5.013   1.639   4.616
 6016SOL    HW218948   4.882   1.570   4.685
 6017SOL     OW18949   0.068   3.214   5.035
 6017SOL    HW118950   0.118   3.128   5.047
 6017SOL    HW218951   0.121   3.276   4.978
 6018SOL     OW18952   3.714   1.459   5.815
 6018SOL    HW118953   3.737   1.512   5.733
 6018SOL    HW218954   3.773   1.377   5.819
 6019SOL     OW18955   0.319   3.923   6.334
 6019SOL    HW118956   0.260   3.952   6.409
 6019SOL    HW218957   0.272   3.938   6.247
 6020SOL     OW18958   0.754   4.681   0.470
 6020SOL    HW118959   0.738   4.586   0.499
 6020SOL    HW218960   0.741   4.689   0.372
 6021SOL     OW18961   4.007   0.668   3.138
 6021SOL    HW118962   4.077   0.709   3.081
 6021SOL    HW218963   4.033   0.676   3.234
 6022SOL     OW18964   6.752   1.523   2.521
 6022SOL    HW118965   6.717   1.435   2.488
 6022SOL    HW218966   6.700   1.552   2.601
 6023SOL     OW18967   4.886   0.809   1.145
 6023SOL    HW118968   4.858   0.731   1.200
 6023SOL    HW218969   4.985   0.806   1.130
 6024SOL     OW18970   0.149   5.316   0.512
 6024SOL    HW118971   0.080   5.358   0.570
 6024SOL    HW218972   0.240   5.342   0.544
 6025SOL     OW18973   2.363   1.112   4.164
 6025SOL    HW118974   2.434   1.171   4.203
 6025SOL    HW218975   2.340   1.040   4.229
 6026SOL     OW18976   5.899   4.344   4.509
 6026SOL    HW118977   5.815   4.301   4.477
 6026SOL    HW218978   5.927   4.414   4.444
 6027SOL     OW18979   6.164   3.123   5.636
 6027SOL    HW118980   6.222   3.100   5.557
 6027SOL    HW218981   6.221   3.138   5.716
 6028SOL     OW18982   5.111   4.730   6.656
 6028SOL    HW118983   5.191   4.745   6.714
 6028SOL    HW218984   5.141   4.696   6.566
 6029SOL     OW18985   2.543   0.898   3.623
 6029SOL    HW118986   2.541   0.798   3.625
 6029SOL    HW218987   2.633   0.929   3.595
 6030SOL     OW18988   5.033   3.662   4.757
 6030SOL    HW118989   5.018   3.759   4.735
 6030SOL    HW218990   5.055   3.653   4.854
 6031SOL     OW18991   0.580   5.771   4.823
 6031SOL    HW118992   0.655   5.726   4.872
 6031SOL    HW218993   0.609   5.793   4.730
 6032SOL     OW18994   2.798   6.703   3.832
 6032SOL    HW118995   2.893   6.686   3.805
 6032SOL    HW218996   2.796   6.737   3.926
 6033SOL     OW18997   2.265   2.149   2.560
 6033SOL    HW118998   2.293   2.228   2.615
 6033SOL    HW218999   2.167   2.154   2.541
 6034SOL     OW19000   1.832   0.270   0.061
 6034SOL    HW119001   1.794   0.307   6.996
 6034SOL    HW219002   1.872   0.180   0.043
 6035SOL     OW19003   1.137   1.026   3.085
 6035SOL    HW119004   1.210   0.962   3.110
 6035SOL    HW219005   1.049   0.981   3.094
 6036SOL     OW19006   5.730   3.554   0.656
 6036SOL    HW119007   5.690   3.579   0.744
 6036SOL    HW219008   5.667   3.493   0.607
 6037SOL     OW19009   3.894   1.823   0.629
 6037SOL    HW119010   3.927   1.775   0.548
 6037SOL    HW219011   3.964   1.821   0.700
 6038SOL     OW19012   0.425   2.301   6.429
 6038SOL    HW119013   0.426   2.271   6.525
 6038SOL    HW219014   0.335   2.339   6.407
 6039SOL     OW19015   3.288   4.070   3.884
 6039SOL    HW119016   3.305   4.101   3.978
 6039SOL    HW219017   3.194   4.039   3.876
 6040SOL     OW19018   1.492   1.599   6.850
 6040SOL    HW119019   1.463   1.693   6.867
 6040SOL    HW219020   1.458   1.540   6.924
 6041SOL     OW19021   3.092   2.598   5.876
 6041SOL    HW119022   3.128   2.506   5.895
 6041SOL    HW219023   3.167   2.658   5.847
 6042SOL     OW19024   2.846   6.410   4.072
 6042SOL    HW119025   2.945   6.414   4.059
 6042SOL    HW219026   2.815   6.316   4.060
 6043SOL     OW19027   1.760   0.684   4.224
 6043SOL    HW119028   1.857   0.668   4.246
 6043SOL    HW219029   1.722   0.749   4.289
 6044SOL     OW19030   1.873   1.995   1.453
 6044SOL    HW119031   1.924   2.067   1.499
 6044SOL    HW219032   1.854   2.021   1.359
 6045SOL     OW19033   5.257   2.772   3.123
 6045SOL    HW119034   5.265   2.740   3.029
 6045SOL    HW219035   5.210   2.860   3.125
 6046SOL     OW19036   3.645   2.847   1.918
 6046SOL    HW119037   3.638   2.791   2.001
 6046SOL    HW219038   3.569   2.825   1.857
 6047SOL     OW19039   6.101   1.657   0.868
 6047SOL    HW119040   6.179   1.699   0.822
 6047SOL    HW219041   6.037   1.728   0.896
 6048SOL     OW19042   5.756   5.683   5.191
 6048SOL    HW119043   5.852   5.681   5.220
 6048SOL    HW219044   5.728   5.778   5.178
 6049SOL     OW19045   5.103   4.529   5.361
 6049SOL    HW119046   5.060   4.450   5.318
 6049SOL    HW219047   5.173   4.566   5.299
 6050SOL     OW19048   3.074   5.807   1.143
 6050SOL    HW119049   3.062   5.764   1.054
 6050SOL    HW219050   2.988   5.801   1.194
 6051SOL     OW19051   0.688   1.449   3.072
 6051SOL    HW119052   0.638   1.526   3.032
 6051SOL    HW219053   0.772   1.433   3.021
 6052SOL     OW19054   5.725   6.480   0.770
 6052SOL    HW119055   5.677   6.442   0.691
 6052SOL    HW219056   5.755   6.406   0.830
 6053SOL     OW19057   4.547   2.022   6.228
 6053SOL    HW119058   4.597   2.031   6.141
 6053SOL    HW219059   4.586   1.947   6.281
 6054SOL     OW19060   4.095   4.906   0.899
 6054SOL    HW119061   4.101   4.842   0.976
 6054SOL    HW219062   4.176   4.898   0.842
 6055SOL     OW19063   3.324   5.004   0.391
 6055SOL    HW119064   3.288   4.922   0.347
 6055SOL    HW219065   3.257   5.078   0.386
 6056SOL     OW19066   6.365   4.117   5.449
 6056SOL    HW119067   6.424   4.172   5.508
 6056SOL    HW219068   6.419   4.078   5.375
 6057SOL     OW19069   5.231   0.402   2.920
 6057SOL    HW119070   5.331   0.402   2.918
 6057SOL    HW219071   5.197   0.494   2.903
 6058SOL     OW19072   5.489   2.569   6.820
 6058SOL    HW119073   5.527   2.574   6.912
 6058SOL    HW219074   5.519   2.485   6.776
 6059SOL     OW19075   5.402   4.424   5.813
 6059SOL    HW119076   5.386   4.468   5.725
 6059SOL    HW219077   5.315   4.415   5.862
 6060SOL     OW19078   3.099   3.462   6.685
 6060SOL    HW119079   3.031   3.511   6.739
 6060SOL    HW219080   3.053   3.401   6.621
 6061SOL     OW19081   4.853   4.821   0.630
 6061SOL    HW119082   4.808   4.773   0.554
 6061SOL    HW219083   4.804   4.906   0.649
 6062SOL     OW19084   2.717   2.432   0.413
 6062SOL    HW119085   2.661   2.351   0.428
 6062SOL    HW219086   2.799   2.426   0.470
 6063SOL     OW19087   3.804   4.820   5.979
 6063SOL    HW119088   3.837   4.903   5.935
 6063SOL    HW219089   3.779   4.753   5.909
 6064SOL     OW19090   0.015   0.376   1.105
 6064SOL    HW119091   0.001   0.323   1.189
 6064SOL    HW219092   6.959   0.441   1.094
 6065SOL     OW19093   0.763   4.934   2.276
 6065SOL    HW119094   0.746   5.031   2.260
 6065SOL    HW219095   0.858   4.920   2.303
 6066SOL     OW19096   4.884   0.545   3.691
 6066SOL    HW119097   4.825   0.590   3.624
 6066SOL    HW219098   4.833   0.473   3.738
 6067SOL     OW19099   6.249   0.150   5.756
 6067SOL    HW119100   6.257   0.247   5.735
 6067SOL    HW219101   6.266   0.135   5.853
 6068SOL     OW19102   4.978   1.363   5.490
 6068SOL    HW119103   4.960   1.376   5.587
 6068SOL    HW219104   4.958   1.268   5.465
 6069SOL     OW19105   0.146   2.736   5.805
 6069SOL    HW119106   0.050   2.708   5.799
 6069SOL    HW219107   0.198   2.665   5.852
 6070SOL     OW19108   3.571   1.916   1.562
 6070SOL    HW119109   3.536   1.900   1.470
 6070SOL    HW219110   3.560   2.012   1.587
 6071SOL     OW19111   6.146   6.245   5.104
 6071SOL    HW119112   6.129   6.260   5.007
 6071SOL    HW219113   6.208   6.316   5.137
 6072SOL     OW19114   0.294   2.550   1.034
 6072SOL    HW119115   0.358   2.559   0.958
 6072SOL    HW219116   0.328   2.483   1.099
 6073SOL     OW19117   4.626   2.659   0.566
 6073SOL    HW119118   4.684   2.594   0.614
 6073SOL    HW219119   4.578   2.613   0.491
 6074SOL     OW19120   1.174   6.309   2.266
 6074SOL    HW119121   1.233   6.272   2.339
 6074SOL    HW219122   1.108   6.239   2.239
 6075SOL     OW19123   4.337   6.435   6.467
 6075SOL    HW119124   4.295   6.455   6.556
 6075SOL    HW219125   4.401   6.507   6.443
 6076SOL     OW19126   2.771   4.774   3.808
 6076SOL    HW119127   2.684   4.726   3.815
 6076SOL    HW219128   2.816   4.775   3.897
 6077SOL     OW19129   6.242   6.495   1.387
 6077SOL    HW119130   6.239   6.438   1.305
 6077SOL    HW219131   6.332   6.538   1.395
 6078SOL     OW19132   4.740   4.118   0.232
 6078SOL    HW119133   4.821   4.147   0.182
 6078SOL    HW219134   4.690   4.050   0.178
 6079SOL     OW19135   4.365   4.076   6.218
 6079SOL    HW119136   4.392   4.147   6.283
 6079SOL    HW219137   4.275   4.098   6.181
 6080SOL     OW19138   1.353   4.540   0.659
 6080SOL    HW119139   1.344   4.600   0.579
 6080SOL    HW219140   1.431   4.569   0.714
 6081SOL     OW19141   0.397   3.740   4.964
 6081SOL    HW119142   0.491   3.739   4.997
 6081SOL    HW219143   0.384   3.818   4.903
 6082SOL     OW19144   4.530   0.808   1.026
 6082SOL    HW119145   4.580   0.859   0.957
 6082SOL    HW219146   4.432   0.821   1.013
 6083SOL     OW19147   5.008   5.886   6.672
 6083SOL    HW119148   5.091   5.881   6.729
 6083SOL    HW219149   4.995   5.799   6.624
 6084SOL     OW19150   0.554   6.926   2.355
 6084SOL    HW119151   0.640   6.961   2.316
 6084SOL    HW219152   0.548   6.954   2.451
 6085SOL     OW19153   6.998   6.269   0.315
 6085SOL    HW119154   7.006   6.367   0.330
 6085SOL    HW219155   0.027   6.220   0.388
 6086SOL     OW19156   3.761   3.400   6.657
 6086SOL    HW119157   3.677   3.407   6.709
 6086SOL    HW219158   3.746   3.344   6.575
 6087SOL     OW19159   4.950   6.526   0.456
 6087SOL    HW119160   5.037   6.489   0.424
 6087SOL    HW219161   4.932   6.492   0.549
 6088SOL     OW19162   5.150   6.287   4.500
 6088SOL    HW119163   5.135   6.293   4.401
 6088SOL    HW219164   5.087   6.218   4.538
 6089SOL     OW19165   6.046   2.296   2.449
 6089SOL    HW119166   6.108   2.320   2.523
 6089SOL    HW219167   5.954   2.329   2.470
 6090SOL     OW19168   3.913   5.354   4.175
 6090SOL    HW119169   3.994   5.402   4.208
 6090SOL    HW219170   3.878   5.294   4.247
 6091SOL     OW19171   2.747   1.210   1.286
 6091SOL    HW119172   2.768   1.252   1.375
 6091SOL    HW219173   2.824   1.222   1.224
 6092SOL     OW19174   4.237   6.695   1.666
 6092SOL    HW119175   4.271   6.630   1.599
 6092SOL    HW219176   4.314   6.736   1.715
 6093SOL     OW19177   2.495   1.581   2.437
 6093SOL    HW119178   2.489   1.582   2.537
 6093SOL    HW219179   2.408   1.608   2.397
 6094SOL     OW19180   0.649   6.944   4.242
 6094SOL    HW119181   0.612   6.893   4.164
 6094SOL    HW219182   0.577   6.958   4.310
 6095SOL     OW19183   4.137   6.142   0.376
 6095SOL    HW119184   4.166   6.086   0.298
 6095SOL    HW219185   4.171   6.235   0.364
 6096SOL     OW19186   5.984   6.646   2.147
 6096SOL    HW119187   5.994   6.720   2.214
 6096SOL    HW219188   5.886   6.627   2.133
 6097SOL     OW19189   1.823   5.627   2.435
 6097SOL    HW119190   1.770   5.609   2.352
 6097SOL    HW219191   1.917   5.596   2.422
 6098SOL     OW19192   6.884   0.871   4.903
 6098SOL    HW119193   6.978   0.897   4.880
 6098SOL    HW219194   6.820   0.920   4.844
 6099SOL     OW19195   5.321   5.652   5.872
 6099SOL    HW119196   5.398   5.591   5.855
 6099SOL    HW219197   5.290   5.692   5.785
 6100SOL     OW19198   6.432   5.552   3.948
 6100SOL    HW119199   6.462   5.507   4.032
 6100SOL    HW219200   6.429   5.651   3.962
 6101SOL     OW19201   6.084   2.469   0.971
 6101SOL    HW119202   6.147   2.443   1.044
 6101SOL    HW219203   6.102   2.414   0.890
 6102SOL     OW19204   4.161   6.487   2.318
 6102SOL    HW119205   4.248   6.456   2.356
 6102SOL    HW219206   4.121   6.414   2.262
 6103SOL     OW19207   6.246   1.265   1.972
 6103SOL    HW119208   6.256   1.354   1.926
 6103SOL    HW219209   6.213   1.280   2.065
 6104SOL     OW19210   5.860   0.925   4.596
 6104SOL    HW119211   5.882   0.837   4.553
 6104SOL    HW219212   5.862   0.915   4.695
 6105SOL     OW19213   3.006   6.121   6.327
 6105SOL    HW119214   2.962   6.071   6.251
 6105SOL    HW219215   3.009   6.218   6.304
 6106SOL     OW19216   0.610   3.665   7.005
 6106SOL    HW119217   0.699   3.661   6.960
 6106SOL    HW219218   0.619   3.708   0.075
 6107SOL     OW19219   4.839   4.661   4.737
 6107SOL    HW119220   4.836   4.753   4.699
 6107SOL    HW219221   4.774   4.603   4.689
 6108SOL     OW19222   1.467   0.927   1.691
 6108SOL    HW119223   1.409   0.968   1.761
 6108SOL    HW219224   1.562   0.956   1.706
 6109SOL     OW19225   5.299   6.848   3.051
 6109SOL    HW119226   5.242   6.875   3.128
 6109SOL    HW219227   5.380   6.906   3.046
 6110SOL     OW19228   0.544   2.134   5.618
 6110SOL    HW119229   0.615   2.148   5.549
 6110SOL    HW219230   0.463   2.188   5.595
 6111SOL     OW19231   1.364   3.853   1.639
 6111SOL    HW119232   1.409   3.901   1.714
 6111SOL    HW219233   1.431   3.798   1.589
 6112SOL     OW19234   3.995   0.340   2.263
 6112SOL    HW119235   3.936   0.261   2.281
 6112SOL    HW219236   4.090   0.316   2.284
 6113SOL     OW19237   2.275   5.246   0.129
 6113SOL    HW119238   2.190   5.281   0.088
 6113SOL    HW219239   2.262   5.235   0.227
 6114SOL     OW19240   4.800   1.740   1.161
 6114SOL    HW119241   4.827   1.759   1.255
 6114SOL    HW219242   4.882   1.727   1.105
 6115SOL     OW19243   1.091   1.559   5.151
 6115SOL    HW119244   1.153   1.528   5.224
 6115SOL    HW219245   0.997   1.532   5.174
 6116SOL     OW19246   3.957   2.141   5.047
 6116SOL    HW119247   3.885   2.160   5.115
 6116SOL    HW219248   4.023   2.078   5.086
 6117SOL     OW19249   1.480   1.828   3.015
 6117SOL    HW119250   1.521   1.908   3.059
 6117SOL    HW219251   1.508   1.825   2.919
 6118SOL     OW19252   5.889   1.127   0.552
 6118SOL    HW119253   5.917   1.063   0.623
 6118SOL    HW219254   5.952   1.204   0.549
 6119SOL     OW19255   0.459   2.231   0.739
 6119SOL    HW119256   0.519   2.299   0.697
 6119SOL    HW219257   0.363   2.255   0.723
 6120SOL     OW19258   2.541   6.288   5.841
 6120SOL    HW119259   2.630   6.296   5.886
 6120SOL    HW219260   2.483   6.366   5.867
 6121SOL     OW19261   0.825   3.682   5.211
 6121SOL    HW119262   0.790   3.756   5.270
 6121SOL    HW219263   0.897   3.633   5.259
 6122SOL     OW19264   5.163   6.021   5.506
 6122SOL    HW119265   5.162   6.037   5.407
 6122SOL    HW219266   5.243   6.065   5.546
 6123SOL     OW19267   5.811   1.305   5.323
 6123SOL    HW119268   5.734   1.295   5.387
 6123SOL    HW219269   5.776   1.308   5.229
 6124SOL     OW19270   2.337   0.154   4.731
 6124SOL    HW119271   2.272   0.206   4.787
 6124SOL    HW219272   2.319   0.056   4.743
 6125SOL     OW19273   2.351   3.829   0.221
 6125SOL    HW119274   2.258   3.814   0.188
 6125SOL    HW219275   2.416   3.793   0.154
 6126SOL     OW19276   0.302   2.658   4.658
 6126SOL    HW119277   0.229   2.623   4.716
 6126SOL    HW219278   0.274   2.655   4.562
 6127SOL     OW19279   4.704   1.314   2.244
 6127SOL    HW119280   4.711   1.247   2.169
 6127SOL    HW219281   4.609   1.318   2.275
 6128SOL     OW19282   5.661   5.983   1.000
 6128SOL    HW119283   5.677   5.928   0.918
 6128SOL    HW219284   5.745   5.987   1.054
 6129SOL     OW19285   1.818   4.639   3.124
 6129SOL    HW119286   1.752   4.586   3.070
 6129SOL    HW219287   1.811   4.612   3.220
 6130SOL     OW19288   5.047   2.832   1.516
 6130SOL    HW119289   5.043   2.781   1.430
 6130SOL    HW219290   4.957   2.874   1.533
 6131SOL     OW19291   0.267   2.295   2.317
 6131SOL    HW119292   0.216   2.216   2.283
 6131SOL    HW219293   0.287   2.283   2.414
 6132SOL     OW19294   3.341   1.436   6.765
 6132SOL    HW119295   3.412   1.417   6.698
 6132SOL    HW219296   3.258   1.465   6.719
 6133SOL     OW19297   1.611   2.783   3.707
 6133SOL    HW119298   1.545   2.856   3.722
 6133SOL    HW219299   1.646   2.751   3.795
 6134SOL     OW19300   5.342   5.958   6.535
 6134SOL    HW119301   5.272   5.987   6.470
 6134SOL    HW219302   5.431   5.989   6.503
 6135SOL     OW19303   5.441   0.298   0.061
 6135SOL    HW119304   5.500   0.218   0.056
 6135SOL    HW219305   5.358   0.275   0.113
 6136SOL     OW19306   1.239   2.865   1.528
 6136SOL    HW119307   1.338   2.883   1.523
 6136SOL    HW219308   1.190   2.933   1.474
 6137SOL     OW19309   0.554   4.760   3.334
 6137SOL    HW119310   0.601   4.712   3.409
 6137SOL    HW219311   0.558   4.704   3.251
 6138SOL     OW19312   3.706   0.559   2.296
 6138SOL    HW119313   3.677   0.506   2.376
 6138SOL    HW219314   3.799   0.533   2.272
 6139SOL     OW19315   0.943   6.793   5.495
 6139SOL    HW119316   0.968   6.843   5.412
 6139SOL    HW219317   0.974   6.845   5.575
 6140SOL     OW19318   1.684   0.198   3.363
 6140SOL    HW119319   1.775   0.239   3.378
 6140SOL    HW219320   1.653   0.155   3.448
 6141SOL     OW19321   0.318   0.731   5.543
 6141SOL    HW119322   0.367   0.659   5.494
 6141SOL    HW219323   0.228   0.697   5.570
 6142SOL     OW19324   0.657   1.068   0.688
 6142SOL    HW119325   0.566   1.027   0.694
 6142SOL    HW219326   0.648   1.166   0.669
 6143SOL     OW19327   6.529   3.831   6.536
 6143SOL    HW119328   6.628   3.840   6.528
 6143SOL    HW219329   6.485   3.918   6.512
 6144SOL     OW19330   4.519   4.510   2.826
 6144SOL    HW119331   4.574   4.593   2.815
 6144SOL    HW219332   4.571   4.431   2.792
 6145SOL     OW19333   5.108   3.403   3.831
 6145SOL    HW119334   5.105   3.361   3.922
 6145SOL    HW219335   5.025   3.381   3.781
 6146SOL     OW19336   3.625   0.510   4.306
 6146SOL    HW119337   3.566   0.521   4.226
 6146SOL    HW219338   3.714   0.551   4.287
 6147SOL     OW19339   2.220   2.962   4.351
 6147SOL    HW119340   2.164   2.973   4.268
 6147SOL    HW219341   2.194   3.032   4.417
 6148SOL     OW19342   4.070   4.883   7.017
 6148SOL    HW119343   4.011   4.945   6.965
 6148SOL    HW219344   4.080   4.797   6.967
 6149SOL     OW19345   2.706   0.919   2.437
 6149SOL    HW119346   2.695   0.931   2.339
 6149SOL    HW219347   2.791   0.871   2.456
 6150SOL     OW19348   6.380   4.111   6.593
 6150SOL    HW119349   6.427   4.075   6.674
 6150SOL    HW219350   6.303   4.168   6.623
 6151SOL     OW19351   5.265   4.561   4.144
 6151SOL    HW119352   5.279   4.633   4.076
 6151SOL    HW219353   5.350   4.509   4.156
 6152SOL     OW19354   1.043   5.405   4.169
 6152SOL    HW119355   1.100   5.486   4.185
 6152SOL    HW219356   0.947   5.429   4.183
 6153SOL     OW19357   4.606   5.143   0.878
 6153SOL    HW119358   4.696   5.144   0.920
 6153SOL    HW219359   4.545   5.205   0.928
 6154SOL     OW19360   5.109   3.268   2.036
 6154SOL    HW119361   5.153   3.230   1.955
 6154SOL    HW219362   5.163   3.345   2.070
 6155SOL     OW19363   2.572   1.283   3.335
 6155SOL    HW119364   2.672   1.276   3.345
 6155SOL    HW219365   2.547   1.380   3.331
 6156SOL     OW19366   5.656   4.449   1.044
 6156SOL    HW119367   5.730   4.443   0.977
 6156SOL    HW219368   5.680   4.515   1.115
 6157SOL     OW19369   0.690   2.340   2.789
 6157SOL    HW119370   0.773   2.394   2.805
 6157SOL    HW219371   0.711   2.243   2.801
 6158SOL     OW19372   2.838   2.562   5.736
 6158SOL    HW119373   2.837   2.532   5.641
 6158SOL    HW219374   2.930   2.593   5.761
 6159SOL     OW19375   5.287   2.710   0.042
 6159SOL    HW119376   5.378   2.670   0.053
 6159SOL    HW219377   5.295   2.801   0.002
 6160SOL     OW19378   0.576   0.148   6.820
 6160SOL    HW119379   0.603   0.196   6.736
 6160SOL    HW219380   0.574   0.050   6.803
 6161SOL     OW19381   5.023   2.729   6.614
 6161SOL    HW119382   4.945   2.669   6.598
 6161SOL    HW219383   5.022   2.804   6.547
 6162SOL     OW19384   6.277   6.204   2.602
 6162SOL    HW119385   6.329   6.119   2.604
 6162SOL    HW219386   6.236   6.215   2.512
 6163SOL     OW19387   5.627   5.942   2.921
 6163SOL    HW119388   5.713   5.981   2.955
 6163SOL    HW219389   5.585   6.006   2.857
 6164SOL     OW19390   3.622   4.132   4.387
 6164SOL    HW119391   3.542   4.131   4.328
 6164SOL    HW219392   3.702   4.161   4.335
 6165SOL     OW19393   3.873   2.482   0.166
 6165SOL    HW119394   3.793   2.422   0.157
 6165SOL    HW219395   3.882   2.511   0.261
 6166SOL     OW19396   0.290   2.113   0.157
 6166SOL    HW119397   0.327   2.170   0.231
 6166SOL    HW219398   0.260   2.172   0.082
 6167SOL     OW19399   1.826   4.640   3.415
 6167SOL    HW119400   1.876   4.606   3.495
 6167SOL    HW219401   1.780   4.725   3.438
 6168SOL     OW19402   0.047   2.900   3.962
 6168SOL    HW119403   0.122   2.837   3.941
 6168SOL    HW219404   6.994   2.852   4.011
 6169SOL     OW19405   1.263   0.445   6.648
 6169SOL    HW119406   1.281   0.374   6.717
 6169SOL    HW219407   1.349   0.475   6.608
 6170SOL     OW19408   3.842   4.536   0.040
 6170SOL    HW119409   3.852   4.586   0.126
 6170SOL    HW219410   3.749   4.548   0.006
 6171SOL     OW19411   0.552   4.429   2.369
 6171SOL    HW119412   0.639   4.452   2.413
 6171SOL    HW219413   0.490   4.508   2.373
 6172SOL     OW19414   0.630   0.627   2.907
 6172SOL    HW119415   0.598   0.615   3.001
 6172SOL    HW219416   0.579   0.701   2.864
 6173SOL     OW19417   0.824   4.773   2.789
 6173SOL    HW119418   0.884   4.796   2.865
 6173SOL    HW219419   0.762   4.700   2.816
 6174SOL     OW19420   5.922   4.833   2.627
 6174SOL    HW119421   5.878   4.744   2.615
 6174SOL    HW219422   5.924   4.881   2.539
 6175SOL     OW19423   5.789   6.137   2.071
 6175SOL    HW119424   5.758   6.229   2.095
 6175SOL    HW219425   5.773   6.076   2.148
 6176SOL     OW19426   6.082   3.311   6.407
 6176SOL    HW119427   5.987   3.335   6.388
 6176SOL    HW219428   6.116   3.367   6.483
 6177SOL     OW19429   4.995   1.131   1.619
 6177SOL    HW119430   5.050   1.177   1.688
 6177SOL    HW219431   5.045   1.051   1.585
 6178SOL     OW19432   5.004   4.968   1.027
 6178SOL    HW119433   5.082   4.996   1.083
 6178SOL    HW219434   4.972   4.878   1.058
 6179SOL     OW19435   0.082   3.350   4.412
 6179SOL    HW119436   0.023   3.303   4.345
 6179SOL    HW219437   0.034   3.355   4.500
 6180SOL     OW19438   3.511   6.678   0.947
 6180SOL    HW119439   3.543   6.757   0.999
 6180SOL    HW219440   3.551   6.595   0.984
 6181SOL     OW19441   5.168   6.067   7.018
 6181SOL    HW119442   5.203   6.021   6.937
 6181SOL    HW219443   5.157   6.000   0.073
 6182SOL     OW19444   5.266   5.250   5.139
 6182SOL    HW119445   5.338   5.189   5.174
 6182SOL    HW219446   5.180   5.230   5.185
 6183SOL     OW19447   2.107   0.386   2.640
 6183SOL    HW119448   2.064   0.390   2.550
 6183SOL    HW219449   2.198   0.427   2.636
 6184SOL     OW19450   1.515   6.913   0.121
 6184SOL    HW119451   1.543   6.956   0.208
 6184SOL    HW219452   1.440   6.849   0.138
 6185SOL     OW19453   0.626   3.791   0.212
 6185SOL    HW119454   0.576   3.876   0.228
 6185SOL    HW219455   0.718   3.799   0.250
 6186SOL     OW19456   5.673   7.013   3.889
 6186SOL    HW119457   5.769   0.021   3.899
 6186SOL    HW219458   5.624   0.063   3.837
 6187SOL     OW19459   4.979   4.826   3.576
 6187SOL    HW119460   4.970   4.902   3.511
 6187SOL    HW219461   4.968   4.739   3.528
 6188SOL     OW19462   2.420   6.452   1.394
 6188SOL    HW119463   2.472   6.538   1.394
 6188SOL    HW219464   2.404   6.424   1.488
 6189SOL     OW19465   5.064   4.668   2.494
 6189SOL    HW119466   5.142   4.606   2.503
 6189SOL    HW219467   4.988   4.621   2.449
 6190SOL     OW19468   5.154   2.840   5.879
 6190SOL    HW119469   5.055   2.823   5.876
 6190SOL    HW219470   5.182   2.887   5.795
 6191SOL     OW19471   5.299   2.353   0.711
 6191SOL    HW119472   5.253   2.434   0.678
 6191SOL    HW219473   5.390   2.347   0.670
 6192SOL     OW19474   2.924   3.986   0.281
 6192SOL    HW119475   2.978   4.064   0.313
 6192SOL    HW219476   2.845   4.020   0.230
 6193SOL     OW19477   5.122   6.713   1.985
 6193SOL    HW119478   5.110   6.812   1.986
 6193SOL    HW219479   5.183   6.687   1.909
 6194SOL     OW19480   2.385   0.513   1.122
 6194SOL    HW119481   2.371   0.446   1.049
 6194SOL    HW219482   2.353   0.603   1.091
 6195SOL     OW19483   4.125   5.614   6.264
 6195SOL    HW119484   4.223   5.625   6.279
 6195SOL    HW219485   4.108   5.529   6.214
 6196SOL     OW19486   0.528   2.595   6.443
 6196SOL    HW119487   0.449   2.649   6.412
 6196SOL    HW219488   0.503   2.499   6.447
 6197SOL     OW19489   2.687   4.039   1.084
 6197SOL    HW119490   2.635   4.042   1.169
 6197SOL    HW219491   2.744   4.121   1.076
 6198SOL     OW19492   3.428   5.765   3.156
 6198SOL    HW119493   3.445   5.798   3.063
 6198SOL    HW219494   3.332   5.777   3.178
 6199SOL     OW19495   0.862   0.261   0.988
 6199SOL    HW119496   0.877   0.343   1.043
 6199SOL    HW219497   0.898   0.181   1.037
 6200SOL     OW19498   2.564   1.091   6.424
 6200SOL    HW119499   2.494   1.163   6.421
 6200SOL    HW219500   2.524   1.007   6.460
 6201SOL     OW19501   1.795   4.534   6.309
 6201SOL    HW119502   1.816   4.627   6.341
 6201SOL    HW219503   1.762   4.538   6.215
 6202SOL     OW19504   4.099   1.803   1.678
 6202SOL    HW119505   4.132   1.709   1.687
 6202SOL    HW219506   4.002   1.803   1.654
 6203SOL     OW19507   4.816   0.789   3.764
 6203SOL    HW119508   4.870   0.829   3.690
 6203SOL    HW219509   4.839   0.692   3.774
 6204SOL     OW19510   1.031   5.240   5.269
 6204SOL    HW119511   0.940   5.236   5.310
 6204SOL    HW219512   1.063   5.147   5.249
 6205SOL     OW19513   5.636   5.670   6.945
 6205SOL    HW119514   5.689   5.598   6.989
 6205SOL    HW219515   5.578   5.716   7.013
 6206SOL     OW19516   6.997   0.608   2.125
 6206SOL    HW119517   6.904   0.633   2.152
 6206SOL    HW219518   0.009   0.532   2.182
 6207SOL     OW19519   1.216   4.003   5.307
 6207SOL    HW119520   1.141   3.980   5.246
 6207SOL    HW219521   1.194   4.087   5.357
 6208SOL     OW19522   6.355   0.416   5.658
 6208SOL    HW119523   6.448   0.440   5.685
 6208SOL    HW219524   6.357   0.359   5.576
 6209SOL     OW19525   4.443   5.972   0.430
 6209SOL    HW119526   4.537   5.980   0.398
 6209SOL    HW219527   4.442   5.962   0.529
 6210SOL     OW19528   5.592   3.691   2.872
 6210SOL    HW119529   5.515   3.708   2.811
 6210SOL    HW219530   5.565   3.625   2.942
 6211SOL     OW19531   2.662   0.025   6.270
 6211SOL    HW119532   2.758   0.005   6.288
 6211SOL    HW219533   2.604   6.981   6.321
 6212SOL     OW19534   6.870   6.200   3.782
 6212SOL    HW119535   6.900   6.290   3.813
 6212SOL    HW219536   6.949   6.139   3.775
 6213SOL     OW19537   6.015   0.592   6.542
 6213SOL    HW119538   5.956   0.670   6.519
 6213SOL    HW219539   5.963   0.525   6.595
 6214SOL     OW19540   6.042   5.212   2.849
 6214SOL    HW119541   5.966   5.148   2.848
 6214SOL    HW219542   6.040   5.265   2.933
 6215SOL     OW19543   3.180   1.676   0.040
 6215SOL    HW119544   3.113   1.746   0.066
 6215SOL    HW219545   3.214   1.696   6.968
 6216SOL     OW19546   6.314   2.367   1.513
 6216SOL    HW119547   6.301   2.398   1.419
 6216SOL    HW219548   6.246   2.298   1.536
 6217SOL     OW19549   4.784   2.873   1.532
 6217SOL    HW119550   4.786   2.958   1.585
 6217SOL    HW219551   4.728   2.887   1.450
 6218SOL     OW19552   3.123   5.035   4.722
 6218SOL    HW119553   3.039   5.054   4.773
 6218SOL    HW219554   3.202   5.069   4.774
 6219SOL     OW19555   1.753   2.297   4.908
 6219SOL    HW119556   1.658   2.284   4.880
 6219SOL    HW219557   1.788   2.212   4.947
 6220SOL     OW19558   1.565   4.871   5.475
 6220SOL    HW119559   1.595   4.807   5.546
 6220SOL    HW219560   1.552   4.823   5.389
 6221SOL     OW19561   4.847   4.915   4.669
 6221SOL    HW119562   4.789   4.975   4.613
 6221SOL    HW219563   4.874   4.963   4.752
 6222SOL     OW19564   0.635   0.312   1.634
 6222SOL    HW119565   0.563   0.287   1.699
 6222SOL    HW219566   0.596   0.367   1.560
 6223SOL     OW19567   5.607   3.735   4.279
 6223SOL    HW119568   5.657   3.743   4.193
 6223SOL    HW219569   5.627   3.814   4.337
 6224SOL     OW19570   2.086   1.317   6.187
 6224SOL    HW119571   2.142   1.236   6.201
 6224SOL    HW219572   2.144   1.395   6.162
 6225SOL     OW19573   3.501   3.524   1.290
 6225SOL    HW119574   3.526   3.617   1.316
 6225SOL    HW219575   3.409   3.524   1.250
 6226SOL     OW19576   5.845   1.385   3.765
 6226SOL    HW119577   5.852   1.472   3.716
 6226SOL    HW219578   5.932   1.366   3.812
 6227SOL     OW19579   2.897   4.478   5.819
 6227SOL    HW119580   2.911   4.428   5.733
 6227SOL    HW219581   2.915   4.417   5.896
 6228SOL     OW19582   6.702   2.036   3.342
 6228SOL    HW119583   6.786   2.087   3.326
 6228SOL    HW219584   6.649   2.031   3.258
 6229SOL     OW19585   2.494   1.747   3.149
 6229SOL    HW119586   2.501   1.742   3.249
 6229SOL    HW219587   2.479   1.656   3.112
 6230SOL     OW19588   2.168   1.155   4.704
 6230SOL    HW119589   2.163   1.255   4.695
 6230SOL    HW219590   2.211   1.116   4.622
 6231SOL     OW19591   6.925   4.546   0.868
 6231SOL    HW119592   6.994   4.486   0.827
 6231SOL    HW219593   6.853   4.565   0.802
 6232SOL     OW19594   6.924   1.150   0.210
 6232SOL    HW119595   6.873   1.232   0.236
 6232SOL    HW219596   6.965   1.108   0.291
 6233SOL     OW19597   5.469   1.925   6.862
 6233SOL    HW119598   5.548   1.876   6.826
 6233SOL    HW219599   5.435   1.989   6.793
 6234SOL     OW19600   1.224   1.338   4.904
 6234SOL    HW119601   1.155   1.346   4.833
 6234SOL    HW219602   1.197   1.391   4.984
 6235SOL     OW19603   1.906   6.747   3.197
 6235SOL    HW119604   1.926   6.759   3.100
 6235SOL    HW219605   1.988   6.768   3.250
 6236SOL     OW19606   6.916   4.828   1.317
 6236SOL    HW119607   6.848   4.893   1.350
 6236SOL    HW219608   6.874   4.767   1.250
 6237SOL     OW19609   4.777   5.917   0.517
 6237SOL    HW119610   4.762   5.819   0.531
 6237SOL    HW219611   4.875   5.934   0.504
 6238SOL     OW19612   4.614   5.721   2.044
 6238SOL    HW119613   4.704   5.681   2.027
 6238SOL    HW219614   4.617   5.774   2.129
 6239SOL     OW19615   2.623   6.297   2.292
 6239SOL    HW119616   2.641   6.246   2.377
 6239SOL    HW219617   2.657   6.390   2.302
 6240SOL     OW19618   2.771   2.276   1.099
 6240SOL    HW119619   2.781   2.264   1.198
 6240SOL    HW219620   2.861   2.291   1.059
 6241SOL     OW19621   2.932   1.083   2.185
 6241SOL    HW119622   2.952   1.090   2.283
 6241SOL    HW219623   2.841   1.042   2.173
 6242SOL     OW19624   5.454   1.163   3.513
 6242SOL    HW119625   5.491   1.252   3.489
 6242SOL    HW219626   5.410   1.122   3.433
 6243SOL     OW19627   6.006   6.735   3.357
 6243SOL    HW119628   6.017   6.753   3.259
 6243SOL    HW219629   5.976   6.819   3.402
 6244SOL     OW19630   2.217   2.407   2.003
 6244SOL    HW119631   2.228   2.314   1.970
 6244SOL    HW219632   2.249   2.413   2.098
 6245SOL     OW19633   2.882   4.219   1.373
 6245SOL    HW119634   2.866   4.241   1.469
 6245SOL    HW219635   2.823   4.276   1.316
 6246SOL     OW19636   2.878   2.847   6.732
 6246SOL    HW119637   2.868   2.755   6.693
 6246SOL    HW219638   2.842   2.915   6.668
 6247SOL     OW19639   0.149   0.158   3.528
 6247SOL    HW119640   0.245   0.135   3.515
 6247SOL    HW219641   0.141   0.253   3.556
 6248SOL     OW19642   0.699   3.930   1.158
 6248SOL    HW119643   0.665   4.015   1.200
 6248SOL    HW219644   0.684   3.854   1.221
 6249SOL     OW19645   0.083   4.660   0.244
 6249SOL    HW119646   0.097   4.607   0.327
 6249SOL    HW219647   0.124   4.750   0.255
 6250SOL     OW19648   6.994   6.349   1.038
 6250SOL    HW119649   6.962   6.443   1.025
 6250SOL    HW219650   6.920   6.293   1.075
 6251SOL     OW19651   4.115   0.429   1.407
 6251SOL    HW119652   4.156   0.467   1.490
 6251SOL    HW219653   4.024   0.395   1.428
 6252SOL     OW19654   2.485   6.220   5.215
 6252SOL    HW119655   2.414   6.156   5.248
 6252SOL    HW219656   2.447   6.312   5.212
 6253SOL     OW19657   1.996   4.153   1.998
 6253SOL    HW119658   2.027   4.141   1.904
 6253SOL    HW219659   1.924   4.223   2.000
 6254SOL     OW19660   5.770   0.230   6.880
 6254SOL    HW119661   5.697   0.191   6.938
 6254SOL    HW219662   5.804   0.159   6.818
 6255SOL     OW19663   1.491   1.338   1.822
 6255SOL    HW119664   1.464   1.407   1.890
 6255SOL    HW219665   1.423   1.264   1.822
 6256SOL     OW19666   4.054   5.360   2.436
 6256SOL    HW119667   4.031   5.377   2.340
 6256SOL    HW219668   4.139   5.307   2.441
 6257SOL     OW19669   5.080   2.293   0.866
 6257SOL    HW119670   5.140   2.340   0.801
 6257SOL    HW219671   5.038   2.360   0.928
 6258SOL     OW19672   4.636   1.165   3.266
 6258SOL    HW119673   4.537   1.161   3.271
 6258SOL    HW219674   4.669   1.240   3.324
 6259SOL     OW19675   3.309   1.949   1.355
 6259SOL    HW119676   3.311   2.027   1.291
 6259SOL    HW219677   3.273   1.979   1.443
 6260SOL     OW19678   3.516   4.056   0.365
 6260SOL    HW119679   3.492   4.001   0.285
 6260SOL    HW219680   3.592   4.116   0.343
 6261SOL     OW19681   4.206   0.042   6.592
 6261SOL    HW119682   4.210   0.127   6.645
 6261SOL    HW219683   4.125   0.042   6.534
 6262SOL     OW19684   1.828   4.445   0.543
 6262SOL    HW119685   1.740   4.463   0.500
 6262SOL    HW219686   1.838   4.504   0.624
 6263SOL     OW19687   0.207   6.170   6.574
 6263SOL    HW119688   0.149   6.159   6.655
 6263SOL    HW219689   0.150   6.172   6.492
 6264SOL     OW19690   2.166   1.051   0.959
 6264SOL    HW119691   2.247   1.010   0.918
 6264SOL    HW219692   2.193   1.123   1.023
 6265SOL     OW19693   3.098   4.569   1.151
 6265SOL    HW119694   3.178   4.509   1.158
 6265SOL    HW219695   3.015   4.514   1.147
 6266SOL     OW19696   3.679   0.839   4.348
 6266SOL    HW119697   3.767   0.796   4.328
 6266SOL    HW219698   3.624   0.842   4.264
 6267SOL     OW19699   3.157   0.353   0.336
 6267SOL    HW119700   3.079   0.405   0.372
 6267SOL    HW219701   3.204   0.407   0.266
 6268SOL     OW19702   2.696   5.550   3.152
 6268SOL    HW119703   2.635   5.498   3.092
 6268SOL    HW219704   2.769   5.491   3.185
 6269SOL     OW19705   5.855   5.811   2.459
 6269SOL    HW119706   5.785   5.749   2.494
 6269SOL    HW219707   5.881   5.782   2.367
 6270SOL     OW19708   1.981   0.395   6.241
 6270SOL    HW119709   1.990   0.476   6.182
 6270SOL    HW219710   1.986   0.423   6.337
 6271SOL     OW19711   6.954   2.622   5.464
 6271SOL    HW119712   6.996   2.541   5.504
 6271SOL    HW219713   0.006   2.677   5.420
 6272SOL     OW19714   0.823   3.555   4.209
 6272SOL    HW119715   0.783   3.647   4.205
 6272SOL    HW219716   0.750   3.487   4.217
 6273SOL     OW19717   1.328   0.887   2.062
 6273SOL    HW119718   1.279   0.806   2.093
 6273SOL    HW219719   1.270   0.968   2.076
 6274SOL     OW19720   2.831   5.624   6.633
 6274SOL    HW119721   2.929   5.636   6.649
 6274SOL    HW219722   2.792   5.569   6.707
 6275SOL     OW19723   3.257   6.820   5.441
 6275SOL    HW119724   3.273   6.721   5.439
 6275SOL    HW219725   3.185   6.841   5.507
 6276SOL     OW19726   1.019   4.817   3.448
 6276SOL    HW119727   1.081   4.895   3.455
 6276SOL    HW219728   0.938   4.845   3.396
 6277SOL     OW19729   4.801   2.674   2.526
 6277SOL    HW119730   4.728   2.629   2.474
 6277SOL    HW219731   4.866   2.605   2.558
 6278SOL     OW19732   4.739   0.354   3.793
 6278SOL    HW119733   4.670   0.327   3.726
 6278SOL    HW219734   4.698   0.359   3.884
 6279SOL     OW19735   3.809   1.590   0.797
 6279SOL    HW119736   3.810   1.682   0.759
 6279SOL    HW219737   3.717   1.551   0.791
 6280SOL     OW19738   6.914   2.918   5.783
 6280SOL    HW119739   6.972   2.952   5.857
 6280SOL    HW219740   6.962   2.927   5.696
 6281SOL     OW19741   3.009   6.751   5.572
 6281SOL    HW119742   2.928   6.796   5.611
 6281SOL    HW219743   2.981   6.671   5.520
 6282SOL     OW19744   1.020   6.897   5.268
 6282SOL    HW119745   1.006   6.980   5.213
 6282SOL    HW219746   1.113   6.863   5.252
 6283SOL     OW19747   6.323   2.530   4.834
 6283SOL    HW119748   6.278   2.515   4.746
 6283SOL    HW219749   6.267   2.491   4.907
 6284SOL     OW19750   1.766   5.561   5.121
 6284SOL    HW119751   1.846   5.601   5.075
 6284SOL    HW219752   1.700   5.531   5.052
 6285SOL     OW19753   1.529   2.897   4.434
 6285SOL    HW119754   1.527   2.875   4.531
 6285SOL    HW219755   1.597   2.968   4.417
 6286SOL     OW19756   5.658   1.351   3.489
 6286SOL    HW119757   5.708   1.292   3.551
 6286SOL    HW219758   5.704   1.355   3.400
 6287SOL     OW19759   4.570   4.532   1.965
 6287SOL    HW119760   4.572   4.560   1.869
 6287SOL    HW219761   4.571   4.432   1.971
 6288SOL     OW19762   5.451   4.299   1.126
 6288SOL    HW119763   5.477   4.226   1.189
 6288SOL    HW219764   5.530   4.357   1.108
 6289SOL     OW19765   1.989   2.656   3.638
 6289SOL    HW119766   1.956   2.641   3.731
 6289SOL    HW219767   1.925   2.713   3.588
 6290SOL     OW19768   5.048   3.968   4.020
 6290SOL    HW119769   4.962   3.954   4.069
 6290SOL    HW219770   5.028   3.993   3.925
 6291SOL     OW19771   3.826   3.333   3.546
 6291SOL    HW119772   3.896   3.271   3.582
 6291SOL    HW219773   3.866   3.394   3.478
 6292SOL     OW19774   0.776   2.545   3.063
 6292SOL    HW119775   0.694   2.558   3.007
 6292SOL    HW219776   0.821   2.460   3.037
 6293SOL     OW19777   4.999   6.738   0.189
 6293SOL    HW119778   5.024   6.703   0.279
 6293SOL    HW219779   5.030   6.675   0.118
 6294SOL     OW19780   3.375   5.451   2.763
 6294SOL    HW119781   3.358   5.510   2.684
 6294SOL    HW219782   3.462   5.403   2.750
 6295SOL     OW19783   5.270   5.475   5.328
 6295SOL    HW119784   5.299   5.438   5.240
 6295SOL    HW219785   5.198   5.542   5.315
 6296SOL     OW19786   6.178   0.501   3.949
 6296SOL    HW119787   6.198   0.497   4.047
 6296SOL    HW219788   6.086   0.466   3.932
 6297SOL     OW19789   5.456   6.370   6.049
 6297SOL    HW119790   5.534   6.324   6.006
 6297SOL    HW219791   5.484   6.407   6.137
 6298SOL     OW19792   1.021   3.720   5.968
 6298SOL    HW119793   0.977   3.809   5.972
 6298SOL    HW219794   1.117   3.729   5.996
 6299SOL     OW19795   5.958   2.252   6.197
 6299SOL    HW119796   5.887   2.291   6.255
 6299SOL    HW219797   6.008   2.182   6.248
 6300SOL     OW19798   5.406   0.322   4.523
 6300SOL    HW119799   5.319   0.364   4.547
 6300SOL    HW219800   5.446   0.279   4.604
 6301SOL     OW19801   2.892   6.963   0.892
 6301SOL    HW119802   2.974   7.019   0.908
 6301SOL    HW219803   2.871   6.911   0.975
 6302SOL     OW19804   1.504   0.937   3.853
 6302SOL    HW119805   1.491   0.849   3.898
 6302SOL    HW219806   1.446   0.942   3.771
 6303SOL     OW19807   2.537   0.218   5.027
 6303SOL    HW119808   2.554   0.149   5.097
 6303SOL    HW219809   2.470   0.284   5.061
 6304SOL     OW19810   3.394   0.110   0.997
 6304SOL    HW119811   3.426   0.204   1.006
 6304SOL    HW219812   3.400   0.064   1.085
 6305SOL     OW19813   6.401   6.857   1.183
 6305SOL    HW119814   6.320   6.888   1.232
 6305SOL    HW219815   6.468   6.931   1.176
 6306SOL     OW19816   0.092   3.305   3.877
 6306SOL    HW119817   0.074   3.244   3.954
 6306SOL    HW219818   0.066   3.398   3.901
 6307SOL     OW19819   3.236   4.996   5.486
 6307SOL    HW119820   3.204   4.942   5.409
 6307SOL    HW219821   3.192   4.964   5.570
 6308SOL     OW19822   1.843   1.441   5.317
 6308SOL    HW119823   1.939   1.420   5.297
 6308SOL    HW219824   1.837   1.527   5.367
 6309SOL     OW19825   5.049   2.550   3.944
 6309SOL    HW119826   5.124   2.574   4.006
 6309SOL    HW219827   5.048   2.614   3.867
 6310SOL     OW19828   2.195   4.816   4.306
 6310SOL    HW119829   2.137   4.789   4.382
 6310SOL    HW219830   2.279   4.857   4.341
 6311SOL     OW19831   6.841   0.354   4.956
 6311SOL    HW119832   6.905   0.280   4.935
 6311SOL    HW219833   6.876   0.441   4.921
 6312SOL     OW19834   4.276   5.082   6.347
 6312SOL    HW119835   4.208   5.136   6.396
 6312SOL    HW219836   4.361   5.135   6.341
 6313SOL     OW19837   1.857   6.016   3.390
 6313SOL    HW119838   1.792   5.940   3.379
 6313SOL    HW219839   1.947   5.987   3.358
 6314SOL     OW19840   3.410   6.235   2.290
 6314SOL    HW119841   3.328   6.265   2.242
 6314SOL    HW219842   3.428   6.139   2.269
 6315SOL     OW19843   4.289   2.828   6.787
 6315SOL    HW119844   4.293   2.925   6.809
 6315SOL    HW219845   4.379   2.796   6.758
 6316SOL     OW19846   5.092   2.376   6.224
 6316SOL    HW119847   5.028   2.385   6.147
 6316SOL    HW219848   5.042   2.346   6.305
 6317SOL     OW19849   5.400   6.749   2.647
 6317SOL    HW119850   5.319   6.786   2.693
 6317SOL    HW219851   5.383   6.655   2.619
 6318SOL     OW19852   2.503   2.044   6.016
 6318SOL    HW119853   2.430   2.093   5.970
 6318SOL    HW219854   2.464   1.969   6.070
 6319SOL     OW19855   0.656   3.125   3.523
 6319SOL    HW119856   0.602   3.097   3.443
 6319SOL    HW219857   0.601   3.113   3.605
 6320SOL     OW19858   5.928   4.050   2.933
 6320SOL    HW119859   5.914   3.978   2.864
 6320SOL    HW219860   5.910   4.013   3.024
 6321SOL     OW19861   2.782   5.461   0.642
 6321SOL    HW119862   2.856   5.507   0.593
 6321SOL    HW219863   2.820   5.385   0.695
 6322SOL     OW19864   1.623   1.701   6.516
 6322SOL    HW119865   1.613   1.610   6.557
 6322SOL    HW219866   1.659   1.765   6.584
 6323SOL     OW19867   3.551   2.207   1.620
 6323SOL    HW119868   3.581   2.227   1.714
 6323SOL    HW219869   3.468   2.258   1.599
 6324SOL     OW19870   4.543   0.101   5.708
 6324SOL    HW119871   4.454   0.146   5.711
 6324SOL    HW219872   4.606   0.155   5.652
 6325SOL     OW19873   1.038   3.128   2.107
 6325SOL    HW119874   1.131   3.141   2.073
 6325SOL    HW219875   1.024   3.032   2.130
 6326SOL     OW19876   5.528   6.081   0.659
 6326SOL    HW119877   5.456   6.136   0.617
 6326SOL    HW219878   5.522   5.987   0.626
 6327SOL     OW19879   6.407   6.252   5.314
 6327SOL    HW119880   6.484   6.196   5.344
 6327SOL    HW219881   6.324   6.224   5.363
 6328SOL     OW19882   1.534   4.553   6.996
 6328SOL    HW119883   1.624   4.535   0.016
 6328SOL    HW219884   1.536   4.535   6.898
 6329SOL     OW19885   1.271   1.261   3.771
 6329SOL    HW119886   1.184   1.219   3.796
 6329SOL    HW219887   1.266   1.295   3.677
 6330SOL     OW19888   4.689   0.826   0.377
 6330SOL    HW119889   4.738   0.753   0.424
 6330SOL    HW219890   4.752   0.902   0.360
 6331SOL     OW19891   6.392   2.219   1.101
 6331SOL    HW119892   6.392   2.279   1.021
 6331SOL    HW219893   6.472   2.159   1.098
 6332SOL     OW19894   6.245   5.697   1.541
 6332SOL    HW119895   6.175   5.656   1.598
 6332SOL    HW219896   6.308   5.750   1.598
 6333SOL     OW19897   3.308   5.595   3.574
 6333SOL    HW119898   3.251   5.604   3.492
 6333SOL    HW219899   3.250   5.587   3.655
 6334SOL     OW19900   2.382   7.000   2.821
 6334SOL    HW119901   2.461   6.986   2.881
 6334SOL    HW219902   2.383   0.074   2.786
 6335SOL     OW19903   5.930   1.254   0.245
 6335SOL    HW119904   5.857   1.319   0.267
 6335SOL    HW219905   5.988   1.241   0.326
 6336SOL     OW19906   6.714   2.412   4.444
 6336SOL    HW119907   6.679   2.391   4.352
 6336SOL    HW219908   6.658   2.364   4.512
 6337SOL     OW19909   5.583   2.752   5.708
 6337SOL    HW119910   5.530   2.766   5.791
 6337SOL    HW219911   5.536   2.796   5.631
 6338SOL     OW19912   2.551   1.721   2.183
 6338SOL    HW119913   2.454   1.743   2.189
 6338SOL    HW219914   2.582   1.678   2.267
 6339SOL     OW19915   0.668   2.368   3.526
 6339SOL    HW119916   0.708   2.447   3.573
 6339SOL    HW219917   0.632   2.397   3.437
 6340SOL     OW19918   2.517   5.411   3.700
 6340SOL    HW119919   2.463   5.494   3.685
 6340SOL    HW219920   2.525   5.360   3.614
 6341SOL     OW19921   0.013   4.760   3.306
 6341SOL    HW119922   0.112   4.772   3.296
 6341SOL    HW219923   7.015   4.691   3.377
 6342SOL     OW19924   2.293   2.356   2.247
 6342SOL    HW119925   2.205   2.319   2.280
 6342SOL    HW219926   2.354   2.281   2.225
 6343SOL     OW19927   4.274   3.143   6.547
 6343SOL    HW119928   4.277   3.112   6.642
 6343SOL    HW219929   4.329   3.081   6.490
 6344SOL     OW19930   6.677   3.478   5.060
 6344SOL    HW119931   6.717   3.387   5.054
 6344SOL    HW219932   6.733   3.542   5.008
 6345SOL     OW19933   4.112   1.567   2.721
 6345SOL    HW119934   4.023   1.609   2.701
 6345SOL    HW219935   4.134   1.501   2.649
 6346SOL     OW19936   6.301   2.810   3.130
 6346SOL    HW119937   6.286   2.788   3.226
 6346SOL    HW219938   6.222   2.860   3.094
 6347SOL     OW19939   3.143   0.372   1.741
 6347SOL    HW119940   3.157   0.471   1.744
 6347SOL    HW219941   3.045   0.352   1.745
 6348SOL     OW19942   0.665   3.963   5.068
 6348SOL    HW119943   0.713   3.908   5.135
 6348SOL    HW219944   0.729   3.995   4.999
 6349SOL     OW19945   3.305   0.617   1.738
 6349SOL    HW119946   3.311   0.671   1.822
 6349SOL    HW219947   3.354   0.664   1.665
 6350SOL     OW19948   1.251   5.573   3.251
 6350SOL    HW119949   1.236   5.537   3.343
 6350SOL    HW219950   1.313   5.511   3.201
 6351SOL     OW19951   6.581   2.451   2.703
 6351SOL    HW119952   6.572   2.448   2.603
 6351SOL    HW219953   6.585   2.546   2.733
 6352SOL     OW19954   1.207   5.408   3.450
 6352SOL    HW119955   1.128   5.357   3.486
 6352SOL    HW219956   1.261   5.347   3.392
 6353SOL     OW19957   0.129   0.350   6.678
 6353SOL    HW119958   0.056   0.373   6.742
 6353SOL    HW219959   0.204   0.415   6.690
 6354SOL     OW19960   0.765   0.164   2.454
 6354SOL    HW119961   0.805   0.193   2.540
 6354SOL    HW219962   0.786   0.067   2.439
 6355SOL     OW19963   1.291   4.144   4.560
 6355SOL    HW119964   1.311   4.141   4.462
 6355SOL    HW219965   1.194   4.163   4.574
 6356SOL     OW19966   4.886   4.708   1.227
 6356SOL    HW119967   4.934   4.682   1.143
 6356SOL    HW219968   4.941   4.682   1.307
 6357SOL     OW19969   4.217   2.894   0.441
 6357SOL    HW119970   4.206   2.898   0.342
 6357SOL    HW219971   4.212   2.798   0.471
 6358SOL     OW19972   6.798   2.338   4.167
 6358SOL    HW119973   6.825   2.246   4.195
 6358SOL    HW219974   6.880   2.392   4.148
 6359SOL     OW19975   6.842   0.757   5.762
 6359SOL    HW119976   6.879   0.786   5.673
 6359SOL    HW219977   6.917   0.751   5.828
 6360SOL     OW19978   2.549   4.675   3.962
 6360SOL    HW119979   2.531   4.607   4.033
 6360SOL    HW219980   2.463   4.708   3.924
 6361SOL     OW19981   4.788   5.632   6.435
 6361SOL    HW119982   4.762   5.538   6.411
 6361SOL    HW219983   4.868   5.631   6.494
 6362SOL     OW19984   6.267   4.431   6.842
 6362SOL    HW119985   6.256   4.468   6.934
 6362SOL    HW219986   6.259   4.331   6.846
 6363SOL     OW19987   2.243   6.065   4.234
 6363SOL    HW119988   2.189   6.093   4.313
 6363SOL    HW219989   2.285   6.145   4.192
 6364SOL     OW19990   2.923   2.343   5.482
 6364SOL    HW119991   3.018   2.320   5.466
 6364SOL    HW219992   2.878   2.268   5.530
 6365SOL     OW19993   4.909   0.197   3.628
 6365SOL    HW119994   4.891   0.256   3.549
 6365SOL    HW219995   4.854   0.228   3.706
 6366SOL     OW19996   0.887   5.101   4.992
 6366SOL    HW119997   0.983   5.123   4.978
 6366SOL    HW219998   0.880   5.022   5.054
 6367SOL     OW19999   4.966   0.638   3.295
 6367SOL    HW120000   5.026   0.568   3.256
 6367SOL    HW220001   4.873   0.626   3.258
 6368SOL     OW20002   3.039   6.992   4.181
 6368SOL    HW120003   3.110   0.041   4.199
 6368SOL    HW220004   2.977   6.987   4.260
 6369SOL     OW20005   2.895   5.164   4.437
 6369SOL    HW120006   2.870   5.091   4.374
 6369SOL    HW220007   2.861   5.142   4.528
 6370SOL     OW20008   0.024   2.476   2.096
 6370SOL    HW120009   7.018   2.426   2.179
 6370SOL    HW220010   0.104   2.532   2.114
 6371SOL     OW20011   4.964   2.790   3.280
 6371SOL    HW120012   4.927   2.714   3.226
 6371SOL    HW220013   4.962   2.873   3.225
 6372SOL     OW20014   3.139   6.197   1.891
 6372SOL    HW120015   3.181   6.112   1.925
 6372SOL    HW220016   3.086   6.177   1.809
 6373SOL     OW20017   5.588   4.474   5.241
 6373SOL    HW120018   5.616   4.570   5.239
 6373SOL    HW220019   5.589   4.441   5.335
 6374SOL     OW20020   3.168   3.322   3.356
 6374SOL    HW120021   3.113   3.306   3.274
 6374SOL    HW220022   3.243   3.257   3.359
 6375SOL     OW20023   0.894   0.809   3.016
 6375SOL    HW120024   0.969   0.799   2.950
 6375SOL    HW220025   0.846   0.722   3.025
 6376SOL     OW20026   0.510   1.580   4.533
 6376SOL    HW120027   0.569   1.656   4.560
 6376SOL    HW220028   0.513   1.509   4.604
 6377SOL     OW20029   6.811   0.870   5.516
 6377SOL    HW120030   6.878   0.944   5.513
 6377SOL    HW220031   6.719   0.908   5.510
 6378SOL     OW20032   4.842   3.943   3.345
 6378SOL    HW120033   4.803   3.856   3.373
 6378SOL    HW220034   4.769   4.010   3.330
 6379SOL     OW20035   2.057   5.086   3.991
 6379SOL    HW120036   2.022   5.004   4.035
 6379SOL    HW220037   2.155   5.095   4.008
 6380SOL     OW20038   0.681   0.989   5.520
 6380SOL    HW120039   0.625   1.057   5.568
 6380SOL    HW220040   0.762   0.969   5.575
 6381SOL     OW20041   2.880   3.409   2.602
 6381SOL    HW120042   2.837   3.469   2.535
 6381SOL    HW220043   2.968   3.377   2.566
 6382SOL     OW20044   1.159   2.697   6.217
 6382SOL    HW120045   1.170   2.605   6.254
 6382SOL    HW220046   1.165   2.693   6.117
 6383SOL     OW20047   2.364   2.361   3.974
 6383SOL    HW120048   2.387   2.354   3.877
 6383SOL    HW220049   2.270   2.396   3.983
 6384SOL     OW20050   6.042   4.666   2.125
 6384SOL    HW120051   6.021   4.744   2.184
 6384SOL    HW220052   6.125   4.620   2.159
 6385SOL     OW20053   6.184   4.874   3.978
 6385SOL    HW120054   6.103   4.909   3.932
 6385SOL    HW220055   6.265   4.897   3.925
 6386SOL     OW20056   2.601   4.661   1.092
 6386SOL    HW120057   2.625   4.709   1.176
 6386SOL    HW220058   2.529   4.711   1.044
 6387SOL     OW20059   0.359   1.925   6.157
 6387SOL    HW120060   0.336   1.960   6.248
 6387SOL    HW220061   0.447   1.964   6.128
 6388SOL     OW20062   3.898   4.978   1.355
 6388SOL    HW120063   3.910   4.884   1.324
 6388SOL    HW220064   3.801   5.002   1.351
 6389SOL     OW20065   0.553   5.910   2.685
 6389SOL    HW120066   0.587   5.995   2.724
 6389SOL    HW220067   0.602   5.833   2.725
 6390SOL     OW20068   0.153   2.299   3.264
 6390SOL    HW120069   0.142   2.373   3.198
 6390SOL    HW220070   0.130   2.333   3.355
 6391SOL     OW20071   3.485   1.335   0.184
 6391SOL    HW120072   3.535   1.286   0.256
 6391SOL    HW220073   3.457   1.425   0.219
 6392SOL     OW20074   2.046   6.733   4.003
 6392SOL    HW120075   2.082   6.822   3.974
 6392SOL    HW220076   1.993   6.743   4.087
 6393SOL     OW20077   5.545   6.489   1.646
 6393SOL    HW120078   5.573   6.531   1.560
 6393SOL    HW220079   5.557   6.555   1.721
 6394SOL     OW20080   2.390   4.698   0.808
 6394SOL    HW120081   2.394   4.760   0.729
 6394SOL    HW220082   2.345   4.613   0.781
 6395SOL     OW20083   6.511   1.500   1.164
 6395SOL    HW120084   6.509   1.548   1.252
 6395SOL    HW220085   6.417   1.475   1.138
 6396SOL     OW20086   5.215   2.641   6.318
 6396SOL    HW120087   5.270   2.686   6.247
 6396SOL    HW220088   5.182   2.553   6.284
 6397SOL     OW20089   0.118   2.296   6.630
 6397SOL    HW120090   0.152   2.306   6.536
 6397SOL    HW220091   0.048   2.365   6.648
 6398SOL     OW20092   3.448   0.769   1.552
 6398SOL    HW120093   3.537   0.809   1.572
 6398SOL    HW220094   3.408   0.814   1.472
 6399SOL     OW20095   1.502   5.660   6.760
 6399SOL    HW120096   1.583   5.683   6.815
 6399SOL    HW220097   1.422   5.655   6.819
 6400SOL     OW20098   2.020   5.300   3.444
 6400SOL    HW120099   2.030   5.338   3.536
 6400SOL    HW220100   1.996   5.203   3.450
 6401SOL     OW20101   0.329   4.552   3.468
 6401SOL    HW120102   0.382   4.637   3.470
 6401SOL    HW220103   0.239   4.567   3.506
 6402SOL     OW20104   2.850   0.849   3.063
 6402SOL    HW120105   2.810   0.941   3.058
 6402SOL    HW220106   2.934   0.846   3.010
 6403SOL     OW20107   0.967   4.756   0.186
 6403SOL    HW120108   1.021   4.706   0.118
 6403SOL    HW220109   0.890   4.698   0.216
 6404SOL     OW20110   4.323   1.913   3.423
 6404SOL    HW120111   4.344   1.998   3.471
 6404SOL    HW220112   4.331   1.928   3.324
 6405SOL     OW20113   1.961   2.055   2.687
 6405SOL    HW120114   1.940   2.097   2.598
 6405SOL    HW220115   2.038   1.992   2.676
 6406SOL     OW20116   1.986   0.884   3.631
 6406SOL    HW120117   1.954   0.864   3.539
 6406SOL    HW220118   1.995   0.799   3.683
 6407SOL     OW20119   3.091   0.072   4.611
 6407SOL    HW120120   3.115   0.071   4.514
 6407SOL    HW220121   2.993   0.052   4.621
 6408SOL     OW20122   5.729   1.848   6.808
 6408SOL    HW120123   5.815   1.895   6.790
 6408SOL    HW220124   5.748   1.761   6.855
 6409SOL     OW20125   6.365   3.425   2.777
 6409SOL    HW120126   6.305   3.350   2.803
 6409SOL    HW220127   6.459   3.391   2.770
 6410SOL     OW20128   2.001   1.738   0.484
 6410SOL    HW120129   1.927   1.710   0.546
 6410SOL    HW220130   1.967   1.809   0.423
 6411SOL     OW20131   0.917   1.596   3.224
 6411SOL    HW120132   0.850   1.579   3.296
 6411SOL    HW220133   0.918   1.519   3.161
 6412SOL     OW20134   6.814   2.799   5.166
 6412SOL    HW120135   6.794   2.839   5.256
 6412SOL    HW220136   6.808   2.700   5.171
 6413SOL     OW20137   5.788   4.986   2.067
 6413SOL    HW120138   5.843   4.969   1.985
 6413SOL    HW220139   5.694   4.954   2.052
 6414SOL     OW20140   5.825   0.988   1.570
 6414SOL    HW120141   5.864   0.898   1.592
 6414SOL    HW220142   5.894   1.059   1.586
 6415SOL     OW20143   2.452   2.150   2.158
 6415SOL    HW120144   2.457   2.053   2.182
 6415SOL    HW220145   2.533   2.197   2.194
 6416SOL     OW20146   0.739   6.891   6.633
 6416SOL    HW120147   0.694   6.870   6.720
 6416SOL    HW220148   0.832   6.922   6.651
 6417SOL     OW20149   0.389   6.772   3.204
 6417SOL    HW120150   0.357   6.863   3.180
 6417SOL    HW220151   0.485   6.763   3.178
 6418SOL     OW20152   6.252   5.199   2.289
 6418SOL    HW120153   6.175   5.237   2.237
 6418SOL    HW220154   6.223   5.115   2.335
 6419SOL     OW20155   2.760   5.403   1.787
 6419SOL    HW120156   2.750   5.335   1.714
 6419SOL    HW220157   2.849   5.392   1.831
 6420SOL     OW20158   2.795   3.380   6.290
 6420SOL    HW120159   2.796   3.339   6.381
 6420SOL    HW220160   2.821   3.311   6.222
 6421SOL     OW20161   6.015   1.194   1.322
 6421SOL    HW120162   6.002   1.214   1.419
 6421SOL    HW220163   5.973   1.266   1.266
 6422SOL     OW20164   6.609   0.877   3.210
 6422SOL    HW120165   6.534   0.928   3.167
 6422SOL    HW220166   6.589   0.780   3.207
 6423SOL     OW20167   4.752   3.885   1.235
 6423SOL    HW120168   4.763   3.789   1.257
 6423SOL    HW220169   4.747   3.896   1.135
 6424SOL     OW20170   6.725   4.343   6.166
 6424SOL    HW120171   6.791   4.288   6.216
 6424SOL    HW220172   6.752   4.348   6.070
 6425SOL     OW20173   6.797   4.736   2.805
 6425SOL    HW120174   6.855   4.789   2.743
 6425SOL    HW220175   6.841   4.649   2.827
 6426SOL     OW20176   1.349   3.238   4.165
 6426SOL    HW120177   1.331   3.336   4.179
 6426SOL    HW220178   1.263   3.190   4.153
 6427SOL     OW20179   1.248   3.558   6.571
 6427SOL    HW120180   1.165   3.603   6.605
 6427SOL    HW220181   1.235   3.534   6.475
 6428SOL     OW20182   6.770   3.575   2.280
 6428SOL    HW120183   6.771   3.672   2.303
 6428SOL    HW220184   6.717   3.560   2.197
 6429SOL     OW20185   1.784   0.947   4.758
 6429SOL    HW120186   1.790   0.882   4.833
 6429SOL    HW220187   1.695   0.992   4.759
 6430SOL     OW20188   4.862   0.901   1.847
 6430SOL    HW120189   4.943   0.903   1.789
 6430SOL    HW220190   4.790   0.848   1.802
 6431SOL     OW20191   5.426   0.202   3.180
 6431SOL    HW120192   5.337   0.208   3.224
 6431SOL    HW220193   5.425   0.259   3.097
 6432SOL     OW20194   4.195   4.277   0.253
 6432SOL    HW120195   4.156   4.274   0.345
 6432SOL    HW220196   4.268   4.345   0.250
 6433SOL     OW20197   2.937   4.540   0.899
 6433SOL    HW120198   2.872   4.584   0.837
 6433SOL    HW220199   2.961   4.604   0.973
 6434SOL     OW20200   1.164   3.659   1.091
 6434SOL    HW120201   1.119   3.745   1.066
 6434SOL    HW220202   1.254   3.680   1.132
 6435SOL     OW20203   3.631   5.317   0.195
 6435SOL    HW120204   3.563   5.284   0.130
 6435SOL    HW220205   3.591   5.319   0.287
 6436SOL     OW20206   1.796   3.279   3.548
 6436SOL    HW120207   1.796   3.257   3.646
 6436SOL    HW220208   1.702   3.295   3.518
 6437SOL     OW20209   1.951   0.444   0.259
 6437SOL    HW120210   2.002   0.522   0.221
 6437SOL    HW220211   1.931   0.379   0.186
 6438SOL     OW20212   0.802   4.283   5.199
 6438SOL    HW120213   0.727   4.321   5.145
 6438SOL    HW220214   0.772   4.199   5.244
 6439SOL     OW20215   1.179   6.955   0.419
 6439SOL    HW120216   1.243   6.917   0.486
 6439SOL    HW220217   1.172   0.034   0.432
 6440SOL     OW20218   2.183   1.798   1.654
 6440SOL    HW120219   2.146   1.713   1.615
 6440SOL    HW220220   2.124   1.830   1.727
 6441SOL     OW20221   1.805   0.828   2.562
 6441SOL    HW120222   1.744   0.874   2.626
 6441SOL    HW220223   1.790   0.865   2.470
 6442SOL     OW20224   2.453   1.477   4.771
 6442SOL    HW120225   2.464   1.541   4.848
 6442SOL    HW220226   2.543   1.457   4.732
 6443SOL     OW20227   3.091   2.967   0.084
 6443SOL    HW120228   3.184   2.962   0.050
 6443SOL    HW220229   3.092   2.970   0.184
 6444SOL     OW20230   0.445   2.103   2.663
 6444SOL    HW120231   0.406   2.028   2.717
 6444SOL    HW220232   0.383   2.181   2.665
 6445SOL     OW20233   4.336   2.689   5.381
 6445SOL    HW120234   4.286   2.628   5.320
 6445SOL    HW220235   4.280   2.709   5.462
 6446SOL     OW20236   0.485   1.336   6.498
 6446SOL    HW120237   0.519   1.243   6.514
 6446SOL    HW220238   0.412   1.333   6.430
 6447SOL     OW20239   1.369   5.788   2.191
 6447SOL    HW120240   1.362   5.843   2.274
 6447SOL    HW220241   1.323   5.836   2.116
 6448SOL     OW20242   6.198   3.301   2.552
 6448SOL    HW120243   6.225   3.364   2.625
 6448SOL    HW220244   6.264   3.306   2.477
 6449SOL     OW20245   3.831   4.016   1.973
 6449SOL    HW120246   3.883   4.063   1.901
 6449SOL    HW220247   3.733   4.038   1.963
 6450SOL     OW20248   6.400   3.093   1.719
 6450SOL    HW120249   6.380   3.064   1.626
 6450SOL    HW220250   6.437   3.015   1.771
 6451SOL     OW20251   3.306   6.267   5.458
 6451SOL    HW120252   3.259   6.254   5.371
 6451SOL    HW220253   3.370   6.192   5.473
 6452SOL     OW20254   3.536   6.928   4.787
 6452SOL    HW120255   3.440   6.951   4.802
 6452SOL    HW220256   3.582   7.005   4.745
 6453SOL     OW20257   1.215   6.344   0.099
 6453SOL    HW120258   1.195   6.260   0.047
 6453SOL    HW220259   1.297   6.329   0.154
 6454SOL     OW20260   2.568   1.585   4.346
 6454SOL    HW120261   2.556   1.682   4.324
 6454SOL    HW220262   2.479   1.544   4.367
 6455SOL     OW20263   0.707   2.721   4.490
 6455SOL    HW120264   0.689   2.623   4.499
 6455SOL    HW220265   0.715   2.745   4.393
 6456SOL     OW20266   1.196   0.108   3.308
 6456SOL    HW120267   1.220   0.025   3.359
 6456SOL    HW220268   1.227   0.188   3.360
 6457SOL     OW20269   5.773   1.847   1.620
 6457SOL    HW120270   5.864   1.838   1.580
 6457SOL    HW220271   5.754   1.768   1.677
 6458SOL     OW20272   1.644   5.842   2.843
 6458SOL    HW120273   1.646   5.843   2.743
 6458SOL    HW220274   1.719   5.897   2.878
 6459SOL     OW20275   5.835   5.284   0.436
 6459SOL    HW120276   5.800   5.193   0.459
 6459SOL    HW220277   5.769   5.353   0.465
 6460SOL     OW20278   4.411   4.543   0.234
 6460SOL    HW120279   4.336   4.575   0.292
 6460SOL    HW220280   4.475   4.619   0.218
 6461SOL     OW20281   2.996   5.700   5.733
 6461SOL    HW120282   2.941   5.779   5.710
 6461SOL    HW220283   3.030   5.657   5.649
 6462SOL     OW20284   2.207   3.131   5.299
 6462SOL    HW120285   2.300   3.102   5.274
 6462SOL    HW220286   2.204   3.231   5.303
 6463SOL     OW20287   2.359   4.838   6.494
 6463SOL    HW120288   2.326   4.797   6.579
 6463SOL    HW220289   2.339   4.777   6.417
 6464SOL     OW20290   0.363   5.016   3.496
 6464SOL    HW120291   0.319   5.101   3.525
 6464SOL    HW220292   0.399   5.028   3.403
 6465SOL     OW20293   6.065   1.755   3.996
 6465SOL    HW120294   6.150   1.708   3.974
 6465SOL    HW220295   6.085   1.830   4.061
 6466SOL     OW20296   6.719   2.623   4.802
 6466SOL    HW120297   6.778   2.682   4.857
 6466SOL    HW220298   6.633   2.670   4.784
 6467SOL     OW20299   2.443   0.830   6.483
 6467SOL    HW120300   2.352   0.806   6.449
 6467SOL    HW220301   2.495   0.747   6.503
 6468SOL     OW20302   4.362   6.166   1.819
 6468SOL    HW120303   4.374   6.093   1.752
 6468SOL    HW220304   4.399   6.136   1.907
 6469SOL     OW20305   6.305   1.028   5.041
 6469SOL    HW120306   6.320   1.078   4.956
 6469SOL    HW220307   6.309   1.091   5.119
 6470SOL     OW20308   7.011   6.228   6.080
 6470SOL    HW120309   6.920   6.190   6.064
 6470SOL    HW220310   0.021   6.280   6.000
 6471SOL     OW20311   6.765   5.345   6.074
 6471SOL    HW120312   6.801   5.419   6.130
 6471SOL    HW220313   6.731   5.272   6.133
 6472SOL     OW20314   0.982   6.274   1.289
 6472SOL    HW120315   1.042   6.353   1.273
 6472SOL    HW220316   0.973   6.221   1.205
 6473SOL     OW20317   2.290   1.021   5.930
 6473SOL    HW120318   2.215   0.955   5.924
 6473SOL    HW220319   2.371   0.984   5.883
 6474SOL     OW20320   1.255   3.769   6.288
 6474SOL    HW120321   1.288   3.796   6.197
 6474SOL    HW220322   1.206   3.682   6.281
 6475SOL     OW20323   5.374   6.195   3.924
 6475SOL    HW120324   5.377   6.200   3.824
 6475SOL    HW220325   5.389   6.101   3.953
 6476SOL     OW20326   4.318   4.679   2.987
 6476SOL    HW120327   4.250   4.682   2.914
 6476SOL    HW220328   4.393   4.619   2.961
 6477SOL     OW20329   6.411   5.396   6.060
 6477SOL    HW120330   6.418   5.380   6.159
 6477SOL    HW220331   6.377   5.488   6.043
 6478SOL     OW20332   3.794   5.838   2.026
 6478SOL    HW120333   3.879   5.789   2.003
 6478SOL    HW220334   3.724   5.815   1.958
 6479SOL     OW20335   3.870   5.123   2.162
 6479SOL    HW120336   3.928   5.056   2.209
 6479SOL    HW220337   3.802   5.076   2.107
 6480SOL     OW20338   3.764   2.901   5.929
 6480SOL    HW120339   3.732   2.990   5.896
 6480SOL    HW220340   3.737   2.889   6.024
 6481SOL     OW20341   3.403   2.361   1.123
 6481SOL    HW120342   3.312   2.376   1.085
 6481SOL    HW220343   3.417   2.263   1.137
 6482SOL     OW20344   6.249   0.704   0.177
 6482SOL    HW120345   6.216   0.625   0.229
 6482SOL    HW220346   6.260   0.680   0.081
 6483SOL     OW20347   2.387   6.467   2.524
 6483SOL    HW120348   2.463   6.476   2.588
 6483SOL    HW220349   2.314   6.413   2.565
 6484SOL     OW20350   4.414   0.421   2.527
 6484SOL    HW120351   4.466   0.350   2.479
 6484SOL    HW220352   4.477   0.480   2.577
 6485SOL     OW20353   1.433   3.086   3.315
 6485SOL    HW120354   1.354   3.069   3.374
 6485SOL    HW220355   1.432   3.022   3.238
 6486SOL     OW20356   0.870   4.426   4.293
 6486SOL    HW120357   0.849   4.329   4.281
 6486SOL    HW220358   0.788   4.481   4.278
 6487SOL     OW20359   6.971   5.960   4.330
 6487SOL    HW120360   6.954   6.030   4.401
 6487SOL    HW220361   6.918   5.982   4.249
 6488SOL     OW20362   3.218   6.263   5.728
 6488SOL    HW120363   3.125   6.229   5.716
 6488SOL    HW220364   3.257   6.286   5.639
 6489SOL     OW20365   1.753   2.485   6.870
 6489SOL    HW120366   1.667   2.446   6.835
 6489SOL    HW220367   1.753   2.478   6.970
 6490SOL     OW20368   3.911   2.563   0.416
 6490SOL    HW120369   3.841   2.628   0.442
 6490SOL    HW220370   3.997   2.587   0.462
 6491SOL     OW20371   4.782   0.766   6.333
 6491SOL    HW120372   4.808   0.862   6.349
 6491SOL    HW220373   4.860   0.717   6.294
 6492SOL     OW20374   5.944   6.833   0.049
 6492SOL    HW120375   5.880   6.810   6.995
 6492SOL    HW220376   5.933   6.929   0.075
 6493SOL     OW20377   1.972   6.425   5.871
 6493SOL    HW120378   2.056   6.429   5.818
 6493SOL    HW220379   1.945   6.517   5.898
 6494SOL     OW20380   0.902   0.183   3.672
 6494SOL    HW120381   0.875   0.251   3.604
 6494SOL    HW220382   0.828   0.116   3.683
 6495SOL     OW20383   4.994   5.902   3.055
 6495SOL    HW120384   5.042   5.983   3.021
 6495SOL    HW220385   5.011   5.891   3.153
 6496SOL     OW20386   0.156   6.231   1.774
 6496SOL    HW120387   0.115   6.230   1.866
 6496SOL    HW220388   0.204   6.317   1.760
 6497SOL     OW20389   2.338   3.476   1.056
 6497SOL    HW120390   2.372   3.501   1.147
 6497SOL    HW220391   2.310   3.380   1.057
 6498SOL     OW20392   2.163   4.782   4.045
 6498SOL    HW120393   2.066   4.755   4.044
 6498SOL    HW220394   2.187   4.814   4.136
 6499SOL     OW20395   5.074   0.197   5.222
 6499SOL    HW120396   5.008   0.122   5.213
 6499SOL    HW220397   5.056   0.267   5.153
 6500SOL     OW20398   6.511   4.102   3.642
 6500SOL    HW120399   6.422   4.145   3.657
 6500SOL    HW220400   6.562   4.155   3.573
 6501SOL     OW20401   6.503   3.721   1.277
 6501SOL    HW120402   6.433   3.766   1.332
 6501SOL    HW220403   6.502   3.623   1.295
 6502SOL     OW20404   0.162   4.363   3.925
 6502SOL    HW120405   0.254   4.376   3.961
 6502SOL    HW220406   0.165   4.366   3.825
 6503SOL     OW20407   5.438   6.215   3.170
 6503SOL    HW120408   5.388   6.278   3.229
 6503SOL    HW220409   5.429   6.244   3.075
 6504SOL     OW20410   4.619   0.285   6.846
 6504SOL    HW120411   4.611   0.210   6.780
 6504SOL    HW220412   4.613   0.373   6.797
 6505SOL     OW20413   6.209   4.632   0.793
 6505SOL    HW120414   6.153   4.553   0.769
 6505SOL    HW220415   6.156   4.695   0.850
 6506SOL     OW20416   1.033   2.796   1.236
 6506SOL    HW120417   0.997   2.881   1.276
 6506SOL    HW220418   0.965   2.724   1.243
 6507SOL     OW20419   1.094   5.888   1.290
 6507SOL    HW120420   1.075   5.964   1.352
 6507SOL    HW220421   1.186   5.896   1.254
 6508SOL     OW20422   1.645   2.064   3.982
 6508SOL    HW120423   1.594   1.979   3.973
 6508SOL    HW220424   1.728   2.047   4.036
 6509SOL     OW20425   1.491   2.311   4.856
 6509SOL    HW120426   1.475   2.310   4.757
 6509SOL    HW220427   1.462   2.399   4.894
 6510SOL     OW20428   6.884   5.391   6.561
 6510SOL    HW120429   6.983   5.397   6.569
 6510SOL    HW220430   6.841   5.463   6.615
 6511SOL     OW20431   6.614   0.512   5.421
 6511SOL    HW120432   6.596   0.603   5.384
 6511SOL    HW220433   6.654   0.454   5.349
 6512SOL     OW20434   4.457   6.791   2.919
 6512SOL    HW120435   4.405   6.854   2.861
 6512SOL    HW220436   4.485   6.837   3.003
 6513SOL     OW20437   3.557   0.036   4.180
 6513SOL    HW120438   3.512   6.967   4.170
 6513SOL    HW220439   3.586   0.048   4.275
 6514SOL     OW20440   4.907   7.008   3.907
 6514SOL    HW120441   4.947   0.019   3.993
 6514SOL    HW220442   4.979   6.991   3.841
 6515SOL     OW20443   6.528   5.419   4.141
 6515SOL    HW120444   6.572   5.410   4.230
 6515SOL    HW220445   6.586   5.378   4.071
 6516SOL     OW20446   0.696   1.512   6.864
 6516SOL    HW120447   0.764   1.468   6.804
 6516SOL    HW220448   0.606   1.473   6.847
 6517SOL     OW20449   0.073   1.944   0.347
 6517SOL    HW120450   0.160   1.991   0.329
 6517SOL    HW220451   0.089   1.867   0.408
 6518SOL     OW20452   0.933   6.138   0.685
 6518SOL    HW120453   0.918   6.066   0.753
 6518SOL    HW220454   0.846   6.162   0.642
 6519SOL     OW20455   2.188   1.446   4.677
 6519SOL    HW120456   2.277   1.447   4.722
 6519SOL    HW220457   2.143   1.535   4.689
 6520SOL     OW20458   6.322   5.635   2.522
 6520SOL    HW120459   6.274   5.570   2.462
 6520SOL    HW220460   6.327   5.598   2.614
 6521SOL     OW20461   1.356   1.586   4.381
 6521SOL    HW120462   1.300   1.506   4.401
 6521SOL    HW220463   1.388   1.581   4.286
 6522SOL     OW20464   2.226   5.672   0.057
 6522SOL    HW120465   2.294   5.604   0.083
 6522SOL    HW220466   2.235   5.693   6.979
 6523SOL     OW20467   2.775   1.237   6.508
 6523SOL    HW120468   2.716   1.169   6.465
 6523SOL    HW220469   2.722   1.291   6.574
 6524SOL     OW20470   3.490   3.805   3.485
 6524SOL    HW120471   3.484   3.839   3.579
 6524SOL    HW220472   3.437   3.720   3.478
 6525SOL     OW20473   1.153   2.458   3.015
 6525SOL    HW120474   1.075   2.447   2.953
 6525SOL    HW220475   1.125   2.433   3.108
 6526SOL     OW20476   1.099   6.274   4.791
 6526SOL    HW120477   1.088   6.348   4.724
 6526SOL    HW220478   1.191   6.276   4.829
 6527SOL     OW20479   1.578   0.453   5.274
 6527SOL    HW120480   1.581   0.499   5.185
 6527SOL    HW220481   1.627   0.366   5.268
 6528SOL     OW20482   0.218   1.282   4.145
 6528SOL    HW120483   0.276   1.215   4.098
 6528SOL    HW220484   0.136   1.298   4.091
 6529SOL     OW20485   5.694   1.604   2.504
 6529SOL    HW120486   5.768   1.545   2.537
 6529SOL    HW220487   5.687   1.596   2.405
 6530SOL     OW20488   6.423   2.863   0.377
 6530SOL    HW120489   6.390   2.842   0.469
 6530SOL    HW220490   6.464   2.780   0.337
 6531SOL     OW20491   5.611   2.336   3.896
 6531SOL    HW120492   5.697   2.382   3.871
 6531SOL    HW220493   5.616   2.307   3.992
 6532SOL     OW20494   6.469   1.538   6.482
 6532SOL    HW120495   6.537   1.478   6.525
 6532SOL    HW220496   6.510   1.585   6.404
 6533SOL     OW20497   5.355   6.161   1.343
 6533SOL    HW120498   5.261   6.194   1.334
 6533SOL    HW220499   5.354   6.065   1.371
 6534SOL     OW20500   2.432   3.571   1.315
 6534SOL    HW120501   2.399   3.614   1.399
 6534SOL    HW220502   2.531   3.583   1.309
 6535SOL     OW20503   0.072   3.402   5.246
 6535SOL    HW120504   0.085   3.345   5.165
 6535SOL    HW220505   0.077   3.499   5.221
 6536SOL     OW20506   5.997   1.924   6.861
 6536SOL    HW120507   6.038   1.833   6.855
 6536SOL    HW220508   5.967   1.942   6.955
 6537SOL     OW20509   6.346   6.714   6.950
 6537SOL    HW120510   6.328   6.804   6.989
 6537SOL    HW220511   6.283   6.696   6.875
 6538SOL     OW20512   3.302   3.652   0.222
 6538SOL    HW120513   3.204   3.661   0.241
 6538SOL    HW220514   3.315   3.622   0.128
 6539SOL     OW20515   2.401   1.583   6.367
 6539SOL    HW120516   2.354   1.506   6.411
 6539SOL    HW220517   2.480   1.550   6.316
 6540SOL     OW20518   3.743   1.793   4.098
 6540SOL    HW120519   3.687   1.725   4.051
 6540SOL    HW220520   3.754   1.873   4.039
 6541SOL     OW20521   3.069   2.560   5.300
 6541SOL    HW120522   2.969   2.555   5.299
 6541SOL    HW220523   3.107   2.490   5.239
 6542SOL     OW20524   6.200   4.737   3.098
 6542SOL    HW120525   6.199   4.704   3.004
 6542SOL    HW220526   6.122   4.798   3.113
 6543SOL     OW20527   6.375   5.566   0.575
 6543SOL    HW120528   6.318   5.519   0.642
 6543SOL    HW220529   6.366   5.664   0.587
 6544SOL     OW20530   6.555   6.383   4.216
 6544SOL    HW120531   6.609   6.462   4.187
 6544SOL    HW220532   6.573   6.364   4.313
 6545SOL     OW20533   5.397   0.985   5.991
 6545SOL    HW120534   5.464   0.971   6.064
 6545SOL    HW220535   5.439   1.037   5.916
 6546SOL     OW20536   4.118   4.699   6.348
 6546SOL    HW120537   4.079   4.776   6.297
 6546SOL    HW220538   4.099   4.711   6.446
 6547SOL     OW20539   4.665   2.368   6.153
 6547SOL    HW120540   4.715   2.285   6.177
 6547SOL    HW220541   4.629   2.360   6.060
 6548SOL     OW20542   6.775   4.369   5.872
 6548SOL    HW120543   6.774   4.321   5.784
 6548SOL    HW220544   6.793   4.467   5.856
 6549SOL     OW20545   3.958   2.043   0.963
 6549SOL    HW120546   3.863   2.074   0.957
 6549SOL    HW220547   3.961   1.944   0.976
 6550SOL     OW20548   0.476   5.469   3.441
 6550SOL    HW120549   0.557   5.509   3.483
 6550SOL    HW220550   0.402   5.466   3.508
 6551SOL     OW20551   2.315   4.619   1.402
 6551SOL    HW120552   2.233   4.616   1.460
 6551SOL    HW220553   2.326   4.531   1.356
 6552SOL     OW20554   2.622   5.449   5.712
 6552SOL    HW120555   2.540   5.425   5.765
 6552SOL    HW220556   2.673   5.366   5.690
 6553SOL     OW20557   0.657   3.464   2.190
 6553SOL    HW120558   0.709   3.418   2.262
 6553SOL    HW220559   0.682   3.427   2.101
 6554SOL     OW20560   6.325   1.712   5.791
 6554SOL    HW120561   6.313   1.749   5.699
 6554SOL    HW220562   6.245   1.658   5.815
 6555SOL     OW20563   1.726   0.762   2.067
 6555SOL    HW120564   1.660   0.805   2.006
 6555SOL    HW220565   1.688   0.755   2.159
 6556SOL     OW20566   4.640   4.814   5.053
 6556SOL    HW120567   4.594   4.820   4.965
 6556SOL    HW220568   4.729   4.768   5.042
 6557SOL     OW20569   6.105   5.448   0.710
 6557SOL    HW120570   6.020   5.406   0.680
 6557SOL    HW220571   6.090   5.546   0.727
 6558SOL     OW20572   6.715   6.303   0.863
 6558SOL    HW120573   6.783   6.244   0.820
 6558SOL    HW220574   6.723   6.395   0.825
 6559SOL     OW20575   4.983   3.919   0.761
 6559SOL    HW120576   5.003   3.901   0.664
 6559SOL    HW220577   4.888   3.896   0.781
 6560SOL     OW20578   4.185   2.974   1.279
 6560SOL    HW120579   4.163   3.027   1.197
 6560SOL    HW220580   4.142   3.018   1.358
 6561SOL     OW20581   3.837   4.051   2.631
 6561SOL    HW120582   3.871   3.962   2.663
 6561SOL    HW220583   3.849   4.058   2.532
 6562SOL     OW20584   6.623   4.803   5.913
 6562SOL    HW120585   6.670   4.843   5.991
 6562SOL    HW220586   6.524   4.813   5.925
 6563SOL     OW20587   0.350   5.900   0.156
 6563SOL    HW120588   0.400   5.930   0.075
 6563SOL    HW220589   0.349   5.800   0.160
 6564SOL     OW20590   1.355   3.771   2.190
 6564SOL    HW120591   1.334   3.747   2.285
 6564SOL    HW220592   1.404   3.858   2.188
 6565SOL     OW20593   5.428   2.536   4.732
 6565SOL    HW120594   5.334   2.506   4.717
 6565SOL    HW220595   5.454   2.602   4.663
 6566SOL     OW20596   3.351   0.310   1.924
 6566SOL    HW120597   3.281   0.317   1.853
 6566SOL    HW220598   3.436   0.353   1.891
 6567SOL     OW20599   4.868   2.865   0.548
 6567SOL    HW120600   4.843   2.841   0.642
 6567SOL    HW220601   4.830   2.797   0.485
 6568SOL     OW20602   4.279   4.926   1.792
 6568SOL    HW120603   4.236   4.988   1.858
 6568SOL    HW220604   4.234   4.837   1.796
 6569SOL     OW20605   2.143   5.363   0.815
 6569SOL    HW120606   2.111   5.438   0.756
 6569SOL    HW220607   2.130   5.388   0.911
 6570SOL     OW20608   4.996   0.721   2.059
 6570SOL    HW120609   5.032   0.696   1.969
 6570SOL    HW220610   4.899   0.743   2.051
 6571SOL     OW20611   2.174   5.773   3.485
 6571SOL    HW120612   2.176   5.823   3.398
 6571SOL    HW220613   2.089   5.795   3.534
 6572SOL     OW20614   6.512   3.726   5.306
 6572SOL    HW120615   6.450   3.726   5.228
 6572SOL    HW220616   6.552   3.635   5.316
 6573SOL     OW20617   3.708   1.136   2.734
 6573SOL    HW120618   3.709   1.211   2.800
 6573SOL    HW220619   3.760   1.059   2.771
 6574SOL     OW20620   2.218   5.798   2.201
 6574SOL    HW120621   2.123   5.828   2.188
 6574SOL    HW220622   2.246   5.816   2.295
 6575SOL     OW20623   0.916   1.190   1.633
 6575SOL    HW120624   0.912   1.094   1.603
 6575SOL    HW220625   0.932   1.193   1.731
 6576SOL     OW20626   1.343   5.529   6.967
 6576SOL    HW120627   1.417   5.462   6.964
 6576SOL    HW220628   1.281   5.506   0.023
 6577SOL     OW20629   0.402   1.723   3.515
 6577SOL    HW120630   0.447   1.720   3.426
 6577SOL    HW220631   0.411   1.634   3.560
 6578SOL     OW20632   5.862   5.169   3.692
 6578SOL    HW120633   5.890   5.200   3.601
 6578SOL    HW220634   5.775   5.212   3.716
 6579SOL     OW20635   0.171   3.893   3.866
 6579SOL    HW120636   0.159   3.797   3.891
 6579SOL    HW220637   0.085   3.942   3.877
 6580SOL     OW20638   5.640   0.573   0.961
 6580SOL    HW120639   5.578   0.511   1.009
 6580SOL    HW220640   5.642   0.551   0.864
 6581SOL     OW20641   4.243   1.602   6.186
 6581SOL    HW120642   4.310   1.551   6.239
 6581SOL    HW220643   4.152   1.586   6.223
 6582SOL     OW20644   0.713   0.005   2.840
 6582SOL    HW120645   0.654   0.022   2.761
 6582SOL    HW220646   0.668   0.039   2.922
 6583SOL     OW20647   5.650   1.045   6.127
 6583SOL    HW120648   5.612   1.137   6.133
 6583SOL    HW220649   5.676   1.014   6.218
 6584SOL     OW20650   5.683   1.552   6.152
 6584SOL    HW120651   5.669   1.534   6.249
 6584SOL    HW220652   5.659   1.647   6.131
 6585SOL     OW20653   0.504   1.757   6.955
 6585SOL    HW120654   0.567   1.740   0.012
 6585SOL    HW220655   0.547   1.728   6.869
 6586SOL     OW20656   6.283   1.741   6.135
 6586SOL    HW120657   6.276   1.776   6.042
 6586SOL    HW220658   6.376   1.754   6.169
 6587SOL     OW20659   2.361   5.730   3.956
 6587SOL    HW120660   2.416   5.746   3.874
 6587SOL    HW220661   2.403   5.778   4.034
 6588SOL     OW20662   1.524   3.531   0.705
 6588SOL    HW120663   1.537   3.604   0.772
 6588SOL    HW220664   1.608   3.477   0.697
 6589SOL     OW20665   4.956   0.429   6.156
 6589SOL    HW120666   4.932   0.362   6.085
 6589SOL    HW220667   4.953   0.384   6.245
 6590SOL     OW20668   0.023   1.445   4.554
 6590SOL    HW120669   7.006   1.449   4.647
 6590SOL    HW220670   6.976   1.486   4.491
 6591SOL     OW20671   5.687   6.751   2.532
 6591SOL    HW120672   5.712   6.654   2.537
 6591SOL    HW220673   5.587   6.760   2.531
 6592SOL     OW20674   4.107   0.403   4.897
 6592SOL    HW120675   4.106   0.333   4.825
 6592SOL    HW220676   4.015   0.414   4.935
 6593SOL     OW20677   3.081   2.137   4.074
 6593SOL    HW120678   3.115   2.226   4.044
 6593SOL    HW220679   3.086   2.132   4.174
 6594SOL     OW20680   5.119   0.345   6.698
 6594SOL    HW120681   5.206   0.357   6.745
 6594SOL    HW220682   5.057   0.291   6.755
 6595SOL     OW20683   1.705   3.668   0.889
 6595SOL    HW120684   1.778   3.601   0.892
 6595SOL    HW220685   1.691   3.708   0.980
 6596SOL     OW20686   4.727   7.006   5.893
 6596SOL    HW120687   4.768   6.929   5.843
 6596SOL    HW220688   4.665   0.036   5.833
 6597SOL     OW20689   0.386   6.699   4.210
 6597SOL    HW120690   0.415   6.669   4.301
 6597SOL    HW220691   0.310   6.763   4.218
 6598SOL     OW20692   1.457   5.659   4.810
 6598SOL    HW120693   1.487   5.577   4.762
 6598SOL    HW220694   1.534   5.701   4.857
 6599SOL     OW20695   4.213   4.933   6.007
 6599SOL    HW120696   4.185   4.866   6.076
 6599SOL    HW220697   4.299   4.905   5.966
 6600SOL     OW20698   4.975   5.058   4.872
 6600SOL    HW120699   5.029   4.993   4.926
 6600SOL    HW220700   5.036   5.108   4.811
 6601SOL     OW20701   0.306   1.222   0.660
 6601SOL    HW120702   0.296   1.255   0.566
 6601SOL    HW220703   0.222   1.240   0.711
 6602SOL     OW20704   0.288   2.402   1.557
 6602SOL    HW120705   0.376   2.416   1.513
 6602SOL    HW220706   0.275   2.305   1.575
 6603SOL     OW20707   1.760   3.754   3.363
 6603SOL    HW120708   1.727   3.750   3.457
 6603SOL    HW220709   1.758   3.848   3.330
 6604SOL     OW20710   2.223   5.724   1.916
 6604SOL    HW120711   2.248   5.784   1.840
 6604SOL    HW220712   2.235   5.774   2.002
 6605SOL     OW20713   5.208   5.547   0.221
 6605SOL    HW120714   5.238   5.526   0.315
 6605SOL    HW220715   5.283   5.591   0.172
 6606SOL     OW20716   4.854   0.712   2.515
 6606SOL    HW120717   4.828   0.806   2.535
 6606SOL    HW220718   4.882   0.705   2.419
 6607SOL     OW20719   1.975   1.211   2.297
 6607SOL    HW120720   1.924   1.249   2.220
 6607SOL    HW220721   2.068   1.246   2.296
 6608SOL     OW20722   5.433   3.086   3.011
 6608SOL    HW120723   5.335   3.086   3.028
 6608SOL    HW220724   5.458   3.003   2.960
 6609SOL     OW20725   5.509   1.044   6.964
 6609SOL    HW120726   5.457   1.015   0.025
 6609SOL    HW220727   5.582   0.978   6.946
 6610SOL     OW20728   2.047   0.168   0.423
 6610SOL    HW120729   2.129   0.221   0.402
 6610SOL    HW220730   2.053   0.133   0.516
 6611SOL     OW20731   6.235   2.370   2.715
 6611SOL    HW120732   6.200   2.281   2.744
 6611SOL    HW220733   6.332   2.376   2.739
 6612SOL     OW20734   1.187   5.825   6.530
 6612SOL    HW120735   1.112   5.767   6.497
 6612SOL    HW220736   1.275   5.787   6.500
 6613SOL     OW20737   4.946   5.053   2.823
 6613SOL    HW120738   5.001   5.119   2.772
 6613SOL    HW220739   4.958   4.961   2.784
 6614SOL     OW20740   5.101   5.288   6.180
 6614SOL    HW120741   5.116   5.269   6.277
 6614SOL    HW220742   5.188   5.310   6.137
 6615SOL     OW20743   0.482   3.058   4.910
 6615SOL    HW120744   0.432   3.042   4.995
 6615SOL    HW220745   0.504   2.970   4.867
 6616SOL     OW20746   4.720   1.511   5.400
 6616SOL    HW120747   4.782   1.433   5.405
 6616SOL    HW220748   4.699   1.544   5.492
 6617SOL     OW20749   3.157   6.460   3.995
 6617SOL    HW120750   3.207   6.461   3.908
 6617SOL    HW220751   3.144   6.554   4.027
 6618SOL     OW20752   0.759   4.146   2.108
 6618SOL    HW120753   0.798   4.189   2.190
 6618SOL    HW220754   0.669   4.108   2.130
 6619SOL     OW20755   4.386   6.740   3.615
 6619SOL    HW120756   4.356   6.683   3.692
 6619SOL    HW220757   4.321   6.732   3.540
 6620SOL     OW20758   1.557   2.953   6.368
 6620SOL    HW120759   1.606   2.866   6.375
 6620SOL    HW220760   1.530   2.969   6.273
 6621SOL     OW20761   2.456   4.061   0.586
 6621SOL    HW120762   2.535   4.031   0.639
 6621SOL    HW220763   2.380   4.082   0.648
 6622SOL     OW20764   6.751   6.543   0.788
 6622SOL    HW120765   6.705   6.618   0.741
 6622SOL    HW220766   6.796   6.579   0.871
 6623SOL     OW20767   3.556   3.031   2.184
 6623SOL    HW120768   3.503   2.968   2.128
 6623SOL    HW220769   3.584   3.110   2.128
 6624SOL     OW20770   3.431   5.653   5.068
 6624SOL    HW120771   3.394   5.575   5.017
 6624SOL    HW220772   3.511   5.623   5.121
 6625SOL     OW20773   6.178   1.020   6.362
 6625SOL    HW120774   6.215   1.029   6.454
 6625SOL    HW220775   6.188   1.106   6.313
 6626SOL     OW20776   3.014   5.572   3.387
 6626SOL    HW120777   2.963   5.527   3.460
 6626SOL    HW220778   3.028   5.507   3.312
 6627SOL     OW20779   2.047   0.793   6.280
 6627SOL    HW120780   1.956   0.753   6.281
 6627SOL    HW220781   2.110   0.735   6.332
 6628SOL     OW20782   4.445   4.725   2.359
 6628SOL    HW120783   4.492   4.637   2.353
 6628SOL    HW220784   4.502   4.796   2.318
 6629SOL     OW20785   2.884   5.841   1.866
 6629SOL    HW120786   2.935   5.875   1.944
 6629SOL    HW220787   2.850   5.919   1.812
 6630SOL     OW20788   3.790   0.994   0.272
 6630SOL    HW120789   3.797   0.954   0.363
 6630SOL    HW220790   3.860   1.065   0.261
 6631SOL     OW20791   4.893   0.134   2.158
 6631SOL    HW120792   4.839   0.196   2.101
 6631SOL    HW220793   4.955   0.187   2.215
 6632SOL     OW20794   6.906   1.553   0.474
 6632SOL    HW120795   6.816   1.596   0.483
 6632SOL    HW220796   6.976   1.613   0.511
 6633SOL     OW20797   1.135   6.092   6.614
 6633SOL    HW120798   1.165   5.998   6.602
 6633SOL    HW220799   1.152   6.121   6.709
 6634SOL     OW20800   6.333   3.475   5.807
 6634SOL    HW120801   6.315   3.541   5.880
 6634SOL    HW220802   6.337   3.383   5.845
 6635SOL     OW20803   4.361   5.033   3.617
 6635SOL    HW120804   4.370   5.111   3.680
 6635SOL    HW220805   4.443   4.976   3.623
 6636SOL     OW20806   1.120   2.907   5.083
 6636SOL    HW120807   1.066   2.855   5.018
 6636SOL    HW220808   1.211   2.867   5.091
 6637SOL     OW20809   1.619   0.541   0.649
 6637SOL    HW120810   1.679   0.520   0.571
 6637SOL    HW220811   1.674   0.580   0.723
 6638SOL     OW20812   1.961   5.680   4.971
 6638SOL    HW120813   2.054   5.644   4.969
 6638SOL    HW220814   1.933   5.704   4.878
 6639SOL     OW20815   5.553   4.969   6.353
 6639SOL    HW120816   5.552   5.067   6.371
 6639SOL    HW220817   5.475   4.925   6.399
 6640SOL     OW20818   6.834   2.066   3.960
 6640SOL    HW120819   6.834   2.089   4.057
 6640SOL    HW220820   6.927   2.077   3.923
 6641SOL     OW20821   3.372   3.844   6.542
 6641SOL    HW120822   3.300   3.854   6.611
 6641SOL    HW220823   3.390   3.933   6.500
 6642SOL     OW20824   1.280   4.961   0.214
 6642SOL    HW120825   1.290   4.869   0.175
 6642SOL    HW220826   1.269   5.027   0.139
 6643SOL     OW20827   6.367   4.049   6.238
 6643SOL    HW120828   6.345   4.139   6.276
 6643SOL    HW220829   6.324   4.039   6.148
 6644SOL     OW20830   2.757   4.927   1.767
 6644SOL    HW120831   2.785   4.834   1.746
 6644SOL    HW220832   2.683   4.925   1.835
 6645SOL     OW20833   0.161   5.383   6.518
 6645SOL    HW120834   0.157   5.373   6.418
 6645SOL    HW220835   0.257   5.377   6.547
 6646SOL     OW20836   4.156   5.136   4.330
 6646SOL    HW120837   4.162   5.236   4.340
 6646SOL    HW220838   4.069   5.112   4.288
 6647SOL     OW20839   3.444   0.242   2.416
 6647SOL    HW120840   3.532   0.210   2.382
 6647SOL    HW220841   3.399   0.296   2.345
 6648SOL     OW20842   3.959   5.585   2.909
 6648SOL    HW120843   3.861   5.590   2.891
 6648SOL    HW220844   4.007   5.648   2.847
 6649SOL     OW20845   5.236   1.345   6.468
 6649SOL    HW120846   5.271   1.417   6.409
 6649SOL    HW220847   5.240   1.374   6.564
 6650SOL     OW20848   4.178   0.874   3.517
 6650SOL    HW120849   4.115   0.951   3.517
 6650SOL    HW220850   4.226   0.870   3.605
 6651SOL     OW20851   1.247   1.987   0.319
 6651SOL    HW120852   1.231   2.070   0.265
 6651SOL    HW220853   1.260   2.012   0.415
 6652SOL     OW20854   6.778   5.256   1.284
 6652SOL    HW120855   6.798   5.179   1.346
 6652SOL    HW220856   6.771   5.222   1.191
 6653SOL     OW20857   3.103   3.967   3.137
 6653SOL    HW120858   3.023   3.978   3.195
 6653SOL    HW220859   3.154   3.886   3.166
 6654SOL     OW20860   1.998   2.614   0.912
 6654SOL    HW120861   2.030   2.545   0.977
 6654SOL    HW220862   1.898   2.620   0.917
 6655SOL     OW20863   2.816   6.451   2.011
 6655SOL    HW120864   2.855   6.532   1.968
 6655SOL    HW220865   2.737   6.420   1.958
 6656SOL     OW20866   6.988   1.483   2.219
 6656SOL    HW120867   0.054   1.491   2.169
 6656SOL    HW220868   6.926   1.421   2.171
 6657SOL     OW20869   4.083   6.965   6.252
 6657SOL    HW120870   3.991   6.967   6.212
 6657SOL    HW220871   4.135   0.024   6.220
 6658SOL     OW20872   5.570   0.406   5.214
 6658SOL    HW120873   5.664   0.432   5.189
 6658SOL    HW220874   5.508   0.432   5.141
 6659SOL     OW20875   2.914   3.031   6.924
 6659SOL    HW120876   2.918   2.953   6.861
 6659SOL    HW220877   2.983   3.020   6.995
 6660SOL     OW20878   6.906   6.527   2.164
 6660SOL    HW120879   6.819   6.576   2.156
 6660SOL    HW220880   6.901   6.441   2.113
 6661SOL     OW20881   6.155   5.097   3.605
 6661SOL    HW120882   6.225   5.149   3.654
 6661SOL    HW220883   6.140   5.009   3.650
 6662SOL     OW20884   2.506   0.804   0.237
 6662SOL    HW120885   2.459   0.716   0.244
 6662SOL    HW220886   2.452   0.875   0.283
 6663SOL     OW20887   6.713   5.759   2.891
 6663SOL    HW120888   6.809   5.784   2.878
 6663SOL    HW220889   6.657   5.842   2.894
 6664SOL     OW20890   0.986   0.214   2.278
 6664SOL    HW120891   1.055   0.147   2.307
 6664SOL    HW220892   0.897   0.189   2.316
 6665SOL     OW20893   1.222   6.427   3.210
 6665SOL    HW120894   1.237   6.343   3.160
 6665SOL    HW220895   1.129   6.460   3.192
 6666SOL     OW20896   6.173   1.519   4.933
 6666SOL    HW120897   6.098   1.475   4.883
 6666SOL    HW220898   6.212   1.592   4.876
 6667SOL     OW20899   6.159   5.093   4.630
 6667SOL    HW120900   6.183   5.014   4.686
 6667SOL    HW220901   6.060   5.109   4.634
 6668SOL     OW20902   0.106   5.024   2.157
 6668SOL    HW120903   0.050   5.106   2.146
 6668SOL    HW220904   0.179   5.041   2.223
 6669SOL     OW20905   2.593   4.895   3.527
 6669SOL    HW120906   2.526   4.881   3.454
 6669SOL    HW220907   2.683   4.865   3.496
 6670SOL     OW20908   3.508   5.152   0.001
 6670SOL    HW120909   3.582   5.090   6.995
 6670SOL    HW220910   3.432   5.101   0.039
 6671SOL     OW20911   6.224   4.589   6.341
 6671SOL    HW120912   6.250   4.533   6.421
 6671SOL    HW220913   6.286   4.569   6.266
 6672SOL     OW20914   1.566   0.510   5.715
 6672SOL    HW120915   1.582   0.552   5.804
 6672SOL    HW220916   1.597   0.414   5.718
 6673SOL     OW20917   4.555   5.012   2.204
 6673SOL    HW120918   4.495   5.012   2.124
 6673SOL    HW220919   4.503   5.040   2.285
 6674SOL     OW20920   0.774   5.280   5.352
 6674SOL    HW120921   0.697   5.218   5.339
 6674SOL    HW220922   0.748   5.353   5.415
 6675SOL     OW20923   5.423   4.130   0.240
 6675SOL    HW120924   5.376   4.214   0.211
 6675SOL    HW220925   5.473   4.091   0.163
 6676SOL     OW20926   0.562   3.248   5.320
 6676SOL    HW120927   0.468   3.280   5.331
 6676SOL    HW220928   0.612   3.313   5.263
 6677SOL     OW20929   0.491   3.109   0.437
 6677SOL    HW120930   0.474   3.162   0.355
 6677SOL    HW220931   0.449   3.154   0.516
 6678SOL     OW20932   1.109   2.452   6.525
 6678SOL    HW120933   1.194   2.504   6.517
 6678SOL    HW220934   1.074   2.431   6.434
 6679SOL     OW20935   1.212   2.236   5.325
 6679SOL    HW120936   1.252   2.166   5.266
 6679SOL    HW220937   1.159   2.191   5.398
 6680SOL     OW20938   4.001   6.006   6.358
 6680SOL    HW120939   4.084   5.970   6.401
 6680SOL    HW220940   3.969   5.942   6.289
 6681SOL     OW20941   5.564   5.364   0.154
 6681SOL    HW120942   5.663   5.360   0.151
 6681SOL    HW220943   5.526   5.326   0.070
 6682SOL     OW20944   0.228   5.211   2.745
 6682SOL    HW120945   0.303   5.260   2.701
 6682SOL    HW220946   0.229   5.116   2.715
 6683SOL     OW20947   5.004   1.874   5.076
 6683SOL    HW120948   4.923   1.822   5.104
 6683SOL    HW220949   5.085   1.837   5.123
 6684SOL     OW20950   1.639   6.666   2.528
 6684SOL    HW120951   1.626   6.763   2.504
 6684SOL    HW220952   1.693   6.660   2.612
 6685SOL     OW20953   5.427   2.332   6.362
 6685SOL    HW120954   5.350   2.302   6.418
 6685SOL    HW220955   5.512   2.313   6.410
 6686SOL     OW20956   5.647   4.219   4.417
 6686SOL    HW120957   5.646   4.124   4.449
 6686SOL    HW220958   5.630   4.221   4.318
 6687SOL     OW20959   1.247   1.630   0.867
 6687SOL    HW120960   1.163   1.628   0.812
 6687SOL    HW220961   1.299   1.712   0.844
 6688SOL     OW20962   7.016   4.900   2.687
 6688SOL    HW120963   0.091   4.899   2.654
 6688SOL    HW220964   7.010   4.958   2.768
 6689SOL     OW20965   4.748   3.627   0.480
 6689SOL    HW120966   4.782   3.648   0.571
 6689SOL    HW220967   4.823   3.598   0.422
 6690SOL     OW20968   2.659   2.558   1.289
 6690SOL    HW120969   2.575   2.572   1.341
 6690SOL    HW220970   2.656   2.612   1.205
 6691SOL     OW20971   2.168   6.038   1.309
 6691SOL    HW120972   2.209   5.948   1.324
 6691SOL    HW220973   2.137   6.074   1.397
 6692SOL     OW20974   3.013   4.330   5.296
 6692SOL    HW120975   2.952   4.254   5.274
 6692SOL    HW220976   2.980   4.414   5.252
 6693SOL     OW20977   4.559   3.883   5.475
 6693SOL    HW120978   4.608   3.969   5.489
 6693SOL    HW220979   4.624   3.812   5.446
 6694SOL     OW20980   4.741   6.421   0.774
 6694SOL    HW120981   4.836   6.442   0.751
 6694SOL    HW220982   4.701   6.498   0.824
 6695SOL     OW20983   0.929   1.413   6.749
 6695SOL    HW120984   0.919   1.363   6.835
 6695SOL    HW220985   1.015   1.463   6.749
 6696SOL     OW20986   2.129   2.806   1.622
 6696SOL    HW120987   2.121   2.796   1.522
 6696SOL    HW220988   2.046   2.848   1.658
 6697SOL     OW20989   4.700   1.392   2.651
 6697SOL    HW120990   4.635   1.468   2.660
 6697SOL    HW220991   4.790   1.421   2.685
 6698SOL     OW20992   4.035   2.878   6.877
 6698SOL    HW120993   4.125   2.848   6.846
 6698SOL    HW220994   4.021   2.973   6.850
 6699SOL     OW20995   3.623   4.886   6.924
 6699SOL    HW120996   3.677   4.811   6.886
 6699SOL    HW220997   3.531   4.883   6.884
 6700SOL     OW20998   0.489   5.572   1.323
 6700SOL    HW120999   0.528   5.480   1.323
 6700SOL    HW221000   0.551   5.635   1.275
 6701SOL     OW21001   0.120   1.711   0.514
 6701SOL    HW121002   0.192   1.642   0.510
 6701SOL    HW221003   0.094   1.726   0.609
 6702SOL     OW21004   2.732   1.886   0.853
 6702SOL    HW121005   2.659   1.905   0.919
 6702SOL    HW221006   2.722   1.793   0.819
 6703SOL     OW21007   6.625   1.323   6.204
 6703SOL    HW121008   6.651   1.259   6.277
 6703SOL    HW221009   6.693   1.397   6.199
 6704SOL     OW21010   4.626   2.556   2.342
 6704SOL    HW121011   4.688   2.487   2.303
 6704SOL    HW221012   4.634   2.641   2.291
 6705SOL     OW21013   6.299   2.569   1.746
 6705SOL    HW121014   6.374   2.602   1.802
 6705SOL    HW221015   6.314   2.474   1.721
 6706SOL     OW21016   1.320   3.690   0.106
 6706SOL    HW121017   1.280   3.619   0.164
 6706SOL    HW221018   1.247   3.743   0.063
 6707SOL     OW21019   6.141   5.420   4.247
 6707SOL    HW121020   6.204   5.496   4.263
 6707SOL    HW221021   6.052   5.456   4.219
 6708SOL     OW21022   1.479   5.311   2.226
 6708SOL    HW121023   1.417   5.237   2.201
 6708SOL    HW221024   1.571   5.292   2.191
 6709SOL     OW21025   3.481   6.848   1.886
 6709SOL    HW121026   3.440   6.807   1.805
 6709SOL    HW221027   3.458   6.793   1.967
 6710SOL     OW21028   2.750   2.855   6.101
 6710SOL    HW121029   2.721   2.863   6.006
 6710SOL    HW221030   2.682   2.804   6.153
 6711SOL     OW21031   5.139   3.573   6.323
 6711SOL    HW121032   5.197   3.538   6.249
 6711SOL    HW221033   5.162   3.669   6.341
 6712SOL     OW21034   4.368   5.255   0.716
 6712SOL    HW121035   4.309   5.262   0.636
 6712SOL    HW221036   4.313   5.230   0.795
 6713SOL     OW21037   2.368   2.459   1.586
 6713SOL    HW121038   2.356   2.516   1.668
 6713SOL    HW221039   2.383   2.518   1.507
 6714SOL     OW21040   5.188   6.969   4.349
 6714SOL    HW121041   5.099   7.011   4.369
 6714SOL    HW221042   5.184   6.921   4.262
 6715SOL     OW21043   0.480   2.164   0.995
 6715SOL    HW121044   0.436   2.241   1.040
 6715SOL    HW221045   0.496   2.186   0.899
 6716SOL     OW21046   1.650   6.317   0.862
 6716SOL    HW121047   1.747   6.323   0.836
 6716SOL    HW221048   1.642   6.315   0.961
 6717SOL     OW21049   3.638   3.044   0.632
 6717SOL    HW121050   3.641   2.985   0.713
 6717SOL    HW221051   3.722   3.033   0.579
 6718SOL     OW21052   3.554   6.956   6.950
 6718SOL    HW121053   3.551   6.857   6.947
 6718SOL    HW221054   3.541   6.993   6.858
 6719SOL     OW21055   0.350   6.592   5.351
 6719SOL    HW121056   0.443   6.620   5.329
 6719SOL    HW221057   0.298   6.579   5.266
 6720SOL     OW21058   1.825   6.022   1.718
 6720SOL    HW121059   1.900   6.019   1.783
 6720SOL    HW221060   1.738   6.015   1.767
 6721SOL     OW21061   5.160   6.242   4.221
 6721SOL    HW121062   5.249   6.260   4.180
 6721SOL    HW221063   5.126   6.153   4.189
 6722SOL     OW21064   4.255   3.398   6.710
 6722SOL    HW121065   4.327   3.388   6.779
 6722SOL    HW221066   4.249   3.315   6.655
 6723SOL     OW21067   2.465   6.927   3.741
 6723SOL    HW121068   2.394   6.856   3.747
 6723SOL    HW221069   2.495   6.935   3.647
 6724SOL     OW21070   2.951   4.724   5.383
 6724SOL    HW121071   2.914   4.665   5.310
 6724SOL    HW221072   2.890   4.801   5.397
 6725SOL     OW21073   0.465   4.699   2.381
 6725SOL    HW121074   0.496   4.731   2.470
 6725SOL    HW221075   0.479   4.771   2.313
 6726SOL     OW21076   2.339   2.777   4.183
 6726SOL    HW121077   2.349   2.827   4.269
 6726SOL    HW221078   2.328   2.841   4.108
 6727SOL     OW21079   4.573   3.457   6.050
 6727SOL    HW121080   4.473   3.461   6.061
 6727SOL    HW221081   4.605   3.366   6.076
 6728SOL     OW21082   3.784   2.013   3.925
 6728SOL    HW121083   3.858   2.080   3.930
 6728SOL    HW221084   3.746   2.013   3.832
 6729SOL     OW21085   6.318   0.832   2.758
 6729SOL    HW121086   6.270   0.810   2.673
 6729SOL    HW221087   6.392   0.767   2.773
 6730SOL     OW21088   2.772   0.721   0.287
 6730SOL    HW121089   2.842   0.682   0.227
 6730SOL    HW221090   2.682   0.689   0.258
 6731SOL     OW21091   2.623   4.405   1.402
 6731SOL    HW121092   2.532   4.372   1.380
 6731SOL    HW221093   2.628   4.428   1.500
 6732SOL     OW21094   2.410   6.817   0.981
 6732SOL    HW121095   2.356   6.871   0.916
 6732SOL    HW221096   2.370   6.726   0.990
 6733SOL     OW21097   4.530   6.035   5.395
 6733SOL    HW121098   4.519   6.109   5.329
 6733SOL    HW221099   4.444   6.024   5.446
 6734SOL     OW21100   1.368   3.071   5.448
 6734SOL    HW121101   1.298   3.141   5.461
 6734SOL    HW221102   1.456   3.116   5.431
 6735SOL     OW21103   6.700   4.887   5.632
 6735SOL    HW121104   6.656   4.962   5.582
 6735SOL    HW221105   6.673   4.891   5.728
 6736SOL     OW21106   2.799   2.809   1.733
 6736SOL    HW121107   2.710   2.845   1.758
 6736SOL    HW221108   2.803   2.712   1.756
 6737SOL     OW21109   2.507   1.570   2.714
 6737SOL    HW121110   2.540   1.509   2.786
 6737SOL    HW221111   2.407   1.564   2.709
 6738SOL     OW21112   2.853   1.305   2.753
 6738SOL    HW121113   2.770   1.306   2.807
 6738SOL    HW221114   2.931   1.281   2.811
 6739SOL     OW21115   3.807   6.294   5.011
 6739SOL    HW121116   3.850   6.339   5.089
 6739SOL    HW221117   3.859   6.312   4.928
 6740SOL     OW21118   1.825   1.118   4.456
 6740SOL    HW121119   1.897   1.186   4.462
 6740SOL    HW221120   1.753   1.140   4.522
 6741SOL     OW21121   6.471   0.745   6.122
 6741SOL    HW121122   6.439   0.832   6.159
 6741SOL    HW221123   6.524   0.761   6.039
 6742SOL     OW21124   6.354   5.911   5.402
 6742SOL    HW121125   6.300   5.964   5.467
 6742SOL    HW221126   6.450   5.910   5.431
 6743SOL     OW21127   4.013   3.400   1.454
 6743SOL    HW121128   4.090   3.364   1.402
 6743SOL    HW221129   4.003   3.350   1.540
 6744SOL     OW21130   4.401   4.794   5.890
 6744SOL    HW121131   4.381   4.704   5.928
 6744SOL    HW221132   4.454   4.784   5.806
 6745SOL     OW21133   1.049   4.626   3.249
 6745SOL    HW121134   1.015   4.682   3.173
 6745SOL    HW221135   1.065   4.684   3.329
 6746SOL     OW21136   0.098   2.254   1.242
 6746SOL    HW121137   0.162   2.180   1.219
 6746SOL    HW221138   0.106   2.327   1.174
 6747SOL     OW21139   4.877   5.723   5.121
 6747SOL    HW121140   4.849   5.805   5.171
 6747SOL    HW221141   4.938   5.749   5.046
 6748SOL     OW21142   0.931   0.721   2.535
 6748SOL    HW121143   0.852   0.741   2.593
 6748SOL    HW221144   0.900   0.705   2.441
 6749SOL     OW21145   4.648   0.246   0.338
 6749SOL    HW121146   4.747   0.257   0.345
 6749SOL    HW221147   4.627   0.158   0.294
 6750SOL     OW21148   2.497   2.409   4.939
 6750SOL    HW121149   2.526   2.474   4.868
 6750SOL    HW221150   2.409   2.439   4.977
 6751SOL     OW21151   2.516   2.597   4.724
 6751SOL    HW121152   2.440   2.576   4.663
 6751SOL    HW221153   2.497   2.682   4.773
 6752SOL     OW21154   5.286   3.092   0.516
 6752SOL    HW121155   5.315   3.052   0.603
 6752SOL    HW221156   5.363   3.093   0.453
 6753SOL     OW21157   4.435   2.218   6.403
 6753SOL    HW121158   4.458   2.182   6.313
 6753SOL    HW221159   4.510   2.200   6.466
 6754SOL     OW21160   6.035   1.480   6.459
 6754SOL    HW121161   6.093   1.516   6.386
 6754SOL    HW221162   6.001   1.555   6.515
 6755SOL     OW21163   4.839   2.063   3.789
 6755SOL    HW121164   4.889   1.980   3.766
 6755SOL    HW221165   4.897   2.123   3.844
 6756SOL     OW21166   4.655   5.120   4.092
 6756SOL    HW121167   4.572   5.151   4.047
 6756SOL    HW221168   4.735   5.152   4.040
 6757SOL     OW21169   6.177   6.345   2.001
 6757SOL    HW121170   6.206   6.326   1.907
 6757SOL    HW221171   6.128   6.265   2.037
 6758SOL     OW21172   5.385   2.936   1.698
 6758SOL    HW121173   5.370   2.901   1.605
 6758SOL    HW221174   5.469   2.898   1.735
 6759SOL     OW21175   0.697   5.018   2.893
 6759SOL    HW121176   0.751   4.945   2.852
 6759SOL    HW221177   0.734   5.042   2.982
 6760SOL     OW21178   6.707   3.912   4.096
 6760SOL    HW121179   6.641   3.837   4.086
 6760SOL    HW221180   6.799   3.875   4.104
 6761SOL     OW21181   4.859   2.589   5.587
 6761SOL    HW121182   4.807   2.509   5.558
 6761SOL    HW221183   4.954   2.579   5.558
 6762SOL     OW21184   6.548   4.416   3.307
 6762SOL    HW121185   6.469   4.358   3.323
 6762SOL    HW221186   6.613   4.368   3.247
 6763SOL     OW21187   6.607   6.706   5.569
 6763SOL    HW121188   6.653   6.790   5.541
 6763SOL    HW221189   6.592   6.708   5.668
 6764SOL     OW21190   2.820   3.990   6.617
 6764SOL    HW121191   2.867   4.043   6.547
 6764SOL    HW221192   2.814   4.043   6.701
 6765SOL     OW21193   6.191   4.269   2.023
 6765SOL    HW121194   6.193   4.181   1.976
 6765SOL    HW221195   6.116   4.271   2.088
 6766SOL     OW21196   2.263   0.339   5.738
 6766SOL    HW121197   2.237   0.389   5.655
 6766SOL    HW221198   2.261   0.400   5.817
 6767SOL     OW21199   6.881   2.795   6.592
 6767SOL    HW121200   6.783   2.806   6.604
 6767SOL    HW221201   6.926   2.884   6.602
 6768SOL     OW21202   6.805   6.948   3.991
 6768SOL    HW121203   6.827   6.876   3.925
 6768SOL    HW221204   6.792   0.015   3.942
 6769SOL     OW21205   1.976   2.956   5.672
 6769SOL    HW121206   1.918   3.031   5.640
 6769SOL    HW221207   1.926   2.870   5.665
 6770SOL     OW21208   0.218   1.793   3.321
 6770SOL    HW121209   0.159   1.727   3.274
 6770SOL    HW221210   0.248   1.754   3.409
 6771SOL     OW21211   3.956   2.129   3.294
 6771SOL    HW121212   3.900   2.049   3.317
 6771SOL    HW221213   3.936   2.157   3.200
 6772SOL     OW21214   0.121   1.792   2.181
 6772SOL    HW121215   0.048   1.744   2.230
 6772SOL    HW221216   0.199   1.731   2.170
 6773SOL     OW21217   0.623   6.528   1.551
 6773SOL    HW121218   0.661   6.462   1.485
 6773SOL    HW221219   0.683   6.533   1.630
 6774SOL     OW21220   1.881   2.660   5.661
 6774SOL    HW121221   1.942   2.650   5.741
 6774SOL    HW221222   1.917   2.605   5.586
 6775SOL     OW21223   0.524   2.125   5.065
 6775SOL    HW121224   0.464   2.103   4.988
 6775SOL    HW221225   0.601   2.062   5.067
 6776SOL     OW21226   3.220   3.999   2.684
 6776SOL    HW121227   3.272   4.012   2.768
 6776SOL    HW221228   3.275   4.028   2.606
 6777SOL     OW21229   5.849   5.218   6.883
 6777SOL    HW121230   5.767   5.177   6.923
 6777SOL    HW221231   5.866   5.307   6.926
 6778SOL     OW21232   6.553   4.816   2.877
 6778SOL    HW121233   6.541   4.776   2.968
 6778SOL    HW221234   6.641   4.786   2.839
 6779SOL     OW21235   5.427   3.658   5.595
 6779SOL    HW121236   5.331   3.653   5.566
 6779SOL    HW221237   5.457   3.567   5.624
 6780SOL     OW21238   3.272   2.051   3.125
 6780SOL    HW121239   3.176   2.028   3.139
 6780SOL    HW221240   3.315   2.069   3.214
 6781SOL     OW21241   6.686   1.821   3.976
 6781SOL    HW121242   6.694   1.766   4.058
 6781SOL    HW221243   6.742   1.904   3.985
 6782SOL     OW21244   6.785   1.203   3.022
 6782SOL    HW121245   6.806   1.288   3.070
 6782SOL    HW221246   6.866   1.170   2.974
 6783SOL     OW21247   1.628   5.126   5.042
 6783SOL    HW121248   1.686   5.063   5.095
 6783SOL    HW221249   1.560   5.073   4.991
 6784SOL     OW21250   2.304   3.552   1.570
 6784SOL    HW121251   2.223   3.609   1.563
 6784SOL    HW221252   2.328   3.541   1.667
 6785SOL     OW21253   5.130   5.946   4.960
 6785SOL    HW121254   5.099   5.956   4.866
 6785SOL    HW221255   5.175   5.857   4.972
 6786SOL     OW21256   6.262   1.962   6.531
 6786SOL    HW121257   6.263   1.870   6.570
 6786SOL    HW221258   6.230   2.027   6.600
 6787SOL     OW21259   4.022   2.143   6.154
 6787SOL    HW121260   4.021   2.212   6.082
 6787SOL    HW221261   4.110   2.095   6.154
 6788SOL     OW21262   6.542   3.986   2.971
 6788SOL    HW121263   6.579   3.894   2.954
 6788SOL    HW221264   6.507   4.024   2.886
 6789SOL     OW21265   5.961   4.010   3.796
 6789SOL    HW121266   5.887   3.944   3.786
 6789SOL    HW221267   6.048   3.961   3.806
 6790SOL     OW21268   0.320   5.088   6.004
 6790SOL    HW121269   0.369   5.120   6.086
 6790SOL    HW221270   0.261   5.011   6.028
 6791SOL     OW21271   3.410   0.529   3.389
 6791SOL    HW121272   3.502   0.509   3.423
 6791SOL    HW221273   3.344   0.468   3.432
 6792SOL     OW21274   4.046   6.900   4.776
 6792SOL    HW121275   4.041   6.926   4.872
 6792SOL    HW221276   3.971   6.837   4.755
 6793SOL     OW21277   1.469   4.066   0.188
 6793SOL    HW121278   1.491   3.973   0.215
 6793SOL    HW221279   1.491   4.079   0.091
 6794SOL     OW21280   4.821   1.633   5.710
 6794SOL    HW121281   4.855   1.723   5.683
 6794SOL    HW221282   4.729   1.641   5.748
 6795SOL     OW21283   1.123   1.383   0.838
 6795SOL    HW121284   1.060   1.347   0.907
 6795SOL    HW221285   1.189   1.444   0.882
 6796SOL     OW21286   5.937   1.062   2.700
 6796SOL    HW121287   5.992   1.034   2.779
 6796SOL    HW221288   5.993   1.118   2.639
 6797SOL     OW21289   1.107   2.392   1.632
 6797SOL    HW121290   1.049   2.359   1.706
 6797SOL    HW221291   1.097   2.492   1.623
 6798SOL     OW21292   5.866   7.008   1.468
 6798SOL    HW121293   5.872   0.070   1.526
 6798SOL    HW221294   5.787   7.017   1.407
 6799SOL     OW21295   6.217   0.927   3.472
 6799SOL    HW121296   6.309   0.914   3.507
 6799SOL    HW221297   6.201   0.865   3.395
 6800SOL     OW21298   6.560   2.253   1.617
 6800SOL    HW121299   6.641   2.311   1.628
 6800SOL    HW221300   6.491   2.301   1.564
 6801SOL     OW21301   1.325   5.894   5.790
 6801SOL    HW121302   1.248   5.947   5.825
 6801SOL    HW221303   1.334   5.911   5.691
 6802SOL     OW21304   3.391   4.772   1.712
 6802SOL    HW121305   3.305   4.722   1.709
 6802SOL    HW221306   3.465   4.710   1.737
 6803SOL     OW21307   5.671   4.829   5.709
 6803SOL    HW121308   5.578   4.861   5.691
 6803SOL    HW221309   5.683   4.818   5.808
 6804SOL     OW21310   3.410   5.035   2.458
 6804SOL    HW121311   3.480   4.981   2.505
 6804SOL    HW221312   3.450   5.080   2.379
 6805SOL     OW21313   0.175   4.320   4.756
 6805SOL    HW121314   0.110   4.377   4.807
 6805SOL    HW221315   0.222   4.259   4.820
 6806SOL     OW21316   0.054   1.995   2.369
 6806SOL    HW121317   0.104   1.920   2.324
 6806SOL    HW221318   0.035   1.969   2.464
 6807SOL     OW21319   3.185   4.001   1.958
 6807SOL    HW121320   3.190   3.993   2.058
 6807SOL    HW221321   3.169   4.097   1.934
 6808SOL     OW21322   3.432   1.146   4.361
 6808SOL    HW121323   3.375   1.096   4.296
 6808SOL    HW221324   3.421   1.107   4.452
 6809SOL     OW21325   5.481   3.328   0.802
 6809SOL    HW121326   5.384   3.338   0.823
 6809SOL    HW221327   5.496   3.240   0.756
 6810SOL     OW21328   2.595   0.406   4.417
 6810SOL    HW121329   2.636   0.354   4.342
 6810SOL    HW221330   2.507   0.443   4.388
 6811SOL     OW21331   6.578   1.285   0.997
 6811SOL    HW121332   6.614   1.356   1.057
 6811SOL    HW221333   6.609   1.300   0.904
 6812SOL     OW21334   3.618   4.195   5.362
 6812SOL    HW121335   3.601   4.144   5.278
 6812SOL    HW221336   3.703   4.162   5.404
 6813SOL     OW21337   5.974   3.971   1.711
 6813SOL    HW121338   5.893   3.920   1.741
 6813SOL    HW221339   5.948   4.038   1.641
 6814SOL     OW21340   5.362   0.982   6.724
 6814SOL    HW121341   5.370   1.003   6.821
 6814SOL    HW221342   5.429   1.035   6.673
 6815SOL     OW21343   1.722   5.059   5.635
 6815SOL    HW121344   1.821   5.056   5.651
 6815SOL    HW221345   1.693   4.976   5.587
 6816SOL     OW21346   0.740   0.794   2.687
 6816SOL    HW121347   0.753   0.874   2.745
 6816SOL    HW221348   0.718   0.715   2.744
 6817SOL     OW21349   3.870   2.144   2.192
 6817SOL    HW121350   3.786   2.152   2.139
 6817SOL    HW221351   3.948   2.136   2.130
 6818SOL     OW21352   1.836   0.051   5.232
 6818SOL    HW121353   1.895   0.128   5.258
 6818SOL    HW221354   1.756   0.086   5.183
 6819SOL     OW21355   4.877   4.387   1.885
 6819SOL    HW121356   4.844   4.373   1.978
 6819SOL    HW221357   4.805   4.362   1.819
 6820SOL     OW21358   3.100   5.929   2.114
 6820SOL    HW121359   3.179   5.947   2.056
 6820SOL    HW221360   3.123   5.950   2.209
 6821SOL     OW21361   4.059   2.777   5.362
 6821SOL    HW121362   4.087   2.710   5.293
 6821SOL    HW221363   4.023   2.730   5.442
 6822SOL     OW21364   6.622   2.760   6.204
 6822SOL    HW121365   6.672   2.674   6.213
 6822SOL    HW221366   6.526   2.745   6.228
 6823SOL     OW21367   6.066   2.641   6.051
 6823SOL    HW121368   6.090   2.738   6.045
 6823SOL    HW221369   6.040   2.619   6.145
 6824SOL     OW21370   1.131   0.354   5.848
 6824SOL    HW121371   1.226   0.356   5.879
 6824SOL    HW221372   1.070   0.370   5.925
 6825SOL     OW21373   5.777   4.356   0.645
 6825SOL    HW121374   5.854   4.374   0.706
 6825SOL    HW221375   5.801   4.282   0.582
 6826SOL     OW21376   6.572   4.611   4.157
 6826SOL    HW121377   6.569   4.548   4.235
 6826SOL    HW221378   6.569   4.705   4.191
 6827SOL     OW21379   4.007   5.796   4.763
 6827SOL    HW121380   4.082   5.732   4.753
 6827SOL    HW221381   3.924   5.757   4.722
 6828SOL     OW21382   2.752   2.300   2.936
 6828SOL    HW121383   2.807   2.274   2.856
 6828SOL    HW221384   2.812   2.311   3.015
 6829SOL     OW21385   3.866   6.783   3.921
 6829SOL    HW121386   3.811   6.765   3.839
 6829SOL    HW221387   3.806   6.814   3.995
 6830SOL     OW21388   4.927   6.690   2.791
 6830SOL    HW121389   4.830   6.675   2.806
 6830SOL    HW221390   4.942   6.783   2.756
 6831SOL     OW21391   1.573   1.284   6.231
 6831SOL    HW121392   1.663   1.263   6.268
 6831SOL    HW221393   1.504   1.229   6.279
 6832SOL     OW21394   3.334   2.288   0.118
 6832SOL    HW121395   3.300   2.368   0.168
 6832SOL    HW221396   3.364   2.315   0.027
 6833SOL     OW21397   3.410   5.133   6.079
 6833SOL    HW121398   3.406   5.034   6.066
 6833SOL    HW221399   3.432   5.153   6.175
 6834SOL     OW21400   5.477   6.540   1.132
 6834SOL    HW121401   5.473   6.637   1.155
 6834SOL    HW221402   5.492   6.529   1.034
 6835SOL     OW21403   2.438   2.116   4.966
 6835SOL    HW121404   2.451   2.212   4.940
 6835SOL    HW221405   2.413   2.110   5.063
 6836SOL     OW21406   2.102   4.350   6.160
 6836SOL    HW121407   2.071   4.366   6.254
 6836SOL    HW221408   2.096   4.252   6.139
 6837SOL     OW21409   0.525   0.667   1.603
 6837SOL    HW121410   0.448   0.727   1.583
 6837SOL    HW221411   0.584   0.660   1.522
 6838SOL     OW21412   2.870   3.788   5.050
 6838SOL    HW121413   2.905   3.879   5.071
 6838SOL    HW221414   2.831   3.789   4.958
 6839SOL     OW21415   6.081   3.275   4.370
 6839SOL    HW121416   6.155   3.226   4.324
 6839SOL    HW221417   5.999   3.274   4.312
 6840SOL     OW21418   2.806   6.850   5.357
 6840SOL    HW121419   2.880   6.915   5.341
 6840SOL    HW221420   2.836   6.758   5.331
 6841SOL     OW21421   4.178   6.228   1.104
 6841SOL    HW121422   4.252   6.194   1.162
 6841SOL    HW221423   4.090   6.213   1.149
 6842SOL     OW21424   0.481   3.819   5.874
 6842SOL    HW121425   0.384   3.797   5.880
 6842SOL    HW221426   0.521   3.817   5.965
 6843SOL     OW21427   3.759   2.155   2.437
 6843SOL    HW121428   3.688   2.223   2.421
 6843SOL    HW221429   3.813   2.142   2.354
 6844SOL     OW21430   4.327   4.661   4.046
 6844SOL    HW121431   4.298   4.655   3.951
 6844SOL    HW221432   4.427   4.662   4.051
 6845SOL     OW21433   4.513   4.907   1.906
 6845SOL    HW121434   4.422   4.911   1.865
 6845SOL    HW221435   4.582   4.904   1.834
 6846SOL     OW21436   3.048   3.064   2.476
 6846SOL    HW121437   2.955   3.099   2.481
 6846SOL    HW221438   3.096   3.084   2.561
 6847SOL     OW21439   5.854   3.575   1.385
 6847SOL    HW121440   5.928   3.588   1.451
 6847SOL    HW221441   5.769   3.552   1.433
 6848SOL     OW21442   0.571   6.539   3.324
 6848SOL    HW121443   0.485   6.489   3.317
 6848SOL    HW221444   0.604   6.561   3.233
 6849SOL     OW21445   3.463   6.624   3.914
 6849SOL    HW121446   3.521   6.674   3.849
 6849SOL    HW221447   3.422   6.545   3.869
 6850SOL     OW21448   5.394   2.866   2.272
 6850SOL    HW121449   5.303   2.907   2.262
 6850SOL    HW221450   5.418   2.818   2.188
 6851SOL     OW21451   1.094   5.517   5.246
 6851SOL    HW121452   1.041   5.432   5.248
 6851SOL    HW221453   1.079   5.569   5.330
 6852SOL     OW21454   6.970   4.240   2.195
 6852SOL    HW121455   0.044   4.236   2.230
 6852SOL    HW221456   6.939   4.335   2.193
 6853SOL     OW21457   1.015   3.548   5.356
 6853SOL    HW121458   0.935   3.498   5.391
 6853SOL    HW221459   1.085   3.482   5.329
 6854SOL     OW21460   6.280   2.224   6.424
 6854SOL    HW121461   6.294   2.131   6.455
 6854SOL    HW221462   6.206   2.267   6.476
 6855SOL     OW21463   2.638   6.631   1.423
 6855SOL    HW121464   2.660   6.617   1.327
 6855SOL    HW221465   2.677   6.557   1.477
 6856SOL     OW21466   6.154   3.469   5.220
 6856SOL    HW121467   6.125   3.512   5.305
 6856SOL    HW221468   6.104   3.383   5.208
 6857SOL     OW21469   4.227   1.816   5.592
 6857SOL    HW121470   4.245   1.909   5.561
 6857SOL    HW221471   4.135   1.811   5.631
 6858SOL     OW21472   3.906   3.304   4.702
 6858SOL    HW121473   3.926   3.360   4.782
 6858SOL    HW221474   3.889   3.209   4.730
 6859SOL     OW21475   3.784   0.184   0.732
 6859SOL    HW121476   3.797   0.281   0.752
 6859SOL    HW221477   3.699   0.172   0.681
 6860SOL     OW21478   5.199   3.335   6.514
 6860SOL    HW121479   5.176   3.426   6.481
 6860SOL    HW221480   5.241   3.341   6.604
 6861SOL     OW21481   6.490   4.986   6.975
 6861SOL    HW121482   6.469   5.002   6.879
 6861SOL    HW221483   6.445   5.055   0.012
 6862SOL     OW21484   3.315   5.560   4.073
 6862SOL    HW121485   3.301   5.546   4.172
 6862SOL    HW221486   3.337   5.472   4.031
 6863SOL     OW21487   5.530   2.879   4.281
 6863SOL    HW121488   5.464   2.950   4.255
 6863SOL    HW221489   5.606   2.922   4.330
 6864SOL     OW21490   3.599   5.847   5.352
 6864SOL    HW121491   3.614   5.755   5.317
 6864SOL    HW221492   3.655   5.912   5.300
 6865SOL     OW21493   6.343   4.889   3.751
 6865SOL    HW121494   6.396   4.813   3.788
 6865SOL    HW221495   6.360   4.897   3.653
 6866SOL     OW21496   0.156   2.995   2.436
 6866SOL    HW121497   0.172   2.927   2.507
 6866SOL    HW221498   0.244   3.020   2.393
 6867SOL     OW21499   2.459   4.447   2.556
 6867SOL    HW121500   2.528   4.507   2.597
 6867SOL    HW221501   2.483   4.428   2.461
 6868SOL     OW21502   2.283   5.706   4.736
 6868SOL    HW121503   2.253   5.742   4.648
 6868SOL    HW221504   2.239   5.618   4.753
 6869SOL     OW21505   5.957   3.223   5.302
 6869SOL    HW121506   5.988   3.272   5.383
 6869SOL    HW221507   5.862   3.192   5.316
 6870SOL     OW21508   5.760   3.706   2.288
 6870SOL    HW121509   5.746   3.612   2.319
 6870SOL    HW221510   5.857   3.721   2.271
 6871SOL     OW21511   5.372   5.456   1.101
 6871SOL    HW121512   5.400   5.500   1.015
 6871SOL    HW221513   5.304   5.514   1.147
 6872SOL     OW21514   1.883   3.407   6.692
 6872SOL    HW121515   1.813   3.475   6.714
 6872SOL    HW221516   1.962   3.453   6.651
 6873SOL     OW21517   5.660   3.510   5.925
 6873SOL    HW121518   5.742   3.471   5.883
 6873SOL    HW221519   5.632   3.452   6.002
 6874SOL     OW21520   0.502   2.856   4.630
 6874SOL    HW121521   0.436   2.782   4.641
 6874SOL    HW221522   0.585   2.821   4.587
 6875SOL     OW21523   2.688   1.521   3.650
 6875SOL    HW121524   2.680   1.598   3.714
 6875SOL    HW221525   2.599   1.476   3.642
 6876SOL     OW21526   4.203   6.004   0.140
 6876SOL    HW121527   4.283   6.044   0.094
 6876SOL    HW221528   4.202   5.905   0.124
 6877SOL     OW21529   2.178   4.310   6.919
 6877SOL    HW121530   2.217   4.394   6.882
 6877SOL    HW221531   2.170   4.318   7.019
 6878SOL     OW21532   1.571   1.375   5.484
 6878SOL    HW121533   1.478   1.392   5.516
 6878SOL    HW221534   1.622   1.461   5.483
 6879SOL     OW21535   1.499   2.308   6.754
 6879SOL    HW121536   1.454   2.232   6.707
 6879SOL    HW221537   1.475   2.394   6.709
 6880SOL     OW21538   2.221   4.059   4.768
 6880SOL    HW121539   2.177   3.977   4.805
 6880SOL    HW221540   2.314   4.066   4.805
 6881SOL     OW21541   0.005   3.688   1.939
 6881SOL    HW121542   0.084   3.634   1.911
 6881SOL    HW221543   0.010   3.707   2.037
 6882SOL     OW21544   2.169   0.369   5.326
 6882SOL    HW121545   2.241   0.398   5.263
 6882SOL    HW221546   2.186   0.274   5.354
 6883SOL     OW21547   4.188   0.143   1.588
 6883SOL    HW121548   4.146   0.057   1.616
 6883SOL    HW221549   4.284   0.145   1.619
 6884SOL     OW21550   1.964   5.320   4.115
 6884SOL    HW121551   1.979   5.226   4.084
 6884SOL    HW221552   2.052   5.367   4.123
 6885SOL     OW21553   2.990   5.623   4.494
 6885SOL    HW121554   2.963   5.542   4.545
 6885SOL    HW221555   3.033   5.596   4.408
 6886SOL     OW21556   5.718   1.201   2.390
 6886SOL    HW121557   5.702   1.113   2.345
 6886SOL    HW221558   5.699   1.192   2.488
 6887SOL     OW21559   5.810   0.615   4.426
 6887SOL    HW121560   5.792   0.540   4.362
 6887SOL    HW221561   5.744   0.611   4.501
 6888SOL     OW21562   5.487   6.680   4.869
 6888SOL    HW121563   5.469   6.769   4.911
 6888SOL    HW221564   5.568   6.639   4.912
 6889SOL     OW21565   1.492   4.369   5.903
 6889SOL    HW121566   1.464   4.438   5.835
 6889SOL    HW221567   1.520   4.286   5.856
 6890SOL     OW21568   2.031   0.071   1.648
 6890SOL    HW121569   1.955   0.024   1.693
 6890SOL    HW221570   2.038   0.164   1.683
 6891SOL     OW21571   1.344   4.498   3.778
 6891SOL    HW121572   1.398   4.432   3.725
 6891SOL    HW221573   1.250   4.498   3.744
 6892SOL     OW21574   3.196   0.750   3.760
 6892SOL    HW121575   3.281   0.793   3.791
 6892SOL    HW221576   3.206   0.721   3.665
 6893SOL     OW21577   4.590   5.795   3.032
 6893SOL    HW121578   4.606   5.746   3.117
 6893SOL    HW221579   4.521   5.866   3.047
 6894SOL     OW21580   6.679   4.931   6.528
 6894SOL    HW121581   6.752   4.866   6.551
 6894SOL    HW221582   6.614   4.888   6.466
 6895SOL     OW21583   3.235   5.137   6.739
 6895SOL    HW121584   3.227   5.069   6.665
 6895SOL    HW221585   3.243   5.090   6.827
 6896SOL     OW21586   3.682   0.454   3.440
 6896SOL    HW121587   3.697   0.466   3.538
 6896SOL    HW221588   3.752   0.393   3.403
 6897SOL     OW21589   3.456   3.447   0.685
 6897SOL    HW121590   3.395   3.510   0.636
 6897SOL    HW221591   3.450   3.465   0.783
 6898SOL     OW21592   4.092   2.198   2.030
 6898SOL    HW121593   4.034   2.273   1.999
 6898SOL    HW221594   4.092   2.125   1.962
 6899SOL     OW21595   4.692   5.968   6.914
 6899SOL    HW121596   4.663   5.874   6.899
 6899SOL    HW221597   4.709   6.013   6.826
 6900SOL     OW21598   5.004   0.127   6.280
 6900SOL    HW121599   4.959   0.045   6.243
 6900SOL    HW221600   5.055   0.172   6.208
 6901SOL     OW21601   1.657   0.069   6.740
 6901SOL    HW121602   1.561   0.095   6.749
 6901SOL    HW221603   1.667   0.007   6.662
 6902SOL     OW21604   0.123   6.092   0.888
 6902SOL    HW121605   0.128   6.169   0.952
 6902SOL    HW221606   0.213   6.074   0.850
 6903SOL     OW21607   4.440   4.605   0.534
 6903SOL    HW121608   4.355   4.629   0.488
 6903SOL    HW221609   4.508   4.578   0.467
 6904SOL     OW21610   6.374   1.484   3.350
 6904SOL    HW121611   6.422   1.565   3.381
 6904SOL    HW221612   6.352   1.493   3.252
 6905SOL     OW21613   5.826   6.288   0.937
 6905SOL    HW121614   5.907   6.289   0.878
 6905SOL    HW221615   5.825   6.202   0.989
 6906SOL     OW21616   4.142   0.663   3.358
 6906SOL    HW121617   4.224   0.616   3.323
 6906SOL    HW221618   4.169   0.723   3.434
 6907SOL     OW21619   3.752   1.556   1.646
 6907SOL    HW121620   3.782   1.646   1.616
 6907SOL    HW221621   3.661   1.563   1.687
 6908SOL     OW21622   2.007   6.671   5.674
 6908SOL    HW121623   2.078   6.741   5.668
 6908SOL    HW221624   2.008   6.614   5.591
 6909SOL     OW21625   4.412   4.001   6.847
 6909SOL    HW121626   4.486   4.064   6.825
 6909SOL    HW221627   4.379   3.958   6.763
 6910SOL     OW21628   6.618   1.622   1.959
 6910SOL    HW121629   6.698   1.574   1.925
 6910SOL    HW221630   6.589   1.581   2.046
 6911SOL     OW21631   3.887   1.537   4.732
 6911SOL    HW121632   3.954   1.483   4.782
 6911SOL    HW221633   3.933   1.594   4.664
 6912SOL     OW21634   5.471   4.698   0.610
 6912SOL    HW121635   5.425   4.705   0.521
 6912SOL    HW221636   5.404   4.713   0.683
 6913SOL     OW21637   5.436   5.009   4.685
 6913SOL    HW121638   5.452   5.097   4.731
 6913SOL    HW221639   5.421   4.938   4.754
 6914SOL     OW21640   6.001   5.514   1.112
 6914SOL    HW121641   5.971   5.552   1.200
 6914SOL    HW221642   6.080   5.456   1.126
 6915SOL     OW21643   0.520   5.066   2.694
 6915SOL    HW121644   0.510   5.162   2.666
 6915SOL    HW221645   0.582   5.061   2.772
 6916SOL     OW21646   6.031   2.614   0.185
 6916SOL    HW121647   6.106   2.680   0.184
 6916SOL    HW221648   5.949   2.656   0.148
 6917SOL     OW21649   5.017   5.881   5.795
 6917SOL    HW121650   5.043   5.857   5.702
 6917SOL    HW221651   4.937   5.941   5.792
 6918SOL     OW21652   6.989   3.253   3.637
 6918SOL    HW121653   0.010   3.170   3.598
 6918SOL    HW221654   7.004   3.254   3.735
 6919SOL     OW21655   2.141   5.967   3.011
 6919SOL    HW121656   2.100   5.993   2.923
 6919SOL    HW221657   2.206   5.893   2.997
 6920SOL     OW21658   4.621   5.992   4.469
 6920SOL    HW121659   4.645   5.994   4.372
 6920SOL    HW221660   4.602   6.084   4.501
 6921SOL     OW21661   0.486   1.194   3.707
 6921SOL    HW121662   0.416   1.140   3.754
 6921SOL    HW221663   0.565   1.204   3.767
 6922SOL     OW21664   2.452   6.633   0.622
 6922SOL    HW121665   2.463   6.644   0.523
 6922SOL    HW221666   2.359   6.603   0.642
 6923SOL     OW21667   4.652   0.692   4.408
 6923SOL    HW121668   4.687   0.747   4.484
 6923SOL    HW221669   4.645   0.750   4.326
 6924SOL     OW21670   0.393   5.504   1.816
 6924SOL    HW121671   0.409   5.595   1.857
 6924SOL    HW221672   0.358   5.515   1.724
 6925SOL     OW21673   4.405   5.972   3.112
 6925SOL    HW121674   4.310   5.940   3.111
 6925SOL    HW221675   4.409   6.065   3.149
 6926SOL     OW21676   3.207   3.083   4.408
 6926SOL    HW121677   3.255   3.034   4.336
 6926SOL    HW221678   3.266   3.091   4.489
 6927SOL     OW21679   4.588   4.021   5.912
 6927SOL    HW121680   4.599   3.947   5.846
 6927SOL    HW221681   4.498   4.063   5.901
 6928SOL     OW21682   5.245   0.857   6.231
 6928SOL    HW121683   5.209   0.880   6.141
 6928SOL    HW221684   5.259   0.941   6.283
 6929SOL     OW21685   4.366   5.705   0.678
 6929SOL    HW121686   4.343   5.665   0.589
 6929SOL    HW221687   4.419   5.638   0.731
 6930SOL     OW21688   0.566   0.062   3.587
 6930SOL    HW121689   0.620   6.997   3.593
 6930SOL    HW221690   0.519   0.064   3.498
 6931SOL     OW21691   2.115   1.246   1.949
 6931SOL    HW121692   2.199   1.192   1.953
 6931SOL    HW221693   2.037   1.186   1.966
 6932SOL     OW21694   2.956   1.728   0.658
 6932SOL    HW121695   3.036   1.778   0.625
 6932SOL    HW221696   2.931   1.658   0.590
 6933SOL     OW21697   4.270   5.604   5.979
 6933SOL    HW121698   4.366   5.580   5.997
 6933SOL    HW221699   4.235   5.546   5.905
 6934SOL     OW21700   4.942   2.904   6.839
 6934SOL    HW121701   4.973   2.840   6.769
 6934SOL    HW221702   4.844   2.920   6.828
 6935SOL     OW21703   4.430   5.826   3.363
 6935SOL    HW121704   4.406   5.885   3.286
 6935SOL    HW221705   4.502   5.762   3.335
 6936SOL     OW21706   1.105   3.495   1.326
 6936SOL    HW121707   1.125   3.533   1.235
 6936SOL    HW221708   1.006   3.492   1.340
 6937SOL     OW21709   4.446   6.803   5.835
 6937SOL    HW121710   4.500   6.872   5.786
 6937SOL    HW221711   4.457   6.815   5.933
 6938SOL     OW21712   5.632   2.630   5.352
 6938SOL    HW121713   5.641   2.545   5.404
 6938SOL    HW221714   5.536   2.648   5.333
 6939SOL     OW21715   6.864   4.157   2.541
 6939SOL    HW121716   6.935   4.156   2.612
 6939SOL    HW221717   6.812   4.072   2.544
 6940SOL     OW21718   5.036   0.356   5.739
 6940SOL    HW121719   5.127   0.322   5.716
 6940SOL    HW221720   5.042   0.452   5.765
 6941SOL     OW21721   3.981   3.772   3.461
 6941SOL    HW121722   4.002   3.712   3.539
 6941SOL    HW221723   4.046   3.756   3.387
 6942SOL     OW21724   6.715   2.559   0.047
 6942SOL    HW121725   6.655   2.639   0.040
 6942SOL    HW221726   6.807   2.583   0.017
 6943SOL     OW21727   5.246   5.670   6.132
 6943SOL    HW121728   5.319   5.717   6.183
 6943SOL    HW221729   5.272   5.663   6.036
 6944SOL     OW21730   0.768   5.294   5.959
 6944SOL    HW121731   0.756   5.339   6.048
 6944SOL    HW221732   0.730   5.202   5.963
 6945SOL     OW21733   6.717   2.761   5.705
 6945SOL    HW121734   6.626   2.755   5.746
 6945SOL    HW221735   6.753   2.854   5.717
 6946SOL     OW21736   5.470   3.731   2.226
 6946SOL    HW121737   5.472   3.689   2.317
 6946SOL    HW221738   5.563   3.754   2.197
 6947SOL     OW21739   3.148   6.895   3.050
 6947SOL    HW121740   3.118   6.862   3.139
 6947SOL    HW221741   3.127   6.826   2.980
 6948SOL     OW21742   5.021   0.678   6.218
 6948SOL    HW121743   5.106   0.723   6.193
 6948SOL    HW221744   5.027   0.580   6.198
 6949SOL     OW21745   5.176   6.862   2.793
 6949SOL    HW121746   5.235   6.866   2.874
 6949SOL    HW221747   5.096   6.921   2.807
 6950SOL     OW21748   1.982   1.211   3.259
 6950SOL    HW121749   2.017   1.196   3.352
 6950SOL    HW221750   1.967   1.309   3.245
 6951SOL     OW21751   6.642   5.696   6.038
 6951SOL    HW121752   6.697   5.681   6.120
 6951SOL    HW221753   6.703   5.711   5.960
 6952SOL     OW21754   0.394   5.204   4.956
 6952SOL    HW121755   0.465   5.257   4.910
 6952SOL    HW221756   0.427   5.111   4.971
 6953SOL     OW21757   5.058   1.053   5.504
 6953SOL    HW121758   5.128   1.058   5.432
 6953SOL    HW221759   4.977   1.007   5.469
 6954SOL     OW21760   6.666   3.068   3.547
 6954SOL    HW121761   6.639   3.152   3.501
 6954SOL    HW221762   6.597   2.997   3.532
 6955SOL     OW21763   0.126   6.141   2.098
 6955SOL    HW121764   0.034   6.102   2.103
 6955SOL    HW221765   0.194   6.068   2.107
 6956SOL     OW21766   4.153   5.280   1.317
 6956SOL    HW121767   4.204   5.232   1.388
 6956SOL    HW221768   4.216   5.336   1.263
 6957SOL     OW21769   0.119   5.145   1.493
 6957SOL    HW121770   0.138   5.242   1.511
 6957SOL    HW221771   0.202   5.091   1.507
 6958SOL     OW21772   2.656   3.076   6.266
 6958SOL    HW121773   2.680   3.096   6.171
 6958SOL    HW221774   2.618   2.984   6.272
 6959SOL     OW21775   3.564   1.824   4.554
 6959SOL    HW121776   3.545   1.775   4.640
 6959SOL    HW221777   3.600   1.915   4.575
 6960SOL     OW21778   0.457   4.627   6.539
 6960SOL    HW121779   0.363   4.636   6.507
 6960SOL    HW221780   0.484   4.711   6.586
 6961SOL     OW21781   1.159   0.769   3.729
 6961SOL    HW121782   1.186   0.681   3.767
 6961SOL    HW221783   1.062   0.766   3.702
 6962SOL     OW21784   5.034   4.684   1.445
 6962SOL    HW121785   5.052   4.776   1.480
 6962SOL    HW221786   5.084   4.617   1.499
 6963SOL     OW21787   6.921   4.908   1.744
 6963SOL    HW121788   7.010   4.954   1.737
 6963SOL    HW221789   6.934   4.810   1.750
 6964SOL     OW21790   4.202   5.573   4.744
 6964SOL    HW121791   4.196   5.476   4.767
 6964SOL    HW221792   4.207   5.584   4.645
 6965SOL     OW21793   6.771   3.006   6.162
 6965SOL    HW121794   6.818   3.043   6.082
 6965SOL    HW221795   6.738   2.914   6.143
 6966SOL     OW21796   4.916   2.360   2.837
 6966SOL    HW121797   4.875   2.335   2.925
 6966SOL    HW221798   4.986   2.292   2.813
 6967SOL     OW21799   1.451   1.521   6.118
 6967SOL    HW121800   1.498   1.562   6.040
 6967SOL    HW221801   1.506   1.444   6.153
 6968SOL     OW21802   5.076   5.766   1.592
 6968SOL    HW121803   5.123   5.683   1.563
 6968SOL    HW221804   4.995   5.743   1.645
 6969SOL     OW21805   3.404   1.584   0.209
 6969SOL    HW121806   3.436   1.591   0.115
 6969SOL    HW221807   3.427   1.667   0.259
 6970SOL     OW21808   4.834   4.314   0.525
 6970SOL    HW121809   4.812   4.344   0.617
 6970SOL    HW221810   4.790   4.227   0.506
 6971SOL     OW21811   5.732   1.566   1.512
 6971SOL    HW121812   5.671   1.503   1.560
 6971SOL    HW221813   5.684   1.605   1.433
 6972SOL     OW21814   5.216   4.992   3.826
 6972SOL    HW121815   5.119   4.968   3.836
 6972SOL    HW221816   5.233   5.078   3.874
 6973SOL     OW21817   2.097   4.347   3.683
 6973SOL    HW121818   2.174   4.407   3.662
 6973SOL    HW221819   2.084   4.342   3.782
 6974SOL     OW21820   3.290   3.761   4.084
 6974SOL    HW121821   3.389   3.757   4.085
 6974SOL    HW221822   3.255   3.753   4.177
 6975SOL     OW21823   4.237   0.674   5.638
 6975SOL    HW121824   4.326   0.646   5.673
 6975SOL    HW221825   4.193   0.736   5.702
 6976SOL     OW21826   2.283   4.976   6.835
 6976SOL    HW121827   2.201   5.001   6.887
 6976SOL    HW221828   2.360   4.967   6.897
 6977SOL     OW21829   3.470   1.528   2.539
 6977SOL    HW121830   3.431   1.590   2.607
 6977SOL    HW221831   3.418   1.535   2.454
 6978SOL     OW21832   0.527   1.110   2.085
 6978SOL    HW121833   0.486   1.176   2.022
 6978SOL    HW221834   0.605   1.066   2.040
 6979SOL     OW21835   0.549   4.809   2.615
 6979SOL    HW121836   0.601   4.766   2.688
 6979SOL    HW221837   0.523   4.902   2.643
 6980SOL     OW21838   2.104   1.134   4.124
 6980SOL    HW121839   2.202   1.131   4.145
 6980SOL    HW221840   2.080   1.059   4.062
 6981SOL     OW21841   1.884   5.312   0.456
 6981SOL    HW121842   1.983   5.295   0.459
 6981SOL    HW221843   1.838   5.247   0.517
 6982SOL     OW21844   0.316   0.126   4.061
 6982SOL    HW121845   0.371   0.054   4.020
 6982SOL    HW221846   0.300   0.198   3.994
 6983SOL     OW21847   6.796   0.653   4.362
 6983SOL    HW121848   6.807   0.629   4.459
 6983SOL    HW221849   6.766   0.573   4.311
 6984SOL     OW21850   2.014   1.968   5.988
 6984SOL    HW121851   1.991   2.063   6.011
 6984SOL    HW221852   2.028   1.960   5.890
 6985SOL     OW21853   4.920   5.521   2.406
 6985SOL    HW121854   5.012   5.519   2.366
 6985SOL    HW221855   4.853   5.492   2.338
 6986SOL     OW21856   1.871   5.958   5.880
 6986SOL    HW121857   1.964   5.943   5.846
 6986SOL    HW221858   1.810   5.890   5.839
 6987SOL     OW21859   0.261   3.270   6.666
 6987SOL    HW121860   0.329   3.245   6.735
 6987SOL    HW221861   0.246   3.193   6.604
 6988SOL     OW21862   5.197   1.350   3.702
 6988SOL    HW121863   5.114   1.405   3.710
 6988SOL    HW221864   5.176   1.267   3.649
 6989SOL     OW21865   1.250   1.652   3.492
 6989SOL    HW121866   1.328   1.609   3.535
 6989SOL    HW221867   1.170   1.592   3.500
 6990SOL     OW21868   3.801   3.072   0.164
 6990SOL    HW121869   3.888   3.109   0.131
 6990SOL    HW221870   3.811   3.042   0.259
 6991SOL     OW21871   2.812   4.746   5.760
 6991SOL    HW121872   2.743   4.790   5.818
 6991SOL    HW221873   2.840   4.660   5.801
 6992SOL     OW21874   5.620   6.565   4.127
 6992SOL    HW121875   5.646   6.490   4.188
 6992SOL    HW221876   5.548   6.619   4.170
 6993SOL     OW21877   0.154   0.218   3.091
 6993SOL    HW121878   0.084   0.149   3.072
 6993SOL    HW221879   0.119   0.284   3.158
 6994SOL     OW21880   1.875   3.164   6.318
 6994SOL    HW121881   1.853   3.261   6.309
 6994SOL    HW221882   1.804   3.118   6.373
 6995SOL     OW21883   5.477   5.381   3.148
 6995SOL    HW121884   5.436   5.472   3.149
 6995SOL    HW221885   5.434   5.325   3.077
 6996SOL     OW21886   2.910   0.371   5.569
 6996SOL    HW121887   2.887   0.317   5.650
 6996SOL    HW221888   2.896   0.468   5.589
 6997SOL     OW21889   4.405   6.472   4.682
 6997SOL    HW121890   4.335   6.537   4.711
 6997SOL    HW221891   4.478   6.520   4.634
 6998SOL     OW21892   1.815   3.572   2.699
 6998SOL    HW121893   1.786   3.483   2.662
 6998SOL    HW221894   1.749   3.642   2.672
 6999SOL     OW21895   3.153   1.777   5.887
 6999SOL    HW121896   3.127   1.693   5.934
 6999SOL    HW221897   3.233   1.818   5.932
 7000SOL     OW21898   1.016   6.091   2.235
 7000SOL    HW121899   0.933   6.147   2.237
 7000SOL    HW221900   1.009   6.021   2.306
 7001SOL     OW21901   2.348   2.982   5.811
 7001SOL    HW121902   2.261   3.022   5.839
 7001SOL    HW221903   2.377   3.024   5.724
 7002SOL     OW21904   0.912   5.486   3.277
 7002SOL    HW121905   1.007   5.454   3.278
 7002SOL    HW221906   0.853   5.416   3.318
 7003SOL     OW21907   2.909   6.324   1.072
 7003SOL    HW121908   2.925   6.343   0.975
 7003SOL    HW221909   2.861   6.401   1.113
 7004SOL     OW21910   1.235   4.042   1.171
 7004SOL    HW121911   1.140   4.038   1.139
 7004SOL    HW221912   1.240   4.014   1.267
 7005SOL     OW21913   5.309   5.929   6.798
 7005SOL    HW121914   5.376   5.987   6.845
 7005SOL    HW221915   5.323   5.937   6.699
 7006SOL     OW21916   4.475   4.543   4.710
 7006SOL    HW121917   4.430   4.559   4.798
 7006SOL    HW221918   4.443   4.611   4.644
 7007SOL     OW21919   4.344   6.279   3.192
 7007SOL    HW121920   4.314   6.371   3.218
 7007SOL    HW221921   4.283   6.211   3.233
 7008SOL     OW21922   1.709   5.223   4.100
 7008SOL    HW121923   1.802   5.249   4.125
 7008SOL    HW221924   1.653   5.306   4.092
 7009SOL     OW21925   0.013   5.439   2.162
 7009SOL    HW121926   7.018   5.397   2.252
 7009SOL    HW221927   6.967   5.400   2.097
 7010SOL     OW21928   3.527   4.981   6.431
 7010SOL    HW121929   3.520   5.079   6.449
 7010SOL    HW221930   3.573   4.966   6.344
 7011SOL     OW21931   3.016   0.123   6.135
 7011SOL    HW121932   2.969   0.067   6.068
 7011SOL    HW221933   3.079   0.067   6.188
 7012SOL     OW21934   1.411   0.168   2.100
 7012SOL    HW121935   1.463   0.253   2.101
 7012SOL    HW221936   1.440   0.110   2.176
 7013SOL     OW21937   1.171   0.220   1.373
 7013SOL    HW121938   1.148   0.317   1.379
 7013SOL    HW221939   1.187   0.184   1.465
 7014SOL     OW21940   2.864   4.242   1.021
 7014SOL    HW121941   2.828   4.292   1.099
 7014SOL    HW221942   2.903   4.306   0.956
 7015SOL     OW21943   5.073   2.362   2.228
 7015SOL    HW121944   5.082   2.443   2.171
 7015SOL    HW221945   5.164   2.332   2.257
 7016SOL     OW21946   4.494   4.857   1.512
 7016SOL    HW121947   4.402   4.870   1.550
 7016SOL    HW221948   4.531   4.946   1.485
 7017SOL     OW21949   2.853   1.911   3.592
 7017SOL    HW121950   2.936   1.890   3.644
 7017SOL    HW221951   2.773   1.887   3.646
 7018SOL     OW21952   0.338   3.895   4.748
 7018SOL    HW121953   0.242   3.919   4.760
 7018SOL    HW221954   0.353   3.862   4.655
 7019SOL     OW21955   2.416   5.456   0.032
 7019SOL    HW121956   2.503   5.444   7.003
 7019SOL    HW221957   2.369   5.368   0.038
 7020SOL     OW21958   6.213   6.841   6.521
 7020SOL    HW121959   6.308   6.873   6.520
 7020SOL    HW221960   6.162   6.892   6.589
 7021SOL     OW21961   2.409   0.557   5.877
 7021SOL    HW121962   2.329   0.616   5.869
 7021SOL    HW221963   2.451   0.544   5.787
 7022SOL     OW21964   5.261   3.765   6.856
 7022SOL    HW121965   5.240   3.862   6.867
 7022SOL    HW221966   5.255   3.719   6.945
 7023SOL     OW21967   6.078   2.917   1.474
 7023SOL    HW121968   6.152   2.861   1.509
 7023SOL    HW221969   6.106   3.013   1.475
 7024SOL     OW21970   1.501   5.926   7.010
 7024SOL    HW121971   1.533   5.920   6.915
 7024SOL    HW221972   1.564   5.983   0.043
 7025SOL     OW21973   3.093   2.217   0.029
 7025SOL    HW121974   3.189   2.224   0.054
 7025SOL    HW221975   3.061   2.123   0.046
 7026SOL     OW21976   4.156   1.541   1.231
 7026SOL    HW121977   4.230   1.476   1.216
 7026SOL    HW221978   4.192   1.622   1.277
 7027SOL     OW21979   3.649   5.695   3.846
 7027SOL    HW121980   3.560   5.721   3.884
 7027SOL    HW221981   3.719   5.757   3.881
 7028SOL     OW21982   4.464   6.358   3.690
 7028SOL    HW121983   4.382   6.357   3.633
 7028SOL    HW221984   4.519   6.439   3.668
 7029SOL     OW21985   3.454   6.486   0.033
 7029SOL    HW121986   3.450   6.573   0.083
 7029SOL    HW221987   3.513   6.496   6.973
 7030SOL     OW21988   0.223   3.395   4.882
 7030SOL    HW121989   0.314   3.418   4.919
 7030SOL    HW221990   0.178   3.479   4.852
 7031SOL     OW21991   1.896   5.723   4.182
 7031SOL    HW121992   1.931   5.704   4.090
 7031SOL    HW221993   1.855   5.640   4.220
 7032SOL     OW21994   6.096   0.776   2.992
 7032SOL    HW121995   6.125   0.808   2.902
 7032SOL    HW221996   6.044   0.847   3.038
 7033SOL     OW21997   6.826   1.449   4.074
 7033SOL    HW121998   6.812   1.518   4.003
 7033SOL    HW221999   6.883   1.487   4.146
 7034SOL     OW22000   6.507   0.639   3.252
 7034SOL    HW122001   6.453   0.600   3.177
 7034SOL    HW222002   6.446   0.659   3.329
 7035SOL     OW22003   6.630   5.592   2.490
 7035SOL    HW122004   6.535   5.607   2.517
 7035SOL    HW222005   6.663   5.671   2.438
 7036SOL     OW22006   6.494   4.992   1.996
 7036SOL    HW122007   6.592   4.970   2.003
 7036SOL    HW222008   6.478   5.083   2.033
 7037SOL     OW22009   1.570   6.092   6.040
 7037SOL    HW122010   1.578   6.089   5.941
 7037SOL    HW222011   1.476   6.074   6.067
 7038SOL     OW22012   0.486   4.763   3.789
 7038SOL    HW122013   0.398   4.798   3.759
 7038SOL    HW222014   0.536   4.725   3.711
 7039SOL     OW22015   4.111   0.769   5.841
 7039SOL    HW122016   4.065   0.706   5.903
 7039SOL    HW222017   4.059   0.855   5.836
 7040SOL     OW22018   5.186   2.208   6.489
 7040SOL    HW122019   5.100   2.252   6.516
 7040SOL    HW222020   5.165   2.123   6.440
 7041SOL     OW22021   1.681   2.028   3.084
 7041SOL    HW122022   1.724   2.048   3.172
 7041SOL    HW222023   1.752   2.019   3.014
 7042SOL     OW22024   3.995   5.644   0.026
 7042SOL    HW122025   3.923   5.676   6.984
 7042SOL    HW222026   3.956   5.584   0.095
 7043SOL     OW22027   2.205   2.244   3.250
 7043SOL    HW122028   2.253   2.301   3.184
 7043SOL    HW222029   2.264   2.228   3.330
 7044SOL     OW22030   4.664   4.744   2.783
 7044SOL    HW122031   4.752   4.744   2.831
 7044SOL    HW222032   4.604   4.812   2.824
 7045SOL     OW22033   5.629   6.204   1.395
 7045SOL    HW122034   5.537   6.173   1.375
 7045SOL    HW222035   5.669   6.246   1.313
 7046SOL     OW22036   4.168   0.552   4.588
 7046SOL    HW122037   4.147   0.648   4.573
 7046SOL    HW222038   4.083   0.500   4.592
 7047SOL     OW22039   0.921   1.022   4.245
 7047SOL    HW122040   1.006   1.074   4.235
 7047SOL    HW222041   0.884   1.037   4.337
 7048SOL     OW22042   0.175   6.386   0.847
 7048SOL    HW122043   0.092   6.383   0.902
 7048SOL    HW222044   0.155   6.425   0.757
 7049SOL     OW22045   2.474   1.213   0.434
 7049SOL    HW122046   2.554   1.227   0.375
 7049SOL    HW222047   2.504   1.205   0.529
 7050SOL     OW22048   2.953   3.899   4.632
 7050SOL    HW122049   3.003   3.969   4.682
 7050SOL    HW222050   2.948   3.815   4.687
 7051SOL     OW22051   0.196   0.254   1.760
 7051SOL    HW122052   0.124   0.245   1.829
 7051SOL    HW222053   0.222   0.350   1.752
 7052SOL     OW22054   0.038   2.516   4.182
 7052SOL    HW122055   0.110   2.476   4.126
 7052SOL    HW222056   0.073   2.535   4.274
 7053SOL     OW22057   0.482   3.814   6.753
 7053SOL    HW122058   0.565   3.867   6.769
 7053SOL    HW222059   0.462   3.758   6.833
 7054SOL     OW22060   6.309   6.707   1.802
 7054SOL    HW122061   6.268   6.621   1.771
 7054SOL    HW222062   6.405   6.692   1.825
 7055SOL     OW22063   4.383   0.649   4.394
 7055SOL    HW122064   4.481   0.665   4.406
 7055SOL    HW222065   4.348   0.595   4.471
 7056SOL     OW22066   5.409   5.020   3.622
 7056SOL    HW122067   5.372   5.003   3.531
 7056SOL    HW222068   5.348   4.979   3.691
 7057SOL     OW22069   6.827   4.968   3.394
 7057SOL    HW122070   6.910   4.921   3.365
 7057SOL    HW222071   6.770   4.905   3.448
 7058SOL     OW22072   0.692   4.891   5.312
 7058SOL    HW122073   0.707   4.968   5.374
 7058SOL    HW222074   0.707   4.805   5.361
 7059SOL     OW22075   0.963   0.413   2.511
 7059SOL    HW122076   0.891   0.468   2.554
 7059SOL    HW222077   0.957   0.319   2.543
 7060SOL     OW22078   3.234   6.441   1.779
 7060SOL    HW122079   3.261   6.511   1.844
 7060SOL    HW222080   3.177   6.372   1.825
 7061SOL     OW22081   0.588   1.199   3.035
 7061SOL    HW122082   0.666   1.158   2.988
 7061SOL    HW222083   0.605   1.297   3.049
 7062SOL     OW22084   5.685   1.603   5.028
 7062SOL    HW122085   5.774   1.578   5.066
 7062SOL    HW222086   5.618   1.612   5.102
 7063SOL     OW22087   2.141   6.730   1.344
 7063SOL    HW122088   2.050   6.690   1.352
 7063SOL    HW222089   2.207   6.676   1.396
 7064SOL     OW22090   4.065   2.403   1.698
 7064SOL    HW122091   4.077   2.382   1.600
 7064SOL    HW222092   3.988   2.352   1.734
 7065SOL     OW22093   4.557   3.792   1.490
 7065SOL    HW122094   4.538   3.837   1.403
 7065SOL    HW222095   4.498   3.830   1.561
 7066SOL     OW22096   4.141   7.010   0.137
 7066SOL    HW122097   4.102   0.080   0.116
 7066SOL    HW222098   4.139   6.996   0.236
 7067SOL     OW22099   0.787   3.549   5.709
 7067SOL    HW122100   0.717   3.618   5.689
 7067SOL    HW222101   0.874   3.594   5.727
 7068SOL     OW22102   1.675   1.880   3.469
 7068SOL    HW122103   1.775   1.882   3.461
 7068SOL    HW222104   1.639   1.973   3.458
 7069SOL     OW22105   0.068   4.203   5.371
 7069SOL    HW122106   0.143   4.138   5.378
 7069SOL    HW222107   7.015   4.165   5.314
 7070SOL     OW22108   6.562   4.850   4.889
 7070SOL    HW122109   6.464   4.838   4.908
 7070SOL    HW222110   6.574   4.925   4.823
 7071SOL     OW22111   1.301   5.762   5.354
 7071SOL    HW122112   1.367   5.736   5.424
 7071SOL    HW222113   1.324   5.717   5.268
 7072SOL     OW22114   6.790   6.385   6.302
 7072SOL    HW122115   6.864   6.450   6.287
 7072SOL    HW222116   6.740   6.371   6.217
 7073SOL     OW22117   0.460   1.160   5.615
 7073SOL    HW122118   0.415   1.238   5.571
 7073SOL    HW222119   0.393   1.108   5.667
 7074SOL     OW22120   3.138   2.035   1.536
 7074SOL    HW122121   3.139   2.127   1.495
 7074SOL    HW222122   3.127   2.043   1.635
 7075SOL     OW22123   1.893   6.012   4.437
 7075SOL    HW122124   1.925   5.932   4.386
 7075SOL    HW222125   1.850   5.983   4.522
 7076SOL     OW22126   3.772   1.560   6.315
 7076SOL    HW122127   3.709   1.559   6.237
 7076SOL    HW222128   3.754   1.641   6.370
 7077SOL     OW22129   2.425   5.778   5.449
 7077SOL    HW122130   2.336   5.809   5.483
 7077SOL    HW222131   2.482   5.750   5.525
 7078SOL     OW22132   6.588   0.033   3.423
 7078SOL    HW122133   6.572   6.988   3.348
 7078SOL    HW222134   6.669   0.004   3.475
 7079SOL     OW22135   6.525   6.225   6.148
 7079SOL    HW122136   6.521   6.174   6.234
 7079SOL    HW222137   6.516   6.162   6.072
 7080SOL     OW22138   4.189   2.224   3.662
 7080SOL    HW122139   4.121   2.298   3.665
 7080SOL    HW222140   4.143   2.137   3.651
 7081SOL     OW22141   3.062   1.390   5.738
 7081SOL    HW122142   3.024   1.469   5.786
 7081SOL    HW222143   3.074   1.315   5.803
 7082SOL     OW22144   5.734   1.575   6.932
 7082SOL    HW122145   5.705   1.484   6.959
 7082SOL    HW222146   5.676   1.643   6.977
 7083SOL     OW22147   3.675   1.139   6.014
 7083SOL    HW122148   3.676   1.222   6.069
 7083SOL    HW222149   3.657   1.162   5.918
 7084SOL     OW22150   6.760   6.117   5.984
 7084SOL    HW122151   6.747   6.127   5.885
 7084SOL    HW222152   6.682   6.069   6.023
 7085SOL     OW22153   2.310   2.826   3.097
 7085SOL    HW122154   2.247   2.789   3.029
 7085SOL    HW222155   2.404   2.814   3.064
 7086SOL     OW22156   5.517   1.029   6.467
 7086SOL    HW122157   5.610   1.057   6.443
 7086SOL    HW222158   5.521   0.945   6.522
 7087SOL     OW22159   0.333   3.817   4.487
 7087SOL    HW122160   0.428   3.789   4.472
 7087SOL    HW222161   0.292   3.844   4.400
 7088SOL     OW22162   5.137   2.890   4.319
 7088SOL    HW122163   5.149   2.902   4.418
 7088SOL    HW222164   5.039   2.891   4.298
 7089SOL     OW22165   3.554   2.163   6.286
 7089SOL    HW122166   3.464   2.192   6.320
 7089SOL    HW222167   3.594   2.098   6.351
 7090SOL     OW22168   1.879   2.043   5.367
 7090SOL    HW122169   1.856   2.110   5.297
 7090SOL    HW222170   1.978   2.041   5.381
 7091SOL     OW22171   0.041   0.971   0.708
 7091SOL    HW122172   0.029   1.070   0.701
 7091SOL    HW222173   7.018   0.938   0.793
 7092SOL     OW22174   3.693   4.340   0.543
 7092SOL    HW122175   3.711   4.288   0.627
 7092SOL    HW222176   3.741   4.297   0.467
 7093SOL     OW22177   3.470   4.199   4.812
 7093SOL    HW122178   3.498   4.288   4.848
 7093SOL    HW222179   3.515   4.127   4.864
 7094SOL     OW22180   1.110   6.425   5.712
 7094SOL    HW122181   1.182   6.494   5.707
 7094SOL    HW222182   1.053   6.430   5.630
 7095SOL     OW22183   1.279   3.345   6.341
 7095SOL    HW122184   1.213   3.397   6.287
 7095SOL    HW222185   1.366   3.339   6.292
 7096SOL     OW22186   4.579   2.076   3.826
 7096SOL    HW122187   4.676   2.055   3.809
 7096SOL    HW222188   4.567   2.105   3.921
 7097SOL     OW22189   0.244   1.538   2.185
 7097SOL    HW122190   0.288   1.469   2.242
 7097SOL    HW222191   0.269   1.523   2.089
 7098SOL     OW22192   1.522   5.727   6.140
 7098SOL    HW122193   1.430   5.763   6.124
 7098SOL    HW222194   1.572   5.788   6.201
 7099SOL     OW22195   1.422   1.030   4.827
 7099SOL    HW122196   1.407   1.034   4.926
 7099SOL    HW222197   1.451   1.120   4.794
 7100SOL     OW22198   5.003   4.277   0.902
 7100SOL    HW122199   5.048   4.248   0.817
 7100SOL    HW222200   5.052   4.240   0.980
 7101SOL     OW22201   3.055   0.390   4.790
 7101SOL    HW122202   3.086   0.371   4.883
 7101SOL    HW222203   3.093   0.477   4.760
 7102SOL     OW22204   4.047   1.275   1.064
 7102SOL    HW122205   3.969   1.333   1.083
 7102SOL    HW222206   4.121   1.329   1.024
 7103SOL     OW22207   3.395   6.243   6.948
 7103SOL    HW122208   3.424   6.331   6.986
 7103SOL    HW222209   3.317   6.208   7.000
 7104SOL     OW22210   1.706   2.633   3.285
 7104SOL    HW122211   1.791   2.678   3.260
 7104SOL    HW222212   1.648   2.697   3.336
 7105SOL     OW22213   3.214   3.523   4.328
 7105SOL    HW122214   3.123   3.481   4.329
 7105SOL    HW222215   3.251   3.520   4.235
 7106SOL     OW22216   3.471   3.401   4.537
 7106SOL    HW122217   3.569   3.405   4.561
 7106SOL    HW222218   3.437   3.309   4.553
 7107SOL     OW22219   3.118   1.101   0.546
 7107SOL    HW122220   3.111   1.014   0.497
 7107SOL    HW222221   3.151   1.172   0.483
 7108SOL     OW22222   5.113   6.246   0.925
 7108SOL    HW122223   5.162   6.283   1.004
 7108SOL    HW222224   5.015   6.250   0.943
 7109SOL     OW22225   3.765   0.300   5.710
 7109SOL    HW122226   3.684   0.314   5.652
 7109SOL    HW222227   3.783   0.202   5.717
 7110SOL     OW22228   5.002   4.962   4.165
 7110SOL    HW122229   4.960   4.915   4.087
 7110SOL    HW222230   5.073   5.024   4.132
 7111SOL     OW22231   1.776   3.378   4.146
 7111SOL    HW122232   1.693   3.408   4.193
 7111SOL    HW222233   1.845   3.451   4.150
 7112SOL     OW22234   0.646   6.287   4.185
 7112SOL    HW122235   0.577   6.216   4.204
 7112SOL    HW222236   0.727   6.244   4.145
 7113SOL     OW22237   3.906   4.026   4.734
 7113SOL    HW122238   3.870   4.103   4.682
 7113SOL    HW222239   3.951   3.961   4.673
 7114SOL     OW22240   4.758   1.361   1.812
 7114SOL    HW122241   4.816   1.284   1.840
 7114SOL    HW222242   4.678   1.366   1.872
 7115SOL     OW22243   4.493   2.133   1.339
 7115SOL    HW122244   4.443   2.139   1.425
 7115SOL    HW222245   4.583   2.176   1.349
 7116SOL     OW22246   5.562   3.753   3.446
 7116SOL    HW122247   5.604   3.841   3.467
 7116SOL    HW222248   5.464   3.766   3.431
 7117SOL     OW22249   6.191   6.120   3.043
 7117SOL    HW122250   6.125   6.052   3.076
 7117SOL    HW222251   6.268   6.125   3.107
 7118SOL     OW22252   5.043   3.844   1.026
 7118SOL    HW122253   5.027   3.921   1.088
 7118SOL    HW222254   5.032   3.874   0.931
 7119SOL     OW22255   5.876   1.391   2.566
 7119SOL    HW122256   5.833   1.332   2.498
 7119SOL    HW222257   5.960   1.349   2.599
 7120SOL     OW22258   5.005   1.528   3.755
 7120SOL    HW122259   4.988   1.497   3.849
 7120SOL    HW222260   4.918   1.554   3.713
 7121SOL     OW22261   2.151   0.033   3.734
 7121SOL    HW122262   2.161   0.132   3.727
 7121SOL    HW222263   2.119   0.009   3.826
 7122SOL     OW22264   6.690   1.340   6.962
 7122SOL    HW122265   6.644   1.368   0.027
 7122SOL    HW222266   6.785   1.371   6.963
 7123SOL     OW22267   2.447   5.385   1.546
 7123SOL    HW122268   2.376   5.385   1.476
 7123SOL    HW222269   2.518   5.452   1.521
 7124SOL     OW22270   0.243   5.438   6.954
 7124SOL    HW122271   0.183   5.358   6.967
 7124SOL    HW222272   0.250   5.489   0.020
 7125SOL     OW22273   6.394   6.436   2.374
 7125SOL    HW122274   6.352   6.352   2.340
 7125SOL    HW222275   6.494   6.426   2.374
 7126SOL     OW22276   2.015   3.949   0.456
 7126SOL    HW122277   2.032   3.851   0.471
 7126SOL    HW222278   2.101   3.997   0.447
 7127SOL     OW22279   3.066   5.916   4.178
 7127SOL    HW122280   3.022   5.871   4.099
 7127SOL    HW222281   3.159   5.880   4.188
 7128SOL     OW22282   3.421   4.338   0.631
 7128SOL    HW122283   3.511   4.347   0.588
 7128SOL    HW222284   3.428   4.280   0.712
 7129SOL     OW22285   3.399   0.535   1.205
 7129SOL    HW122286   3.493   0.569   1.210
 7129SOL    HW222287   3.335   0.612   1.209
 7130SOL     OW22288   2.974   4.986   3.494
 7130SOL    HW122289   2.920   4.901   3.490
 7130SOL    HW222290   2.947   5.039   3.574
 7131SOL     OW22291   3.297   1.526   2.314
 7131SOL    HW122292   3.264   1.609   2.268
 7131SOL    HW222293   3.295   1.450   2.249
 7132SOL     OW22294   3.925   3.801   2.724
 7132SOL    HW122295   3.970   3.772   2.639
 7132SOL    HW222296   3.878   3.724   2.766
 7133SOL     OW22297   4.915   5.752   3.296
 7133SOL    HW122298   4.860   5.760   3.213
 7133SOL    HW222299   4.855   5.750   3.376
 7134SOL     OW22300   6.004   6.057   3.926
 7134SOL    HW122301   6.077   6.007   3.879
 7134SOL    HW222302   6.002   6.152   3.894
 7135SOL     OW22303   1.383   1.184   4.475
 7135SOL    HW122304   1.383   1.129   4.391
 7135SOL    HW222305   1.327   1.266   4.460
 7136SOL     OW22306   2.104   0.880   0.571
 7136SOL    HW122307   2.010   0.915   0.571
 7136SOL    HW222308   2.168   0.957   0.580
 7137SOL     OW22309   4.842   0.820   4.588
 7137SOL    HW122310   4.778   0.894   4.569
 7137SOL    HW222311   4.918   0.855   4.643
 7138SOL     OW22312   3.253   3.527   1.191
 7138SOL    HW122313   3.240   3.612   1.242
 7138SOL    HW222314   3.209   3.452   1.241
 7139SOL     OW22315   4.766   3.109   1.673
 7139SOL    HW122316   4.767   3.209   1.669
 7139SOL    HW222317   4.715   3.079   1.753
 7140SOL     OW22318   6.684   4.608   4.738
 7140SOL    HW122319   6.663   4.658   4.822
 7140SOL    HW222320   6.709   4.673   4.666
 7141SOL     OW22321   2.844   0.312   0.957
 7141SOL    HW122322   2.836   0.412   0.967
 7141SOL    HW222323   2.938   0.289   0.933
 7142SOL     OW22324   4.332   5.966   3.918
 7142SOL    HW122325   4.338   6.056   3.963
 7142SOL    HW222326   4.239   5.931   3.926
 7143SOL     OW22327   1.681   4.529   6.048
 7143SOL    HW122328   1.750   4.568   5.986
 7143SOL    HW222329   1.624   4.464   5.997
 7144SOL     OW22330   0.948   1.422   2.988
 7144SOL    HW122331   0.984   1.474   2.910
 7144SOL    HW222332   1.009   1.344   3.007
 7145SOL     OW22333   4.500   0.022   6.721
 7145SOL    HW122334   4.411   0.028   6.767
 7145SOL    HW222335   4.488   0.041   6.624
 7146SOL     OW22336   2.727   6.651   0.520
 7146SOL    HW122337   2.791   6.640   0.596
 7146SOL    HW222338   2.635   6.664   0.555
 7147SOL     OW22339   6.846   0.658   3.235
 7147SOL    HW122340   6.792   0.575   3.222
 7147SOL    HW222341   6.824   0.698   3.324
 7148SOL     OW22342   1.110   6.567   1.812
 7148SOL    HW122343   1.079   6.608   1.727
 7148SOL    HW222344   1.135   6.472   1.796
 7149SOL     OW22345   6.406   1.168   3.648
 7149SOL    HW122346   6.319   1.210   3.622
 7149SOL    HW222347   6.445   1.121   3.569
 7150SOL     OW22348   5.442   2.908   0.214
 7150SOL    HW122349   5.396   2.989   0.177
 7150SOL    HW222350   5.376   2.851   0.263
 7151SOL     OW22351   1.980   6.078   1.105
 7151SOL    HW122352   2.064   6.076   1.159
 7151SOL    HW222353   1.923   6.155   1.134
 7152SOL     OW22354   0.491   3.324   4.955
 7152SOL    HW122355   0.492   3.230   4.923
 7152SOL    HW222356   0.531   3.384   4.886
 7153SOL     OW22357   4.344   0.462   5.009
 7153SOL    HW122358   4.423   0.435   4.954
 7153SOL    HW222359   4.260   0.436   4.962
 7154SOL     OW22360   3.796   5.557   4.049
 7154SOL    HW122361   3.732   5.543   3.973
 7154SOL    HW222362   3.828   5.468   4.082
 7155SOL     OW22363   1.411   6.380   2.112
 7155SOL    HW122364   1.474   6.304   2.100
 7155SOL    HW222365   1.326   6.347   2.152
 7156SOL     OW22366   6.426   5.353   5.230
 7156SOL    HW122367   6.361   5.281   5.208
 7156SOL    HW222368   6.400   5.397   5.315
 7157SOL     OW22369   5.777   5.752   0.557
 7157SOL    HW122370   5.742   5.837   0.516
 7157SOL    HW222371   5.761   5.676   0.494
 7158SOL     OW22372   0.082   6.660   3.447
 7158SOL    HW122373   0.181   6.676   3.440
 7158SOL    HW222374   0.034   6.723   3.386
 7159SOL     OW22375   0.436   5.270   0.879
 7159SOL    HW122376   0.366   5.317   0.932
 7159SOL    HW222377   0.416   5.172   0.877
 7160SOL     OW22378   6.152   0.088   2.152
 7160SOL    HW122379   6.179   0.049   2.064
 7160SOL    HW222380   6.213   0.164   2.175
 7161SOL     OW22381   3.884   2.993   3.889
 7161SOL    HW122382   3.797   2.970   3.844
 7161SOL    HW222383   3.958   2.944   3.844
 7162SOL     OW22384   3.580   5.037   3.965
 7162SOL    HW122385   3.489   5.002   3.947
 7162SOL    HW222386   3.645   4.996   3.901
 7163SOL     OW22387   3.332   0.267   3.571
 7163SOL    HW122388   3.248   0.316   3.547
 7163SOL    HW222389   3.364   0.215   3.491
 7164SOL     OW22390   2.146   1.158   3.492
 7164SOL    HW122391   2.140   1.199   3.583
 7164SOL    HW222392   2.237   1.175   3.454
 7165SOL     OW22393   5.675   1.496   0.992
 7165SOL    HW122394   5.732   1.455   0.920
 7165SOL    HW222395   5.579   1.488   0.966
 7166SOL     OW22396   4.660   4.518   1.010
 7166SOL    HW122397   4.649   4.484   1.104
 7166SOL    HW222398   4.696   4.611   1.012
 7167SOL     OW22399   4.687   3.663   5.445
 7167SOL    HW122400   4.639   3.640   5.361
 7167SOL    HW222401   4.720   3.580   5.489
 7168SOL     OW22402   1.196   1.338   4.342
 7168SOL    HW122403   1.115   1.396   4.351
 7168SOL    HW222404   1.182   1.273   4.267
 7169SOL     OW22405   1.720   3.338   6.009
 7169SOL    HW122406   1.788   3.265   6.013
 7169SOL    HW222407   1.761   3.420   5.970
 7170SOL     OW22408   5.414   4.910   3.330
 7170SOL    HW122409   5.380   4.829   3.283
 7170SOL    HW222410   5.504   4.891   3.369
 7171SOL     OW22411   4.389   3.076   5.596
 7171SOL    HW122412   4.306   3.024   5.578
 7171SOL    HW222413   4.402   3.084   5.695
 7172SOL     OW22414   1.944   6.617   0.842
 7172SOL    HW122415   1.981   6.653   0.928
 7172SOL    HW222416   1.939   6.518   0.846
 7173SOL     OW22417   0.140   5.841   3.984
 7173SOL    HW122418   0.079   5.902   3.933
 7173SOL    HW222419   0.129   5.858   4.082
 7174SOL     OW22420   1.935   4.945   0.623
 7174SOL    HW122421   1.947   4.887   0.704
 7174SOL    HW222422   1.838   4.955   0.603
 7175SOL     OW22423   5.014   3.838   0.512
 7175SOL    HW122424   5.093   3.888   0.478
 7175SOL    HW222425   4.999   3.757   0.456
 7176SOL     OW22426   6.729   4.547   1.994
 7176SOL    HW122427   6.796   4.590   2.053
 7176SOL    HW222428   6.693   4.465   2.038
 7177SOL     OW22429   0.610   5.861   3.536
 7177SOL    HW122430   0.624   5.762   3.530
 7177SOL    HW222431   0.677   5.901   3.597
 7178SOL     OW22432   1.395   2.534   4.960
 7178SOL    HW122433   1.300   2.525   4.928
 7178SOL    HW222434   1.398   2.602   5.033
 7179SOL     OW22435   2.885   3.786   5.397
 7179SOL    HW122436   2.822   3.815   5.325
 7179SOL    HW222437   2.948   3.717   5.361
 7180SOL     OW22438   0.583   6.051   0.674
 7180SOL    HW122439   0.553   6.013   0.587
 7180SOL    HW222440   0.599   6.149   0.664
 7181SOL     OW22441   4.431   0.599   1.441
 7181SOL    HW122442   4.344   0.633   1.475
 7181SOL    HW222443   4.449   0.508   1.479
 7182SOL     OW22444   2.027   4.581   5.396
 7182SOL    HW122445   2.086   4.549   5.321
 7182SOL    HW222446   1.978   4.663   5.367
 7183SOL     OW22447   1.846   5.080   2.885
 7183SOL    HW122448   1.933   5.065   2.933
 7183SOL    HW222449   1.860   5.145   2.811
 7184SOL     OW22450   1.260   6.601   4.332
 7184SOL    HW122451   1.247   6.587   4.234
 7184SOL    HW222452   1.171   6.619   4.375
 7185SOL     OW22453   4.625   3.111   6.640
 7185SOL    HW122454   4.717   3.145   6.619
 7185SOL    HW222455   4.623   3.078   6.734
 7186SOL     OW22456   6.611   5.970   5.555
 7186SOL    HW122457   6.627   5.996   5.460
 7186SOL    HW222458   6.639   6.045   5.615
 7187SOL     OW22459   1.441   4.093   1.784
 7187SOL    HW122460   1.492   4.179   1.788
 7187SOL    HW222461   1.358   4.101   1.839
 7188SOL     OW22462   4.804   0.520   1.922
 7188SOL    HW122463   4.900   0.515   1.897
 7188SOL    HW222464   4.757   0.587   1.863
 7189SOL     OW22465   6.870   1.152   5.702
 7189SOL    HW122466   6.889   1.236   5.651
 7189SOL    HW222467   6.771   1.138   5.708
 7190SOL     OW22468   5.344   3.976   2.789
 7190SOL    HW122469   5.413   4.011   2.852
 7190SOL    HW222470   5.271   3.931   2.842
 7191SOL     OW22471   1.291   3.704   2.831
 7191SOL    HW122472   1.275   3.803   2.822
 7191SOL    HW222473   1.209   3.661   2.868
 7192SOL     OW22474   1.874   4.773   6.423
 7192SOL    HW122475   1.817   4.855   6.430
 7192SOL    HW222476   1.929   4.777   6.340
 7193SOL     OW22477   3.514   1.709   4.784
 7193SOL    HW122478   3.577   1.667   4.849
 7193SOL    HW222479   3.420   1.693   4.812
 7194SOL     OW22480   2.520   1.780   1.604
 7194SOL    HW122481   2.576   1.811   1.528
 7194SOL    HW222482   2.494   1.858   1.661
 7195SOL     OW22483   6.994   5.513   0.623
 7195SOL    HW122484   0.015   5.599   0.655
 7195SOL    HW222485   6.959   5.461   0.701
 7196SOL     OW22486   2.922   3.481   3.107
 7196SOL    HW122487   2.935   3.580   3.098
 7196SOL    HW222488   2.950   3.436   3.022
 7197SOL     OW22489   6.867   1.749   4.686
 7197SOL    HW122490   6.850   1.664   4.735
 7197SOL    HW222491   6.966   1.768   4.685
 7198SOL     OW22492   1.584   6.910   5.968
 7198SOL    HW122493   1.514   6.976   5.943
 7198SOL    HW222494   1.556   6.819   5.940
 7199SOL     OW22495   0.071   0.767   2.820
 7199SOL    HW122496   0.065   0.778   2.919
 7199SOL    HW222497   0.072   0.670   2.797
 7200SOL     OW22498   2.370   0.921   0.829
 7200SOL    HW122499   2.357   0.905   0.731
 7200SOL    HW222500   2.330   0.846   0.881
 7201SOL     OW22501   1.410   4.573   3.445
 7201SOL    HW122502   1.495   4.522   3.431
 7201SOL    HW222503   1.426   4.648   3.510
 7202SOL     OW22504   4.355   0.148   6.116
 7202SOL    HW122505   4.293   0.164   6.039
 7202SOL    HW222506   4.423   0.079   6.090
 7203SOL     OW22507   5.789   0.325   0.421
 7203SOL    HW122508   5.821   0.339   0.327
 7203SOL    HW222509   5.741   0.408   0.452
 7204SOL     OW22510   6.063   1.057   3.656
 7204SOL    HW122511   6.128   1.028   3.586
 7204SOL    HW222512   6.105   1.048   3.746
 7205SOL     OW22513   1.575   5.365   3.193
 7205SOL    HW122514   1.558   5.455   3.153
 7205SOL    HW222515   1.673   5.354   3.211
 7206SOL     OW22516   6.772   1.417   0.838
 7206SOL    HW122517   6.796   1.372   0.752
 7206SOL    HW222518   6.761   1.515   0.824
 7207SOL     OW22519   3.312   6.628   1.319
 7207SOL    HW122520   3.299   6.549   1.258
 7207SOL    HW222521   3.253   6.703   1.288
 7208SOL     OW22522   3.236   0.402   5.032
 7208SOL    HW122523   3.335   0.396   5.021
 7208SOL    HW222524   3.212   0.402   5.129
 7209SOL     OW22525   4.055   3.595   3.659
 7209SOL    HW122526   4.103   3.524   3.607
 7209SOL    HW222527   3.989   3.553   3.720
 7210SOL     OW22528   4.578   1.120   4.174
 7210SOL    HW122529   4.588   1.218   4.155
 7210SOL    HW222530   4.539   1.074   4.094
 7211SOL     OW22531   1.198   5.816   4.070
 7211SOL    HW122532   1.289   5.834   4.032
 7211SOL    HW222533   1.184   5.873   4.151
 7212SOL     OW22534   6.236   5.318   4.520
 7212SOL    HW122535   6.221   5.322   4.421
 7212SOL    HW222536   6.190   5.238   4.557
 7213SOL     OW22537   5.321   0.345   5.628
 7213SOL    HW122538   5.384   0.300   5.564
 7213SOL    HW222539   5.288   0.430   5.586
 7214SOL     OW22540   2.700   5.573   4.875
 7214SOL    HW122541   2.657   5.503   4.932
 7214SOL    HW222542   2.633   5.608   4.810
 7215SOL     OW22543   0.770   3.811   4.290
 7215SOL    HW122544   0.741   3.906   4.282
 7215SOL    HW222545   0.870   3.808   4.297
 7216SOL     OW22546   2.394   6.992   0.363
 7216SOL    HW122547   2.322   6.938   0.405
 7216SOL    HW222548   2.359   0.063   0.340
 7217SOL     OW22549   1.285   3.773   2.466
 7217SOL    HW122550   1.228   3.855   2.454
 7217SOL    HW222551   1.348   3.788   2.542
 7218SOL     OW22552   4.769   2.024   5.716
 7218SOL    HW122553   4.856   1.976   5.710
 7218SOL    HW222554   4.783   2.121   5.699
 7219SOL     OW22555   4.254   6.526   3.245
 7219SOL    HW122556   4.171   6.518   3.299
 7219SOL    HW222557   4.310   6.601   3.280
 7220SOL     OW22558   6.294   1.395   2.577
 7220SOL    HW122559   6.335   1.480   2.610
 7220SOL    HW222560   6.273   1.404   2.479
 7221SOL     OW22561   5.487   3.881   5.718
 7221SOL    HW122562   5.477   3.795   5.667
 7221SOL    HW222563   5.423   3.880   5.796
 7222SOL     OW22564   6.569   6.388   1.381
 7222SOL    HW122565   6.627   6.308   1.399
 7222SOL    HW222566   6.589   6.424   1.290
 7223SOL     OW22567   3.285   1.248   6.555
 7223SOL    HW122568   3.252   1.154   6.568
 7223SOL    HW222569   3.213   1.312   6.582
 7224SOL     OW22570   5.647   0.433   4.833
 7224SOL    HW122571   5.725   0.449   4.895
 7224SOL    HW222572   5.655   0.492   4.753
 7225SOL     OW22573   1.784   5.831   0.280
 7225SOL    HW122574   1.844   5.873   0.212
 7225SOL    HW222575   1.758   5.740   0.250
 7226SOL     OW22576   0.631   0.090   0.383
 7226SOL    HW122577   0.572   0.120   0.309
 7226SOL    HW222578   0.654   0.168   0.441
 7227SOL     OW22579   0.313   2.577   6.721
 7227SOL    HW122580   0.413   2.580   6.711
 7227SOL    HW222581   0.286   2.486   6.753
 7228SOL     OW22582   6.765   0.103   2.145
 7228SOL    HW122583   6.726   0.133   2.057
 7228SOL    HW222584   6.698   0.048   2.194
 7229SOL     OW22585   1.535   6.922   4.428
 7229SOL    HW122586   1.606   6.965   4.371
 7229SOL    HW222587   1.512   6.832   4.390
 7230SOL     OW22588   4.758   5.382   3.379
 7230SOL    HW122589   4.661   5.393   3.404
 7230SOL    HW222590   4.815   5.397   3.460
 7231SOL     OW22591   5.960   1.561   6.074
 7231SOL    HW122592   5.923   1.496   6.140
 7231SOL    HW222593   5.938   1.654   6.103
 7232SOL     OW22594   3.983   4.833   2.527
 7232SOL    HW122595   3.903   4.839   2.587
 7232SOL    HW222596   4.043   4.911   2.545
 7233SOL     OW22597   0.309   2.849   5.627
 7233SOL    HW122598   0.241   2.804   5.685
 7233SOL    HW222599   0.396   2.853   5.675
 7234SOL     OW22600   6.532   2.097   1.908
 7234SOL    HW122601   6.580   2.043   1.976
 7234SOL    HW222602   6.457   2.147   1.951
 7235SOL     OW22603   5.279   3.767   5.175
 7235SOL    HW122604   5.325   3.695   5.227
 7235SOL    HW222605   5.220   3.726   5.105
 7236SOL     OW22606   4.028   1.189   3.377
 7236SOL    HW122607   4.069   1.262   3.432
 7236SOL    HW222608   3.988   1.120   3.438
 7237SOL     OW22609   6.049   5.835   5.831
 7237SOL    HW122610   5.972   5.896   5.847
 7237SOL    HW222611   6.015   5.747   5.798
 7238SOL     OW22612   2.638   1.812   2.558
 7238SOL    HW122613   2.567   1.823   2.488
 7238SOL    HW222614   2.627   1.723   2.603
 7239SOL     OW22615   3.010   1.528   2.068
 7239SOL    HW122616   3.071   1.607   2.067
 7239SOL    HW222617   2.945   1.538   2.143
 7240SOL     OW22618   2.487   4.342   0.142
 7240SOL    HW122619   2.505   4.244   0.136
 7240SOL    HW222620   2.504   4.373   0.236
 7241SOL     OW22621   3.369   0.207   5.450
 7241SOL    HW122622   3.282   0.249   5.475
 7241SOL    HW222623   3.444   0.268   5.479
 7242SOL     OW22624   6.327   4.320   6.282
 7242SOL    HW122625   6.228   4.332   6.290
 7242SOL    HW222626   6.370   4.331   6.372
 7243SOL     OW22627   0.641   5.758   0.066
 7243SOL    HW122628   0.735   5.792   0.068
 7243SOL    HW222629   0.606   5.760   6.991
 7244SOL     OW22630   5.538   2.132   1.137
 7244SOL    HW122631   5.503   2.225   1.150
 7244SOL    HW222632   5.497   2.093   1.054
 7245SOL     OW22633   0.128   1.707   4.436
 7245SOL    HW122634   0.153   1.619   4.477
 7245SOL    HW222635   0.135   1.779   4.505
 7246SOL     OW22636   6.644   6.910   5.180
 7246SOL    HW122637   6.600   6.987   5.226
 7246SOL    HW222638   6.734   6.938   5.146
 7247SOL     OW22639   2.421   5.956   2.078
 7247SOL    HW122640   2.355   5.895   2.122
 7247SOL    HW222641   2.514   5.926   2.099
 7248SOL     OW22642   4.027   1.410   4.215
 7248SOL    HW122643   3.944   1.355   4.211
 7248SOL    HW222644   4.055   1.435   4.122
 7249SOL     OW22645   6.061   5.015   6.935
 7249SOL    HW122646   5.975   5.046   6.895
 7249SOL    HW222647   6.136   5.068   6.896
 7250SOL     OW22648   2.768   4.324   6.027
 7250SOL    HW122649   2.750   4.367   5.939
 7250SOL    HW222650   2.717   4.238   6.033
 7251SOL     OW22651   6.953   6.885   4.545
 7251SOL    HW122652   6.935   6.977   4.579
 7251SOL    HW222653   6.889   6.820   4.587
 7252SOL     OW22654   3.372   3.158   4.606
 7252SOL    HW122655   3.329   3.134   4.693
 7252SOL    HW222656   3.440   3.089   4.582
 7253SOL     OW22657   3.632   6.181   0.988
 7253SOL    HW122658   3.623   6.111   0.917
 7253SOL    HW222659   3.728   6.210   0.995
 7254SOL     OW22660   4.233   5.952   4.243
 7254SOL    HW122661   4.242   5.935   4.341
 7254SOL    HW222662   4.218   6.050   4.227
 7255SOL     OW22663   3.136   3.398   2.485
 7255SOL    HW122664   3.174   3.397   2.393
 7255SOL    HW222665   3.132   3.492   2.519
 7256SOL     OW22666   4.272   4.650   3.773
 7256SOL    HW122667   4.305   4.569   3.724
 7256SOL    HW222668   4.289   4.731   3.718
 7257SOL     OW22669   6.135   2.763   3.382
 7257SOL    HW122670   6.053   2.712   3.355
 7257SOL    HW222671   6.203   2.700   3.419
 7258SOL     OW22672   3.709   0.879   4.983
 7258SOL    HW122673   3.674   0.824   4.907
 7258SOL    HW222674   3.809   0.884   4.977
 7259SOL     OW22675   2.165   4.341   0.156
 7259SOL    HW122676   2.121   4.403   0.222
 7259SOL    HW222677   2.262   4.334   0.178
 7260SOL     OW22678   3.383   2.120   2.879
 7260SOL    HW122679   3.343   2.115   2.787
 7260SOL    HW222680   3.316   2.090   2.947
 7261SOL     OW22681   1.994   3.577   1.838
 7261SOL    HW122682   1.975   3.519   1.758
 7261SOL    HW222683   2.079   3.547   1.881
 7262SOL     OW22684   6.006   1.843   4.849
 7262SOL    HW122685   5.921   1.895   4.846
 7262SOL    HW222686   6.005   1.773   4.778
 7263SOL     OW22687   1.642   6.324   1.660
 7263SOL    HW122688   1.677   6.269   1.585
 7263SOL    HW222689   1.719   6.370   1.706
 7264SOL     OW22690   0.348   0.512   5.870
 7264SOL    HW122691   0.423   0.536   5.932
 7264SOL    HW222692   0.360   0.560   5.783
 7265SOL     OW22693   4.167   4.444   5.539
 7265SOL    HW122694   4.251   4.493   5.563
 7265SOL    HW222695   4.127   4.484   5.456
 7266SOL     OW22696   4.809   0.506   1.419
 7266SOL    HW122697   4.731   0.555   1.380
 7266SOL    HW222698   4.777   0.431   1.475
 7267SOL     OW22699   0.031   4.057   4.232
 7267SOL    HW122700   0.011   4.094   4.323
 7267SOL    HW222701   7.006   4.114   4.163
 7268SOL     OW22702   4.071   6.957   1.746
 7268SOL    HW122703   4.069   6.941   1.845
 7268SOL    HW222704   4.119   6.881   1.702
 7269SOL     OW22705   1.291   5.495   1.978
 7269SOL    HW122706   1.379   5.469   2.016
 7269SOL    HW222707   1.240   5.414   1.952
 7270SOL     OW22708   2.744   1.029   2.707
 7270SOL    HW122709   2.718   0.991   2.619
 7270SOL    HW222710   2.837   1.067   2.701
 7271SOL     OW22711   0.263   3.316   3.251
 7271SOL    HW122712   0.270   3.323   3.351
 7271SOL    HW222713   0.284   3.404   3.210
 7272SOL     OW22714   5.670   2.021   2.185
 7272SOL    HW122715   5.734   2.098   2.184
 7272SOL    HW222716   5.685   1.965   2.103
 7273SOL     OW22717   5.641   4.653   0.212
 7273SOL    HW122718   5.703   4.710   0.265
 7273SOL    HW222719   5.623   4.568   0.260
 7274SOL     OW22720   6.442   4.959   5.254
 7274SOL    HW122721   6.517   4.996   5.198
 7274SOL    HW222722   6.470   4.874   5.297
 7275SOL     OW22723   0.168   0.080   0.589
 7275SOL    HW122724   0.086   0.122   0.627
 7275SOL    HW222725   0.194   0.001   0.644
 7276SOL     OW22726   2.239   2.720   3.854
 7276SOL    HW122727   2.295   2.716   3.771
 7276SOL    HW222728   2.257   2.806   3.902
 7277SOL     OW22729   4.516   2.043   4.694
 7277SOL    HW122730   4.468   1.957   4.674
 7277SOL    HW222731   4.486   2.113   4.630
 7278SOL     OW22732   3.332   1.324   2.777
 7278SOL    HW122733   3.354   1.395   2.843
 7278SOL    HW222734   3.416   1.286   2.739
 7279SOL     OW22735   5.367   5.074   0.922
 7279SOL    HW122736   5.354   4.994   0.864
 7279SOL    HW222737   5.356   5.049   1.018
 7280SOL     OW22738   6.192   2.824   5.089
 7280SOL    HW122739   6.141   2.738   5.081
 7280SOL    HW222740   6.150   2.883   5.158
 7281SOL     OW22741   3.786   6.524   2.392
 7281SOL    HW122742   3.843   6.577   2.329
 7281SOL    HW222743   3.786   6.569   2.482
 7282SOL     OW22744   6.754   4.898   2.032
 7282SOL    HW122745   6.795   4.917   1.943
 7282SOL    HW222746   6.820   4.850   2.090
 7283SOL     OW22747   3.846   4.885   2.787
 7283SOL    HW122748   3.859   4.980   2.761
 7283SOL    HW222749   3.797   4.881   2.875
 7284SOL     OW22750   6.488   2.008   3.560
 7284SOL    HW122751   6.402   2.055   3.541
 7284SOL    HW222752   6.554   2.028   3.488
 7285SOL     OW22753   4.976   2.905   1.900
 7285SOL    HW122754   4.942   2.814   1.878
 7285SOL    HW222755   4.900   2.963   1.931
 7286SOL     OW22756   0.627   1.492   1.570
 7286SOL    HW122757   0.687   1.466   1.646
 7286SOL    HW222758   0.617   1.414   1.508
 7287SOL     OW22759   1.321   2.669   3.845
 7287SOL    HW122760   1.387   2.686   3.918
 7287SOL    HW222761   1.336   2.735   3.771
 7288SOL     OW22762   2.905   2.284   3.156
 7288SOL    HW122763   3.004   2.301   3.155
 7288SOL    HW222764   2.874   2.271   3.250
 7289SOL     OW22765   6.310   2.623   0.837
 7289SOL    HW122766   6.306   2.720   0.862
 7289SOL    HW222767   6.229   2.577   0.873
 7290SOL     OW22768   3.230   1.845   5.451
 7290SOL    HW122769   3.220   1.814   5.356
 7290SOL    HW222770   3.326   1.870   5.467
 7291SOL     OW22771   4.734   1.280   0.494
 7291SOL    HW122772   4.752   1.300   0.398
 7291SOL    HW222773   4.726   1.366   0.545
 7292SOL     OW22774   2.445   0.454   2.364
 7292SOL    HW122775   2.470   0.551   2.373
 7292SOL    HW222776   2.497   0.401   2.431
 7293SOL     OW22777   1.000   0.438   5.271
 7293SOL    HW122778   0.904   0.431   5.244
 7293SOL    HW222779   1.034   0.347   5.295
 7294SOL     OW22780   2.251   5.929   1.694
 7294SOL    HW122781   2.317   5.995   1.730
 7294SOL    HW222782   2.179   5.978   1.644
 7295SOL     OW22783   5.927   5.128   2.493
 7295SOL    HW122784   5.843   5.078   2.512
 7295SOL    HW222785   5.941   5.133   2.394
 7296SOL     OW22786   5.096   4.619   2.083
 7296SOL    HW122787   5.019   4.593   2.142
 7296SOL    HW222788   5.132   4.538   2.037
 7297SOL     OW22789   3.898   6.560   1.548
 7297SOL    HW122790   3.941   6.629   1.490
 7297SOL    HW222791   3.883   6.599   1.639
 7298SOL     OW22792   4.606   5.390   6.825
 7298SOL    HW122793   4.705   5.394   6.821
 7298SOL    HW222794   4.570   5.372   6.734
 7299SOL     OW22795   1.562   2.787   6.919
 7299SOL    HW122796   1.502   2.865   6.936
 7299SOL    HW222797   1.576   2.777   6.821
 7300SOL     OW22798   0.540   5.380   2.071
 7300SOL    HW122799   0.468   5.382   2.002
 7300SOL    HW222800   0.614   5.442   2.045
 7301SOL     OW22801   5.112   7.018   5.771
 7301SOL    HW122802   5.152   0.032   5.685
 7301SOL    HW222803   5.175   6.954   5.815
 7302SOL     OW22804   5.266   1.095   6.384
 7302SOL    HW122805   5.228   1.182   6.413
 7302SOL    HW222806   5.345   1.073   6.442
 7303SOL     OW22807   2.626   1.376   1.471
 7303SOL    HW122808   2.705   1.428   1.439
 7303SOL    HW222809   2.548   1.391   1.409
 7304SOL     OW22810   2.475   5.740   1.668
 7304SOL    HW122811   2.377   5.760   1.671
 7304SOL    HW222812   2.520   5.782   1.746
 7305SOL     OW22813   6.561   1.890   0.825
 7305SOL    HW122814   6.495   1.836   0.774
 7305SOL    HW222815   6.523   1.913   0.915
 7306SOL     OW22816   2.306   2.220   1.500
 7306SOL    HW122817   2.335   2.298   1.556
 7306SOL    HW222818   2.371   2.208   1.425
 7307SOL     OW22819   1.997   0.317   1.761
 7307SOL    HW122820   1.989   0.340   1.858
 7307SOL    HW222821   1.968   0.395   1.706
 7308SOL     OW22822   5.029   1.267   3.090
 7308SOL    HW122823   5.096   1.296   3.159
 7308SOL    HW222824   5.076   1.217   3.018
 7309SOL     OW22825   1.539   5.600   3.068
 7309SOL    HW122826   1.520   5.698   3.075
 7309SOL    HW222827   1.540   5.574   2.971
 7310SOL     OW22828   2.144   2.567   6.634
 7310SOL    HW122829   2.223   2.629   6.638
 7310SOL    HW222830   2.064   2.613   6.672
 7311SOL     OW22831   0.247   6.740   6.547
 7311SOL    HW122832   0.189   6.676   6.498
 7311SOL    HW222833   0.190   6.795   6.609
 7312SOL     OW22834   6.889   2.107   4.234
 7312SOL    HW122835   6.832   2.073   4.308
 7312SOL    HW222836   6.977   2.059   4.235
 7313SOL     OW22837   3.291   1.039   1.681
 7313SOL    HW122838   3.291   0.962   1.745
 7313SOL    HW222839   3.378   1.042   1.632
 7314SOL     OW22840   0.080   3.773   6.916
 7314SOL    HW122841   0.141   3.848   6.888
 7314SOL    HW222842   0.120   3.725   6.994
 7315SOL     OW22843   1.337   4.359   2.589
 7315SOL    HW122844   1.263   4.397   2.533
 7315SOL    HW222845   1.412   4.425   2.595
 7316SOL     OW22846   3.133   2.075   0.968
 7316SOL    HW122847   3.081   1.989   0.970
 7316SOL    HW222848   3.183   2.086   1.054
 7317SOL     OW22849   3.686   1.520   1.343
 7317SOL    HW122850   3.770   1.570   1.362
 7317SOL    HW222851   3.701   1.457   1.267
 7318SOL     OW22852   4.277   6.800   0.304
 7318SOL    HW122853   4.257   6.778   0.208
 7318SOL    HW222854   4.344   6.736   0.340
 7319SOL     OW22855   5.971   4.681   6.714
 7319SOL    HW122856   5.877   4.711   6.733
 7319SOL    HW222857   6.010   4.739   6.643
 7320SOL     OW22858   6.802   3.042   1.813
 7320SOL    HW122859   6.743   2.963   1.831
 7320SOL    HW222860   6.882   3.012   1.760
 7321SOL     OW22861   1.780   6.963   6.974
 7321SOL    HW122862   1.743   6.989   6.885
 7321SOL    HW222863   1.706   6.966   0.023
 7322SOL     OW22864   0.871   2.682   2.664
 7322SOL    HW122865   0.916   2.758   2.710
 7322SOL    HW222866   0.779   2.709   2.635
 7323SOL     OW22867   1.328   2.357   1.430
 7323SOL    HW122868   1.355   2.453   1.418
 7323SOL    HW222869   1.253   2.351   1.496
 7324SOL     OW22870   5.138   4.941   3.318
 7324SOL    HW122871   5.086   5.026   3.326
 7324SOL    HW222872   5.235   4.960   3.328
 7325SOL     OW22873   4.619   0.733   5.746
 7325SOL    HW122874   4.639   0.646   5.791
 7325SOL    HW222875   4.532   0.769   5.780
 7326SOL     OW22876   3.335   0.403   0.121
 7326SOL    HW122877   3.365   0.310   0.140
 7326SOL    HW222878   3.351   0.424   0.025
 7327SOL     OW22879   0.064   3.488   3.539
 7327SOL    HW122880   0.036   3.395   3.563
 7327SOL    HW222881   0.161   3.488   3.514
 7328SOL     OW22882   4.292   4.824   4.925
 7328SOL    HW122883   4.306   4.728   4.946
 7328SOL    HW222884   4.372   4.860   4.877
 7329SOL     OW22885   2.990   2.856   0.863
 7329SOL    HW122886   3.080   2.898   0.877
 7329SOL    HW222887   2.930   2.921   0.816
 7330SOL     OW22888   2.882   3.217   1.417
 7330SOL    HW122889   2.869   3.312   1.445
 7330SOL    HW222890   2.800   3.184   1.371
 7331SOL     OW22891   4.764   0.649   3.111
 7331SOL    HW122892   4.801   0.741   3.124
 7331SOL    HW222893   4.707   0.647   3.029
 7332SOL     OW22894   3.017   5.027   6.269
 7332SOL    HW122895   2.955   5.090   6.222
 7332SOL    HW222896   3.032   4.947   6.212
 7333SOL     OW22897   6.646   2.131   0.985
 7333SOL    HW122898   6.670   2.055   0.924
 7333SOL    HW222899   6.718   2.142   1.053
 7334SOL     OW22900   2.714   0.112   4.868
 7334SOL    HW122901   2.699   0.157   4.780
 7334SOL    HW222902   2.650   0.150   4.935
 7335SOL     OW22903   6.754   3.016   2.281
 7335SOL    HW122904   6.703   2.933   2.258
 7335SOL    HW222905   6.777   3.065   2.196
 7336SOL     OW22906   1.464   6.748   1.771
 7336SOL    HW122907   1.500   6.821   1.829
 7336SOL    HW222908   1.489   6.659   1.810
 7337SOL     OW22909   1.890   2.362   3.040
 7337SOL    HW122910   1.864   2.313   3.124
 7337SOL    HW222911   1.910   2.457   3.062
 7338SOL     OW22912   5.766   3.058   1.249
 7338SOL    HW122913   5.804   2.972   1.282
 7338SOL    HW222914   5.683   3.080   1.302
 7339SOL     OW22915   6.271   4.907   4.436
 7339SOL    HW122916   6.234   4.987   4.484
 7339SOL    HW222917   6.311   4.844   4.502
 7340SOL     OW22918   2.873   0.352   0.148
 7340SOL    HW122919   2.774   0.366   0.136
 7340SOL    HW222920   2.901   0.392   0.236
 7341SOL     OW22921   5.869   4.729   4.083
 7341SOL    HW122922   5.903   4.771   4.167
 7341SOL    HW222923   5.865   4.798   4.011
 7342SOL     OW22924   0.120   6.671   0.175
 7342SOL    HW122925   0.025   6.697   0.155
 7342SOL    HW222926   0.176   6.686   0.093
 7343SOL     OW22927   6.065   3.435   2.211
 7343SOL    HW122928   6.033   3.495   2.137
 7343SOL    HW222929   6.002   3.358   2.220
 7344SOL     OW22930   1.526   6.262   7.009
 7344SOL    HW122931   1.517   6.352   6.967
 7344SOL    HW222932   1.482   6.261   0.079
 7345SOL     OW22933   3.811   5.610   6.783
 7345SOL    HW122934   3.773   5.703   6.787
 7345SOL    HW222935   3.767   5.560   6.709
 7346SOL     OW22936   3.978   4.786   1.946
 7346SOL    HW122937   4.061   4.734   1.924
 7346SOL    HW222938   3.991   4.834   2.033
 7347SOL     OW22939   6.449   1.664   2.484
 7347SOL    HW122940   6.516   1.654   2.558
 7347SOL    HW222941   6.403   1.752   2.492
 7348SOL     OW22942   1.605   1.699   3.250
 7348SOL    HW122943   1.539   1.739   3.186
 7348SOL    HW222944   1.627   1.765   3.321
 7349SOL     OW22945   3.414   1.552   1.011
 7349SOL    HW122946   3.462   1.471   1.044
 7349SOL    HW222947   3.424   1.626   1.076
 7350SOL     OW22948   2.202   2.190   3.582
 7350SOL    HW122949   2.180   2.185   3.679
 7350SOL    HW222950   2.123   2.224   3.531
 7351SOL     OW22951   4.839   4.356   6.494
 7351SOL    HW122952   4.764   4.338   6.430
 7351SOL    HW222953   4.808   4.421   6.564
 7352SOL     OW22954   0.842   1.663   2.300
 7352SOL    HW122955   0.855   1.756   2.265
 7352SOL    HW222956   0.927   1.612   2.292
 7353SOL     OW22957   5.499   1.965   4.438
 7353SOL    HW122958   5.532   1.916   4.519
 7353SOL    HW222959   5.569   1.965   4.367
 7354SOL     OW22960   6.094   5.082   5.562
 7354SOL    HW122961   6.173   5.138   5.586
 7354SOL    HW222962   6.125   5.001   5.511
 7355SOL     OW22963   1.792   5.392   1.901
 7355SOL    HW122964   1.761   5.298   1.885
 7355SOL    HW222965   1.866   5.392   1.969
 7356SOL     OW22966   5.705   1.653   5.806
 7356SOL    HW122967   5.724   1.595   5.727
 7356SOL    HW222968   5.703   1.597   5.889
 7357SOL     OW22969   5.868   1.680   0.166
 7357SOL    HW122970   5.942   1.622   0.131
 7357SOL    HW222971   5.884   1.699   0.263
 7358SOL     OW22972   3.215   1.099   3.965
 7358SOL    HW122973   3.280   1.048   3.909
 7358SOL    HW222974   3.129   1.049   3.971
 7359SOL     OW22975   4.038   3.454   3.357
 7359SOL    HW122976   3.991   3.410   3.281
 7359SOL    HW222977   4.108   3.516   3.322
 7360SOL     OW22978   0.624   2.427   4.968
 7360SOL    HW122979   0.594   2.475   5.051
 7360SOL    HW222980   0.554   2.435   4.898
 7361SOL     OW22981   5.187   5.867   2.272
 7361SOL    HW122982   5.155   5.855   2.366
 7361SOL    HW222983   5.286   5.884   2.272
 7362SOL     OW22984   2.036   5.792   6.081
 7362SOL    HW122985   2.008   5.697   6.087
 7362SOL    HW222986   1.957   5.849   6.055
 7363SOL     OW22987   4.954   3.516   6.531
 7363SOL    HW122988   4.857   3.511   6.508
 7363SOL    HW222989   5.006   3.544   6.450
 7364SOL     OW22990   4.341   6.286   1.361
 7364SOL    HW122991   4.329   6.203   1.306
 7364SOL    HW222992   4.439   6.308   1.366
 7365SOL     OW22993   2.788   0.271   2.264
 7365SOL    HW122994   2.824   0.228   2.346
 7365SOL    HW222995   2.778   0.202   2.192
 7366SOL     OW22996   0.412   5.138   6.742
 7366SOL    HW122997   0.427   5.157   6.839
 7366SOL    HW222998   0.427   5.222   6.689
 7367SOL     OW22999   5.164   4.208   1.585
 7367SOL    HW123000   5.213   4.123   1.605
 7367SOL    HW223001   5.065   4.189   1.582
 7368SOL     OW23002   3.221   3.473   4.699
 7368SOL    HW123003   3.163   3.398   4.668
 7368SOL    HW223004   3.243   3.461   4.795
 7369SOL     OW23005   4.767   4.039   0.484
 7369SOL    HW123006   4.817   3.956   0.509
 7369SOL    HW223007   4.756   4.042   0.384
 7370SOL     OW23008   2.583   6.867   0.712
 7370SOL    HW123009   2.503   6.807   0.710
 7370SOL    HW223010   2.637   6.847   0.794
 7371SOL     OW23011   2.637   5.104   4.302
 7371SOL    HW123012   2.637   5.204   4.299
 7371SOL    HW223013   2.672   5.068   4.215
 7372SOL     OW23014   3.607   0.770   5.723
 7372SOL    HW123015   3.575   0.865   5.728
 7372SOL    HW223016   3.596   0.727   5.812
 7373SOL     OW23017   4.030   0.588   2.171
 7373SOL    HW123018   3.987   0.585   2.080
 7373SOL    HW223019   4.023   0.497   2.214
 7374SOL     OW23020   1.399   2.968   6.612
 7374SOL    HW123021   1.397   3.055   6.660
 7374SOL    HW223022   1.438   2.981   6.520
 7375SOL     OW23023   0.798   0.733   4.213
 7375SOL    HW123024   0.862   0.789   4.266
 7375SOL    HW223025   0.720   0.789   4.184
 7376SOL     OW23026   2.296   3.367   6.821
 7376SOL    HW123027   2.204   3.340   6.850
 7376SOL    HW223028   2.362   3.344   6.892
 7377SOL     OW23029   4.650   4.310   1.725
 7377SOL    HW123030   4.622   4.402   1.700
 7377SOL    HW223031   4.587   4.274   1.794
 7378SOL     OW23032   0.071   1.317   5.185
 7378SOL    HW123033   0.153   1.349   5.138
 7378SOL    HW223034   0.076   1.218   5.196
 7379SOL     OW23035   4.138   1.341   2.556
 7379SOL    HW123036   4.128   1.340   2.457
 7379SOL    HW223037   4.232   1.317   2.581
 7380SOL     OW23038   0.400   3.238   5.806
 7380SOL    HW123039   0.393   3.337   5.796
 7380SOL    HW223040   0.482   3.215   5.858
 7381SOL     OW23041   5.066   2.057   2.034
 7381SOL    HW123042   5.062   1.958   2.019
 7381SOL    HW223043   5.113   2.075   2.120
 7382SOL     OW23044   6.717   5.307   4.655
 7382SOL    HW123045   6.699   5.310   4.557
 7382SOL    HW223046   6.630   5.309   4.705
 7383SOL     OW23047   6.801   6.386   3.562
 7383SOL    HW123048   6.833   6.319   3.629
 7383SOL    HW223049   6.734   6.447   3.604
 7384SOL     OW23050   5.283   6.932   2.210
 7384SOL    HW123051   5.255   6.847   2.254
 7384SOL    HW223052   5.214   6.959   2.143
 7385SOL     OW23053   4.627   6.376   1.332
 7385SOL    HW123054   4.704   6.421   1.288
 7385SOL    HW223055   4.649   6.280   1.350
 7386SOL     OW23056   0.741   2.235   5.484
 7386SOL    HW123057   0.771   2.321   5.525
 7386SOL    HW223058   0.704   2.254   5.393
 7387SOL     OW23059   3.539   5.313   3.511
 7387SOL    HW123060   3.610   5.264   3.562
 7387SOL    HW223061   3.529   5.405   3.549
 7388SOL     OW23062   6.391   4.938   3.503
 7388SOL    HW123063   6.431   4.966   3.416
 7388SOL    HW223064   6.339   5.014   3.542
 7389SOL     OW23065   1.616   4.190   6.554
 7389SOL    HW123066   1.683   4.176   6.627
 7389SOL    HW223067   1.662   4.190   6.465
 7390SOL     OW23068   0.970   0.174   5.706
 7390SOL    HW123069   1.001   0.080   5.722
 7390SOL    HW223070   1.027   0.237   5.758
 7391SOL     OW23071   6.261   3.332   6.201
 7391SOL    HW123072   6.186   3.348   6.265
 7391SOL    HW223073   6.223   3.311   6.111
 7392SOL     OW23074   1.647   5.145   3.839
 7392SOL    HW123075   1.605   5.055   3.842
 7392SOL    HW223076   1.653   5.182   3.931
 7393SOL     OW23077   6.852   4.769   2.505
 7393SOL    HW123078   6.802   4.687   2.532
 7393SOL    HW223079   6.928   4.784   2.568
 7394SOL     OW23080   4.002   3.391   6.814
 7394SOL    HW123081   4.090   3.405   6.769
 7394SOL    HW223082   3.930   3.380   6.744
 7395SOL     OW23083   1.054   0.483   0.303
 7395SOL    HW123084   0.960   0.449   0.304
 7395SOL    HW223085   1.054   0.583   0.312
 7396SOL     OW23086   1.274   6.689   6.302
 7396SOL    HW123087   1.326   6.774   6.296
 7396SOL    HW223088   1.221   6.689   6.387
 7397SOL     OW23089   6.758   4.779   5.064
 7397SOL    HW123090   6.714   4.806   5.150
 7397SOL    HW223091   6.696   4.798   4.988
 7398SOL     OW23092   4.914   4.620   4.224
 7398SOL    HW123093   4.969   4.576   4.295
 7398SOL    HW223094   4.958   4.607   4.135
 7399SOL     OW23095   5.120   3.889   6.297
 7399SOL    HW123096   5.026   3.924   6.290
 7399SOL    HW223097   5.179   3.938   6.233
 7400SOL     OW23098   2.865   5.167   6.797
 7400SOL    HW123099   2.929   5.100   6.833
 7400SOL    HW223100   2.914   5.233   6.740
 7401SOL     OW23101   0.118   2.008   4.226
 7401SOL    HW123102   0.169   2.026   4.142
 7401SOL    HW223103   0.137   1.915   4.257
 7402SOL     OW23104   2.817   0.425   3.908
 7402SOL    HW123105   2.889   0.466   3.853
 7402SOL    HW223106   2.857   0.358   3.971
 7403SOL     OW23107   1.926   3.968   3.133
 7403SOL    HW123108   2.007   3.922   3.166
 7403SOL    HW223109   1.873   3.906   3.075
 7404SOL     OW23110   1.420   0.417   1.520
 7404SOL    HW123111   1.473   0.397   1.602
 7404SOL    HW223112   1.447   0.506   1.483
 7405SOL     OW23113   2.829   5.154   6.127
 7405SOL    HW123114   2.748   5.105   6.095
 7405SOL    HW223115   2.860   5.217   6.055
 7406SOL     OW23116   1.229   4.557   2.364
 7406SOL    HW123117   1.255   4.462   2.347
 7406SOL    HW223118   1.132   4.562   2.385
 7407SOL     OW23119   1.673   6.238   6.342
 7407SOL    HW123120   1.710   6.154   6.303
 7407SOL    HW223121   1.645   6.299   6.268
 7408SOL     OW23122   1.445   4.564   5.685
 7408SOL    HW123123   1.376   4.619   5.733
 7408SOL    HW223124   1.534   4.609   5.691
 7409SOL     OW23125   1.863   6.149   4.950
 7409SOL    HW123126   1.769   6.175   4.974
 7409SOL    HW223127   1.927   6.213   4.992
 7410SOL     OW23128   0.133   5.458   1.249
 7410SOL    HW123129   0.091   5.368   1.238
 7410SOL    HW223130   0.146   5.476   1.347
 7411SOL     OW23131   3.249   6.044   4.809
 7411SOL    HW123132   3.331   5.992   4.836
 7411SOL    HW223133   3.181   5.981   4.771
 7412SOL     OW23134   1.371   1.316   0.640
 7412SOL    HW123135   1.389   1.227   0.682
 7412SOL    HW223136   1.277   1.319   0.606
 7413SOL     OW23137   6.068   4.070   5.259
 7413SOL    HW123138   6.165   4.046   5.258
 7413SOL    HW223139   6.014   3.987   5.269
 7414SOL     OW23140   6.591   6.951   2.276
 7414SOL    HW123141   6.557   6.912   2.190
 7414SOL    HW223142   6.602   6.878   2.343
 7415SOL     OW23143   1.903   3.151   3.325
 7415SOL    HW123144   1.852   3.068   3.348
 7415SOL    HW223145   1.880   3.223   3.391
 7416SOL     OW23146   3.549   1.220   3.952
 7416SOL    HW123147   3.526   1.302   3.899
 7416SOL    HW223148   3.512   1.228   4.044
 7417SOL     OW23149   1.344   6.745   0.202
 7417SOL    HW123150   1.260   6.769   0.251
 7417SOL    HW223151   1.389   6.668   0.249
 7418SOL     OW23152   2.696   3.661   1.365
 7418SOL    HW123153   2.754   3.653   1.284
 7418SOL    HW223154   2.716   3.586   1.428
 7419SOL     OW23155   5.905   0.896   5.131
 7419SOL    HW123156   6.003   0.882   5.123
 7419SOL    HW223157   5.862   0.814   5.170
 7420SOL     OW23158   6.627   5.981   2.027
 7420SOL    HW123159   6.684   5.956   1.949
 7420SOL    HW223160   6.559   5.910   2.042
 7421SOL     OW23161   3.703   4.183   1.364
 7421SOL    HW123162   3.762   4.242   1.419
 7421SOL    HW223163   3.750   4.095   1.348
 7422SOL     OW23164   6.723   3.330   0.140
 7422SOL    HW123165   6.738   3.381   0.225
 7422SOL    HW223166   6.773   3.243   0.145
 7423SOL     OW23167   1.287   4.879   6.321
 7423SOL    HW123168   1.312   4.782   6.331
 7423SOL    HW223169   1.260   4.915   6.410
 7424SOL     OW23170   5.374   0.763   4.521
 7424SOL    HW123171   5.346   0.838   4.582
 7424SOL    HW223172   5.366   0.794   4.426
 7425SOL     OW23173   3.421   5.320   6.299
 7425SOL    HW123174   3.519   5.335   6.288
 7425SOL    HW223175   3.400   5.312   6.396
 7426SOL     OW23176   1.428   1.128   6.401
 7426SOL    HW123177   1.416   1.050   6.463
 7426SOL    HW223178   1.407   1.213   6.450
 7427SOL     OW23179   3.511   5.386   5.033
 7427SOL    HW123180   3.561   5.430   4.959
 7427SOL    HW223181   3.420   5.358   5.001
 7428SOL     OW23182   3.206   2.358   5.873
 7428SOL    HW123183   3.128   2.296   5.876
 7428SOL    HW223184   3.276   2.327   5.937
 7429SOL     OW23185   0.030   0.542   3.038
 7429SOL    HW123186   0.121   0.547   3.079
 7429SOL    HW223187   6.980   0.560   3.108
 7430SOL     OW23188   6.476   3.820   5.574
 7430SOL    HW123189   6.478   3.793   5.477
 7430SOL    HW223190   6.563   3.861   5.599
 7431SOL     OW23191   0.202   4.028   2.056
 7431SOL    HW123192   0.146   4.111   2.052
 7431SOL    HW223193   0.231   4.004   1.963
 7432SOL     OW23194   6.974   6.700   4.313
 7432SOL    HW123195   6.970   6.772   4.382
 7432SOL    HW223196   6.884   6.690   4.270
 7433SOL     OW23197   6.244   5.208   0.805
 7433SOL    HW123198   6.211   5.293   0.765
 7433SOL    HW223199   6.238   5.135   0.737
 7434SOL     OW23200   3.131   1.503   6.592
 7434SOL    HW123201   3.069   1.461   6.525
 7434SOL    HW223202   3.088   1.585   6.630
 7435SOL     OW23203   2.717   6.443   0.325
 7435SOL    HW123204   2.761   6.433   0.236
 7435SOL    HW223205   2.764   6.513   0.378
 7436SOL     OW23206   4.920   3.205   6.605
 7436SOL    HW123207   4.952   3.288   6.650
 7436SOL    HW223208   4.991   3.170   6.544
 7437SOL     OW23209   0.586   5.778   5.759
 7437SOL    HW123210   0.635   5.691   5.769
 7437SOL    HW223211   0.497   5.762   5.717
 7438SOL     OW23212   6.916   4.630   1.805
 7438SOL    HW123213   6.998   4.586   1.842
 7438SOL    HW223214   6.840   4.616   1.868
 7439SOL     OW23215   1.806   6.706   3.697
 7439SOL    HW123216   1.856   6.780   3.652
 7439SOL    HW223217   1.840   6.618   3.662
 7440SOL     OW23218   1.450   2.511   4.245
 7440SOL    HW123219   1.445   2.523   4.344
 7440SOL    HW223220   1.534   2.554   4.211
 7441SOL     OW23221   5.721   1.464   4.014
 7441SOL    HW123222   5.661   1.391   4.047
 7441SOL    HW223223   5.772   1.431   3.935
 7442SOL     OW23224   1.188   0.979   6.148
 7442SOL    HW123225   1.195   1.047   6.075
 7442SOL    HW223226   1.168   1.026   6.234
 7443SOL     OW23227   0.576   0.799   6.306
 7443SOL    HW123228   0.539   0.807   6.399
 7443SOL    HW223229   0.665   0.843   6.302
 7444SOL     OW23230   0.547   3.111   6.408
 7444SOL    HW123231   0.468   3.129   6.466
 7444SOL    HW223232   0.617   3.062   6.460
 7445SOL     OW23233   5.228   1.410   2.028
 7445SOL    HW123234   5.265   1.442   2.115
 7445SOL    HW223235   5.138   1.370   2.042
 7446SOL     OW23236   6.756   3.857   1.289
 7446SOL    HW123237   6.792   3.838   1.380
 7446SOL    HW223238   6.667   3.813   1.279
 7447SOL     OW23239   0.954   3.984   6.602
 7447SOL    HW123240   0.870   3.964   6.652
 7447SOL    HW223241   1.021   4.024   6.663
 7448SOL     OW23242   6.267   0.128   6.028
 7448SOL    HW123243   6.176   0.142   6.068
 7448SOL    HW223244   6.336   0.161   6.092
 7449SOL     OW23245   5.415   2.116   2.080
 7449SOL    HW123246   5.489   2.107   2.147
 7449SOL    HW223247   5.327   2.118   2.128
 7450SOL     OW23248   4.700   2.140   2.453
 7450SOL    HW123249   4.767   2.212   2.435
 7450SOL    HW223250   4.643   2.167   2.531
 7451SOL     OW23251   2.096   0.840   4.850
 7451SOL    HW123252   2.076   0.936   4.834
 7451SOL    HW223253   2.014   0.795   4.886
 7452SOL     OW23254   1.991   6.681   4.678
 7452SOL    HW123255   1.965   6.761   4.623
 7452SOL    HW223256   2.003   6.602   4.618
 7453SOL     OW23257   5.713   6.069   4.812
 7453SOL    HW123258   5.625   6.023   4.822
 7453SOL    HW223259   5.741   6.068   4.716
 7454SOL     OW23260   0.821   3.262   1.473
 7454SOL    HW123261   0.755   3.200   1.431
 7454SOL    HW223262   0.820   3.349   1.424
 7455SOL     OW23263   4.681   2.821   0.291
 7455SOL    HW123264   4.771   2.810   0.248
 7455SOL    HW223265   4.649   2.732   0.324
 7456SOL     OW23266   1.630   3.407   4.712
 7456SOL    HW123267   1.545   3.409   4.659
 7456SOL    HW223268   1.619   3.346   4.791
 7457SOL     OW23269   6.168   0.605   5.584
 7457SOL    HW123270   6.120   0.635   5.666
 7457SOL    HW223271   6.213   0.518   5.601
 7458SOL     OW23272   3.126   0.833   0.436
 7458SOL    HW123273   3.211   0.868   0.398
 7458SOL    HW223274   3.069   0.796   0.362
 7459SOL     OW23275   4.756   0.384   4.937
 7459SOL    HW123276   4.688   0.395   4.865
 7459SOL    HW223277   4.726   0.312   5.000
 7460SOL     OW23278   0.551   4.460   0.424
 7460SOL    HW123279   0.514   4.393   0.488
 7460SOL    HW223280   0.484   4.478   0.352
 7461SOL     OW23281   5.443   1.188   5.158
 7461SOL    HW123282   5.487   1.263   5.109
 7461SOL    HW223283   5.502   1.160   5.234
 7462SOL     OW23284   2.469   1.967   2.700
 7462SOL    HW123285   2.546   1.919   2.658
 7462SOL    HW223286   2.416   2.014   2.629
 7463SOL     OW23287   4.126   3.551   1.982
 7463SOL    HW123288   4.086   3.567   2.072
 7463SOL    HW223289   4.225   3.542   1.990
 7464SOL     OW23290   5.216   6.046   0.793
 7464SOL    HW123291   5.187   6.113   0.862
 7464SOL    HW223292   5.238   6.094   0.708
 7465SOL     OW23293   2.967   0.008   1.936
 7465SOL    HW123294   3.025   0.034   2.013
 7465SOL    HW223295   2.879   0.055   1.942
 7466SOL     OW23296   0.248   0.300   0.046
 7466SOL    HW123297   0.170   0.310   0.108
 7466SOL    HW223298   0.265   0.387   7.019
 7467SOL     OW23299   0.287   1.616   0.939
 7467SOL    HW123300   0.249   1.676   0.869
 7467SOL    HW223301   0.338   1.542   0.896
 7468SOL     OW23302   5.381   1.240   2.872
 7468SOL    HW123303   5.339   1.290   2.796
 7468SOL    HW223304   5.480   1.244   2.863
 7469SOL     OW23305   1.350   0.933   0.579
 7469SOL    HW123306   1.345   0.998   0.655
 7469SOL    HW223307   1.309   0.846   0.607
 7470SOL     OW23308   0.219   2.118   1.857
 7470SOL    HW123309   0.295   2.183   1.859
 7470SOL    HW223310   0.217   2.071   1.769
 7471SOL     OW23311   6.309   6.470   5.814
 7471SOL    HW123312   6.279   6.518   5.896
 7471SOL    HW223313   6.295   6.529   5.734
 7472SOL     OW23314   3.738   0.244   4.037
 7472SOL    HW123315   3.680   0.179   4.086
 7472SOL    HW223316   3.777   0.200   3.957
 7473SOL     OW23317   6.427   4.095   4.557
 7473SOL    HW123318   6.418   4.157   4.479
 7473SOL    HW223319   6.388   4.006   4.535
 7474SOL     OW23320   3.614   0.802   3.488
 7474SOL    HW123321   3.553   0.828   3.414
 7474SOL    HW223322   3.672   0.727   3.458
 7475SOL     OW23323   3.908   0.518   1.105
 7475SOL    HW123324   3.856   0.558   1.181
 7475SOL    HW223325   3.863   0.541   1.018
 7476SOL     OW23326   4.051   6.000   3.993
 7476SOL    HW123327   4.073   5.915   4.041
 7476SOL    HW223328   4.042   6.074   4.060
 7477SOL     OW23329   4.195   1.158   3.694
 7477SOL    HW123330   4.230   1.192   3.781
 7477SOL    HW223331   4.260   1.178   3.621
 7478SOL     OW23332   1.936   4.156   0.113
 7478SOL    HW123333   2.032   4.185   0.105
 7478SOL    HW223334   1.919   4.124   0.206
 7479SOL     OW23335   4.967   0.664   0.053
 7479SOL    HW123336   4.976   0.620   6.984
 7479SOL    HW223337   4.917   0.604   0.115
 7480SOL     OW23338   6.349   6.271   1.540
 7480SOL    HW123339   6.416   6.219   1.594
 7480SOL    HW223340   6.398   6.337   1.483
 7481SOL     OW23341   5.997   4.812   0.595
 7481SOL    HW123342   5.901   4.789   0.612
 7481SOL    HW223343   6.038   4.741   0.538
 7482SOL     OW23344   4.765   0.987   2.601
 7482SOL    HW123345   4.787   1.064   2.660
 7482SOL    HW223346   4.679   0.945   2.631
 7483SOL     OW23347   3.784   1.306   4.247
 7483SOL    HW123348   3.699   1.358   4.239
 7483SOL    HW223349   3.780   1.246   4.327
 7484SOL     OW23350   2.149   6.309   2.597
 7484SOL    HW123351   2.139   6.340   2.503
 7484SOL    HW223352   2.140   6.209   2.600
 7485SOL     OW23353   3.246   5.479   6.186
 7485SOL    HW123354   3.304   5.407   6.223
 7485SOL    HW223355   3.189   5.442   6.113
 7486SOL     OW23356   3.179   5.986   5.300
 7486SOL    HW123357   3.174   5.907   5.238
 7486SOL    HW223358   3.273   5.996   5.333
 7487SOL     OW23359   3.121   6.310   3.608
 7487SOL    HW123360   3.044   6.287   3.667
 7487SOL    HW223361   3.089   6.359   3.527
 7488SOL     OW23362   3.263   0.024   5.989
 7488SOL    HW123363   3.282   0.108   5.939
 7488SOL    HW223364   3.260   6.967   5.925
 7489SOL     OW23365   4.768   2.739   4.500
 7489SOL    HW123366   4.804   2.772   4.412
 7489SOL    HW223367   4.775   2.812   4.568
 7490SOL     OW23368   5.992   1.286   0.959
 7490SOL    HW123369   5.928   1.213   0.983
 7490SOL    HW223370   5.941   1.369   0.936
 7491SOL     OW23371   6.855   5.493   6.305
 7491SOL    HW123372   6.883   5.465   6.396
 7491SOL    HW223373   6.786   5.564   6.311
 7492SOL     OW23374   2.041   2.698   5.339
 7492SOL    HW123375   2.074   2.619   5.391
 7492SOL    HW223376   2.120   2.754   5.312
 7493SOL     OW23377   5.610   3.616   6.643
 7493SOL    HW123378   5.628   3.645   6.736
 7493SOL    HW223379   5.676   3.659   6.581
 7494SOL     OW23380   5.625   0.019   1.877
 7494SOL    HW123381   5.547   7.008   1.932
 7494SOL    HW223382   5.678   0.087   1.928
 7495SOL     OW23383   2.473   1.803   0.598
 7495SOL    HW123384   2.551   1.824   0.538
 7495SOL    HW223385   2.388   1.812   0.546
 7496SOL     OW23386   0.944   4.797   6.493
 7496SOL    HW123387   0.940   4.712   6.441
 7496SOL    HW223388   1.037   4.810   6.528
 7497SOL     OW23389   1.746   4.601   2.649
 7497SOL    HW123390   1.767   4.561   2.738
 7497SOL    HW223391   1.797   4.552   2.578
 7498SOL     OW23392   2.887   1.354   4.914
 7498SOL    HW123393   2.899   1.276   4.853
 7498SOL    HW223394   2.817   1.332   4.983
 7499SOL     OW23395   5.965   6.601   4.492
 7499SOL    HW123396   5.956   6.696   4.520
 7499SOL    HW223397   5.891   6.547   4.534
 7500SOL     OW23398   4.505   5.880   1.871
 7500SOL    HW123399   4.571   5.862   1.798
 7500SOL    HW223400   4.528   5.824   1.951
 7501SOL     OW23401   0.737   4.049   3.578
 7501SOL    HW123402   0.664   4.023   3.641
 7501SOL    HW223403   0.800   4.112   3.624
 7502SOL     OW23404   2.699   0.750   4.925
 7502SOL    HW123405   2.709   0.661   4.969
 7502SOL    HW223406   2.649   0.740   4.839
 7503SOL     OW23407   3.188   1.019   0.010
 7503SOL    HW123408   3.091   1.010   0.032
 7503SOL    HW223409   3.204   1.106   6.983
 7504SOL     OW23410   4.202   6.777   3.386
 7504SOL    HW123411   4.243   6.868   3.384
 7504SOL    HW223412   4.123   6.774   3.325
 7505SOL     OW23413   1.783   1.126   5.085
 7505SOL    HW123414   1.812   1.200   5.025
 7505SOL    HW223415   1.816   1.145   5.178
 7506SOL     OW23416   3.492   0.696   2.496
 7506SOL    HW123417   3.464   0.693   2.400
 7506SOL    HW223418   3.517   0.604   2.526
 7507SOL     OW23419   0.856   6.247   5.644
 7507SOL    HW123420   0.925   6.267   5.713
 7507SOL    HW223421   0.775   6.210   5.688
 7508SOL     OW23422   5.835   6.812   2.827
 7508SOL    HW123423   5.787   6.752   2.891
 7508SOL    HW223424   5.786   6.813   2.739
 7509SOL     OW23425   4.903   3.373   6.233
 7509SOL    HW123426   4.805   3.358   6.247
 7509SOL    HW223427   4.938   3.434   6.304
 7510SOL     OW23428   3.607   3.998   5.158
 7510SOL    HW123429   3.651   3.920   5.204
 7510SOL    HW223430   3.635   4.000   5.062
 7511SOL     OW23431   1.473   6.981   2.299
 7511SOL    HW123432   1.484   6.910   2.230
 7511SOL    HW223433   1.548   6.975   2.366
 7512SOL     OW23434   2.656   3.225   1.673
 7512SOL    HW123435   2.675   3.315   1.712
 7512SOL    HW223436   2.644   3.233   1.574
 7513SOL     OW23437   1.819   1.824   6.096
 7513SOL    HW123438   1.869   1.770   6.164
 7513SOL    HW223439   1.883   1.866   6.033
 7514SOL     OW23440   2.834   5.943   2.156
 7514SOL    HW123441   2.931   5.927   2.135
 7514SOL    HW223442   2.802   6.023   2.106
 7515SOL     OW23443   6.835   0.245   2.803
 7515SOL    HW123444   6.783   0.210   2.726
 7515SOL    HW223445   6.775   0.258   2.882
 7516SOL     OW23446   0.308   1.058   3.848
 7516SOL    HW123447   0.359   1.041   3.932
 7516SOL    HW223448   0.211   1.038   3.861
 7517SOL     OW23449   0.496   3.467   0.618
 7517SOL    HW123450   0.526   3.526   0.543
 7517SOL    HW223451   0.563   3.394   0.632
 7518SOL     OW23452   4.426   5.539   3.702
 7518SOL    HW123453   4.358   5.536   3.776
 7518SOL    HW223454   4.469   5.629   3.701
 7519SOL     OW23455   1.343   6.144   4.584
 7519SOL    HW123456   1.390   6.191   4.658
 7519SOL    HW223457   1.250   6.121   4.613
 7520SOL     OW23458   1.074   6.785   3.645
 7520SOL    HW123459   1.098   6.691   3.622
 7520SOL    HW223460   0.976   6.799   3.632
 7521SOL     OW23461   4.771   4.211   5.113
 7521SOL    HW123462   4.751   4.118   5.144
 7521SOL    HW223463   4.805   4.209   5.019
 7522SOL     OW23464   2.064   1.142   0.152
 7522SOL    HW123465   2.042   1.231   0.111
 7522SOL    HW223466   2.048   1.146   0.251
 7523SOL     OW23467   5.798   0.264   5.735
 7523SOL    HW123468   5.888   0.251   5.693
 7523SOL    HW223469   5.764   0.176   5.768
 7524SOL     OW23470   0.379   1.718   5.767
 7524SOL    HW123471   0.366   1.778   5.688
 7524SOL    HW223472   0.328   1.755   5.845
 7525SOL     OW23473   1.648   0.705   0.234
 7525SOL    HW123474   1.746   0.707   0.210
 7525SOL    HW223475   1.637   0.726   0.331
 7526SOL     OW23476   3.779   2.912   4.150
 7526SOL    HW123477   3.679   2.905   4.145
 7526SOL    HW223478   3.814   2.944   4.062
 7527SOL     OW23479   5.455   4.024   2.526
 7527SOL    HW123480   5.463   4.123   2.521
 7527SOL    HW223481   5.434   3.996   2.619
 7528SOL     OW23482   4.545   2.758   6.752
 7528SOL    HW123483   4.602   2.828   6.794
 7528SOL    HW223484   4.597   2.711   6.681
 7529SOL     OW23485   4.339   1.357   4.436
 7529SOL    HW123486   4.259   1.302   4.458
 7529SOL    HW223487   4.333   1.388   4.341
 7530SOL     OW23488   0.054   3.981   2.425
 7530SOL    HW123489   0.153   3.994   2.419
 7530SOL    HW223490   0.009   4.071   2.424
 7531SOL     OW23491   4.331   1.896   3.748
 7531SOL    HW123492   4.395   1.943   3.686
 7531SOL    HW223493   4.360   1.801   3.759
 7532SOL     OW23494   5.553   5.678   2.221
 7532SOL    HW123495   5.527   5.628   2.139
 7532SOL    HW223496   5.516   5.770   2.218
 7533SOL     OW23497   3.089   1.244   4.361
 7533SOL    HW123498   3.159   1.310   4.335
 7533SOL    HW223499   2.999   1.279   4.335
 7534SOL     OW23500   3.999   6.129   5.319
 7534SOL    HW123501   3.908   6.088   5.330
 7534SOL    HW223502   4.026   6.173   5.404
 7535SOL     OW23503   2.763   2.365   5.936
 7535SOL    HW123504   2.753   2.437   5.868
 7535SOL    HW223505   2.844   2.310   5.914
 7536SOL     OW23506   4.504   5.606   4.398
 7536SOL    HW123507   4.479   5.609   4.495
 7536SOL    HW223508   4.430   5.645   4.343
 7537SOL     OW23509   1.768   4.921   5.158
 7537SOL    HW123510   1.714   4.841   5.185
 7537SOL    HW223511   1.833   4.896   5.087
 7538SOL     OW23512   3.302   2.968   2.749
 7538SOL    HW123513   3.318   3.031   2.673
 7538SOL    HW223514   3.388   2.923   2.773
 7539SOL     OW23515   1.894   3.077   5.347
 7539SOL    HW123516   1.855   2.985   5.343
 7539SOL    HW223517   1.988   3.075   5.311
 7540SOL     OW23518   2.850   1.581   6.997
 7540SOL    HW123519   2.842   1.657   0.043
 7540SOL    HW223520   2.915   1.605   6.925
 7541SOL     OW23521   6.044   2.231   4.993
 7541SOL    HW123522   6.034   2.142   5.037
 7541SOL    HW223523   6.141   2.257   4.991
 7542SOL     OW23524   1.053   6.745   5.949
 7542SOL    HW123525   1.151   6.725   5.953
 7542SOL    HW223526   1.025   6.789   6.034
 7543SOL     OW23527   3.938   3.299   0.558
 7543SOL    HW123528   3.993   3.228   0.602
 7543SOL    HW223529   3.955   3.298   0.459
 7544SOL     OW23530   1.451   2.182   3.155
 7544SOL    HW123531   1.523   2.132   3.107
 7544SOL    HW223532   1.371   2.124   3.166
 7545SOL     OW23533   5.038   6.861   3.461
 7545SOL    HW123534   5.008   6.886   3.369
 7545SOL    HW223535   4.959   6.854   3.522
 7546SOL     OW23536   5.203   0.126   0.155
 7546SOL    HW123537   5.124   0.160   0.103
 7546SOL    HW223538   5.233   0.039   0.117
 7547SOL     OW23539   3.501   0.486   0.576
 7547SOL    HW123540   3.594   0.514   0.551
 7547SOL    HW223541   3.446   0.568   0.596
 7548SOL     OW23542   2.492   2.185   1.298
 7548SOL    HW123543   2.564   2.225   1.354
 7548SOL    HW223544   2.532   2.123   1.230
 7549SOL     OW23545   5.029   1.810   2.742
 7549SOL    HW123546   4.953   1.875   2.735
 7549SOL    HW223547   5.114   1.859   2.759
 7550SOL     OW23548   2.116   6.496   2.797
 7550SOL    HW123549   2.029   6.476   2.841
 7550SOL    HW223550   2.126   6.441   2.714
 7551SOL     OW23551   4.541   3.259   6.440
 7551SOL    HW123552   4.450   3.300   6.454
 7551SOL    HW223553   4.566   3.205   6.521
 7552SOL     OW23554   2.590   5.379   4.194
 7552SOL    HW123555   2.516   5.447   4.202
 7552SOL    HW223556   2.623   5.378   4.100
 7553SOL     OW23557   3.720   5.330   6.263
 7553SOL    HW123558   3.778   5.299   6.188
 7553SOL    HW223559   3.752   5.288   6.349
 7554SOL     OW23560   5.170   1.209   0.520
 7554SOL    HW123561   5.258   1.196   0.566
 7554SOL    HW223562   5.099   1.163   0.572
 7555SOL     OW23563   0.177   6.197   4.750
 7555SOL    HW123564   0.255   6.176   4.692
 7555SOL    HW223565   0.092   6.192   4.696
 7556SOL     OW23566   0.645   3.074   4.579
 7556SOL    HW123567   0.567   3.018   4.607
 7556SOL    HW223568   0.729   3.031   4.611
 7557SOL     OW23569   5.438   4.210   6.262
 7557SOL    HW123570   5.453   4.203   6.360
 7557SOL    HW223571   5.514   4.261   6.220
 7558SOL     OW23572   2.182   3.271   3.155
 7558SOL    HW123573   2.179   3.176   3.187
 7558SOL    HW223574   2.255   3.320   3.203
 7559SOL     OW23575   0.383   4.554   0.947
 7559SOL    HW123576   0.431   4.605   1.018
 7559SOL    HW223577   0.387   4.456   0.966
 7560SOL     OW23578   5.516   6.780   0.974
 7560SOL    HW123579   5.477   6.775   0.881
 7560SOL    HW223580   5.615   6.773   0.968
 7561SOL     OW23581   6.753   3.475   0.351
 7561SOL    HW123582   6.836   3.484   0.407
 7561SOL    HW223583   6.675   3.456   0.411
 7562SOL     OW23584   5.353   6.254   5.629
 7562SOL    HW123585   5.401   6.248   5.541
 7562SOL    HW223586   5.377   6.340   5.674
 7563SOL     OW23587   3.031   0.667   1.664
 7563SOL    HW123588   3.127   0.643   1.648
 7563SOL    HW223589   3.023   0.720   1.748
 7564SOL     OW23590   5.061   0.368   3.121
 7564SOL    HW123591   5.123   0.374   3.043
 7564SOL    HW223592   5.098   0.305   3.189
 7565SOL     OW23593   4.580   5.201   0.023
 7565SOL    HW123594   4.592   5.262   6.964
 7565SOL    HW223595   4.669   5.185   0.067
 7566SOL     OW23596   0.619   5.778   4.510
 7566SOL    HW123597   0.651   5.772   4.415
 7566SOL    HW223598   0.589   5.687   4.540
 7567SOL     OW23599   2.643   4.858   5.922
 7567SOL    HW123600   2.615   4.952   5.943
 7567SOL    HW223601   2.600   4.795   5.986
 7568SOL     OW23602   5.446   5.857   3.230
 7568SOL    HW123603   5.496   5.772   3.246
 7568SOL    HW223604   5.493   5.911   3.160
 7569SOL     OW23605   4.375   5.468   0.024
 7569SOL    HW123606   4.347   5.373   0.007
 7569SOL    HW223607   4.415   5.506   6.960
 7570SOL     OW23608   5.730   5.149   4.078
 7570SOL    HW123609   5.793   5.185   4.010
 7570SOL    HW223610   5.782   5.106   4.152
 7571SOL     OW23611   6.087   3.792   1.285
 7571SOL    HW123612   6.055   3.751   1.200
 7571SOL    HW223613   6.008   3.820   1.341
 7572SOL     OW23614   3.879   1.074   4.141
 7572SOL    HW123615   3.828   1.019   4.074
 7572SOL    HW223616   3.818   1.099   4.216
 7573SOL     OW23617   6.926   6.144   4.533
 7573SOL    HW123618   6.873   6.129   4.616
 7573SOL    HW223619   6.936   6.243   4.517
 7574SOL     OW23620   5.488   0.395   3.607
 7574SOL    HW123621   5.580   0.424   3.582
 7574SOL    HW223622   5.457   0.445   3.688
 7575SOL     OW23623   4.402   1.370   5.546
 7575SOL    HW123624   4.315   1.330   5.517
 7575SOL    HW223625   4.396   1.470   5.539
 7576SOL     OW23626   6.477   4.005   6.838
 7576SOL    HW123627   6.498   3.908   6.828
 7576SOL    HW223628   6.391   4.015   6.889
 7577SOL     OW23629   6.595   1.014   4.906
 7577SOL    HW123630   6.575   1.083   4.837
 7577SOL    HW223631   6.522   0.946   4.907
 7578SOL     OW23632   1.937   5.938   4.774
 7578SOL    HW123633   2.018   5.950   4.717
 7578SOL    HW223634   1.929   6.015   4.837
 7579SOL     OW23635   3.875   1.785   2.668
 7579SOL    HW123636   3.784   1.819   2.643
 7579SOL    HW223637   3.943   1.856   2.649
 7580SOL     OW23638   1.642   4.072   2.997
 7580SOL    HW123639   1.734   4.090   3.032
 7580SOL    HW223640   1.617   3.977   3.015
 7581SOL     OW23641   5.366   1.744   0.557
 7581SOL    HW123642   5.268   1.751   0.538
 7581SOL    HW223643   5.416   1.806   0.497
 7582SOL     OW23644   3.446   1.727   1.216
 7582SOL    HW123645   3.372   1.790   1.238
 7582SOL    HW223646   3.511   1.725   1.291
 7583SOL     OW23647   5.936   3.366   1.606
 7583SOL    HW123648   5.844   3.387   1.574
 7583SOL    HW223649   5.994   3.447   1.593
 7584SOL     OW23650   2.813   6.851   1.146
 7584SOL    HW123651   2.842   6.770   1.196
 7584SOL    HW223652   2.807   6.929   1.209
 7585SOL     OW23653   1.339   4.574   6.672
 7585SOL    HW123654   1.419   4.516   6.687
 7585SOL    HW223655   1.268   4.552   6.739
 7586SOL     OW23656   2.674   0.183   2.888
 7586SOL    HW123657   2.739   0.213   2.819
 7586SOL    HW223658   2.628   0.263   2.927
 7587SOL     OW23659   0.843   1.735   6.800
 7587SOL    HW123660   0.771   1.665   6.799
 7587SOL    HW223661   0.883   1.743   6.709
 7588SOL     OW23662   0.289   4.959   2.573
 7588SOL    HW123663   0.354   5.009   2.630
 7588SOL    HW223664   0.290   4.862   2.597
 7589SOL     OW23665   6.267   5.821   0.637
 7589SOL    HW123666   6.223   5.907   0.608
 7589SOL    HW223667   6.202   5.767   0.690
 7590SOL     OW23668   2.828   2.072   5.594
 7590SOL    HW123669   2.848   1.978   5.567
 7590SOL    HW223670   2.783   2.073   5.683
 7591SOL     OW23671   6.956   5.204   7.019
 7591SOL    HW123672   6.947   5.301   6.997
 7591SOL    HW223673   6.864   5.164   0.010
 7592SOL     OW23674   6.489   5.323   6.860
 7592SOL    HW123675   6.535   5.294   6.945
 7592SOL    HW223676   6.520   5.266   6.784
 7593SOL     OW23677   4.746   2.173   6.853
 7593SOL    HW123678   4.663   2.164   6.907
 7593SOL    HW223679   4.825   2.183   6.915
 7594SOL     OW23680   0.885   6.236   3.867
 7594SOL    HW123681   0.899   6.335   3.875
 7594SOL    HW223682   0.969   6.193   3.834
 7595SOL     OW23683   6.900   3.320   6.176
 7595SOL    HW123684   6.938   3.288   6.089
 7595SOL    HW223685   6.800   3.323   6.169
 7596SOL     OW23686   4.978   4.146   2.293
 7596SOL    HW123687   4.972   4.221   2.226
 7596SOL    HW223688   4.912   4.160   2.366
 7597SOL     OW23689   3.383   5.431   1.731
 7597SOL    HW123690   3.470   5.385   1.753
 7597SOL    HW223691   3.310   5.364   1.726
 7598SOL     OW23692   6.692   0.328   3.011
 7598SOL    HW123693   6.633   0.394   2.964
 7598SOL    HW223694   6.674   0.332   3.109
 7599SOL     OW23695   6.162   1.729   3.486
 7599SOL    HW123696   6.181   1.639   3.525
 7599SOL    HW223697   6.144   1.720   3.388
 7600SOL     OW23698   1.528   0.626   2.364
 7600SOL    HW123699   1.545   0.723   2.348
 7600SOL    HW223700   1.575   0.597   2.447
 7601SOL     OW23701   2.056   6.138   3.981
 7601SOL    HW123702   2.002   6.177   4.056
 7601SOL    HW223703   2.093   6.049   4.008
 7602SOL     OW23704   1.600   4.337   4.511
 7602SOL    HW123705   1.584   4.434   4.493
 7602SOL    HW223706   1.680   4.327   4.569
 7603SOL     OW23707   0.765   6.132   0.305
 7603SOL    HW123708   0.746   6.118   0.208
 7603SOL    HW223709   0.854   6.177   0.316
 7604SOL     OW23710   3.587   6.069   4.523
 7604SOL    HW123711   3.497   6.076   4.481
 7604SOL    HW223712   3.656   6.055   4.452
 7605SOL     OW23713   0.658   4.519   6.898
 7605SOL    HW123714   0.706   4.432   6.883
 7605SOL    HW223715   0.709   4.593   6.856
 7606SOL     OW23716   0.048   2.817   2.248
 7606SOL    HW123717   0.121   2.758   2.214
 7606SOL    HW223718   0.087   2.898   2.292
 7607SOL     OW23719   5.052   6.911   6.655
 7607SOL    HW123720   4.974   6.973   6.651
 7607SOL    HW223721   5.110   6.925   6.575
 7608SOL     OW23722   2.957   3.302   3.552
 7608SOL    HW123723   3.024   3.308   3.478
 7608SOL    HW223724   2.938   3.206   3.571
 7609SOL     OW23725   0.557   3.665   3.937
 7609SOL    HW123726   0.520   3.758   3.937
 7609SOL    HW223727   0.657   3.669   3.929
 7610SOL     OW23728   5.469   0.298   1.128
 7610SOL    HW123729   5.410   0.225   1.162
 7610SOL    HW223730   5.561   0.287   1.166
 7611SOL     OW23731   0.958   2.236   0.183
 7611SOL    HW123732   0.939   2.138   0.192
 7611SOL    HW223733   1.027   2.250   0.111
 7612SOL     OW23734   4.019   1.720   4.106
 7612SOL    HW123735   3.921   1.721   4.087
 7612SOL    HW223736   4.037   1.775   4.188
 7613SOL     OW23737   4.760   1.198   1.526
 7613SOL    HW123738   4.852   1.175   1.556
 7613SOL    HW223739   4.710   1.240   1.602
 7614SOL     OW23740   3.865   1.795   1.523
 7614SOL    HW123741   3.867   1.785   1.423
 7614SOL    HW223742   3.800   1.867   1.548
 7615SOL     OW23743   3.653   5.412   6.637
 7615SOL    HW123744   3.726   5.362   6.592
 7615SOL    HW223745   3.633   5.496   6.585
 7616SOL     OW23746   6.939   4.006   3.832
 7616SOL    HW123747   6.918   4.091   3.784
 7616SOL    HW223748   6.860   3.945   3.826
 7617SOL     OW23749   2.803   5.309   3.351
 7617SOL    HW123750   2.848   5.364   3.421
 7617SOL    HW223751   2.869   5.245   3.312
 7618SOL     OW23752   1.438   2.249   0.003
 7618SOL    HW123753   1.431   2.291   6.932
 7618SOL    HW223754   1.358   2.192   0.020
 7619SOL     OW23755   5.682   3.249   5.291
 7619SOL    HW123756   5.624   3.263   5.371
 7619SOL    HW223757   5.645   3.298   5.213
 7620SOL     OW23758   3.900   6.827   0.369
 7620SOL    HW123759   3.903   6.876   0.456
 7620SOL    HW223760   3.823   6.861   0.314
 7621SOL     OW23761   2.014   0.780   0.808
 7621SOL    HW123762   2.077   0.832   0.866
 7621SOL    HW223763   2.038   0.794   0.712
 7622SOL     OW23764   4.399   3.040   1.078
 7622SOL    HW123765   4.436   2.947   1.067
 7622SOL    HW223766   4.337   3.042   1.157
 7623SOL     OW23767   4.408   6.178   6.659
 7623SOL    HW123768   4.313   6.192   6.631
 7623SOL    HW223769   4.432   6.242   6.732
 7624SOL     OW23770   0.612   2.043   3.053
 7624SOL    HW123771   0.627   2.089   3.140
 7624SOL    HW223772   0.517   2.013   3.046
 7625SOL     OW23773   5.322   0.535   1.053
 7625SOL    HW123774   5.352   0.596   1.127
 7625SOL    HW223775   5.345   0.441   1.076
 7626SOL     OW23776   1.297   6.710   4.983
 7626SOL    HW123777   1.304   6.791   5.041
 7626SOL    HW223778   1.203   6.702   4.948
 7627SOL     OW23779   6.276   2.894   0.916
 7627SOL    HW123780   6.225   2.971   0.954
 7627SOL    HW223781   6.358   2.878   0.971
 7628SOL     OW23782   2.667   0.943   1.223
 7628SOL    HW123783   2.632   0.900   1.306
 7628SOL    HW223784   2.713   1.029   1.246
 7629SOL     OW23785   6.758   6.095   2.701
 7629SOL    HW123786   6.688   6.162   2.678
 7629SOL    HW223787   6.741   6.058   2.792
 7630SOL     OW23788   6.410   0.262   2.065
 7630SOL    HW123789   6.468   0.330   2.021
 7630SOL    HW223790   6.447   0.239   2.155
 7631SOL     OW23791   0.898   2.014   5.384
 7631SOL    HW123792   0.913   2.019   5.285
 7631SOL    HW223793   0.875   2.104   5.419
 7632SOL     OW23794   4.302   2.199   0.752
 7632SOL    HW123795   4.237   2.162   0.686
 7632SOL    HW223796   4.322   2.130   0.822
 7633SOL     OW23797   5.498   3.361   6.531
 7633SOL    HW123798   5.399   3.372   6.539
 7633SOL    HW223799   5.544   3.447   6.554
 7634SOL     OW23800   1.610   0.875   2.301
 7634SOL    HW123801   1.700   0.918   2.291
 7634SOL    HW223802   1.544   0.943   2.335
 7635SOL     OW23803   2.417   5.575   6.037
 7635SOL    HW123804   2.427   5.671   6.011
 7635SOL    HW223805   2.335   5.565   6.094
 7636SOL     OW23806   1.158   1.134   4.122
 7636SOL    HW123807   1.165   1.149   4.023
 7636SOL    HW223808   1.217   1.057   4.148
 7637SOL     OW23809   1.335   0.212   4.468
 7637SOL    HW123810   1.265   0.243   4.404
 7637SOL    HW223811   1.316   0.117   4.495
 7638SOL     OW23812   5.567   5.641   1.941
 7638SOL    HW123813   5.567   5.741   1.944
 7638SOL    HW223814   5.590   5.611   1.848
 7639SOL     OW23815   1.322   1.818   5.978
 7639SOL    HW123816   1.277   1.731   5.999
 7639SOL    HW223817   1.420   1.803   5.964
 7640SOL     OW23818   2.319   2.208   1.097
 7640SOL    HW123819   2.368   2.194   1.183
 7640SOL    HW223820   2.264   2.291   1.103
 7641SOL     OW23821   6.695   4.461   2.315
 7641SOL    HW123822   6.773   4.447   2.376
 7641SOL    HW223823   6.676   4.377   2.265
 7642SOL     OW23824   2.847   1.914   2.715
 7642SOL    HW123825   2.782   1.871   2.653
 7642SOL    HW223826   2.829   1.885   2.809
 7643SOL     OW23827   4.515   2.480   2.903
 7643SOL    HW123828   4.487   2.467   2.808
 7643SOL    HW223829   4.499   2.395   2.955
 7644SOL     OW23830   0.499   2.999   3.331
 7644SOL    HW123831   0.527   3.048   3.248
 7644SOL    HW223832   0.402   2.977   3.326
 7645SOL     OW23833   4.573   4.723   0.101
 7645SOL    HW123834   4.560   4.708   0.003
 7645SOL    HW223835   4.660   4.770   0.117
 7646SOL     OW23836   2.286   1.781   2.188
 7646SOL    HW123837   2.298   1.792   2.089
 7646SOL    HW223838   2.188   1.784   2.210
 7647SOL     OW23839   1.735   3.639   1.747
 7647SOL    HW123840   1.831   3.663   1.763
 7647SOL    HW223841   1.690   3.621   1.835
 7648SOL     OW23842   4.621   1.582   3.896
 7648SOL    HW123843   4.529   1.606   3.867
 7648SOL    HW223844   4.663   1.659   3.943
 7649SOL     OW23845   2.026   0.659   2.505
 7649SOL    HW123846   1.956   0.726   2.531
 7649SOL    HW223847   2.046   0.599   2.582
 7650SOL     OW23848   6.694   3.408   2.488
 7650SOL    HW123849   6.698   3.468   2.408
 7650SOL    HW223850   6.785   3.373   2.508
 7651SOL     OW23851   2.866   6.917   6.998
 7651SOL    HW123852   2.935   6.873   0.036
 7651SOL    HW223853   2.872   6.882   6.905
 7652SOL     OW23854   6.483   3.401   3.971
 7652SOL    HW123855   6.398   3.364   4.007
 7652SOL    HW223856   6.464   3.481   3.914
 7653SOL     OW23857   2.608   2.055   1.068
 7653SOL    HW123858   2.550   2.078   0.990
 7653SOL    HW223859   2.684   2.119   1.073
 7654SOL     OW23860   4.596   2.711   3.882
 7654SOL    HW123861   4.620   2.762   3.964
 7654SOL    HW223862   4.529   2.641   3.905
 7655SOL     OW23863   3.251   6.966   4.809
 7655SOL    HW123864   3.180   0.005   4.769
 7655SOL    HW223865   3.263   6.884   4.753
 7656SOL     OW23866   6.907   6.237   5.032
 7656SOL    HW123867   6.894   6.232   5.131
 7656SOL    HW223868   6.993   6.193   5.007
 7657SOL     OW23869   2.684   2.184   3.720
 7657SOL    HW123870   2.623   2.129   3.777
 7657SOL    HW223871   2.640   2.271   3.698
 7658SOL     OW23872   4.825   0.235   6.015
 7658SOL    HW123873   4.732   0.269   6.031
 7658SOL    HW223874   4.821   0.147   5.968
 7659SOL     OW23875   6.639   0.075   0.820
 7659SOL    HW123876   6.604   0.121   0.902
 7659SOL    HW223877   6.667   7.001   0.843
 7660SOL     OW23878   5.315   5.205   2.983
 7660SOL    HW123879   5.264   5.121   2.963
 7660SOL    HW223880   5.365   5.234   2.902
 7661SOL     OW23881   5.933   2.600   4.071
 7661SOL    HW123882   5.881   2.596   4.156
 7661SOL    HW223883   6.031   2.608   4.091
 7662SOL     OW23884   1.597   3.330   2.294
 7662SOL    HW123885   1.561   3.258   2.235
 7662SOL    HW223886   1.675   3.295   2.346
 7663SOL     OW23887   0.766   5.248   6.390
 7663SOL    HW123888   0.740   5.164   6.437
 7663SOL    HW223889   0.859   5.273   6.414
 7664SOL     OW23890   2.716   6.390   3.019
 7664SOL    HW123891   2.638   6.334   3.046
 7664SOL    HW223892   2.704   6.483   3.053
 7665SOL     OW23893   2.768   0.913   4.420
 7665SOL    HW123894   2.697   0.847   4.394
 7665SOL    HW223895   2.842   0.866   4.468
 7666SOL     OW23896   0.925   0.017   1.133
 7666SOL    HW123897   0.850   6.990   1.086
 7666SOL    HW223898   0.909   0.016   1.232
 7667SOL     OW23899   4.810   6.466   6.865
 7667SOL    HW123900   4.819   6.415   6.779
 7667SOL    HW223901   4.752   6.546   6.850
 7668SOL     OW23902   3.633   4.568   1.383
 7668SOL    HW123903   3.582   4.654   1.378
 7668SOL    HW223904   3.570   4.491   1.367
 7669SOL     OW23905   4.655   0.292   4.054
 7669SOL    HW123906   4.659   0.338   4.142
 7669SOL    HW223907   4.721   0.217   4.053
 7670SOL     OW23908   1.232   5.927   0.010
 7670SOL    HW123909   1.331   5.925   0.028
 7670SOL    HW223910   1.185   5.868   0.075
 7671SOL     OW23911   5.237   1.336   4.609
 7671SOL    HW123912   5.240   1.376   4.517
 7671SOL    HW223913   5.142   1.317   4.635
 7672SOL     OW23914   5.745   0.682   3.994
 7672SOL    HW123915   5.717   0.753   4.059
 7672SOL    HW223916   5.704   0.595   4.021
 7673SOL     OW23917   0.954   4.825   1.088
 7673SOL    HW123918   1.002   4.738   1.088
 7673SOL    HW223919   1.013   4.896   1.048
 7674SOL     OW23920   6.730   1.973   4.683
 7674SOL    HW123921   6.767   1.883   4.705
 7674SOL    HW223922   6.794   2.044   4.714
 7675SOL     OW23923   4.733   0.272   1.971
 7675SOL    HW123924   4.756   0.215   1.891
 7675SOL    HW223925   4.755   0.367   1.951
 7676SOL     OW23926   1.390   0.906   6.549
 7676SOL    HW123927   1.318   0.885   6.615
 7676SOL    HW223928   1.421   0.822   6.505
 7677SOL     OW23929   2.020   3.680   2.474
 7677SOL    HW123930   2.001   3.617   2.399
 7677SOL    HW223931   1.971   3.649   2.556
 7678SOL     OW23932   0.767   0.929   0.111
 7678SOL    HW123933   0.853   0.979   0.117
 7678SOL    HW223934   0.780   0.849   0.053
 7679SOL     OW23935   1.145   5.331   4.989
 7679SOL    HW123936   1.145   5.335   5.089
 7679SOL    HW223937   1.081   5.398   4.953
 7680SOL     OW23938   3.518   3.437   6.806
 7680SOL    HW123939   3.485   3.485   6.725
 7680SOL    HW223940   3.471   3.473   6.887
 7681SOL     OW23941   2.331   1.743   0.167
 7681SOL    HW123942   2.320   1.836   0.132
 7681SOL    HW223943   2.398   1.693   0.113
 7682SOL     OW23944   3.145   6.816   1.869
 7682SOL    HW123945   3.093   6.901   1.871
 7682SOL    HW223946   3.176   6.798   1.775
 7683SOL     OW23947   5.916   1.744   2.747
 7683SOL    HW123948   5.985   1.731   2.676
 7683SOL    HW223949   5.879   1.836   2.740
 7684SOL     OW23950   5.019   1.959   6.302
 7684SOL    HW123951   5.075   2.000   6.230
 7684SOL    HW223952   4.951   1.899   6.260
 7685SOL     OW23953   3.386   2.755   0.712
 7685SOL    HW123954   3.354   2.792   0.625
 7685SOL    HW223955   3.431   2.668   0.696
 7686SOL     OW23956   4.874   0.159   3.070
 7686SOL    HW123957   4.828   0.192   3.152
 7686SOL    HW223958   4.963   0.203   3.061
 7687SOL     OW23959   5.031   4.820   5.308
 7687SOL    HW123960   4.964   4.785   5.373
 7687SOL    HW223961   5.111   4.760   5.308
 7688SOL     OW23962   6.958   6.771   5.216
 7688SOL    HW123963   0.001   6.740   5.144
 7688SOL    HW223964   7.009   6.784   5.301
 7689SOL     OW23965   4.284   5.894   4.781
 7689SOL    HW123966   4.217   5.965   4.760
 7689SOL    HW223967   4.258   5.846   4.864
 7690SOL     OW23968   5.466   4.284   2.685
 7690SOL    HW123969   5.444   4.382   2.683
 7690SOL    HW223970   5.498   4.259   2.776
 7691SOL     OW23971   5.330   2.403   4.079
 7691SOL    HW123972   5.343   2.486   4.134
 7691SOL    HW223973   5.350   2.423   3.983
 7692SOL     OW23974   1.379   6.429   1.563
 7692SOL    HW123975   1.301   6.399   1.616
 7692SOL    HW223976   1.463   6.389   1.601
 7693SOL     OW23977   4.368   0.842   5.867
 7693SOL    HW123978   4.400   0.923   5.916
 7693SOL    HW223979   4.274   0.822   5.893
 7694SOL     OW23980   6.825   4.753   3.955
 7694SOL    HW123981   6.773   4.739   4.039
 7694SOL    HW223982   6.922   4.736   3.971
 7695SOL     OW23983   4.371   0.199   0.726
 7695SOL    HW123984   4.334   0.128   0.665
 7695SOL    HW223985   4.297   0.240   0.779
 7696SOL     OW23986   0.098   2.155   4.481
 7696SOL    HW123987   0.097   2.087   4.408
 7696SOL    HW223988   0.057   2.240   4.449
 7697SOL     OW23989   2.320   1.715   3.596
 7697SOL    HW123990   2.340   1.802   3.549
 7697SOL    HW223991   2.327   1.728   3.695
 7698SOL     OW23992   6.760   2.684   4.513
 7698SOL    HW123993   6.753   2.596   4.467
 7698SOL    HW223994   6.769   2.669   4.612
 7699SOL     OW23995   2.686   5.892   0.684
 7699SOL    HW123996   2.645   5.973   0.725
 7699SOL    HW223997   2.763   5.919   0.626
 7700SOL     OW23998   4.733   6.732   5.032
 7700SOL    HW123999   4.738   6.654   4.970
 7700SOL    HW224000   4.806   6.797   5.011
 7701SOL     OW24001   0.039   0.984   5.251
 7701SOL    HW124002   0.039   1.008   5.348
 7701SOL    HW224003   6.998   0.907   5.236
 7702SOL     OW24004   3.282   6.404   5.979
 7702SOL    HW124005   3.266   6.398   5.881
 7702SOL    HW224006   3.291   6.313   6.018
 7703SOL     OW24007   0.253   1.362   5.524
 7703SOL    HW124008   0.278   1.386   5.618
 7703SOL    HW224009   0.169   1.409   5.498
 7704SOL     OW24010   4.046   4.634   6.886
 7704SOL    HW124011   4.086   4.570   6.821
 7704SOL    HW224012   3.959   4.597   6.920
 7705SOL     OW24013   3.926   4.944   5.226
 7705SOL    HW124014   3.896   4.922   5.133
 7705SOL    HW224015   3.868   5.017   5.263
 7706SOL     OW24016   6.319   0.308   5.394
 7706SOL    HW124017   6.297   0.367   5.316
 7706SOL    HW224018   6.244   0.242   5.407
 7707SOL     OW24019   0.052   5.696   6.215
 7707SOL    HW124020   0.027   5.722   6.308
 7707SOL    HW224021   0.030   5.599   6.201
 7708SOL     OW24022   4.723   6.334   4.353
 7708SOL    HW124023   4.641   6.307   4.403
 7708SOL    HW224024   4.725   6.285   4.265
 7709SOL     OW24025   4.538   2.533   1.763
 7709SOL    HW124026   4.579   2.625   1.761
 7709SOL    HW224027   4.440   2.541   1.779
 7710SOL     OW24028   2.872   6.986   0.624
 7710SOL    HW124029   2.874   6.982   0.724
 7710SOL    HW224030   2.794   6.933   0.591
 7711SOL     OW24031   5.792   5.941   5.884
 7711SOL    HW124032   5.752   5.883   5.955
 7711SOL    HW224033   5.722   5.967   5.818
 7712SOL     OW24034   6.128   4.821   1.327
 7712SOL    HW124035   6.047   4.769   1.356
 7712SOL    HW224036   6.210   4.766   1.340
 7713SOL     OW24037   1.752   4.244   6.816
 7713SOL    HW124038   1.765   4.294   6.902
 7713SOL    HW224039   1.828   4.180   6.803
 7714SOL     OW24040   5.808   4.471   4.282
 7714SOL    HW124041   5.720   4.444   4.323
 7714SOL    HW224042   5.791   4.534   4.206
 7715SOL     OW24043   5.295   0.499   1.413
 7715SOL    HW124044   5.336   0.441   1.483
 7715SOL    HW224045   5.209   0.536   1.447
 7716SOL     OW24046   4.860   2.375   2.430
 7716SOL    HW124047   4.846   2.369   2.331
 7716SOL    HW224048   4.955   2.352   2.452
 7717SOL     OW24049   2.902   1.562   5.349
 7717SOL    HW124050   2.913   1.615   5.434
 7717SOL    HW224051   2.962   1.600   5.278
 7718SOL     OW24052   2.390   1.203   3.129
 7718SOL    HW124053   2.400   1.107   3.104
 7718SOL    HW224054   2.450   1.223   3.206
 7719SOL     OW24055   6.970   2.412   4.526
 7719SOL    HW124056   7.006   2.499   4.492
 7719SOL    HW224057   6.870   2.412   4.519
 7720SOL     OW24058   6.344   6.460   1.097
 7720SOL    HW124059   6.440   6.431   1.101
 7720SOL    HW224060   6.289   6.386   1.056
 7721SOL     OW24061   2.621   4.625   3.334
 7721SOL    HW124062   2.610   4.608   3.236
 7721SOL    HW224063   2.532   4.637   3.377
 7722SOL     OW24064   6.233   4.609   2.866
 7722SOL    HW124065   6.278   4.543   2.927
 7722SOL    HW224066   6.288   4.620   2.783
 7723SOL     OW24067   0.082   2.976   0.618
 7723SOL    HW124068   0.063   3.024   0.704
 7723SOL    HW224069   7.015   2.950   0.575
 7724SOL     OW24070   1.625   4.079   1.001
 7724SOL    HW124071   1.541   4.025   1.005
 7724SOL    HW224072   1.626   4.132   0.917
 7725SOL     OW24073   5.811   2.434   3.411
 7725SOL    HW124074   5.821   2.520   3.360
 7725SOL    HW224075   5.740   2.445   3.481
 7726SOL     OW24076   0.625   4.028   2.937
 7726SOL    HW124077   0.619   4.089   2.859
 7726SOL    HW224078   0.534   4.010   2.973
 7727SOL     OW24079   6.500   2.798   3.805
 7727SOL    HW124080   6.556   2.813   3.887
 7727SOL    HW224081   6.417   2.748   3.830
 7728SOL     OW24082   1.634   3.317   2.937
 7728SOL    HW124083   1.595   3.241   2.885
 7728SOL    HW224084   1.655   3.393   2.875
 7729SOL     OW24085   4.945   2.039   0.841
 7729SOL    HW124086   4.932   2.022   0.939
 7729SOL    HW224087   4.994   2.125   0.828
 7730SOL     OW24088   4.915   6.148   2.762
 7730SOL    HW124089   4.900   6.154   2.860
 7730SOL    HW224090   4.856   6.076   2.724
 7731SOL     OW24091   6.017   0.810   0.456
 7731SOL    HW124092   5.996   0.827   0.360
 7731SOL    HW224093   5.956   0.865   0.514
 7732SOL     OW24094   4.728   5.652   0.583
 7732SOL    HW124095   4.764   5.576   0.529
 7732SOL    HW224096   4.666   5.616   0.653
 7733SOL     OW24097   3.870   0.587   1.586
 7733SOL    HW124098   3.939   0.522   1.619
 7733SOL    HW224099   3.827   0.551   1.503
 7734SOL     OW24100   1.335   2.727   3.392
 7734SOL    HW124101   1.382   2.657   3.446
 7734SOL    HW224102   1.340   2.703   3.295
 7735SOL     OW24103   5.210   4.641   6.398
 7735SOL    HW124104   5.147   4.600   6.333
 7735SOL    HW224105   5.304   4.617   6.372
 7736SOL     OW24106   5.516   4.070   0.006
 7736SOL    HW124107   5.450   4.076   6.951
 7736SOL    HW224108   5.529   3.975   0.032
 7737SOL     OW24109   4.580   1.969   0.524
 7737SOL    HW124110   4.555   1.938   0.616
 7737SOL    HW224111   4.500   1.965   0.464
 7738SOL     OW24112   2.841   5.874   0.461
 7738SOL    HW124113   2.897   5.954   0.441
 7738SOL    HW224114   2.899   5.794   0.477
 7739SOL     OW24115   0.662   2.479   1.154
 7739SOL    HW124116   0.684   2.508   1.247
 7739SOL    HW224117   0.676   2.556   1.091
 7740SOL     OW24118   6.902   0.255   2.335
 7740SOL    HW124119   6.853   0.213   2.258
 7740SOL    HW224120   6.850   0.333   2.368
 7741SOL     OW24121   2.255   6.313   3.787
 7741SOL    HW124122   2.208   6.237   3.832
 7741SOL    HW224123   2.255   6.393   3.847
 7742SOL     OW24124   6.067   2.118   3.193
 7742SOL    HW124125   5.969   2.102   3.196
 7742SOL    HW224126   6.116   2.031   3.197
 7743SOL     OW24127   4.766   2.896   5.528
 7743SOL    HW124128   4.778   2.802   5.560
 7743SOL    HW224129   4.700   2.898   5.453
 7744SOL     OW24130   6.195   0.012   3.696
 7744SOL    HW124131   6.120   6.974   3.666
 7744SOL    HW224132   6.279   6.978   3.701
 7745SOL     OW24133   3.156   2.835   6.565
 7745SOL    HW124134   3.096   2.874   6.635
 7745SOL    HW224135   3.207   2.759   6.604
 7746SOL     OW24136   1.813   0.012   0.371
 7746SOL    HW124137   1.859   6.955   0.325
 7746SOL    HW224138   1.881   0.079   0.401
 7747SOL     OW24139   5.415   6.503   0.813
 7747SOL    HW124140   5.464   6.417   0.830
 7747SOL    HW224141   5.376   6.500   0.721
 7748SOL     OW24142   2.376   4.124   6.484
 7748SOL    HW124143   2.438   4.050   6.511
 7748SOL    HW224144   2.414   4.171   6.405
 7749SOL     OW24145   5.376   2.729   5.394
 7749SOL    HW124146   5.317   2.709   5.315
 7749SOL    HW224147   5.402   2.825   5.393
 7750SOL     OW24148   0.231   5.971   1.806
 7750SOL    HW124149   0.237   5.928   1.716
 7750SOL    HW224150   0.222   6.070   1.795
 7751SOL     OW24151   0.818   2.390   1.490
 7751SOL    HW124152   0.847   2.351   1.577
 7751SOL    HW224153   0.869   2.347   1.415
 7752SOL     OW24154   4.666   1.023   4.607
 7752SOL    HW124155   4.632   1.084   4.535
 7752SOL    HW224156   4.588   0.986   4.659
 7753SOL     OW24157   2.374   1.337   5.310
 7753SOL    HW124158   2.457   1.380   5.274
 7753SOL    HW224159   2.359   1.365   5.404
 7754SOL     OW24160   4.220   6.410   1.868
 7754SOL    HW124161   4.274   6.335   1.829
 7754SOL    HW224162   4.200   6.477   1.796
 7755SOL     OW24163   1.448   3.980   6.240
 7755SOL    HW124164   1.417   3.906   6.299
 7755SOL    HW224165   1.400   4.065   6.264
 7756SOL     OW24166   2.792   6.202   1.462
 7756SOL    HW124167   2.712   6.231   1.408
 7756SOL    HW224168   2.865   6.174   1.400
 7757SOL     OW24169   0.260   4.581   3.062
 7757SOL    HW124170   0.162   4.564   3.064
 7757SOL    HW224171   0.309   4.498   3.089
 7758SOL     OW24172   1.360   0.699   5.245
 7758SOL    HW124173   1.394   0.735   5.158
 7758SOL    HW224174   1.414   0.735   5.320
 7759SOL     OW24175   3.097   1.992   6.505
 7759SOL    HW124176   3.145   1.968   6.589
 7759SOL    HW224177   3.155   1.973   6.427
 7760SOL     OW24178   4.663   2.924   1.303
 7760SOL    HW124179   4.725   2.892   1.231
 7760SOL    HW224180   4.576   2.876   1.296
 7761SOL     OW24181   4.522   5.615   4.699
 7761SOL    HW124182   4.473   5.641   4.782
 7761SOL    HW224183   4.603   5.673   4.689
 7762SOL     OW24184   6.783   0.693   3.518
 7762SOL    HW124185   6.748   0.785   3.531
 7762SOL    HW224186   6.729   0.629   3.573
 7763SOL     OW24187   2.852   6.980   4.649
 7763SOL    HW124188   2.752   6.975   4.653
 7763SOL    HW224189   2.891   6.890   4.670
 7764SOL     OW24190   2.909   4.054   5.543
 7764SOL    HW124191   2.928   3.965   5.502
 7764SOL    HW224192   2.910   4.046   5.643
 7765SOL     OW24193   6.293   3.055   4.527
 7765SOL    HW124194   6.391   3.078   4.532
 7765SOL    HW224195   6.239   3.138   4.543
 7766SOL     OW24196   0.259   4.075   0.033
 7766SOL    HW124197   0.159   4.078   0.025
 7766SOL    HW224198   0.296   4.007   6.990
 7767SOL     OW24199   2.761   1.159   3.115
 7767SOL    HW124200   2.701   1.218   3.063
 7767SOL    HW224201   2.801   1.210   3.191
 7768SOL     OW24202   4.513   4.950   2.918
 7768SOL    HW124203   4.480   4.962   3.012
 7768SOL    HW224204   4.570   5.028   2.893
 7769SOL     OW24205   3.377   2.395   5.368
 7769SOL    HW124206   3.323   2.363   5.290
 7769SOL    HW224207   3.324   2.381   5.452
 7770SOL     OW24208   1.865   3.357   4.601
 7770SOL    HW124209   1.779   3.381   4.647
 7770SOL    HW224210   1.907   3.440   4.566
 7771SOL     OW24211   2.887   2.065   6.210
 7771SOL    HW124212   2.949   2.141   6.193
 7771SOL    HW224213   2.796   2.100   6.234
 7772SOL     OW24214   5.380   0.344   1.615
 7772SOL    HW124215   5.450   0.275   1.595
 7772SOL    HW224216   5.409   0.399   1.694
 7773SOL     OW24217   3.526   6.021   0.340
 7773SOL    HW124218   3.477   6.046   0.256
 7773SOL    HW224219   3.470   5.955   0.392
 7774SOL     OW24220   4.532   1.627   2.671
 7774SOL    HW124221   4.618   1.645   2.719
 7774SOL    HW224222   4.471   1.706   2.681
 7775SOL     OW24223   3.646   0.757   6.837
 7775SOL    HW124224   3.622   0.660   6.830
 7775SOL    HW224225   3.737   0.771   6.799
 7776SOL     OW24226   1.464   0.796   5.023
 7776SOL    HW124227   1.479   0.892   5.048
 7776SOL    HW224228   1.416   0.793   4.935
 7777SOL     OW24229   5.165   5.649   3.297
 7777SOL    HW124230   5.174   5.551   3.279
 7777SOL    HW224231   5.072   5.679   3.274
 7778SOL     OW24232   5.740   4.645   3.027
 7778SOL    HW124233   5.703   4.668   2.937
 7778SOL    HW224234   5.829   4.602   3.016
 7779SOL     OW24235   3.751   5.794   2.297
 7779SOL    HW124236   3.808   5.870   2.329
 7779SOL    HW224237   3.760   5.786   2.198
 7780SOL     OW24238   5.721   5.953   5.154
 7780SOL    HW124239   5.810   5.968   5.198
 7780SOL    HW224240   5.687   6.041   5.119
 7781SOL     OW24241   1.694   2.420   0.369
 7781SOL    HW124242   1.775   2.475   0.388
 7781SOL    HW224243   1.687   2.405   0.270
 7782SOL     OW24244   5.302   4.343   3.063
 7782SOL    HW124245   5.363   4.401   3.116
 7782SOL    HW224246   5.243   4.400   3.005
 7783SOL     OW24247   0.824   0.701   5.101
 7783SOL    HW124248   0.802   0.607   5.129
 7783SOL    HW224249   0.919   0.705   5.071
 7784SOL     OW24250   2.401   2.658   2.787
 7784SOL    HW124251   2.456   2.577   2.808
 7784SOL    HW224252   2.417   2.686   2.693
 7785SOL     OW24253   0.852   6.357   2.533
 7785SOL    HW124254   0.856   6.412   2.450
 7785SOL    HW224255   0.771   6.382   2.586
 7786SOL     OW24256   4.511   0.016   6.381
 7786SOL    HW124257   4.517   6.955   6.323
 7786SOL    HW224258   4.420   0.058   6.371
 7787SOL     OW24259   2.854   2.648   0.966
 7787SOL    HW124260   2.931   2.602   1.011
 7787SOL    HW224261   2.887   2.728   0.917
 7788SOL     OW24262   0.438   4.245   1.727
 7788SOL    HW124263   0.516   4.269   1.669
 7788SOL    HW224264   0.362   4.308   1.708
 7789SOL     OW24265   4.314   0.912   6.253
 7789SOL    HW124266   4.337   0.942   6.161
 7789SOL    HW224267   4.361   0.969   6.320
 7790SOL     OW24268   5.162   4.483   1.631
 7790SOL    HW124269   5.209   4.497   1.718
 7790SOL    HW224270   5.160   4.385   1.610
 7791SOL     OW24271   2.784   5.196   2.585
 7791SOL    HW124272   2.822   5.110   2.549
 7791SOL    HW224273   2.830   5.219   2.671
 7792SOL     OW24274   1.390   1.589   2.349
 7792SOL    HW124275   1.422   1.669   2.298
 7792SOL    HW224276   1.311   1.615   2.405
 7793SOL     OW24277   5.267   0.687   6.429
 7793SOL    HW124278   5.271   0.591   6.402
 7793SOL    HW224279   5.237   0.742   6.351
 7794SOL     OW24280   0.314   6.521   3.220
 7794SOL    HW124281   0.343   6.616   3.236
 7794SOL    HW224282   0.260   6.517   3.135
 7795SOL     OW24283   3.109   5.688   6.665
 7795SOL    HW124284   3.198   5.657   6.632
 7795SOL    HW224285   3.104   5.678   6.764
 7796SOL     OW24286   3.493   3.198   6.186
 7796SOL    HW124287   3.425   3.219   6.256
 7796SOL    HW224288   3.476   3.255   6.105
 7797SOL     OW24289   0.954   6.350   3.123
 7797SOL    HW124290   0.974   6.279   3.056
 7797SOL    HW224291   0.919   6.308   3.207
 7798SOL     OW24292   1.016   2.466   0.916
 7798SOL    HW124293   0.939   2.405   0.901
 7798SOL    HW224294   0.990   2.559   0.890
 7799SOL     OW24295   2.495   6.229   3.652
 7799SOL    HW124296   2.551   6.305   3.685
 7799SOL    HW224297   2.401   6.239   3.684
 7800SOL     OW24298   0.220   6.496   1.746
 7800SOL    HW124299   0.312   6.483   1.708
 7800SOL    HW224300   0.224   6.561   1.822
 7801SOL     OW24301   2.054   2.163   1.811
 7801SOL    HW124302   1.997   2.199   1.885
 7801SOL    HW224303   2.149   2.190   1.827
 7802SOL     OW24304   7.001   3.455   4.673
 7802SOL    HW124305   6.981   3.549   4.702
 7802SOL    HW224306   0.080   3.439   4.679
 7803SOL     OW24307   4.323   2.467   5.723
 7803SOL    HW124308   4.325   2.563   5.754
 7803SOL    HW224309   4.235   2.448   5.680
 7804SOL     OW24310   2.528   2.109   5.584
 7804SOL    HW124311   2.620   2.086   5.552
 7804SOL    HW224312   2.533   2.184   5.650
 7805SOL     OW24313   5.521   3.127   0.356
 7805SOL    HW124314   5.522   3.031   0.330
 7805SOL    HW224315   5.547   3.183   0.277
 7806SOL     OW24316   0.019   2.434   5.805
 7806SOL    HW124317   0.071   2.460   5.886
 7806SOL    HW224318   6.941   2.450   5.821
 7807SOL     OW24319   2.110   4.922   5.973
 7807SOL    HW124320   2.206   4.927   5.948
 7807SOL    HW224321   2.071   5.014   5.975
 7808SOL     OW24322   4.945   3.655   2.942
 7808SOL    HW124323   4.872   3.716   2.973
 7808SOL    HW224324   4.932   3.635   2.845
 7809SOL     OW24325   4.518   5.073   3.343
 7809SOL    HW124326   4.528   5.095   3.440
 7809SOL    HW224327   4.593   5.116   3.292
 7810SOL     OW24328   3.940   6.446   5.189
 7810SOL    HW124329   4.010   6.411   5.252
 7810SOL    HW224330   3.984   6.488   5.110
 7811SOL     OW24331   1.376   5.626   2.567
 7811SOL    HW124332   1.329   5.631   2.479
 7811SOL    HW224333   1.447   5.555   2.562
 7812SOL     OW24334   2.562   2.477   6.362
 7812SOL    HW124335   2.646   2.452   6.315
 7812SOL    HW224336   2.553   2.424   6.447
 7813SOL     OW24337   5.793   1.101   0.977
 7813SOL    HW124338   5.757   1.021   1.024
 7813SOL    HW224339   5.791   1.085   0.878
 7814SOL     OW24340   0.381   3.049   2.268
 7814SOL    HW124341   0.367   3.148   2.268
 7814SOL    HW224342   0.373   3.015   2.174
 7815SOL     OW24343   5.935   3.371   4.853
 7815SOL    HW124344   5.843   3.396   4.884
 7815SOL    HW224345   5.961   3.284   4.896
 7816SOL     OW24346   1.019   1.164   5.097
 7816SOL    HW124347   1.097   1.122   5.051
 7816SOL    HW224348   1.051   1.228   5.166
 7817SOL     OW24349   2.982   3.150   6.468
 7817SOL    HW124350   2.960   3.066   6.418
 7817SOL    HW224351   2.904   3.213   6.463
 7818SOL     OW24352   5.352   1.094   2.059
 7818SOL    HW124353   5.259   1.106   2.023
 7818SOL    HW224354   5.348   1.083   2.158
 7819SOL     OW24355   1.118   4.102   3.871
 7819SOL    HW124356   1.203   4.154   3.878
 7819SOL    HW224357   1.134   4.018   3.820
 7820SOL     OW24358   1.756   0.034   5.524
 7820SOL    HW124359   1.738   6.968   5.573
 7820SOL    HW224360   1.762   0.015   5.426
 7821SOL     OW24361   5.692   5.656   5.970
 7821SOL    HW124362   5.785   5.619   5.964
 7821SOL    HW224363   5.651   5.658   5.879
 7822SOL     OW24364   1.109   1.049   4.628
 7822SOL    HW124365   1.151   1.121   4.572
 7822SOL    HW224366   1.012   1.070   4.642
 7823SOL     OW24367   1.136   3.997   6.372
 7823SOL    HW124368   1.175   3.906   6.359
 7823SOL    HW224369   1.062   3.992   6.438
 7824SOL     OW24370   5.189   2.459   2.795
 7824SOL    HW124371   5.233   2.401   2.863
 7824SOL    HW224372   5.111   2.506   2.837
 7825SOL     OW24373   3.468   3.409   2.324
 7825SOL    HW124374   3.391   3.385   2.265
 7825SOL    HW224375   3.447   3.493   2.374
 7826SOL     OW24376   6.880   0.672   0.377
 7826SOL    HW124377   6.955   0.673   0.310
 7826SOL    HW224378   6.804   0.619   0.341
 7827SOL     OW24379   5.489   4.951   1.611
 7827SOL    HW124380   5.493   4.952   1.511
 7827SOL    HW224381   5.473   4.858   1.644
 7828SOL     OW24382   0.958   6.631   0.811
 7828SOL    HW124383   0.925   6.548   0.856
 7828SOL    HW224384   0.994   6.608   0.721
 7829SOL     OW24385   3.953   2.886   1.548
 7829SOL    HW124386   3.898   2.851   1.472
 7829SOL    HW224387   3.925   2.841   1.633
 7830SOL     OW24388   5.908   2.833   6.737
 7830SOL    HW124389   5.932   2.822   6.833
 7830SOL    HW224390   5.822   2.883   6.729
 7831SOL     OW24391   1.349   3.200   0.343
 7831SOL    HW124392   1.437   3.204   0.389
 7831SOL    HW224393   1.325   3.289   0.306
 7832SOL     OW24394   2.349   2.478   5.845
 7832SOL    HW124395   2.272   2.468   5.782
 7832SOL    HW224396   2.369   2.575   5.859
 7833SOL     OW24397   0.428   0.197   0.234
 7833SOL    HW124398   0.377   0.135   0.293
 7833SOL    HW224399   0.364   0.259   0.188
 7834SOL     OW24400   0.959   0.455   1.130
 7834SOL    HW124401   0.964   0.482   1.226
 7834SOL    HW224402   1.050   0.433   1.096
 7835SOL     OW24403   2.175   3.090   4.820
 7835SOL    HW124404   2.199   3.046   4.734
 7835SOL    HW224405   2.225   3.047   4.895
 7836SOL     OW24406   1.947   6.255   0.417
 7836SOL    HW124407   1.870   6.210   0.462
 7836SOL    HW224408   1.963   6.212   0.328
 7837SOL     OW24409   6.124   0.130   2.902
 7837SOL    HW124410   6.173   0.048   2.871
 7837SOL    HW224411   6.043   0.103   2.953
 7838SOL     OW24412   3.545   0.313   4.491
 7838SOL    HW124413   3.446   0.299   4.501
 7838SOL    HW224414   3.562   0.379   4.417
 7839SOL     OW24415   6.471   4.721   4.557
 7839SOL    HW124416   6.548   4.777   4.526
 7839SOL    HW224417   6.459   4.733   4.655
 7840SOL     OW24418   5.742   3.027   4.434
 7840SOL    HW124419   5.743   3.127   4.436
 7840SOL    HW224420   5.833   2.994   4.409
 7841SOL     OW24421   0.730   1.590   6.375
 7841SOL    HW124422   0.686   1.679   6.365
 7841SOL    HW224423   0.664   1.524   6.412
 7842SOL     OW24424   2.552   0.889   2.873
 7842SOL    HW124425   2.618   0.945   2.823
 7842SOL    HW224426   2.591   0.799   2.890
 7843SOL     OW24427   5.309   3.561   0.504
 7843SOL    HW124428   5.347   3.551   0.412
 7843SOL    HW224429   5.245   3.486   0.522
 7844SOL     OW24430   3.930   0.709   3.582
 7844SOL    HW124431   3.995   0.769   3.537
 7844SOL    HW224432   3.863   0.764   3.633
 7845SOL     OW24433   6.413   1.571   4.218
 7845SOL    HW124434   6.328   1.557   4.270
 7845SOL    HW224435   6.399   1.643   4.151
 7846SOL     OW24436   2.834   6.747   1.927
 7846SOL    HW124437   2.755   6.735   1.868
 7846SOL    HW224438   2.917   6.756   1.871
 7847SOL     OW24439   6.743   0.877   0.512
 7847SOL    HW124440   6.789   0.798   0.469
 7847SOL    HW224441   6.647   0.855   0.527
 7848SOL     OW24442   4.795   3.830   1.879
 7848SOL    HW124443   4.804   3.730   1.882
 7848SOL    HW224444   4.850   3.869   1.953
 7849SOL     OW24445   5.907   3.646   4.983
 7849SOL    HW124446   5.857   3.588   5.047
 7849SOL    HW224447   5.901   3.607   4.891
 7850SOL     OW24448   1.099   0.719   5.071
 7850SOL    HW124449   1.117   0.807   5.028
 7850SOL    HW224450   1.169   0.700   5.140
 7851SOL     OW24451   6.195   6.513   0.272
 7851SOL    HW124452   6.150   6.530   0.359
 7851SOL    HW224453   6.279   6.568   0.266
 7852SOL     OW24454   2.590   6.321   0.035
 7852SOL    HW124455   2.640   6.406   0.021
 7852SOL    HW224456   2.517   6.335   0.102
 7853SOL     OW24457   2.588   3.237   0.161
 7853SOL    HW124458   2.613   3.332   0.142
 7853SOL    HW224459   2.558   3.193   0.076
 7854SOL     OW24460   3.380   4.140   2.498
 7854SOL    HW124461   3.478   4.152   2.512
 7854SOL    HW224462   3.342   4.222   2.455
 7855SOL     OW24463   4.213   5.879   6.085
 7855SOL    HW124464   4.227   5.788   6.046
 7855SOL    HW224465   4.281   5.942   6.048
 7856SOL     OW24466   5.459   3.285   5.465
 7856SOL    HW124467   5.419   3.331   5.387
 7856SOL    HW224468   5.482   3.352   5.535
 7857SOL     OW24469   6.587   1.544   5.545
 7857SOL    HW124470   6.492   1.564   5.522
 7857SOL    HW224471   6.642   1.627   5.534
 7858SOL     OW24472   6.167   3.795   2.807
 7858SOL    HW124473   6.114   3.837   2.734
 7858SOL    HW224474   6.140   3.834   2.895
 7859SOL     OW24475   1.265   5.392   6.415
 7859SOL    HW124476   1.309   5.475   6.382
 7859SOL    HW224477   1.332   5.318   6.420
 7860SOL     OW24478   3.959   6.919   2.034
 7860SOL    HW124479   3.977   6.838   1.978
 7860SOL    HW224480   4.045   6.965   2.055
 7861SOL     OW24481   5.091   4.757   0.739
 7861SOL    HW124482   5.004   4.787   0.701
 7861SOL    HW224483   5.076   4.680   0.800
 7862SOL     OW24484   3.125   4.562   1.493
 7862SOL    HW124485   3.026   4.565   1.510
 7862SOL    HW224486   3.173   4.543   1.579
 7863SOL     OW24487   6.617   5.683   1.709
 7863SOL    HW124488   6.714   5.704   1.694
 7863SOL    HW224489   6.609   5.617   1.784
 7864SOL     OW24490   0.778   5.084   4.735
 7864SOL    HW124491   0.822   5.072   4.824
 7864SOL    HW224492   0.690   5.037   4.735
 7865SOL     OW24493   3.162   0.066   3.275
 7865SOL    HW124494   3.096   0.138   3.253
 7865SOL    HW224495   3.180   0.010   3.194
 7866SOL     OW24496   2.495   1.994   4.310
 7866SOL    HW124497   2.396   1.992   4.320
 7866SOL    HW224498   2.534   2.058   4.375
 7867SOL     OW24499   6.485   4.668   2.030
 7867SOL    HW124500   6.577   4.635   2.006
 7867SOL    HW224501   6.445   4.715   1.951
 7868SOL     OW24502   5.308   6.199   0.574
 7868SOL    HW124503   5.225   6.168   0.527
 7868SOL    HW224504   5.332   6.290   0.542
 7869SOL     OW24505   0.699   3.863   1.822
 7869SOL    HW124506   0.701   3.926   1.899
 7869SOL    HW224507   0.790   3.827   1.805
 7870SOL     OW24508   6.710   5.722   3.692
 7870SOL    HW124509   6.719   5.623   3.683
 7870SOL    HW224510   6.626   5.743   3.742
 7871SOL     OW24511   4.903   3.127   3.141
 7871SOL    HW124512   4.890   3.207   3.083
 7871SOL    HW224513   4.827   3.119   3.206
 7872SOL     OW24514   0.236   2.902   3.139
 7872SOL    HW124515   0.296   2.823   3.142
 7872SOL    HW224516   0.201   2.922   3.230
 7873SOL     OW24517   0.419   5.490   5.143
 7873SOL    HW124518   0.418   5.463   5.047
 7873SOL    HW224519   0.512   5.515   5.169
 7874SOL     OW24520   5.923   1.702   0.429
 7874SOL    HW124521   6.003   1.719   0.485
 7874SOL    HW224522   5.856   1.650   0.481
 7875SOL     OW24523   4.348   3.110   6.122
 7875SOL    HW124524   4.400   3.025   6.122
 7875SOL    HW224525   4.261   3.096   6.170
 7876SOL     OW24526   6.714   0.547   3.741
 7876SOL    HW124527   6.747   0.455   3.719
 7876SOL    HW224528   6.658   0.544   3.824
 7877SOL     OW24529   0.082   2.124   2.841
 7877SOL    HW124530   0.079   2.221   2.817
 7877SOL    HW224531   0.004   2.101   2.898
 7878SOL     OW24532   4.886   3.641   2.652
 7878SOL    HW124533   4.895   3.621   2.554
 7878SOL    HW224534   4.851   3.560   2.699
 7879SOL     OW24535   5.220   6.847   3.860
 7879SOL    HW124536   5.157   6.894   3.797
 7879SOL    HW224537   5.232   6.752   3.830
 7880SOL     OW24538   0.107   0.097   6.718
 7880SOL    HW124539   0.180   0.066   6.778
 7880SOL    HW224540   0.125   0.191   6.688
 7881SOL     OW24541   0.451   4.561   4.369
 7881SOL    HW124542   0.457   4.546   4.467
 7881SOL    HW224543   0.355   4.562   4.342
 7882SOL     OW24544   6.395   3.800   3.404
 7882SOL    HW124545   6.462   3.739   3.448
 7882SOL    HW224546   6.353   3.752   3.327
 7883SOL     OW24547   3.117   1.542   3.598
 7883SOL    HW124548   3.116   1.452   3.641
 7883SOL    HW224549   3.168   1.606   3.656
 7884SOL     OW24550   0.736   4.264   4.605
 7884SOL    HW124551   0.697   4.355   4.594
 7884SOL    HW224552   0.825   4.271   4.651
 7885SOL     OW24553   5.957   5.684   3.212
 7885SOL    HW124554   6.012   5.608   3.176
 7885SOL    HW224555   5.908   5.653   3.293
 7886SOL     OW24556   4.764   2.787   2.143
 7886SOL    HW124557   4.859   2.764   2.165
 7886SOL    HW224558   4.762   2.842   2.059
 7887SOL     OW24559   3.128   3.364   0.428
 7887SOL    HW124560   3.182   3.440   0.464
 7887SOL    HW224561   3.150   3.351   0.331
 7888SOL     OW24562   5.686   1.682   3.850
 7888SOL    HW124563   5.728   1.762   3.894
 7888SOL    HW224564   5.700   1.601   3.908
 7889SOL     OW24565   6.140   4.721   1.068
 7889SOL    HW124566   6.129   4.772   1.153
 7889SOL    HW224567   6.237   4.697   1.056
 7890SOL     OW24568   1.068   3.916   4.293
 7890SOL    HW124569   1.041   3.960   4.378
 7890SOL    HW224570   1.167   3.925   4.281
 7891SOL     OW24571   0.829   2.452   3.976
 7891SOL    HW124572   0.840   2.366   3.926
 7891SOL    HW224573   0.874   2.526   3.927
 7892SOL     OW24574   1.127   3.215   5.842
 7892SOL    HW124575   1.118   3.292   5.905
 7892SOL    HW224576   1.119   3.248   5.748
 7893SOL     OW24577   6.258   1.333   1.368
 7893SOL    HW124578   6.253   1.330   1.268
 7893SOL    HW224579   6.249   1.240   1.405
 7894SOL     OW24580   2.700   1.065   6.163
 7894SOL    HW124581   2.654   1.064   6.252
 7894SOL    HW224582   2.797   1.085   6.176
 7895SOL     OW24583   4.014   6.472   3.360
 7895SOL    HW124584   4.006   6.374   3.340
 7895SOL    HW224585   3.927   6.506   3.395
 7896SOL     OW24586   3.705   2.086   1.266
 7896SOL    HW124587   3.707   2.178   1.226
 7896SOL    HW224588   3.734   2.090   1.361
 7897SOL     OW24589   3.660   4.072   0.054
 7897SOL    HW124590   3.648   3.979   0.089
 7897SOL    HW224591   3.598   4.087   6.997
 7898SOL     OW24592   5.501   0.152   4.307
 7898SOL    HW124593   5.589   0.123   4.343
 7898SOL    HW224594   5.456   0.213   4.372
 7899SOL     OW24595   5.673   4.642   1.488
 7899SOL    HW124596   5.574   4.628   1.481
 7899SOL    HW224597   5.693   4.704   1.563
 7900SOL     OW24598   1.069   3.837   0.119
 7900SOL    HW124599   1.009   3.900   0.070
 7900SOL    HW224600   1.015   3.782   0.182
 7901SOL     OW24601   5.985   1.244   6.077
 7901SOL    HW124602   5.969   1.152   6.042
 7901SOL    HW224603   6.070   1.280   6.039
 7902SOL     OW24604   0.664   6.769   2.642
 7902SOL    HW124605   0.673   6.868   2.650
 7902SOL    HW224606   0.755   6.727   2.633
 7903SOL     OW24607   2.141   2.042   4.955
 7903SOL    HW124608   2.199   2.118   4.984
 7903SOL    HW224609   2.188   1.956   4.970
 7904SOL     OW24610   5.660   0.871   1.764
 7904SOL    HW124611   5.732   0.909   1.705
 7904SOL    HW224612   5.594   0.821   1.708
 7905SOL     OW24613   5.753   0.041   0.448
 7905SOL    HW124614   5.742   7.014   0.535
 7905SOL    HW224615   5.771   0.138   0.464
 7906SOL     OW24616   1.516   5.116   0.902
 7906SOL    HW124617   1.502   5.157   0.812
 7906SOL    HW224618   1.427   5.088   0.939
 7907SOL     OW24619   6.246   0.442   3.522
 7907SOL    HW124620   6.291   0.376   3.463
 7907SOL    HW224621   6.202   0.395   3.599
 7908SOL     OW24622   0.253   0.806   6.941
 7908SOL    HW124623   0.329   0.867   6.917
 7908SOL    HW224624   0.167   0.856   6.934
 7909SOL     OW24625   5.764   3.740   1.643
 7909SOL    HW124626   5.775   3.760   1.740
 7909SOL    HW224627   5.699   3.665   1.631
 7910SOL     OW24628   2.275   3.511   0.547
 7910SOL    HW124629   2.279   3.525   0.646
 7910SOL    HW224630   2.337   3.437   0.522
 7911SOL     OW24631   1.043   4.479   0.340
 7911SOL    HW124632   1.051   4.566   0.389
 7911SOL    HW224633   0.967   4.426   0.378
 7912SOL     OW24634   6.070   5.564   0.345
 7912SOL    HW124635   6.000   5.589   0.278
 7912SOL    HW224636   6.026   5.531   0.429
 7913SOL     OW24637   0.922   3.506   0.694
 7913SOL    HW124638   0.845   3.534   0.638
 7913SOL    HW224639   0.976   3.437   0.646
 7914SOL     OW24640   6.510   5.067   4.715
 7914SOL    HW124641   6.439   4.999   4.732
 7914SOL    HW224642   6.468   5.157   4.701
 7915SOL     OW24643   3.403   6.943   2.971
 7915SOL    HW124644   3.309   6.918   2.991
 7915SOL    HW224645   3.454   6.954   3.056
 7916SOL     OW24646   1.360   0.566   4.396
 7916SOL    HW124647   1.374   0.530   4.489
 7916SOL    HW224648   1.410   0.652   4.386
 7917SOL     OW24649   3.981   3.387   0.270
 7917SOL    HW124650   3.995   3.437   0.185
 7917SOL    HW224651   3.884   3.385   0.292
 7918SOL     OW24652   2.408   0.704   5.054
 7918SOL    HW124653   2.483   0.770   5.051
 7918SOL    HW224654   2.388   0.672   4.961
 7919SOL     OW24655   1.322   5.514   2.313
 7919SOL    HW124656   1.315   5.598   2.260
 7919SOL    HW224657   1.390   5.454   2.271
 7920SOL     OW24658   4.622   0.133   0.887
 7920SOL    HW124659   4.541   0.162   0.835
 7920SOL    HW224660   4.604   0.045   0.931
 7921SOL     OW24661   4.924   1.524   1.635
 7921SOL    HW124662   4.908   1.510   1.537
 7921SOL    HW224663   4.882   1.449   1.686
 7922SOL     OW24664   0.161   5.735   0.676
 7922SOL    HW124665   0.189   5.711   0.769
 7922SOL    HW224666   0.240   5.765   0.623
 7923SOL     OW24667   4.067   1.240   6.664
 7923SOL    HW124668   3.999   1.312   6.680
 7923SOL    HW224669   4.070   1.179   6.744
 7924SOL     OW24670   6.344   0.378   0.761
 7924SOL    HW124671   6.378   0.289   0.732
 7924SOL    HW224672   6.253   0.367   0.802
 7925SOL     OW24673   2.123   6.257   0.623
 7925SOL    HW124674   2.220   6.244   0.604
 7925SOL    HW224675   2.072   6.257   0.537
 7926SOL     OW24676   4.557   6.085   6.465
 7926SOL    HW124677   4.505   6.102   6.548
 7926SOL    HW224678   4.655   6.080   6.488
 7927SOL     OW24679   4.907   6.749   2.197
 7927SOL    HW124680   4.857   6.679   2.147
 7927SOL    HW224681   4.919   6.829   2.139
 7928SOL     OW24682   6.532   1.500   2.970
 7928SOL    HW124683   6.609   1.523   3.030
 7928SOL    HW224684   6.542   1.406   2.938
 7929SOL     OW24685   4.099   4.074   6.087
 7929SOL    HW124686   4.152   4.155   6.062
 7929SOL    HW224687   4.068   4.028   6.004
 7930SOL     OW24688   4.067   5.731   5.731
 7930SOL    HW124689   3.988   5.707   5.789
 7930SOL    HW224690   4.120   5.648   5.712
 7931SOL     OW24691   3.458   2.099   0.557
 7931SOL    HW124692   3.504   2.013   0.576
 7931SOL    HW224693   3.447   2.110   0.458
 7932SOL     OW24694   0.689   5.574   1.671
 7932SOL    HW124695   0.593   5.602   1.675
 7932SOL    HW224696   0.729   5.578   1.763
 7933SOL     OW24697   0.032   1.461   5.779
 7933SOL    HW124698   6.961   1.419   5.776
 7933SOL    HW224699   0.096   1.398   5.823
 7934SOL     OW24700   0.948   4.452   1.079
 7934SOL    HW124701   0.938   4.501   0.992
 7934SOL    HW224702   0.857   4.437   1.118
 7935SOL     OW24703   5.503   3.422   2.592
 7935SOL    HW124704   5.513   3.354   2.664
 7935SOL    HW224705   5.467   3.507   2.630
 7936SOL     OW24706   3.406   6.042   4.079
 7936SOL    HW124707   3.403   6.085   3.988
 7936SOL    HW224708   3.408   5.943   4.068
 7937SOL     OW24709   2.632   6.067   6.972
 7937SOL    HW124710   2.636   6.045   6.874
 7937SOL    HW224711   2.617   6.165   6.983
 7938SOL     OW24712   3.312   6.867   4.469
 7938SOL    HW124713   3.280   6.903   4.382
 7938SOL    HW224714   3.296   6.933   4.542
 7939SOL     OW24715   0.578   2.032   4.760
 7939SOL    HW124716   0.600   1.995   4.850
 7939SOL    HW224717   0.478   2.039   4.751
 7940SOL     OW24718   5.275   1.118   3.076
 7940SOL    HW124719   5.317   1.166   2.999
 7940SOL    HW224720   5.287   1.020   3.065
 7941SOL     OW24721   3.817   6.665   1.800
 7941SOL    HW124722   3.739   6.632   1.854
 7941SOL    HW224723   3.787   6.742   1.743
 7942SOL     OW24724   1.085   4.180   1.687
 7942SOL    HW124725   1.132   4.239   1.621
 7942SOL    HW224726   1.014   4.128   1.641
 7943SOL     OW24727   2.148   5.419   6.656
 7943SOL    HW124728   2.074   5.383   6.601
 7943SOL    HW224729   2.235   5.404   6.609
 7944SOL     OW24730   1.698   2.919   0.827
 7944SOL    HW124731   1.704   2.837   0.770
 7944SOL    HW224732   1.730   2.998   0.775
 7945SOL     OW24733   5.833   4.572   2.531
 7945SOL    HW124734   5.926   4.587   2.497
 7945SOL    HW224735   5.835   4.511   2.610
 7946SOL     OW24736   3.900   1.146   5.163
 7946SOL    HW124737   3.846   1.103   5.236
 7946SOL    HW224738   3.865   1.238   5.146
 7947SOL     OW24739   1.437   2.452   5.345
 7947SOL    HW124740   1.424   2.514   5.422
 7947SOL    HW224741   1.407   2.360   5.370
 7948SOL     OW24742   1.623   4.862   2.501
 7948SOL    HW124743   1.619   4.939   2.564
 7948SOL    HW224744   1.641   4.778   2.553
 7949SOL     OW24745   3.847   4.602   6.357
 7949SOL    HW124746   3.938   4.629   6.326
 7949SOL    HW224747   3.781   4.671   6.329
 7950SOL     OW24748   5.981   5.180   5.272
 7950SOL    HW124749   5.944   5.091   5.300
 7950SOL    HW224750   6.072   5.167   5.233
 7951SOL     OW24751   3.031   5.648   2.749
 7951SOL    HW124752   3.108   5.585   2.743
 7951SOL    HW224753   3.006   5.662   2.845
 7952SOL     OW24754   5.305   3.348   6.752
 7952SOL    HW124755   5.253   3.359   6.837
 7952SOL    HW224756   5.401   3.333   6.774
 7953SOL     OW24757   2.805   1.591   0.821
 7953SOL    HW124758   2.833   1.661   0.756
 7953SOL    HW224759   2.875   1.519   0.826
 7954SOL     OW24760   3.566   2.964   0.247
 7954SOL    HW124761   3.606   2.956   0.339
 7954SOL    HW224762   3.618   3.031   0.194
 7955SOL     OW24763   1.631   1.099   6.685
 7955SOL    HW124764   1.543   1.053   6.676
 7955SOL    HW224765   1.660   1.098   6.780
 7956SOL     OW24766   6.680   6.672   1.139
 7956SOL    HW124767   6.729   6.725   1.208
 7956SOL    HW224768   6.678   6.723   1.053
 7957SOL     OW24769   5.010   0.427   5.056
 7957SOL    HW124770   4.919   0.405   5.022
 7957SOL    HW224771   5.076   0.417   4.982
 7958SOL     OW24772   5.769   3.087   6.888
 7958SOL    HW124773   5.806   3.110   6.798
 7958SOL    HW224774   5.844   3.073   6.952
 7959SOL     OW24775   5.250   0.808   5.796
 7959SOL    HW124776   5.293   0.718   5.789
 7959SOL    HW224777   5.296   0.862   5.867
 7960SOL     OW24778   0.062   0.692   5.904
 7960SOL    HW124779   0.070   0.766   5.971
 7960SOL    HW224780   0.134   0.702   5.836
 7961SOL     OW24781   6.447   0.642   0.378
 7961SOL    HW124782   6.379   0.653   0.306
 7961SOL    HW224783   6.533   0.611   0.339
 7962SOL     OW24784   6.552   6.776   5.834
 7962SOL    HW124785   6.501   6.861   5.822
 7962SOL    HW224786   6.540   6.742   5.927
 7963SOL     OW24787   0.141   5.290   4.808
 7963SOL    HW124788   0.213   5.321   4.870
 7963SOL    HW224789   0.180   5.229   4.739
 7964SOL     OW24790   6.320   3.546   2.258
 7964SOL    HW124791   6.373   3.469   2.294
 7964SOL    HW224792   6.230   3.514   2.229
 7965SOL     OW24793   4.299   1.752   6.753
 7965SOL    HW124794   4.322   1.689   6.827
 7965SOL    HW224795   4.204   1.739   6.726
 7966SOL     OW24796   4.661   4.120   5.387
 7966SOL    HW124797   4.586   4.171   5.344
 7966SOL    HW224798   4.731   4.184   5.418
 7967SOL     OW24799   1.539   4.722   1.828
 7967SOL    HW124800   1.576   4.813   1.847
 7967SOL    HW224801   1.501   4.683   1.911
 7968SOL     OW24802   6.420   2.073   4.381
 7968SOL    HW124803   6.414   2.098   4.285
 7968SOL    HW224804   6.332   2.091   4.426
 7969SOL     OW24805   4.937   5.683   6.939
 7969SOL    HW124806   4.844   5.718   6.926
 7969SOL    HW224807   5.001   5.735   6.883
 7970SOL     OW24808   5.990   2.785   2.240
 7970SOL    HW124809   5.915   2.842   2.273
 7970SOL    HW224810   6.068   2.793   2.303
 7971SOL     OW24811   3.003   1.406   0.894
 7971SOL    HW124812   3.004   1.353   0.809
 7971SOL    HW224813   3.075   1.475   0.890
 7972SOL     OW24814   4.145   3.448   2.816
 7972SOL    HW124815   4.149   3.352   2.844
 7972SOL    HW224816   4.097   3.500   2.887
 7973SOL     OW24817   6.082   3.683   3.101
 7973SOL    HW124818   6.091   3.593   3.145
 7973SOL    HW224819   5.986   3.701   3.081
 7974SOL     OW24820   6.413   1.943   4.989
 7974SOL    HW124821   6.474   1.895   4.926
 7974SOL    HW224822   6.373   1.877   5.053
 7975SOL     OW24823   5.142   0.874   1.109
 7975SOL    HW124824   5.132   0.964   1.152
 7975SOL    HW224825   5.189   0.812   1.172
 7976SOL     OW24826   1.128   6.822   6.709
 7976SOL    HW124827   1.090   6.730   6.722
 7976SOL    HW224828   1.224   6.814   6.679
 7977SOL     OW24829   5.557   6.189   2.712
 7977SOL    HW124830   5.645   6.235   2.704
 7977SOL    HW224831   5.502   6.234   2.782
 7978SOL     OW24832   0.256   4.677   0.694
 7978SOL    HW124833   0.178   4.708   0.749
 7978SOL    HW224834   0.321   4.629   0.753
 7979SOL     OW24835   1.336   3.626   4.774
 7979SOL    HW124836   1.407   3.605   4.841
 7979SOL    HW224837   1.330   3.725   4.761
 7980SOL     OW24838   3.828   5.194   6.470
 7980SOL    HW124839   3.922   5.214   6.444
 7980SOL    HW224840   3.826   5.109   6.524
 7981SOL     OW24841   1.643   5.125   3.376
 7981SOL    HW124842   1.635   5.100   3.280
 7981SOL    HW224843   1.636   5.224   3.386
 7982SOL     OW24844   0.935   2.177   6.281
 7982SOL    HW124845   0.958   2.171   6.184
 7982SOL    HW224846   0.849   2.227   6.291
 7983SOL     OW24847   5.087   0.357   1.301
 7983SOL    HW124848   5.016   0.407   1.251
 7983SOL    HW224849   5.158   0.421   1.330
 7984SOL     OW24850   1.488   1.992   1.822
 7984SOL    HW124851   1.426   2.027   1.752
 7984SOL    HW224852   1.463   2.030   1.911
 7985SOL     OW24853   1.655   2.805   5.551
 7985SOL    HW124854   1.685   2.850   5.467
 7985SOL    HW224855   1.731   2.752   5.589
 7986SOL     OW24856   2.985   1.130   3.696
 7986SOL    HW124857   2.977   1.220   3.739
 7986SOL    HW224858   2.987   1.059   3.767
 7987SOL     OW24859   1.293   3.353   0.718
 7987SOL    HW124860   1.241   3.420   0.772
 7987SOL    HW224861   1.388   3.383   0.712
 7988SOL     OW24862   0.229   2.046   1.174
 7988SOL    HW124863   0.267   1.983   1.243
 7988SOL    HW224864   0.291   2.052   1.096
 7989SOL     OW24865   0.578   4.769   0.722
 7989SOL    HW124866   0.532   4.858   0.720
 7989SOL    HW224867   0.633   4.758   0.638
 7990SOL     OW24868   3.070   5.489   5.551
 7990SOL    HW124869   3.123   5.554   5.497
 7990SOL    HW224870   3.130   5.442   5.616
 7991SOL     OW24871   5.674   1.322   5.060
 7991SOL    HW124872   5.752   1.270   5.024
 7991SOL    HW224873   5.678   1.416   5.027
 7992SOL     OW24874   2.713   0.747   0.552
 7992SOL    HW124875   2.746   0.748   0.458
 7992SOL    HW224876   2.761   0.816   0.605
 7993SOL     OW24877   6.788   6.011   1.777
 7993SOL    HW124878   6.794   5.921   1.735
 7993SOL    HW224879   6.877   6.056   1.773
 7994SOL     OW24880   5.165   0.815   3.140
 7994SOL    HW124881   5.244   0.805   3.200
 7994SOL    HW224882   5.081   0.812   3.194
 7995SOL     OW24883   0.244   4.415   1.651
 7995SOL    HW124884   0.239   4.504   1.695
 7995SOL    HW224885   0.153   4.374   1.647
 7996SOL     OW24886   4.041   6.979   2.967
 7996SOL    HW124887   3.942   6.962   2.958
 7996SOL    HW224888   4.089   6.935   2.892
 7997SOL     OW24889   0.246   2.035   6.715
 7997SOL    HW124890   0.213   2.129   6.703
 7997SOL    HW224891   0.306   2.031   6.794
 7998SOL     OW24892   3.460   0.773   0.265
 7998SOL    HW124893   3.441   0.860   0.310
 7998SOL    HW224894   3.510   0.790   0.180
 7999SOL     OW24895   1.366   1.564   5.249
 7999SOL    HW124896   1.380   1.540   5.345
 7999SOL    HW224897   1.455   1.576   5.204
 8000SOL     OW24898   5.738   5.603   6.426
 8000SOL    HW124899   5.795   5.681   6.452
 8000SOL    HW224900   5.777   5.519   6.465
 8001SOL     OW24901   4.907   0.489   1.163
 8001SOL    HW124902   4.837   0.514   1.230
 8001SOL    HW224903   4.864   0.471   1.075
 8002SOL     OW24904   0.693   0.111   5.772
 8002SOL    HW124905   0.707   0.013   5.787
 8002SOL    HW224906   0.778   0.153   5.741
 8003SOL     OW24907   1.806   6.704   2.744
 8003SOL    HW124908   1.856   6.767   2.803
 8003SOL    HW224909   1.832   6.610   2.765
 8004SOL     OW24910   1.077   3.426   4.114
 8004SOL    HW124911   1.163   3.471   4.135
 8004SOL    HW224912   1.002   3.475   4.157
 8005SOL     OW24913   2.661   0.572   3.556
 8005SOL    HW124914   2.585   0.567   3.491
 8005SOL    HW224915   2.736   0.514   3.524
 8006SOL     OW24916   3.746   4.628   5.758
 8006SOL    HW124917   3.813   4.555   5.765
 8006SOL    HW224918   3.656   4.590   5.740
 8007SOL     OW24919   6.164   1.266   6.625
 8007SOL    HW124920   6.135   1.330   6.554
 8007SOL    HW224921   6.084   1.224   6.667
 8008SOL     OW24922   4.554   6.528   0.030
 8008SOL    HW124923   4.619   6.592   0.071
 8008SOL    HW224924   4.603   6.444   0.005
 8009SOL     OW24925   4.868   1.251   0.838
 8009SOL    HW124926   4.906   1.242   0.746
 8009SOL    HW224927   4.848   1.161   0.875
 8010SOL     OW24928   2.796   2.536   5.350
 8010SOL    HW124929   2.771   2.506   5.259
 8010SOL    HW224930   2.857   2.469   5.392
 8011SOL     OW24931   4.009   1.848   2.376
 8011SOL    HW124932   3.990   1.933   2.424
 8011SOL    HW224933   4.107   1.834   2.370
 8012SOL     OW24934   0.979   2.769   5.307
 8012SOL    HW124935   0.952   2.830   5.382
 8012SOL    HW224936   1.030   2.820   5.238
 8013SOL     OW24937   1.813   2.388   3.377
 8013SOL    HW124938   1.896   2.391   3.432
 8013SOL    HW224939   1.776   2.481   3.366
 8014SOL     OW24940   1.971   0.613   3.018
 8014SOL    HW124941   2.039   0.664   3.071
 8014SOL    HW224942   1.879   0.640   3.048
 8015SOL     OW24943   2.143   6.924   5.164
 8015SOL    HW124944   2.104   6.906   5.073
 8015SOL    HW224945   2.239   6.899   5.165
 8016SOL     OW24946   4.551   1.593   5.795
 8016SOL    HW124947   4.471   1.622   5.847
 8016SOL    HW224948   4.531   1.600   5.697
 8017SOL     OW24949   6.508   0.316   0.431
 8017SOL    HW124950   6.425   0.296   0.378
 8017SOL    HW224951   6.521   0.246   0.501
 8018SOL     OW24952   4.108   1.403   0.368
 8018SOL    HW124953   4.107   1.435   0.274
 8018SOL    HW224954   4.192   1.433   0.413
 8019SOL     OW24955   3.085   2.955   0.361
 8019SOL    HW124956   3.133   2.974   0.446
 8019SOL    HW224957   2.991   2.927   0.380
 8020SOL     OW24958   0.304   0.418   5.147
 8020SOL    HW124959   0.389   0.415   5.094
 8020SOL    HW224960   0.315   0.480   5.225
 8021SOL     OW24961   1.365   1.928   2.529
 8021SOL    HW124962   1.306   1.882   2.463
 8021SOL    HW224963   1.334   2.023   2.541
 8022SOL     OW24964   5.026   1.345   2.241
 8022SOL    HW124965   5.091   1.274   2.265
 8022SOL    HW224966   4.971   1.368   2.322
 8023SOL     OW24967   4.555   5.780   3.730
 8023SOL    HW124968   4.601   5.801   3.816
 8023SOL    HW224969   4.514   5.863   3.693
 8024SOL     OW24970   2.003   6.601   6.460
 8024SOL    HW124971   1.979   6.504   6.468
 8024SOL    HW224972   1.924   6.652   6.426
 8025SOL     OW24973   2.127   5.176   1.327
 8025SOL    HW124974   2.181   5.115   1.385
 8025SOL    HW224975   2.032   5.145   1.325
 8026SOL     OW24976   0.724   5.880   6.682
 8026SOL    HW124977   0.820   5.857   6.665
 8026SOL    HW224978   0.691   5.939   6.609
 8027SOL     OW24979   3.638   6.474   6.823
 8027SOL    HW124980   3.671   6.394   6.871
 8027SOL    HW224981   3.647   6.460   6.724
 8028SOL     OW24982   2.867   5.449   4.690
 8028SOL    HW124983   2.820   5.362   4.674
 8028SOL    HW224984   2.828   5.494   4.770
 8029SOL     OW24985   6.158   1.069   0.877
 8029SOL    HW124986   6.171   1.024   0.789
 8029SOL    HW224987   6.115   1.158   0.863
 8030SOL     OW24988   6.443   4.840   1.008
 8030SOL    HW124989   6.459   4.813   0.913
 8030SOL    HW224990   6.412   4.935   1.011
 8031SOL     OW24991   6.654   0.929   2.916
 8031SOL    HW124992   6.682   0.999   2.981
 8031SOL    HW224993   6.681   0.839   2.949
 8032SOL     OW24994   5.698   2.862   0.791
 8032SOL    HW124995   5.679   2.765   0.782
 8032SOL    HW224996   5.767   2.876   0.863
 8033SOL     OW24997   3.717   4.502   1.037
 8033SOL    HW124998   3.802   4.541   1.001
 8033SOL    HW224999   3.648   4.501   0.965
 8034SOL     OW25000   6.027   0.134   5.602
 8034SOL    HW125001   6.060   0.105   5.512
 8034SOL    HW225002   6.104   0.138   5.665
 8035SOL     OW25003   4.982   1.984   3.143
 8035SOL    HW125004   4.980   1.902   3.085
 8035SOL    HW225005   5.073   1.995   3.183
 8036SOL     OW25006   6.429   3.415   3.450
 8036SOL    HW125007   6.485   3.357   3.392
 8036SOL    HW225008   6.486   3.488   3.489
 8037SOL     OW25009   0.703   2.814   6.408
 8037SOL    HW125010   0.694   2.874   6.488
 8037SOL    HW225011   0.645   2.734   6.419
 8038SOL     OW25012   6.222   6.231   2.325
 8038SOL    HW125013   6.126   6.258   2.325
 8038SOL    HW225014   6.250   6.207   2.231
 8039SOL     OW25015   1.359   1.875   5.533
 8039SOL    HW125016   1.335   1.837   5.443
 8039SOL    HW225017   1.310   1.961   5.547
 8040SOL     OW25018   1.813   5.135   6.187
 8040SOL    HW125019   1.731   5.080   6.169
 8040SOL    HW225020   1.843   5.121   6.281
 8041SOL     OW25021   4.011   1.991   2.640
 8041SOL    HW125022   4.028   2.018   2.735
 8041SOL    HW225023   4.042   2.063   2.578
 8042SOL     OW25024   4.368   4.163   5.852
 8042SOL    HW125025   4.287   4.119   5.812
 8042SOL    HW225026   4.340   4.222   5.927
 8043SOL     OW25027   5.657   4.377   0.316
 8043SOL    HW125028   5.660   4.286   0.357
 8043SOL    HW225029   5.584   4.382   0.248
 8044SOL     OW25030   3.642   3.891   0.770
 8044SOL    HW125031   3.671   3.969   0.826
 8044SOL    HW225032   3.723   3.840   0.742
 8045SOL     OW25033   0.779   1.267   2.574
 8045SOL    HW125034   0.833   1.248   2.656
 8045SOL    HW225035   0.691   1.219   2.581
 8046SOL     OW25036   0.428   5.333   2.345
 8046SOL    HW125037   0.490   5.395   2.393
 8046SOL    HW225038   0.434   5.350   2.247
 8047SOL     OW25039   4.392   6.586   5.659
 8047SOL    HW125040   4.403   6.571   5.757
 8047SOL    HW225041   4.412   6.681   5.637
 8048SOL     OW25042   3.446   3.884   0.139
 8048SOL    HW125043   3.513   3.834   0.083
 8048SOL    HW225044   3.391   3.818   0.191
 8049SOL     OW25045   2.546   0.393   0.891
 8049SOL    HW125046   2.592   0.304   0.884
 8049SOL    HW225047   2.472   0.397   0.823
 8050SOL     OW25048   2.159   4.551   4.262
 8050SOL    HW125049   2.164   4.649   4.276
 8050SOL    HW225050   2.110   4.508   4.338
 8051SOL     OW25051   3.378   6.131   4.376
 8051SOL    HW125052   3.344   6.097   4.289
 8051SOL    HW225053   3.438   6.210   4.360
 8052SOL     OW25054   2.326   2.179   1.920
 8052SOL    HW125055   2.350   2.117   1.845
 8052SOL    HW225056   2.374   2.151   2.003
 8053SOL     OW25057   2.572   3.540   6.252
 8053SOL    HW125058   2.501   3.478   6.219
 8053SOL    HW225059   2.660   3.492   6.256
 8054SOL     OW25060   5.332   4.009   5.084
 8054SOL    HW125061   5.423   4.049   5.096
 8054SOL    HW225062   5.328   3.921   5.133
 8055SOL     OW25063   0.104   0.639   5.287
 8055SOL    HW125064   0.009   0.668   5.294
 8055SOL    HW225065   0.161   0.718   5.264
 8056SOL     OW25066   2.360   0.872   4.324
 8056SOL    HW125067   2.306   0.799   4.282
 8056SOL    HW225068   2.457   0.847   4.324
 8057SOL     OW25069   2.533   2.298   1.769
 8057SOL    HW125070   2.510   2.361   1.694
 8057SOL    HW225071   2.462   2.303   1.839
 8058SOL     OW25072   2.826   6.846   3.035
 8058SOL    HW125073   2.837   6.858   2.936
 8058SOL    HW225074   2.916   6.853   3.079
 8059SOL     OW25075   2.777   3.309   6.577
 8059SOL    HW125076   2.808   3.250   6.651
 8059SOL    HW225077   2.724   3.385   6.614
 8060SOL     OW25078   6.692   6.970   5.582
 8060SOL    HW125079   6.711   0.004   5.500
 8060SOL    HW225080   6.623   7.016   5.637
 8061SOL     OW25081   0.793   1.425   2.062
 8061SOL    HW125082   0.821   1.464   2.151
 8061SOL    HW225083   0.847   1.343   2.044
 8062SOL     OW25084   4.112   5.874   5.330
 8062SOL    HW125085   4.095   5.971   5.314
 8062SOL    HW225086   4.100   5.823   5.245
 8063SOL     OW25087   3.411   0.189   2.862
 8063SOL    HW125088   3.425   0.100   2.906
 8063SOL    HW225089   3.500   0.233   2.847
 8064SOL     OW25090   5.896   2.845   0.117
 8064SOL    HW125091   5.949   2.914   0.066
 8064SOL    HW225092   5.900   2.866   0.215
 8065SOL     OW25093   3.444   6.891   5.237
 8065SOL    HW125094   3.509   6.875   5.311
 8065SOL    HW225095   3.353   6.864   5.266
 8066SOL     OW25096   0.119   0.959   4.965
 8066SOL    HW125097   0.111   1.046   4.916
 8066SOL    HW225098   0.071   0.966   5.053
 8067SOL     OW25099   5.081   2.851   3.514
 8067SOL    HW125100   5.163   2.905   3.497
 8067SOL    HW225101   5.043   2.820   3.427
 8068SOL     OW25102   6.584   4.635   1.175
 8068SOL    HW125103   6.556   4.685   1.257
 8068SOL    HW225104   6.555   4.685   1.093
 8069SOL     OW25105   2.857   4.877   2.326
 8069SOL    HW125106   2.831   4.843   2.235
 8069SOL    HW225107   2.953   4.903   2.325
 8070SOL     OW25108   5.342   4.679   0.121
 8070SOL    HW125109   5.438   4.683   0.150
 8070SOL    HW225110   5.284   4.723   0.189
 8071SOL     OW25111   3.730   6.497   6.093
 8071SOL    HW125112   3.635   6.495   6.123
 8071SOL    HW225113   3.768   6.588   6.109
 8072SOL     OW25114   1.717   2.874   6.670
 8072SOL    HW125115   1.630   2.887   6.622
 8072SOL    HW225116   1.764   2.962   6.676
 8073SOL     OW25117   3.785   0.373   6.876
 8073SOL    HW125118   3.793   0.295   6.938
 8073SOL    HW225119   3.809   0.344   6.783
 8074SOL     OW25120   1.859   1.852   0.259
 8074SOL    HW125121   1.816   1.909   0.189
 8074SOL    HW225122   1.935   1.801   0.218
 8075SOL     OW25123   6.970   6.119   0.047
 8075SOL    HW125124   6.876   6.099   0.018
 8075SOL    HW225125   7.004   6.044   0.103
 8076SOL     OW25126   6.327   0.277   6.915
 8076SOL    HW125127   6.315   0.236   7.006
 8076SOL    HW225128   6.364   0.208   6.852
 8077SOL     OW25129   4.199   5.613   1.501
 8077SOL    HW125130   4.237   5.539   1.444
 8077SOL    HW225131   4.255   5.696   1.489
 8078SOL     OW25132   0.927   1.022   0.709
 8078SOL    HW125133   0.833   1.033   0.739
 8078SOL    HW225134   0.935   0.941   0.651
 8079SOL     OW25135   1.512   1.343   4.972
 8079SOL    HW125136   1.428   1.353   4.918
 8079SOL    HW225137   1.591   1.353   4.912
 8080SOL     OW25138   1.284   3.472   3.113
 8080SOL    HW125139   1.275   3.377   3.084
 8080SOL    HW225140   1.223   3.529   3.059
 8081SOL     OW25141   5.893   4.917   4.805
 8081SOL    HW125142   5.954   4.871   4.741
 8081SOL    HW225143   5.803   4.928   4.763
 8082SOL     OW25144   3.053   1.780   2.595
 8082SOL    HW125145   3.094   1.823   2.515
 8082SOL    HW225146   2.979   1.837   2.629
 8083SOL     OW25147   5.817   2.040   4.882
 8083SOL    HW125148   5.724   2.029   4.919
 8083SOL    HW225149   5.864   2.113   4.933
 8084SOL     OW25150   2.476   0.260   6.377
 8084SOL    HW125151   2.537   0.194   6.335
 8084SOL    HW225152   2.403   0.284   6.312
 8085SOL     OW25153   0.544   5.686   3.855
 8085SOL    HW125154   0.548   5.783   3.880
 8085SOL    HW225155   0.600   5.671   3.773
 8086SOL     OW25156   0.413   1.345   2.292
 8086SOL    HW125157   0.465   1.428   2.310
 8086SOL    HW225158   0.426   1.317   2.197
 8087SOL     OW25159   1.512   0.448   0.214
 8087SOL    HW125160   1.420   0.464   0.177
 8087SOL    HW225161   1.567   0.531   0.202
 8088SOL     OW25162   4.905   6.514   6.148
 8088SOL    HW125163   4.881   6.468   6.234
 8088SOL    HW225164   4.919   6.445   6.076
 8089SOL     OW25165   6.008   2.552   6.315
 8089SOL    HW125166   5.923   2.501   6.303
 8089SOL    HW225167   6.085   2.494   6.289
 8090SOL     OW25168   4.434   1.458   6.335
 8090SOL    HW125169   4.528   1.492   6.339
 8090SOL    HW225170   4.406   1.425   6.425
 8091SOL     OW25171   1.177   4.167   4.992
 8091SOL    HW125172   1.208   4.074   5.014
 8091SOL    HW225173   1.133   4.207   5.072
 8092SOL     OW25174   5.076   2.047   5.438
 8092SOL    HW125175   5.046   2.137   5.407
 8092SOL    HW225176   5.175   2.038   5.423
 8093SOL     OW25177   2.673   6.361   2.704
 8093SOL    HW125178   2.653   6.283   2.763
 8093SOL    HW225179   2.620   6.440   2.735
 8094SOL     OW25180   1.175   4.213   4.283
 8094SOL    HW125181   1.181   4.313   4.283
 8094SOL    HW225182   1.109   4.183   4.214
 8095SOL     OW25183   1.585   4.245   5.460
 8095SOL    HW125184   1.654   4.317   5.452
 8095SOL    HW225185   1.494   4.286   5.463
 8096SOL     OW25186   0.827   6.934   2.369
 8096SOL    HW125187   0.868   6.902   2.283
 8096SOL    HW225188   0.846   6.869   2.442
 8097SOL     OW25189   2.854   6.478   5.037
 8097SOL    HW125190   2.897   6.393   5.008
 8097SOL    HW225191   2.924   6.542   5.069
 8098SOL     OW25192   1.024   5.802   3.843
 8098SOL    HW125193   1.102   5.807   3.906
 8098SOL    HW225194   1.003   5.706   3.824
 8099SOL     OW25195   3.413   5.785   3.944
 8099SOL    HW125196   3.349   5.812   3.872
 8099SOL    HW225197   3.389   5.693   3.976
 8100SOL     OW25198   6.433   0.996   6.196
 8100SOL    HW125199   6.402   1.059   6.125
 8100SOL    HW225200   6.358   0.978   6.260
 8101SOL     OW25201   1.577   6.298   1.120
 8101SOL    HW125202   1.524   6.367   1.170
 8101SOL    HW225203   1.555   6.208   1.156
 8102SOL     OW25204   1.132   3.032   4.638
 8102SOL    HW125205   1.228   3.057   4.654
 8102SOL    HW225206   1.121   3.004   4.543
 8103SOL     OW25207   3.860   1.228   2.495
 8103SOL    HW125208   3.891   1.319   2.524
 8103SOL    HW225209   3.809   1.185   2.569
 8104SOL     OW25210   2.108   6.554   6.137
 8104SOL    HW125211   2.068   6.638   6.100
 8104SOL    HW225212   2.167   6.577   6.215
 8105SOL     OW25213   6.558   1.849   2.900
 8105SOL    HW125214   6.505   1.854   2.985
 8105SOL    HW225215   6.528   1.922   2.838
 8106SOL     OW25216   2.081   6.185   4.417
 8106SOL    HW125217   2.004   6.129   4.446
 8106SOL    HW225218   2.122   6.229   4.496
 8107SOL     OW25219   2.108   5.447   4.568
 8107SOL    HW125220   2.061   5.433   4.655
 8107SOL    HW225221   2.043   5.479   4.499
 8108SOL     OW25222   0.212   0.784   6.373
 8108SOL    HW125223   0.238   0.699   6.327
 8108SOL    HW225224   0.287   0.814   6.432
 8109SOL     OW25225   6.816   3.755   6.501
 8109SOL    HW125226   6.807   3.764   6.401
 8109SOL    HW225227   6.856   3.666   6.523
 8110SOL     OW25228   4.816   4.765   0.915
 8110SOL    HW125229   4.820   4.718   0.827
 8110SOL    HW225230   4.846   4.859   0.904
 8111SOL     OW25231   5.911   1.080   3.355
 8111SOL    HW125232   5.841   1.028   3.404
 8111SOL    HW225233   6.000   1.064   3.398
 8112SOL     OW25234   0.505   2.555   5.189
 8112SOL    HW125235   0.537   2.608   5.110
 8112SOL    HW225236   0.469   2.618   5.259
 8113SOL     OW25237   6.140   3.094   1.070
 8113SOL    HW125238   6.216   3.093   1.135
 8113SOL    HW225239   6.116   3.188   1.047
 8114SOL     OW25240   1.723   4.190   1.839
 8114SOL    HW125241   1.808   4.207   1.788
 8114SOL    HW225242   1.703   4.092   1.839
 8115SOL     OW25243   3.111   6.864   0.173
 8115SOL    HW125244   3.130   6.951   0.220
 8115SOL    HW225245   3.091   6.793   0.240
 8116SOL     OW25246   3.406   5.342   1.018
 8116SOL    HW125247   3.463   5.266   0.988
 8116SOL    HW225248   3.313   5.330   0.982
 8117SOL     OW25249   2.161   6.953   2.979
 8117SOL    HW125250   2.178   7.004   3.063
 8117SOL    HW225251   2.224   6.985   2.908
 8118SOL     OW25252   6.055   3.703   6.620
 8118SOL    HW125253   6.074   3.750   6.706
 8118SOL    HW225254   6.072   3.605   6.631
 8119SOL     OW25255   5.467   5.710   5.378
 8119SOL    HW125256   5.422   5.624   5.400
 8119SOL    HW225257   5.543   5.692   5.314
 8120SOL     OW25258   2.104   5.551   0.615
 8120SOL    HW125259   2.069   5.644   0.620
 8120SOL    HW225260   2.188   5.549   0.561
 8121SOL     OW25261   1.229   4.378   2.846
 8121SOL    HW125262   1.222   4.478   2.839
 8121SOL    HW225263   1.252   4.340   2.756
 8122SOL     OW25264   1.090   4.764   2.684
 8122SOL    HW125265   1.133   4.839   2.634
 8122SOL    HW225266   0.991   4.777   2.685
 8123SOL     OW25267   0.347   1.970   6.948
 8123SOL    HW125268   0.410   1.893   6.943
 8123SOL    HW225269   0.346   2.007   0.022
 8124SOL     OW25270   5.073   6.138   3.908
 8124SOL    HW125271   5.153   6.078   3.913
 8124SOL    HW225272   4.997   6.089   3.863
 8125SOL     OW25273   0.254   0.665   3.143
 8125SOL    HW125274   0.208   0.747   3.108
 8125SOL    HW225275   0.351   0.686   3.158
 8126SOL     OW25276   4.005   4.977   4.145
 8126SOL    HW125277   4.002   5.043   4.070
 8126SOL    HW225278   3.912   4.957   4.176
 8127SOL     OW25279   2.612   2.673   0.513
 8127SOL    HW125280   2.652   2.585   0.489
 8127SOL    HW225281   2.521   2.681   0.472
 8128SOL     OW25282   3.449   2.795   1.732
 8128SOL    HW125283   3.466   2.722   1.666
 8128SOL    HW225284   3.374   2.769   1.793
 8129SOL     OW25285   1.089   2.397   0.347
 8129SOL    HW125286   1.045   2.347   0.272
 8129SOL    HW225287   1.149   2.334   0.398
 8130SOL     OW25288   1.399   5.285   0.215
 8130SOL    HW125289   1.471   5.294   0.145
 8130SOL    HW225290   1.313   5.261   0.170
 8131SOL     OW25291   2.218   2.661   0.734
 8131SOL    HW125292   2.138   2.628   0.784
 8131SOL    HW225293   2.228   2.760   0.748
 8132SOL     OW25294   6.284   0.130   4.006
 8132SOL    HW125295   6.376   0.113   4.042
 8132SOL    HW225296   6.281   0.221   3.964
 8133SOL     OW25297   3.697   5.125   1.105
 8133SOL    HW125298   3.684   5.163   1.196
 8133SOL    HW225299   3.701   5.025   1.111
 8134SOL     OW25300   6.339   1.003   5.578
 8134SOL    HW125301   6.279   1.059   5.636
 8134SOL    HW225302   6.369   0.923   5.629
 8135SOL     OW25303   2.714   0.161   1.929
 8135SOL    HW125304   2.681   0.247   1.970
 8135SOL    HW225305   2.640   0.094   1.929
 8136SOL     OW25306   4.945   5.107   2.405
 8136SOL    HW125307   4.923   5.145   2.495
 8136SOL    HW225308   4.971   5.181   2.343
 8137SOL     OW25309   3.693   1.796   5.421
 8137SOL    HW125310   3.614   1.851   5.450
 8137SOL    HW225311   3.661   1.711   5.378
 8138SOL     OW25312   5.209   1.227   1.751
 8138SOL    HW125313   5.192   1.184   1.840
 8138SOL    HW225314   5.300   1.268   1.752
 8139SOL     OW25315   1.424   1.621   2.691
 8139SOL    HW125316   1.338   1.635   2.642
 8139SOL    HW225317   1.493   1.586   2.628
 8140SOL     OW25318   4.730   1.335   4.663
 8140SOL    HW125319   4.689   1.274   4.596
 8140SOL    HW225320   4.666   1.409   4.684
 8141SOL     OW25321   4.246   5.498   5.712
 8141SOL    HW125322   4.172   5.451   5.663
 8141SOL    HW225323   4.330   5.446   5.704
 8142SOL     OW25324   6.111   4.585   0.465
 8142SOL    HW125325   6.116   4.549   0.558
 8142SOL    HW225326   6.186   4.650   0.450
 8143SOL     OW25327   6.018   4.359   6.269
 8143SOL    HW125328   5.976   4.449   6.257
 8143SOL    HW225329   5.973   4.293   6.208
 8144SOL     OW25330   5.405   6.561   6.718
 8144SOL    HW125331   5.313   6.593   6.742
 8144SOL    HW225332   5.454   6.634   6.672
 8145SOL     OW25333   5.962   6.005   3.220
 8145SOL    HW125334   5.951   5.906   3.212
 8145SOL    HW225335   5.875   6.050   3.202
 8146SOL     OW25336   3.978   0.985   5.809
 8146SOL    HW125337   4.057   1.047   5.807
 8146SOL    HW225338   3.907   1.019   5.747
 8147SOL     OW25339   4.451   1.892   4.149
 8147SOL    HW125340   4.471   1.834   4.229
 8147SOL    HW225341   4.537   1.921   4.108
 8148SOL     OW25342   5.590   2.731   2.440
 8148SOL    HW125343   5.594   2.632   2.425
 8148SOL    HW225344   5.514   2.770   2.389
 8149SOL     OW25345   3.843   5.120   2.662
 8149SOL    HW125346   3.823   5.150   2.569
 8149SOL    HW225347   3.897   5.190   2.709
 8150SOL     OW25348   0.414   5.352   0.618
 8150SOL    HW125349   0.408   5.316   0.711
 8150SOL    HW225350   0.500   5.402   0.608
 8151SOL     OW25351   1.372   2.236   4.152
 8151SOL    HW125352   1.334   2.260   4.062
 8151SOL    HW225353   1.379   2.319   4.208
 8152SOL     OW25354   2.231   0.690   3.673
 8152SOL    HW125355   2.257   0.710   3.579
 8152SOL    HW225356   2.134   0.666   3.676
 8153SOL     OW25357   2.756   0.297   1.410
 8153SOL    HW125358   2.814   0.376   1.431
 8153SOL    HW225359   2.690   0.321   1.340
 8154SOL     OW25360   2.149   6.482   4.097
 8154SOL    HW125361   2.064   6.430   4.110
 8154SOL    HW225362   2.127   6.568   4.051
 8155SOL     OW25363   3.096   3.021   2.219
 8155SOL    HW125364   3.074   3.036   2.316
 8155SOL    HW225365   3.024   2.968   2.176
 8156SOL     OW25366   5.858   0.633   5.275
 8156SOL    HW125367   5.810   0.618   5.361
 8156SOL    HW225368   5.955   0.651   5.294
 8157SOL     OW25369   5.927   4.042   6.432
 8157SOL    HW125370   5.974   4.102   6.496
 8157SOL    HW225371   5.851   3.996   6.478
 8158SOL     OW25372   0.954   5.648   1.283
 8158SOL    HW125373   0.857   5.654   1.257
 8158SOL    HW225374   0.996   5.738   1.273
 8159SOL     OW25375   2.222   5.114   1.730
 8159SOL    HW125376   2.255   5.067   1.648
 8159SOL    HW225377   2.149   5.177   1.705
 8160SOL     OW25378   4.173   2.105   1.112
 8160SOL    HW125379   4.098   2.082   1.050
 8160SOL    HW225380   4.260   2.077   1.071
 8161SOL     OW25381   4.803   1.304   0.202
 8161SOL    HW125382   4.706   1.315   0.179
 8161SOL    HW225383   4.845   1.394   0.210
 8162SOL     OW25384   5.796   6.731   0.905
 8162SOL    HW125385   5.791   6.655   0.841
 8162SOL    HW225386   5.888   6.772   0.901
 8163SOL     OW25387   2.436   4.354   5.306
 8163SOL    HW125388   2.446   4.259   5.336
 8163SOL    HW225389   2.523   4.402   5.315
 8164SOL     OW25390   4.580   2.338   1.158
 8164SOL    HW125391   4.554   2.429   1.188
 8164SOL    HW225392   4.507   2.273   1.181
 8165SOL     OW25393   2.092   4.129   1.407
 8165SOL    HW125394   2.080   4.220   1.366
 8165SOL    HW225395   2.002   4.087   1.421
 8166SOL     OW25396   2.598   0.741   2.113
 8166SOL    HW125397   2.616   0.688   2.030
 8166SOL    HW225398   2.500   0.754   2.123
 8167SOL     OW25399   6.114   3.032   3.493
 8167SOL    HW125400   6.095   2.951   3.437
 8167SOL    HW225401   6.030   3.082   3.510
 8168SOL     OW25402   3.976   1.689   3.177
 8168SOL    HW125403   3.894   1.658   3.224
 8168SOL    HW225404   4.042   1.614   3.170
 8169SOL     OW25405   4.243   3.658   6.791
 8169SOL    HW125406   4.306   3.658   6.868
 8169SOL    HW225407   4.261   3.578   6.733
 8170SOL     OW25408   0.829   5.897   4.075
 8170SOL    HW125409   0.831   5.853   3.985
 8170SOL    HW225410   0.883   5.981   4.072
 8171SOL     OW25411   0.415   1.812   6.567
 8171SOL    HW125412   0.506   1.830   6.528
 8171SOL    HW225413   0.384   1.895   6.614
 8172SOL     OW25414   0.314   6.954   0.072
 8172SOL    HW125415   0.347   7.011   0.147
 8172SOL    HW225416   0.330   7.001   7.004
 8173SOL     OW25417   3.308   2.533   6.988
 8173SOL    HW125418   3.340   2.578   0.052
 8173SOL    HW225419   3.317   2.595   6.910
 8174SOL     OW25420   5.439   1.044   1.364
 8174SOL    HW125421   5.460   1.058   1.267
 8174SOL    HW225422   5.492   1.108   1.419
 8175SOL     OW25423   0.599   1.825   6.365
 8175SOL    HW125424   0.673   1.889   6.385
 8175SOL    HW225425   0.524   1.873   6.319
 8176SOL     OW25426   2.517   5.363   1.981
 8176SOL    HW125427   2.522   5.293   1.909
 8176SOL    HW225428   2.608   5.374   2.022
 8177SOL     OW25429   0.888   6.940   4.406
 8177SOL    HW125430   0.881   6.984   4.495
 8177SOL    HW225431   0.800   6.945   4.358
 8178SOL     OW25432   1.260   6.438   6.717
 8178SOL    HW125433   1.295   6.344   6.719
 8178SOL    HW225434   1.320   6.498   6.770
 8179SOL     OW25435   3.330   2.994   6.813
 8179SOL    HW125436   3.265   3.056   6.770
 8179SOL    HW225437   3.351   3.026   6.906
 8180SOL     OW25438   6.554   6.791   4.312
 8180SOL    HW125439   6.498   6.718   4.351
 8180SOL    HW225440   6.585   6.852   4.385
 8181SOL     OW25441   2.601   2.453   3.149
 8181SOL    HW125442   2.609   2.485   3.243
 8181SOL    HW225443   2.650   2.367   3.139
 8182SOL     OW25444   3.600   2.232   5.463
 8182SOL    HW125445   3.663   2.258   5.535
 8182SOL    HW225446   3.526   2.299   5.456
 8183SOL     OW25447   1.334   3.895   4.687
 8183SOL    HW125448   1.324   3.981   4.636
 8183SOL    HW225449   1.274   3.896   4.767
 8184SOL     OW25450   0.133   0.351   5.492
 8184SOL    HW125451   0.069   0.396   5.555
 8184SOL    HW225452   0.081   0.303   5.420
 8185SOL     OW25453   3.218   1.752   2.187
 8185SOL    HW125454   3.222   1.797   2.098
 8185SOL    HW225455   3.213   1.820   2.260
 8186SOL     OW25456   3.961   5.836   6.055
 8186SOL    HW125457   4.057   5.865   6.063
 8186SOL    HW225458   3.906   5.912   6.021
 8187SOL     OW25459   1.223   2.140   5.593
 8187SOL    HW125460   1.170   2.217   5.627
 8187SOL    HW225461   1.315   2.171   5.569
 8188SOL     OW25462   5.863   2.292   3.005
 8188SOL    HW125463   5.924   2.370   3.010
 8188SOL    HW225464   5.796   2.298   3.079
 8189SOL     OW25465   6.235   4.305   2.601
 8189SOL    HW125466   6.195   4.329   2.690
 8189SOL    HW225467   6.234   4.205   2.590
 8190SOL     OW25468   5.259   3.231   3.646
 8190SOL    HW125469   5.312   3.316   3.647
 8190SOL    HW225470   5.231   3.208   3.739
 8191SOL     OW25471   0.657   5.318   4.236
 8191SOL    HW125472   0.569   5.295   4.278
 8191SOL    HW225473   0.719   5.239   4.243
 8192SOL     OW25474   2.469   4.869   2.166
 8192SOL    HW125475   2.509   4.919   2.242
 8192SOL    HW225476   2.475   4.924   2.083
 8193SOL     OW25477   4.009   6.949   5.052
 8193SOL    HW125478   3.912   6.928   5.047
 8193SOL    HW225479   4.022   0.029   5.051
 8194SOL     OW25480   6.781   0.706   0.071
 8194SOL    HW125481   6.788   0.801   0.101
 8194SOL    HW225482   6.873   0.666   0.066
 8195SOL     OW25483   6.546   6.974   0.247
 8195SOL    HW125484   6.583   6.988   0.339
 8195SOL    HW225485   6.604   0.001   0.181
 8196SOL     OW25486   3.163   6.526   6.498
 8196SOL    HW125487   3.238   6.465   6.525
 8196SOL    HW225488   3.200   6.611   6.462
 8197SOL     OW25489   0.284   0.546   6.266
 8197SOL    HW125490   0.236   0.506   6.188
 8197SOL    HW225491   0.259   0.498   6.350
 8198SOL     OW25492   2.480   6.750   3.314
 8198SOL    HW125493   2.480   6.662   3.363
 8198SOL    HW225494   2.386   6.779   3.298
 8199SOL     OW25495   0.159   3.462   6.497
 8199SOL    HW125496   0.205   3.393   6.554
 8199SOL    HW225497   0.166   3.435   6.401
 8200SOL     OW25498   5.192   4.155   1.058
 8200SOL    HW125499   5.205   4.207   1.142
 8200SOL    HW225500   5.256   4.188   0.988
 8201SOL     OW25501   5.836   7.005   3.430
 8201SOL    HW125502   5.753   0.012   3.381
 8201SOL    HW225503   5.915   7.011   3.368
 8202SOL     OW25504   1.538   4.356   4.102
 8202SOL    HW125505   1.506   4.283   4.041
 8202SOL    HW225506   1.637   4.352   4.111
 8203SOL     OW25507   5.786   3.927   1.217
 8203SOL    HW125508   5.740   3.881   1.293
 8203SOL    HW225509   5.720   3.945   1.144
 8204SOL     OW25510   3.330   0.365   2.212
 8204SOL    HW125511   3.332   0.464   2.222
 8204SOL    HW225512   3.293   0.341   2.122
 8205SOL     OW25513   5.593   5.660   1.676
 8205SOL    HW125514   5.496   5.682   1.683
 8205SOL    HW225515   5.608   5.604   1.594
 8206SOL     OW25516   4.109   2.032   5.290
 8206SOL    HW125517   4.190   1.976   5.312
 8206SOL    HW225518   4.039   2.018   5.360
 8207SOL     OW25519   2.618   5.454   6.439
 8207SOL    HW125520   2.671   5.514   6.499
 8207SOL    HW225521   2.667   5.368   6.427
 8208SOL     OW25522   1.193   4.389   0.832
 8208SOL    HW125523   1.233   4.372   0.922
 8208SOL    HW225524   1.262   4.429   0.772
 8209SOL     OW25525   0.749   0.125   5.278
 8209SOL    HW125526   0.806   0.090   5.204
 8209SOL    HW225527   0.672   0.063   5.292
 8210SOL     OW25528   2.334   1.199   0.053
 8210SOL    HW125529   2.254   1.166   0.104
 8210SOL    HW225530   2.415   1.149   0.084
 8211SOL     OW25531   3.488   2.898   4.211
 8211SOL    HW125532   3.482   2.971   4.279
 8211SOL    HW225533   3.545   2.824   4.246
 8212SOL     OW25534   3.319   0.271   1.284
 8212SOL    HW125535   3.349   0.363   1.257
 8212SOL    HW225536   3.233   0.278   1.335
 8213SOL     OW25537   4.521   4.094   1.575
 8213SOL    HW125538   4.583   4.016   1.589
 8213SOL    HW225539   4.512   4.144   1.661
 8214SOL     OW25540   3.675   5.593   4.353
 8214SOL    HW125541   3.640   5.601   4.260
 8214SOL    HW225542   3.633   5.514   4.398
 8215SOL     OW25543   4.464   6.389   6.810
 8215SOL    HW125544   4.366   6.400   6.794
 8215SOL    HW225545   4.505   6.477   6.833
 8216SOL     OW25546   5.225   5.552   1.501
 8216SOL    HW125547   5.230   5.534   1.599
 8216SOL    HW225548   5.223   5.465   1.451
 8217SOL     OW25549   1.980   5.876   3.624
 8217SOL    HW125550   1.932   5.951   3.579
 8217SOL    HW225551   1.953   5.873   3.721
 8218SOL     OW25552   1.525   0.066   5.386
 8218SOL    HW125553   1.444   0.119   5.413
 8218SOL    HW225554   1.605   0.102   5.434
 8219SOL     OW25555   3.821   3.956   1.266
 8219SOL    HW125556   3.867   3.941   1.178
 8219SOL    HW225557   3.874   3.913   1.339
 8220SOL     OW25558   4.122   3.758   4.135
 8220SOL    HW125559   4.160   3.850   4.142
 8220SOL    HW225560   4.025   3.761   4.160
 8221SOL     OW25561   5.652   3.173   3.155
 8221SOL    HW125562   5.585   3.137   3.090
 8221SOL    HW225563   5.606   3.195   3.241
 8222SOL     OW25564   6.348   2.942   0.645
 8222SOL    HW125565   6.329   2.952   0.742
 8222SOL    HW225566   6.395   3.023   0.611
 8223SOL     OW25567   0.753   5.881   5.270
 8223SOL    HW125568   0.850   5.900   5.255
 8223SOL    HW225569   0.719   5.940   5.343
 8224SOL     OW25570   5.767   1.916   0.451
 8224SOL    HW125571   5.779   1.956   0.542
 8224SOL    HW225572   5.821   1.832   0.444
 8225SOL     OW25573   4.973   1.542   0.735
 8225SOL    HW125574   4.953   1.634   0.702
 8225SOL    HW225575   5.008   1.547   0.828
 8226SOL     OW25576   3.886   0.196   0.421
 8226SOL    HW125577   3.880   0.183   0.520
 8226SOL    HW225578   3.794   0.195   0.381
 8227SOL     OW25579   4.831   2.303   3.092
 8227SOL    HW125580   4.736   2.300   3.122
 8227SOL    HW225581   4.876   2.217   3.118
 8228SOL     OW25582   1.831   0.397   5.533
 8228SOL    HW125583   1.791   0.488   5.549
 8228SOL    HW225584   1.809   0.337   5.609
 8229SOL     OW25585   4.647   4.627   1.401
 8229SOL    HW125586   4.686   4.694   1.338
 8229SOL    HW225587   4.646   4.537   1.357
 8230SOL     OW25588   5.406   0.285   5.888
 8230SOL    HW125589   5.490   0.338   5.894
 8230SOL    HW225590   5.374   0.284   5.793
 8231SOL     OW25591   2.680   1.374   2.959
 8231SOL    HW125592   2.595   1.417   2.987
 8231SOL    HW225593   2.758   1.430   2.987
 8232SOL     OW25594   3.747   6.394   2.794
 8232SOL    HW125595   3.789   6.477   2.757
 8232SOL    HW225596   3.739   6.326   2.721
 8233SOL     OW25597   1.042   0.989   5.777
 8233SOL    HW125598   0.989   0.904   5.777
 8233SOL    HW225599   0.980   1.067   5.764
 8234SOL     OW25600   1.753   1.560   0.645
 8234SOL    HW125601   1.762   1.568   0.744
 8234SOL    HW225602   1.792   1.473   0.614
 8235SOL     OW25603   0.254   5.726   0.927
 8235SOL    HW125604   0.267   5.795   0.999
 8235SOL    HW225605   0.269   5.635   0.966
 8236SOL     OW25606   0.599   6.258   0.489
 8236SOL    HW125607   0.672   6.222   0.430
 8236SOL    HW225608   0.625   6.349   0.522
 8237SOL     OW25609   4.598   4.905   6.705
 8237SOL    HW125610   4.516   4.908   6.649
 8237SOL    HW225611   4.611   4.812   6.741
 8238SOL     OW25612   0.691   4.169   0.080
 8238SOL    HW125613   0.660   4.122   0.163
 8238SOL    HW225614   0.612   4.192   0.024
 8239SOL     OW25615   1.315   1.198   5.260
 8239SOL    HW125616   1.360   1.286   5.272
 8239SOL    HW225617   1.332   1.140   5.340
 8240SOL     OW25618   3.651   3.887   4.475
 8240SOL    HW125619   3.631   3.983   4.456
 8240SOL    HW225620   3.597   3.857   4.554
 8241SOL     OW25621   2.336   3.959   5.971
 8241SOL    HW125622   2.396   4.004   5.905
 8241SOL    HW225623   2.322   3.864   5.944
 8242SOL     OW25624   0.464   3.420   3.941
 8242SOL    HW125625   0.492   3.514   3.957
 8242SOL    HW225626   0.538   3.370   3.896
 8243SOL     OW25627   0.603   4.789   4.625
 8243SOL    HW125628   0.698   4.799   4.597
 8243SOL    HW225629   0.596   4.719   4.695
 8244SOL     OW25630   1.296   0.426   4.683
 8244SOL    HW125631   1.308   0.353   4.616
 8244SOL    HW225632   1.211   0.474   4.665
 8245SOL     OW25633   5.239   1.576   4.043
 8245SOL    HW125634   5.259   1.580   3.945
 8245SOL    HW225635   5.313   1.621   4.094
 8246SOL     OW25636   1.996   5.093   6.478
 8246SOL    HW125637   1.959   5.184   6.498
 8246SOL    HW225638   2.084   5.102   6.432
 8247SOL     OW25639   3.008   5.434   3.156
 8247SOL    HW125640   2.974   5.497   3.085
 8247SOL    HW225641   3.059   5.360   3.113
 8248SOL     OW25642   0.231   5.282   3.043
 8248SOL    HW125643   0.299   5.347   3.076
 8248SOL    HW225644   0.242   5.270   2.944
 8249SOL     OW25645   3.046   1.772   6.212
 8249SOL    HW125646   2.998   1.858   6.195
 8249SOL    HW225647   2.980   1.702   6.239
 8250SOL     OW25648   1.676   1.373   6.570
 8250SOL    HW125649   1.644   1.279   6.575
 8250SOL    HW225650   1.769   1.375   6.531
 8251SOL     OW25651   0.370   1.893   4.565
 8251SOL    HW125652   0.352   1.949   4.484
 8251SOL    HW225653   0.465   1.862   4.563
 8252SOL     OW25654   1.357   2.168   6.571
 8252SOL    HW125655   1.337   2.167   6.473
 8252SOL    HW225656   1.272   2.181   6.623
 8253SOL     OW25657   4.767   5.978   0.986
 8253SOL    HW125658   4.732   5.971   0.893
 8253SOL    HW225659   4.798   6.072   1.003
 8254SOL     OW25660   4.973   4.930   0.006
 8254SOL    HW125661   5.029   4.907   0.086
 8254SOL    HW225662   4.987   4.861   6.954
 8255SOL     OW25663   0.821   6.358   6.619
 8255SOL    HW125664   0.864   6.295   6.555
 8255SOL    HW225665   0.800   6.444   6.573
 8256SOL     OW25666   1.598   5.771   3.581
 8256SOL    HW125667   1.563   5.858   3.615
 8256SOL    HW225668   1.636   5.784   3.490
 8257SOL     OW25669   4.921   3.375   3.006
 8257SOL    HW125670   4.907   3.325   2.921
 8257SOL    HW225671   4.934   3.472   2.986
 8258SOL     OW25672   6.983   3.195   2.360
 8258SOL    HW125673   6.902   3.137   2.348
 8258SOL    HW225674   0.040   3.139   2.393
 8259SOL     OW25675   4.819   1.297   4.279
 8259SOL    HW125676   4.869   1.300   4.192
 8259SOL    HW225677   4.813   1.202   4.310
 8260SOL     OW25678   4.369   1.391   1.141
 8260SOL    HW125679   4.391   1.306   1.188
 8260SOL    HW225680   4.450   1.426   1.095
 8261SOL     OW25681   5.791   0.379   2.982
 8261SOL    HW125682   5.841   0.332   2.910
 8261SOL    HW225683   5.852   0.444   3.028
 8262SOL     OW25684   6.248   3.748   1.977
 8262SOL    HW125685   6.185   3.753   2.054
 8262SOL    HW225686   6.342   3.755   2.010
 8263SOL     OW25687   0.010   2.317   6.113
 8263SOL    HW125688   6.944   2.368   6.108
 8263SOL    HW225689   7.014   2.223   6.080
 8264SOL     OW25690   2.742   6.876   2.412
 8264SOL    HW125691   2.656   6.927   2.402
 8264SOL    HW225692   2.770   6.841   2.323
 8265SOL     OW25693   5.063   0.046   0.661
 8265SOL    HW125694   5.029   0.139   0.673
 8265SOL    HW225695   5.098   0.035   0.568
 8266SOL     OW25696   2.691   0.720   3.810
 8266SOL    HW125697   2.786   0.749   3.798
 8266SOL    HW225698   2.637   0.796   3.847
 8267SOL     OW25699   1.535   4.169   3.261
 8267SOL    HW125700   1.501   4.248   3.211
 8267SOL    HW225701   1.548   4.092   3.198
 8268SOL     OW25702   3.050   4.764   6.213
 8268SOL    HW125703   3.016   4.677   6.180
 8268SOL    HW225704   3.077   4.756   6.308
 8269SOL     OW25705   5.598   2.459   3.601
 8269SOL    HW125706   5.560   2.547   3.573
 8269SOL    HW225707   5.578   2.443   3.698
 8270SOL     OW25708   3.833   0.486   5.910
 8270SOL    HW125709   3.830   0.428   5.991
 8270SOL    HW225710   3.820   0.430   5.828
 8271SOL     OW25711   3.860   6.083   6.039
 8271SOL    HW125712   3.808   6.115   5.960
 8271SOL    HW225713   3.797   6.060   6.113
 8272SOL     OW25714   0.900   0.334   1.588
 8272SOL    HW125715   0.806   0.339   1.622
 8272SOL    HW225716   0.951   0.265   1.640
 8273SOL     OW25717   3.447   0.319   6.850
 8273SOL    HW125718   3.545   0.331   6.866
 8273SOL    HW225719   3.433   0.264   6.767
 8274SOL     OW25720   5.283   5.934   5.940
 8274SOL    HW125721   5.298   5.852   5.885
 8274SOL    HW225722   5.342   5.932   6.020
 8275SOL     OW25723   5.306   0.492   3.782
 8275SOL    HW125724   5.244   0.416   3.799
 8275SOL    HW225725   5.274   0.546   3.704
 8276SOL     OW25726   0.170   2.387   6.371
 8276SOL    HW125727   0.119   2.349   6.294
 8276SOL    HW225728   0.196   2.482   6.351
 8277SOL     OW25729   1.152   6.059   6.306
 8277SOL    HW125730   1.086   5.989   6.279
 8277SOL    HW225731   1.239   6.015   6.328
 8278SOL     OW25732   3.871   1.142   0.669
 8278SOL    HW125733   3.947   1.139   0.734
 8278SOL    HW225734   3.868   1.232   0.626
 8279SOL     OW25735   5.121   5.059   5.893
 8279SOL    HW125736   5.066   5.049   5.976
 8279SOL    HW225737   5.162   5.150   5.891
 8280SOL     OW25738   5.054   3.099   7.007
 8280SOL    HW125739   5.011   3.054   6.929
 8280SOL    HW225740   4.990   3.100   0.065
 8281SOL     OW25741   2.478   5.100   0.012
 8281SOL    HW125742   2.475   5.015   0.065
 8281SOL    HW225743   2.411   5.164   0.049
 8282SOL     OW25744   3.082   2.347   0.469
 8282SOL    HW125745   3.003   2.314   0.520
 8282SOL    HW225746   3.143   2.397   0.531
 8283SOL     OW25747   0.221   5.627   2.982
 8283SOL    HW125748   0.267   5.666   3.061
 8283SOL    HW225749   0.140   5.576   3.011
 8284SOL     OW25750   2.770   1.952   2.114
 8284SOL    HW125751   2.707   1.876   2.129
 8284SOL    HW225752   2.737   2.009   2.039
 8285SOL     OW25753   3.364   4.354   6.305
 8285SOL    HW125754   3.448   4.342   6.251
 8285SOL    HW225755   3.387   4.395   6.393
 8286SOL     OW25756   5.526   1.064   5.580
 8286SOL    HW125757   5.454   1.001   5.552
 8286SOL    HW225758   5.505   1.103   5.670
 8287SOL     OW25759   2.297   0.462   3.093
 8287SOL    HW125760   2.215   0.514   3.118
 8287SOL    HW225761   2.343   0.429   3.176
 8288SOL     OW25762   1.671   1.138   2.956
 8288SOL    HW125763   1.758   1.110   2.998
 8288SOL    HW225764   1.635   1.218   3.004
 8289SOL     OW25765   6.573   1.704   5.937
 8289SOL    HW125766   6.570   1.606   5.914
 8289SOL    HW225767   6.518   1.755   5.872
 8290SOL     OW25768   4.378   2.857   1.591
 8290SOL    HW125769   4.450   2.801   1.633
 8290SOL    HW225770   4.391   2.952   1.617
 8291SOL     OW25771   4.527   4.838   6.295
 8291SOL    HW125772   4.582   4.907   6.342
 8291SOL    HW225773   4.467   4.793   6.360
 8292SOL     OW25774   0.784   3.909   4.619
 8292SOL    HW125775   0.773   3.818   4.659
 8292SOL    HW225776   0.710   3.925   4.553
 8293SOL     OW25777   3.057   5.088   3.833
 8293SOL    HW125778   3.031   5.038   3.915
 8293SOL    HW225779   2.976   5.105   3.777
 8294SOL     OW25780   4.772   3.118   5.869
 8294SOL    HW125781   4.814   3.206   5.889
 8294SOL    HW225782   4.710   3.128   5.791
 8295SOL     OW25783   5.203   3.954   2.365
 8295SOL    HW125784   5.115   4.003   2.364
 8295SOL    HW225785   5.263   3.995   2.433
 8296SOL     OW25786   3.973   6.283   1.654
 8296SOL    HW125787   3.906   6.334   1.600
 8296SOL    HW225788   4.060   6.332   1.654
 8297SOL     OW25789   5.732   4.236   2.972
 8297SOL    HW125790   5.649   4.182   2.985
 8297SOL    HW225791   5.809   4.175   2.953
 8298SOL     OW25792   6.683   0.176   5.965
 8298SOL    HW125793   6.653   0.133   5.880
 8298SOL    HW225794   6.781   0.159   5.977
 8299SOL     OW25795   0.532   3.558   1.062
 8299SOL    HW125796   0.443   3.545   1.105
 8299SOL    HW225797   0.529   3.641   1.006
 8300SOL     OW25798   5.582   4.762   2.788
 8300SOL    HW125799   5.591   4.859   2.810
 8300SOL    HW225800   5.485   4.740   2.777
 8301SOL     OW25801   4.523   6.674   0.650
 8301SOL    HW125802   4.594   6.663   0.719
 8301SOL    HW225803   4.532   6.764   0.607
 8302SOL     OW25804   3.748   6.691   5.203
 8302SOL    HW125805   3.747   6.724   5.108
 8302SOL    HW225806   3.706   6.759   5.262
 8303SOL     OW25807   0.227   6.388   2.818
 8303SOL    HW125808   0.144   6.348   2.858
 8303SOL    HW225809   0.239   6.481   2.851
 8304SOL     OW25810   5.291   3.912   3.160
 8304SOL    HW125811   5.241   3.853   3.097
 8304SOL    HW225812   5.235   3.992   3.184
 8305SOL     OW25813   4.556   6.258   4.549
 8305SOL    HW125814   4.462   6.293   4.547
 8305SOL    HW225815   4.593   6.266   4.641
 8306SOL     OW25816   0.049   0.842   2.251
 8306SOL    HW125817   0.054   0.749   2.215
 8306SOL    HW225818   0.072   0.907   2.179
 8307SOL     OW25819   1.539   3.818   3.052
 8307SOL    HW125820   1.468   3.798   2.985
 8307SOL    HW225821   1.589   3.735   3.074
 8308SOL     OW25822   1.388   5.817   1.199
 8308SOL    HW125823   1.448   5.811   1.119
 8308SOL    HW225824   1.400   5.735   1.255
 8309SOL     OW25825   5.431   4.337   4.182
 8309SOL    HW125826   5.506   4.369   4.124
 8309SOL    HW225827   5.406   4.244   4.155
 8310SOL     OW25828   0.971   0.171   0.306
 8310SOL    HW125829   0.921   0.256   0.287
 8310SOL    HW225830   1.002   0.171   0.401
 8311SOL     OW25831   6.055   6.809   3.075
 8311SOL    HW125832   6.099   6.827   2.987
 8311SOL    HW225833   6.028   6.895   3.118
 8312SOL     OW25834   5.500   1.588   0.311
 8312SOL    HW125835   5.462   1.663   0.365
 8312SOL    HW225836   5.504   1.615   0.215
 8313SOL     OW25837   5.143   2.015   4.885
 8313SOL    HW125838   5.073   1.973   4.943
 8313SOL    HW225839   5.109   2.101   4.847
 8314SOL     OW25840   4.884   6.211   5.024
 8314SOL    HW125841   4.977   6.224   4.989
 8314SOL    HW225842   4.883   6.228   5.122
 8315SOL     OW25843   3.483   3.738   4.968
 8315SOL    HW125844   3.401   3.683   4.982
 8315SOL    HW225845   3.564   3.684   4.991
 8316SOL     OW25846   2.234   2.649   6.129
 8316SOL    HW125847   2.179   2.730   6.149
 8316SOL    HW225848   2.329   2.676   6.114
 8317SOL     OW25849   2.109   1.339   3.774
 8317SOL    HW125850   2.185   1.324   3.837
 8317SOL    HW225851   2.056   1.255   3.765
 8318SOL     OW25852   4.061   0.275   0.096
 8318SOL    HW125853   4.047   0.327   0.180
 8318SOL    HW225854   4.156   0.285   0.065
 8319SOL     OW25855   1.357   6.755   6.581
 8319SOL    HW125856   1.399   6.670   6.614
 8319SOL    HW225857   1.427   6.813   6.540
 8320SOL     OW25858   3.101   3.199   4.675
 8320SOL    HW125859   3.025   3.200   4.611
 8320SOL    HW225860   3.145   3.109   4.674
 8321SOL     OW25861   0.387   6.748   1.789
 8321SOL    HW125862   0.437   6.835   1.795
 8321SOL    HW225863   0.325   6.740   1.866
 8322SOL     OW25864   0.950   7.018   6.707
 8322SOL    HW125865   1.030   6.959   6.704
 8322SOL    HW225866   0.968   0.081   6.652
 8323SOL     OW25867   5.248   3.966   0.455
 8323SOL    HW125868   5.302   3.938   0.534
 8323SOL    HW225869   5.282   4.054   0.421
 8324SOL     OW25870   5.018   5.883   6.098
 8324SOL    HW125871   5.059   5.792   6.104
 8324SOL    HW225872   5.031   5.919   6.005
 8325SOL     OW25873   0.952   5.440   6.142
 8325SOL    HW125874   0.984   5.508   6.077
 8325SOL    HW225875   0.994   5.352   6.121
 8326SOL     OW25876   1.427   3.884   1.045
 8326SOL    HW125877   1.356   3.937   1.091
 8326SOL    HW225878   1.443   3.799   1.096
 8327SOL     OW25879   0.695   0.089   4.914
 8327SOL    HW125880   0.666   0.175   4.872
 8327SOL    HW225881   0.626   0.059   4.980
 8328SOL     OW25882   1.333   7.013   6.940
 8328SOL    HW125883   1.396   6.956   6.993
 8328SOL    HW225884   1.268   0.038   7.002
 8329SOL     OW25885   1.690   2.962   4.883
 8329SOL    HW125886   1.674   3.041   4.943
 8329SOL    HW225887   1.776   2.918   4.908
 8330SOL     OW25888   3.960   1.326   6.060
 8330SOL    HW125889   3.994   1.241   6.099
 8330SOL    HW225890   3.868   1.344   6.096
 8331SOL     OW25891   1.785   2.597   6.151
 8331SOL    HW125892   1.746   2.508   6.125
 8331SOL    HW225893   1.864   2.583   6.210
 8332SOL     OW25894   6.090   5.238   1.830
 8332SOL    HW125895   6.133   5.194   1.908
 8332SOL    HW225896   5.993   5.214   1.826
 8333SOL     OW25897   2.379   4.862   1.028
 8333SOL    HW125898   2.317   4.828   1.099
 8333SOL    HW225899   2.372   4.804   0.947
 8334SOL     OW25900   3.827   1.715   5.939
 8334SOL    HW125901   3.749   1.679   5.992
 8334SOL    HW225902   3.834   1.813   5.956
 8335SOL     OW25903   5.364   3.534   6.129
 8335SOL    HW125904   5.410   3.623   6.124
 8335SOL    HW225905   5.433   3.462   6.132
 8336SOL     OW25906   0.946   4.246   3.696
 8336SOL    HW125907   0.977   4.340   3.707
 8336SOL    HW225908   0.993   4.188   3.762
 8337SOL     OW25909   0.660   1.441   4.948
 8337SOL    HW125910   0.692   1.350   4.975
 8337SOL    HW225911   0.639   1.494   5.030
 8338SOL     OW25912   4.584   5.578   2.442
 8338SOL    HW125913   4.624   5.669   2.454
 8338SOL    HW225914   4.549   5.546   2.530
 8339SOL     OW25915   6.161   6.503   0.582
 8339SOL    HW125916   6.094   6.492   0.656
 8339SOL    HW225917   6.247   6.537   0.620
 8340SOL     OW25918   5.972   2.339   6.794
 8340SOL    HW125919   6.015   2.428   6.804
 8340SOL    HW225920   5.922   2.316   6.878
 8341SOL     OW25921   3.140   0.812   0.715
 8341SOL    HW125922   3.086   0.891   0.743
 8341SOL    HW225923   3.126   0.795   0.617
 8342SOL     OW25924   4.916   0.243   0.284
 8342SOL    HW125925   4.909   0.149   0.250
 8342SOL    HW225926   4.875   0.305   0.217
 8343SOL     OW25927   5.974   4.153   3.555
 8343SOL    HW125928   6.018   4.106   3.479
 8343SOL    HW225929   5.971   4.093   3.635
 8344SOL     OW25930   1.325   5.070   5.241
 8344SOL    HW125931   1.363   5.162   5.256
 8344SOL    HW225932   1.398   5.003   5.246
 8345SOL     OW25933   4.337   1.321   3.500
 8345SOL    HW125934   4.271   1.395   3.516
 8345SOL    HW225935   4.429   1.354   3.522
 8346SOL     OW25936   5.970   3.169   5.043
 8346SOL    HW125937   5.977   3.182   5.142
 8346SOL    HW225938   5.927   3.081   5.023
 8347SOL     OW25939   3.023   0.207   6.979
 8347SOL    HW125940   2.995   0.111   6.980
 8347SOL    HW225941   2.972   0.258   0.029
 8348SOL     OW25942   3.591   6.538   1.915
 8348SOL    HW125943   3.583   6.450   1.962
 8348SOL    HW225944   3.529   6.541   1.836
 8349SOL     OW25945   0.417   6.334   1.873
 8349SOL    HW125946   0.395   6.242   1.841
 8349SOL    HW225947   0.510   6.336   1.908
 8350SOL     OW25948   2.643   0.439   0.557
 8350SOL    HW125949   2.602   0.522   0.596
 8350SOL    HW225950   2.595   0.414   0.473
 8351SOL     OW25951   6.536   3.069   2.723
 8351SOL    HW125952   6.531   3.039   2.819
 8351SOL    HW225953   6.626   3.108   2.705
 8352SOL     OW25954   2.074   6.095   1.586
 8352SOL    HW125955   2.081   6.194   1.575
 8352SOL    HW225956   1.980   6.070   1.608
 8353SOL     OW25957   1.300   4.361   1.981
 8353SOL    HW125958   1.253   4.273   1.969
 8353SOL    HW225959   1.326   4.397   1.892
 8354SOL     OW25960   2.913   0.228   3.136
 8354SOL    HW125961   2.884   0.312   3.091
 8354SOL    HW225962   2.839   0.194   3.194
 8355SOL     OW25963   2.387   5.938   6.764
 8355SOL    HW125964   2.397   5.850   6.716
 8355SOL    HW225965   2.464   5.997   6.740
 8356SOL     OW25966   1.670   5.636   0.878
 8356SOL    HW125967   1.651   5.546   0.838
 8356SOL    HW225968   1.760   5.635   0.921
 8357SOL     OW25969   4.099   6.004   5.699
 8357SOL    HW125970   4.177   5.988   5.639
 8357SOL    HW225971   4.053   5.917   5.718
 8358SOL     OW25972   0.719   1.948   5.000
 8358SOL    HW125973   0.810   1.988   5.010
 8358SOL    HW225974   0.728   1.850   4.984
 8359SOL     OW25975   3.118   2.104   5.688
 8359SOL    HW125976   3.081   2.021   5.647
 8359SOL    HW225977   3.138   2.170   5.616
 8360SOL     OW25978   4.760   6.995   1.510
 8360SOL    HW125979   4.851   6.990   1.469
 8360SOL    HW225980   4.705   0.043   1.462
 8361SOL     OW25981   3.443   0.171   6.637
 8361SOL    HW125982   3.387   0.089   6.648
 8361SOL    HW225983   3.537   0.144   6.616
 8362SOL     OW25984   0.191   3.694   1.673
 8362SOL    HW125985   0.212   3.600   1.646
 8362SOL    HW225986   0.270   3.734   1.719
 8363SOL     OW25987   2.750   3.237   6.900
 8363SOL    HW125988   2.798   3.152   6.920
 8363SOL    HW225989   2.656   3.230   6.933
 8364SOL     OW25990   6.909   3.132   4.322
 8364SOL    HW125991   6.811   3.135   4.301
 8364SOL    HW225992   6.926   3.060   4.389
 8365SOL     OW25993   1.699   2.511   2.531
 8365SOL    HW125994   1.726   2.605   2.549
 8365SOL    HW225995   1.768   2.449   2.570
 8366SOL     OW25996   4.803   5.199   1.981
 8366SOL    HW125997   4.831   5.132   2.050
 8366SOL    HW225998   4.831   5.168   1.891
 8367SOL     OW25999   3.711   5.188   4.636
 8367SOL    HW126000   3.622   5.157   4.669
 8367SOL    HW226001   3.783   5.126   4.668
 8368SOL     OW26002   6.896   6.896   0.358
 8368SOL    HW126003   6.945   6.958   0.297
 8368SOL    HW226004   6.961   6.836   0.406
 8369SOL     OW26005   2.623   0.372   1.156
 8369SOL    HW126006   2.641   0.364   1.058
 8369SOL    HW226007   2.553   0.441   1.172
 8370SOL     OW26008   2.489   2.980   0.390
 8370SOL    HW126009   2.464   2.987   0.486
 8370SOL    HW226010   2.586   2.997   0.379
 8371SOL     OW26011   1.593   4.469   6.463
 8371SOL    HW126012   1.668   4.468   6.396
 8371SOL    HW226013   1.507   4.489   6.416
 8372SOL     OW26014   2.455   5.543   2.716
 8372SOL    HW126015   2.500   5.456   2.734
 8372SOL    HW226016   2.522   5.617   2.726
 8373SOL     OW26017   6.792   1.175   4.466
 8373SOL    HW126018   6.741   1.111   4.410
 8373SOL    HW226019   6.867   1.215   4.413
 8374SOL     OW26020   1.724   0.312   4.508
 8374SOL    HW126021   1.634   0.277   4.478
 8374SOL    HW226022   1.720   0.411   4.516
 8375SOL     OW26023   4.066   1.265   4.473
 8375SOL    HW126024   4.042   1.297   4.381
 8375SOL    HW226025   3.985   1.263   4.530
 8376SOL     OW26026   2.175   0.715   3.159
 8376SOL    HW126027   2.230   0.770   3.096
 8376SOL    HW226028   2.187   0.749   3.252
 8377SOL     OW26029   4.649   5.693   6.917
 8377SOL    HW126030   4.567   5.662   6.869
 8377SOL    HW226031   4.644   5.667   7.013
 8378SOL     OW26032   5.562   5.863   3.753
 8378SOL    HW126033   5.543   5.804   3.831
 8378SOL    HW226034   5.661   5.873   3.742
 8379SOL     OW26035   5.764   1.218   1.852
 8379SOL    HW126036   5.819   1.269   1.786
 8379SOL    HW226037   5.803   1.127   1.865
 8380SOL     OW26038   6.516   5.888   0.783
 8380SOL    HW126039   6.423   5.871   0.753
 8380SOL    HW226040   6.563   5.801   0.797
 8381SOL     OW26041   0.546   2.357   2.045
 8381SOL    HW126042   0.575   2.452   2.044
 8381SOL    HW226043   0.529   2.328   2.139
 8382SOL     OW26044   2.747   0.596   0.936
 8382SOL    HW126045   2.669   0.541   0.905
 8382SOL    HW226046   2.717   0.690   0.952
 8383SOL     OW26047   2.709   6.136   6.443
 8383SOL    HW126048   2.760   6.126   6.357
 8383SOL    HW226049   2.773   6.143   6.519
 8384SOL     OW26050   0.415   2.366   1.177
 8384SOL    HW126051   0.409   2.279   1.226
 8384SOL    HW226052   0.511   2.394   1.170
 8385SOL     OW26053   3.542   3.881   1.322
 8385SOL    HW126054   3.464   3.868   1.260
 8385SOL    HW226055   3.614   3.930   1.274
 8386SOL     OW26056   1.826   5.718   1.978
 8386SOL    HW126057   1.881   5.686   1.900
 8386SOL    HW226058   1.794   5.639   2.030
 8387SOL     OW26059   1.468   1.058   2.456
 8387SOL    HW126060   1.388   1.003   2.480
 8387SOL    HW226061   1.446   1.116   2.377
 8388SOL     OW26062   3.945   6.587   1.093
 8388SOL    HW126063   3.944   6.682   1.125
 8388SOL    HW226064   3.991   6.529   1.160
 8389SOL     OW26065   0.965   2.774   4.219
 8389SOL    HW126066   0.865   2.777   4.213
 8389SOL    HW226067   1.002   2.727   4.139
 8390SOL     OW26068   3.094   0.640   5.930
 8390SOL    HW126069   3.182   0.678   5.901
 8390SOL    HW226070   3.069   0.679   6.019
 8391SOL     OW26071   5.430   5.927   1.479
 8391SOL    HW126072   5.463   5.860   1.413
 8391SOL    HW226073   5.407   5.882   1.565
 8392SOL     OW26074   5.418   6.172   5.099
 8392SOL    HW126075   5.362   6.224   5.034
 8392SOL    HW226076   5.514   6.183   5.075
 8393SOL     OW26077   0.242   6.192   3.065
 8393SOL    HW126078   0.221   6.286   3.040
 8393SOL    HW226079   0.198   6.171   3.153
 8394SOL     OW26080   0.694   2.084   2.786
 8394SOL    HW126081   0.606   2.073   2.739
 8394SOL    HW226082   0.681   2.066   2.884
 8395SOL     OW26083   6.745   5.834   5.154
 8395SOL    HW126084   6.680   5.769   5.192
 8395SOL    HW226085   6.837   5.814   5.187
 8396SOL     OW26086   4.995   3.631   2.322
 8396SOL    HW126087   4.969   3.540   2.291
 8396SOL    HW226088   4.998   3.693   2.244
 8397SOL     OW26089   2.117   5.973   3.294
 8397SOL    HW126090   2.116   5.974   3.194
 8397SOL    HW226091   2.173   6.049   3.327
 8398SOL     OW26092   4.404   1.461   0.493
 8398SOL    HW126093   4.388   1.363   0.500
 8398SOL    HW226094   4.480   1.478   0.430
 8399SOL     OW26095   5.887   6.266   0.381
 8399SOL    HW126096   5.986   6.274   0.386
 8399SOL    HW226097   5.853   6.218   0.461
 8400SOL     OW26098   6.523   0.667   2.676
 8400SOL    HW126099   6.622   0.676   2.689
 8400SOL    HW226100   6.503   0.652   2.579
 8401SOL     OW26101   3.009   4.466   6.397
 8401SOL    HW126102   2.924   4.488   6.445
 8401SOL    HW226103   3.085   4.515   6.439
 8402SOL     OW26104   4.712   1.647   6.952
 8402SOL    HW126105   4.793   1.594   6.926
 8402SOL    HW226106   4.731   1.699   0.016
 8403SOL     OW26107   1.608   1.168   4.626
 8403SOL    HW126108   1.518   1.186   4.588
 8403SOL    HW226109   1.646   1.253   4.664
 8404SOL     OW26110   4.567   5.395   5.733
 8404SOL    HW126111   4.577   5.431   5.826
 8404SOL    HW226112   4.627   5.316   5.721
 8405SOL     OW26113   0.422   2.580   6.029
 8405SOL    HW126114   0.487   2.511   5.998
 8405SOL    HW226115   0.472   2.661   6.060
 8406SOL     OW26116   5.088   2.687   1.279
 8406SOL    HW126117   5.111   2.622   1.352
 8406SOL    HW226118   5.144   2.667   1.199
 8407SOL     OW26119   4.737   4.171   3.172
 8407SOL    HW126120   4.681   4.251   3.148
 8407SOL    HW226121   4.822   4.174   3.120
 8408SOL     OW26122   4.748   2.196   4.772
 8408SOL    HW126123   4.659   2.182   4.728
 8408SOL    HW226124   4.741   2.179   4.870
 8409SOL     OW26125   1.304   1.508   3.852
 8409SOL    HW126126   1.269   1.415   3.839
 8409SOL    HW226127   1.299   1.532   3.949
 8410SOL     OW26128   4.355   6.871   1.406
 8410SOL    HW126129   4.265   6.838   1.435
 8410SOL    HW226130   4.411   6.793   1.377
 8411SOL     OW26131   1.627   4.185   4.833
 8411SOL    HW126132   1.534   4.219   4.831
 8411SOL    HW226133   1.633   4.109   4.897
 8412SOL     OW26134   5.158   2.561   3.297
 8412SOL    HW126135   5.201   2.634   3.243
 8412SOL    HW226136   5.059   2.579   3.304
 8413SOL     OW26137   3.514   4.972   0.665
 8413SOL    HW126138   3.512   4.880   0.705
 8413SOL    HW226139   3.608   4.993   0.638
 8414SOL     OW26140   4.237   6.637   2.991
 8414SOL    HW126141   4.326   6.677   2.971
 8414SOL    HW226142   4.238   6.596   3.082
 8415SOL     OW26143   6.463   4.099   2.748
 8415SOL    HW126144   6.508   4.172   2.696
 8415SOL    HW226145   6.411   4.041   2.685
 8416SOL     OW26146   5.827   3.841   1.917
 8416SOL    HW126147   5.732   3.870   1.926
 8416SOL    HW226148   5.872   3.848   2.007
 8417SOL     OW26149   2.469   6.115   6.104
 8417SOL    HW126150   2.411   6.120   6.022
 8417SOL    HW226151   2.432   6.175   6.175
 8418SOL     OW26152   6.550   5.888   3.214
 8418SOL    HW126153   6.488   5.820   3.174
 8418SOL    HW226154   6.644   5.855   3.207
 8419SOL     OW26155   4.422   0.751   3.178
 8419SOL    HW126156   4.488   0.727   3.106
 8419SOL    HW226157   4.331   0.759   3.138
 8420SOL     OW26158   3.640   0.697   6.024
 8420SOL    HW126159   3.678   0.624   5.968
 8420SOL    HW226160   3.626   0.664   6.118
 8421SOL     OW26161   1.762   6.569   2.259
 8421SOL    HW126162   1.857   6.546   2.237
 8421SOL    HW226163   1.759   6.626   2.341
 8422SOL     OW26164   4.253   6.998   0.595
 8422SOL    HW126165   4.238   6.991   0.694
 8422SOL    HW226166   4.235   6.909   0.553
 8423SOL     OW26167   3.479   4.179   0.839
 8423SOL    HW126168   3.400   4.133   0.879
 8423SOL    HW226169   3.549   4.193   0.908
 8424SOL     OW26170   3.537   1.436   3.076
 8424SOL    HW126171   3.478   1.504   3.031
 8424SOL    HW226172   3.622   1.427   3.024
 8425SOL     OW26173   6.316   4.782   0.455
 8425SOL    HW126174   6.301   4.854   0.387
 8425SOL    HW226175   6.400   4.733   0.433
 8426SOL     OW26176   3.899   4.006   3.039
 8426SOL    HW126177   3.962   3.935   3.007
 8426SOL    HW226178   3.903   4.011   3.139
 8427SOL     OW26179   2.095   4.122   6.484
 8427SOL    HW126180   2.191   4.111   6.460
 8427SOL    HW226181   2.065   4.214   6.458
 8428SOL     OW26182   6.796   3.936   2.089
 8428SOL    HW126183   6.846   3.922   2.174
 8428SOL    HW226184   6.860   3.958   2.015
 8429SOL     OW26185   1.592   6.201   3.891
 8429SOL    HW126186   1.553   6.241   3.808
 8429SOL    HW226187   1.555   6.109   3.905
 8430SOL     OW26188   4.275   4.965   2.794
 8430SOL    HW126189   4.214   4.895   2.831
 8430SOL    HW226190   4.362   4.964   2.843
 8431SOL     OW26191   3.185   4.817   1.362
 8431SOL    HW126192   3.186   4.815   1.262
 8431SOL    HW226193   3.183   4.723   1.397
 8432SOL     OW26194   3.716   6.589   6.535
 8432SOL    HW126195   3.762   6.520   6.480
 8432SOL    HW226196   3.650   6.639   6.479
 8433SOL     OW26197   1.271   2.132   6.302
 8433SOL    HW126198   1.346   2.153   6.238
 8433SOL    HW226199   1.266   2.033   6.316
 8434SOL     OW26200   5.133   6.627   5.481
 8434SOL    HW126201   5.181   6.547   5.444
 8434SOL    HW226202   5.119   6.615   5.579
 8435SOL     OW26203   4.157   2.096   1.380
 8435SOL    HW126204   4.148   2.090   1.280
 8435SOL    HW226205   4.239   2.149   1.403
 8436SOL     OW26206   4.275   4.434   1.730
 8436SOL    HW126207   4.283   4.436   1.630
 8436SOL    HW226208   4.325   4.355   1.766
 8437SOL     OW26209   0.809   1.786   0.896
 8437SOL    HW126210   0.753   1.735   0.961
 8437SOL    HW226211   0.750   1.837   0.834
 8438SOL     OW26212   1.794   5.260   2.585
 8438SOL    HW126213   1.837   5.226   2.501
 8438SOL    HW226214   1.863   5.308   2.639
 8439SOL     OW26215   6.932   5.318   2.395
 8439SOL    HW126216   6.946   5.222   2.419
 8439SOL    HW226217   6.834   5.336   2.385
 8440SOL     OW26218   0.783   1.439   1.789
 8440SOL    HW126219   0.777   1.340   1.776
 8440SOL    HW226220   0.808   1.459   1.883
 8441SOL     OW26221   4.399   5.642   6.299
 8441SOL    HW126222   4.427   5.578   6.227
 8441SOL    HW226223   4.454   5.725   6.291
 8442SOL     OW26224   2.035   4.787   6.978
 8442SOL    HW126225   1.941   4.817   6.964
 8442SOL    HW226226   2.094   4.828   6.908
 8443SOL     OW26227   1.692   7.010   3.005
 8443SOL    HW126228   1.605   0.030   2.976
 8443SOL    HW226229   1.681   6.968   3.095
 8444SOL     OW26230   3.483   6.460   3.246
 8444SOL    HW126231   3.522   6.416   3.165
 8444SOL    HW226232   3.548   6.525   3.283
 8445SOL     OW26233   3.647   4.914   2.546
 8445SOL    HW126234   3.729   4.936   2.597
 8445SOL    HW226235   3.673   4.865   2.462
 8446SOL     OW26236   5.665   4.643   2.151
 8446SOL    HW126237   5.729   4.615   2.079
 8446SOL    HW226238   5.621   4.729   2.126
 8447SOL     OW26239   4.865   2.640   1.891
 8447SOL    HW126240   4.772   2.677   1.887
 8447SOL    HW226241   4.869   2.554   1.841
 8448SOL     OW26242   0.445   3.556   6.527
 8448SOL    HW126243   0.479   3.527   6.617
 8448SOL    HW226244   0.375   3.491   6.496
 8449SOL     OW26245   1.136   3.351   4.642
 8449SOL    HW126246   1.197   3.272   4.646
 8449SOL    HW226247   1.077   3.343   4.562
 8450SOL     OW26248   2.504   5.733   3.217
 8450SOL    HW126249   2.572   5.663   3.193
 8450SOL    HW226250   2.413   5.701   3.191
 8451SOL     OW26251   3.822   2.729   1.320
 8451SOL    HW126252   3.876   2.726   1.236
 8451SOL    HW226253   3.832   2.643   1.370
 8452SOL     OW26254   6.899   6.934   0.837
 8452SOL    HW126255   6.937   6.980   0.917
 8452SOL    HW226256   6.971   6.880   0.792
 8453SOL     OW26257   6.653   4.016   5.931
 8453SOL    HW126258   6.652   3.951   5.855
 8453SOL    HW226259   6.586   4.089   5.913
 8454SOL     OW26260   1.735   0.054   4.315
 8454SOL    HW126261   1.667   0.126   4.298
 8454SOL    HW226262   1.766   0.016   4.228
 8455SOL     OW26263   4.777   1.406   1.022
 8455SOL    HW126264   4.768   1.357   1.109
 8455SOL    HW226265   4.833   1.352   0.960
 8456SOL     OW26266   5.159   5.347   3.204
 8456SOL    HW126267   5.073   5.296   3.196
 8456SOL    HW226268   5.228   5.304   3.146
 8457SOL     OW26269   0.104   6.032   5.841
 8457SOL    HW126270   0.119   6.129   5.823
 8457SOL    HW226271   0.026   6.000   5.788
 8458SOL     OW26272   1.622   1.367   0.409
 8458SOL    HW126273   1.685   1.292   0.432
 8458SOL    HW226274   1.602   1.420   0.491
 8459SOL     OW26275   3.435   5.726   2.139
 8459SOL    HW126276   3.422   5.803   2.077
 8459SOL    HW226277   3.427   5.757   2.233
 8460SOL     OW26278   4.791   1.807   0.423
 8460SOL    HW126279   4.880   1.837   0.457
 8460SOL    HW226280   4.719   1.863   0.462
 8461SOL     OW26281   0.030   3.904   1.563
 8461SOL    HW126282   6.954   3.874   1.567
 8461SOL    HW226283   0.089   3.830   1.597
 8462SOL     OW26284   3.468   4.547   6.474
 8462SOL    HW126285   3.442   4.636   6.512
 8462SOL    HW226286   3.521   4.560   6.391
 8463SOL     OW26287   6.607   1.651   0.167
 8463SOL    HW126288   6.653   1.699   0.242
 8463SOL    HW226289   6.656   1.669   0.081
 8464SOL     OW26290   0.064   3.214   0.084
 8464SOL    HW126291   0.139   3.163   0.128
 8464SOL    HW226292   0.079   3.217   7.005
 8465SOL     OW26293   4.104   3.206   1.112
 8465SOL    HW126294   4.063   3.210   1.021
 8465SOL    HW226295   4.170   3.281   1.122
 8466SOL     OW26296   5.482   0.248   5.410
 8466SOL    HW126297   5.570   0.227   5.453
 8466SOL    HW226298   5.497   0.312   5.335
 8467SOL     OW26299   3.443   1.256   1.061
 8467SOL    HW126300   3.404   1.238   1.151
 8467SOL    HW226301   3.534   1.215   1.055
 8468SOL     OW26302   6.429   3.211   6.913
 8468SOL    HW126303   6.506   3.244   6.858
 8468SOL    HW226304   6.387   3.288   6.961
 8469SOL     OW26305   3.585   2.727   5.767
 8469SOL    HW126306   3.617   2.801   5.827
 8469SOL    HW226307   3.485   2.730   5.762
 8470SOL     OW26308   1.484   4.872   1.418
 8470SOL    HW126309   1.413   4.935   1.387
 8470SOL    HW226310   1.446   4.807   1.484
 8471SOL     OW26311   3.476   1.970   5.427
 8471SOL    HW126312   3.518   2.054   5.462
 8471SOL    HW226313   3.464   1.978   5.328
 8472SOL     OW26314   5.530   1.420   5.961
 8472SOL    HW126315   5.591   1.460   6.030
 8472SOL    HW226316   5.473   1.351   6.004
 8473SOL     OW26317   4.992   4.511   6.295
 8473SOL    HW126318   4.917   4.575   6.278
 8473SOL    HW226319   4.975   4.462   6.381
 8474SOL     OW26320   3.120   3.662   2.607
 8474SOL    HW126321   3.057   3.710   2.668
 8474SOL    HW226322   3.125   3.710   2.519
 8475SOL     OW26323   6.549   2.869   1.726
 8475SOL    HW126324   6.598   2.798   1.777
 8475SOL    HW226325   6.590   2.880   1.635
 8476SOL     OW26326   6.164   0.282   1.679
 8476SOL    HW126327   6.102   0.278   1.757
 8476SOL    HW226328   6.160   0.197   1.628
 8477SOL     OW26329   5.954   6.581   1.368
 8477SOL    HW126330   5.927   6.521   1.293
 8477SOL    HW226331   6.053   6.576   1.381
 8478SOL     OW26332   0.298   6.769   4.900
 8478SOL    HW126333   0.238   6.833   4.949
 8478SOL    HW226334   0.270   6.764   4.804
 8479SOL     OW26335   1.026   2.250   1.284
 8479SOL    HW126336   1.060   2.217   1.372
 8479SOL    HW226337   1.097   2.304   1.239
 8480SOL     OW26338   5.033   4.169   0.184
 8480SOL    HW126339   5.048   4.070   0.184
 8480SOL    HW226340   5.025   4.201   0.278
 8481SOL     OW26341   3.883   2.196   3.535
 8481SOL    HW126342   3.923   2.130   3.599
 8481SOL    HW226343   3.924   2.185   3.445
 8482SOL     OW26344   4.559   1.395   0.111
 8482SOL    HW126345   4.548   1.371   0.015
 8482SOL    HW226346   4.477   1.366   0.162
 8483SOL     OW26347   2.941   6.214   3.768
 8483SOL    HW126348   2.960   6.186   3.862
 8483SOL    HW226349   2.847   6.249   3.763
 8484SOL     OW26350   6.156   5.748   4.499
 8484SOL    HW126351   6.226   5.717   4.434
 8484SOL    HW226352   6.078   5.786   4.448
 8485SOL     OW26353   2.783   2.422   6.796
 8485SOL    HW126354   2.746   2.514   6.803
 8485SOL    HW226355   2.805   2.388   6.888
 8486SOL     OW26356   1.229   0.908   2.572
 8486SOL    HW126357   1.148   0.850   2.580
 8486SOL    HW226358   1.310   0.850   2.560
 8487SOL     OW26359   5.499   1.874   5.838
 8487SOL    HW126360   5.438   1.914   5.770
 8487SOL    HW226361   5.540   1.791   5.801
 8488SOL     OW26362   5.030   5.413   1.907
 8488SOL    HW126363   4.950   5.362   1.874
 8488SOL    HW226364   5.100   5.348   1.936
 8489SOL     OW26365   5.271   0.865   1.528
 8489SOL    HW126366   5.338   0.926   1.486
 8489SOL    HW226367   5.181   0.882   1.487
 8490SOL     OW26368   2.430   6.916   0.016
 8490SOL    HW126369   2.485   6.899   0.098
 8490SOL    HW226370   2.478   6.980   6.976
 8491SOL     OW26371   3.126   5.964   2.388
 8491SOL    HW126372   3.072   5.887   2.423
 8491SOL    HW226373   3.103   6.047   2.439
 8492SOL     OW26374   5.689   4.948   4.625
 8492SOL    HW126375   5.738   5.035   4.612
 8492SOL    HW226376   5.592   4.967   4.640
 8493SOL     OW26377   3.813   0.542   0.050
 8493SOL    HW126378   3.746   0.529   0.123
 8493SOL    HW226379   3.782   0.494   6.987
 8494SOL     OW26380   5.843   5.210   2.200
 8494SOL    HW126381   5.827   5.130   2.142
 8494SOL    HW226382   5.765   5.272   2.192
 8495SOL     OW26383   6.700   6.245   0.300
 8495SOL    HW126384   6.652   6.291   0.225
 8495SOL    HW226385   6.798   6.266   0.296
 8496SOL     OW26386   4.911   1.738   2.212
 8496SOL    HW126387   4.838   1.765   2.149
 8496SOL    HW226388   4.871   1.693   2.292
 8497SOL     OW26389   6.496   0.793   3.990
 8497SOL    HW126390   6.400   0.787   3.961
 8497SOL    HW226391   6.533   0.701   4.000
 8498SOL     OW26392   4.838   6.840   4.216
 8498SOL    HW126393   4.864   6.883   4.130
 8498SOL    HW226394   4.829   6.742   4.203
 8499SOL     OW26395   6.448   6.122   6.770
 8499SOL    HW126396   6.420   6.163   6.683
 8499SOL    HW226397   6.547   6.111   6.771
 8500SOL     OW26398   1.979   0.558   5.798
 8500SOL    HW126399   2.005   0.541   5.703
 8500SOL    HW226400   1.985   0.656   5.817
 8501SOL     OW26401   0.723   1.305   0.146
 8501SOL    HW126402   0.800   1.359   0.181
 8501SOL    HW226403   0.696   1.237   0.214
 8502SOL     OW26404   0.255   2.987   7.006
 8502SOL    HW126405   0.296   2.910   0.036
 8502SOL    HW226406   0.173   2.956   6.958
 8503SOL     OW26407   6.001   5.996   4.192
 8503SOL    HW126408   6.097   5.995   4.221
 8503SOL    HW226409   5.997   5.998   4.092
 8504SOL     OW26410   2.430   5.035   2.917
 8504SOL    HW126411   2.522   5.019   2.881
 8504SOL    HW226412   2.398   4.952   2.964
 8505SOL     OW26413   5.163   3.199   2.531
 8505SOL    HW126414   5.101   3.121   2.527
 8505SOL    HW226415   5.248   3.173   2.577
 8506SOL     OW26416   2.641   0.015   6.918
 8506SOL    HW126417   2.710   6.990   6.975
 8506SOL    HW226418   2.685   0.084   6.860
 8507SOL     OW26419   4.850   6.093   5.773
 8507SOL    HW126420   4.938   6.131   5.745
 8507SOL    HW226421   4.776   6.141   5.725
 8508SOL     OW26422   4.194   1.554   0.146
 8508SOL    HW126423   4.268   1.552   0.079
 8508SOL    HW226424   4.145   1.640   0.138
 8509SOL     OW26425   5.826   0.745   3.639
 8509SOL    HW126426   5.781   0.676   3.697
 8509SOL    HW226427   5.923   0.722   3.630
 8510SOL     OW26428   5.959   2.380   4.596
 8510SOL    HW126429   5.901   2.304   4.624
 8510SOL    HW226430   5.904   2.447   4.545
 8511SOL     OW26431   5.867   2.986   1.664
 8511SOL    HW126432   5.900   3.077   1.688
 8511SOL    HW226433   5.929   2.944   1.598
 8512SOL     OW26434   1.570   6.949   4.708
 8512SOL    HW126435   1.547   0.020   4.743
 8512SOL    HW226436   1.559   6.948   4.609
 8513SOL     OW26437   6.096   6.193   6.561
 8513SOL    HW126438   6.092   6.132   6.640
 8513SOL    HW226439   6.010   6.243   6.554
 8514SOL     OW26440   2.420   6.450   4.420
 8514SOL    HW126441   2.348   6.519   4.411
 8514SOL    HW226442   2.508   6.495   4.434
 8515SOL     OW26443   5.016   2.090   1.495
 8515SOL    HW126444   4.970   2.003   1.511
 8515SOL    HW226445   5.098   2.096   1.553
 8516SOL     OW26446   6.615   2.770   2.265
 8516SOL    HW126447   6.679   2.710   2.217
 8516SOL    HW226448   6.537   2.717   2.297
 8517SOL     OW26449   1.528   2.576   6.632
 8517SOL    HW126450   1.436   2.615   6.626
 8517SOL    HW226451   1.575   2.589   6.544
 8518SOL     OW26452   3.885   5.446   0.207
 8518SOL    HW126453   3.894   5.511   0.282
 8518SOL    HW226454   3.794   5.405   0.208
 8519SOL     OW26455   0.582   5.528   2.490
 8519SOL    HW126456   0.678   5.549   2.510
 8519SOL    HW226457   0.532   5.612   2.470
 8520SOL     OW26458   4.288   0.845   0.126
 8520SOL    HW126459   4.194   0.842   0.161
 8520SOL    HW226460   4.350   0.874   0.198
 8521SOL     OW26461   1.584   5.809   5.830
 8521SOL    HW126462   1.592   5.801   5.929
 8521SOL    HW226463   1.495   5.848   5.806
 8522SOL     OW26464   1.226   6.104   5.243
 8522SOL    HW126465   1.178   6.018   5.260
 8522SOL    HW226466   1.324   6.086   5.229
 8523SOL     OW26467   1.490   6.527   6.879
 8523SOL    HW126468   1.461   6.586   6.954
 8523SOL    HW226469   1.584   6.552   6.852
 8524SOL     OW26470   1.526   3.319   6.226
 8524SOL    HW126471   1.586   3.275   6.293
 8524SOL    HW226472   1.577   3.335   6.141
 8525SOL     OW26473   6.410   3.159   3.159
 8525SOL    HW126474   6.374   3.134   3.069
 8525SOL    HW226475   6.335   3.192   3.216
 8526SOL     OW26476   2.377   2.714   2.522
 8526SOL    HW126477   2.284   2.725   2.557
 8526SOL    HW226478   2.374   2.662   2.436
 8527SOL     OW26479   4.404   0.720   4.737
 8527SOL    HW126480   4.470   0.646   4.730
 8527SOL    HW226481   4.314   0.682   4.761
 8528SOL     OW26482   4.673   2.674   6.204
 8528SOL    HW126483   4.712   2.732   6.133
 8528SOL    HW226484   4.679   2.578   6.176
 8529SOL     OW26485   1.038   4.857   6.844
 8529SOL    HW126486   1.081   4.931   6.791
 8529SOL    HW226487   0.942   4.878   6.858
 8530SOL     OW26488   1.954   3.932   5.358
 8530SOL    HW126489   1.936   3.876   5.277
 8530SOL    HW226490   2.053   3.939   5.371
 8531SOL     OW26491   4.839   4.638   2.274
 8531SOL    HW126492   4.786   4.683   2.203
 8531SOL    HW226493   4.796   4.652   2.363
 8532SOL     OW26494   3.484   4.037   6.149
 8532SOL    HW126495   3.453   4.067   6.239
 8532SOL    HW226496   3.406   4.002   6.097
 8533SOL     OW26497   3.546   1.063   5.160
 8533SOL    HW126498   3.586   0.995   5.099
 8533SOL    HW226499   3.560   1.154   5.123
 8534SOL     OW26500   1.469   3.135   2.784
 8534SOL    HW126501   1.471   3.049   2.733
 8534SOL    HW226502   1.423   3.205   2.729
 8535SOL     OW26503   0.437   2.427   4.721
 8535SOL    HW126504   0.390   2.515   4.717
 8535SOL    HW226505   0.370   2.353   4.733
 8536SOL     OW26506   0.439   1.520   6.169
 8536SOL    HW126507   0.367   1.569   6.119
 8536SOL    HW226508   0.527   1.535   6.124
 8537SOL     OW26509   5.704   0.544   2.095
 8537SOL    HW126510   5.652   0.526   2.178
 8537SOL    HW226511   5.690   0.639   2.066
 8538SOL     OW26512   5.983   0.545   4.764
 8538SOL    HW126513   5.936   0.485   4.700
 8538SOL    HW226514   6.078   0.557   4.736
 8539SOL     OW26515   0.422   3.311   2.211
 8539SOL    HW126516   0.488   3.386   2.218
 8539SOL    HW226517   0.334   3.348   2.180
 8540SOL     OW26518   3.927   0.445   0.317
 8540SOL    HW126519   3.914   0.352   0.352
 8540SOL    HW226520   3.881   0.454   0.229
 8541SOL     OW26521   3.130   0.877   4.756
 8541SOL    HW126522   3.128   0.942   4.680
 8541SOL    HW226523   3.053   0.896   4.817
 8542SOL     OW26524   1.636   5.016   0.049
 8542SOL    HW126525   1.577   5.089   0.015
 8542SOL    HW226526   1.647   4.946   6.998
 8543SOL     OW26527   2.167   1.802   6.147
 8543SOL    HW126528   2.117   1.868   6.092
 8543SOL    HW226529   2.233   1.850   6.205
 8544SOL     OW26530   4.915   3.726   5.291
 8544SOL    HW126531   4.839   3.721   5.356
 8544SOL    HW226532   4.900   3.660   5.218
 8545SOL     OW26533   3.132   0.484   6.414
 8545SOL    HW126534   3.161   0.521   6.502
 8545SOL    HW226535   3.202   0.500   6.345
 8546SOL     OW26536   5.719   0.510   1.399
 8546SOL    HW126537   5.686   0.597   1.362
 8546SOL    HW226538   5.722   0.515   1.498
 8547SOL     OW26539   6.259   6.210   5.758
 8547SOL    HW126540   6.334   6.148   5.781
 8547SOL    HW226541   6.280   6.302   5.789
 8548SOL     OW26542   0.355   2.903   6.218
 8548SOL    HW126543   0.414   2.910   6.137
 8548SOL    HW226544   0.360   2.989   6.270
 8549SOL     OW26545   1.706   0.681   3.064
 8549SOL    HW126546   1.687   0.779   3.069
 8549SOL    HW226547   1.645   0.638   2.998
 8550SOL     OW26548   6.866   4.730   6.513
 8550SOL    HW126549   6.944   4.787   6.537
 8550SOL    HW226550   6.890   4.634   6.525
 8551SOL     OW26551   2.065   1.938   5.734
 8551SOL    HW126552   1.996   1.914   5.666
 8551SOL    HW226553   2.153   1.952   5.689
 8552SOL     OW26554   2.626   2.032   3.414
 8552SOL    HW126555   2.665   1.940   3.402
 8552SOL    HW226556   2.602   2.045   3.510
 8553SOL     OW26557   5.349   3.134   0.082
 8553SOL    HW126558   5.252   3.149   0.064
 8553SOL    HW226559   5.398   3.128   7.015
 8554SOL     OW26560   1.256   0.485   0.110
 8554SOL    HW126561   1.193   0.471   0.186
 8554SOL    HW226562   1.204   0.502   0.026
 8555SOL     OW26563   4.393   0.963   4.631
 8555SOL    HW126564   4.358   0.969   4.538
 8555SOL    HW226565   4.393   0.868   4.661
 8556SOL     OW26566   1.519   6.550   0.715
 8556SOL    HW126567   1.549   6.508   0.801
 8556SOL    HW226568   1.560   6.502   0.638
 8557SOL     OW26569   0.600   0.911   0.331
 8557SOL    HW126570   0.576   1.005   0.354
 8557SOL    HW226571   0.681   0.910   0.272
 8558SOL     OW26572   2.854   5.151   3.683
 8558SOL    HW126573   2.842   5.235   3.630
 8558SOL    HW226574   2.766   5.123   3.721
 8559SOL     OW26575   0.877   5.534   2.589
 8559SOL    HW126576   0.936   5.578   2.658
 8559SOL    HW226577   0.856   5.441   2.618
 8560SOL     OW26578   2.882   4.226   1.670
 8560SOL    HW126579   2.915   4.142   1.712
 8560SOL    HW226580   2.903   4.304   1.728
 8561SOL     OW26581   4.683   6.985   2.250
 8561SOL    HW126582   4.732   0.047   2.218
 8561SOL    HW226583   4.741   6.933   2.312
 8562SOL     OW26584   4.588   1.143   6.952
 8562SOL    HW126585   4.490   1.144   6.933
 8562SOL    HW226586   4.616   1.051   6.979
 8563SOL     OW26587   1.936   5.178   2.352
 8563SOL    HW126588   2.028   5.216   2.343
 8563SOL    HW226589   1.932   5.090   2.305
 8564SOL     OW26590   4.491   0.601   6.861
 8564SOL    HW126591   4.424   0.674   6.874
 8564SOL    HW226592   4.558   0.629   6.792
 8565SOL     OW26593   2.741   5.315   1.121
 8565SOL    HW126594   2.767   5.412   1.121
 8565SOL    HW226595   2.657   5.303   1.175
 8566SOL     OW26596   3.299   1.022   2.908
 8566SOL    HW126597   3.358   1.060   2.979
 8566SOL    HW226598   3.344   1.031   2.819
 8567SOL     OW26599   2.578   1.965   1.829
 8567SOL    HW126600   2.639   2.019   1.886
 8567SOL    HW226601   2.503   2.024   1.796
 8568SOL     OW26602   6.750   0.991   0.079
 8568SOL    HW126603   6.792   0.994   7.008
 8568SOL    HW226604   6.804   1.047   0.142
 8569SOL     OW26605   4.941   2.297   6.499
 8569SOL    HW126606   4.879   2.259   6.431
 8569SOL    HW226607   4.889   2.334   6.576
 8570SOL     OW26608   1.822   3.106   3.791
 8570SOL    HW126609   1.843   3.013   3.759
 8570SOL    HW226610   1.760   3.101   3.870
 8571SOL     OW26611   1.537   0.461   3.679
 8571SOL    HW126612   1.457   0.498   3.726
 8571SOL    HW226613   1.583   0.395   3.738
 8572SOL     OW26614   2.984   4.359   5.596
 8572SOL    HW126615   3.015   4.265   5.587
 8572SOL    HW226616   3.034   4.417   5.531
 8573SOL     OW26617   4.126   6.053   0.630
 8573SOL    HW126618   4.112   6.077   0.534
 8573SOL    HW226619   4.223   6.059   0.653
 8574SOL     OW26620   5.943   6.717   5.764
 8574SOL    HW126621   6.034   6.757   5.768
 8574SOL    HW226622   5.923   6.671   5.850
 8575SOL     OW26623   3.033   6.434   3.366
 8575SOL    HW126624   2.945   6.473   3.390
 8575SOL    HW226625   3.069   6.478   3.284
 8576SOL     OW26626   0.598   4.383   3.581
 8576SOL    HW126627   0.591   4.312   3.651
 8576SOL    HW226628   0.629   4.342   3.495
 8577SOL     OW26629   1.722   1.811   7.004
 8577SOL    HW126630   1.657   1.735   6.993
 8577SOL    HW226631   1.747   1.847   6.915
 8578SOL     OW26632   6.815   6.816   5.793
 8578SOL    HW126633   6.724   6.801   5.832
 8578SOL    HW226634   6.807   6.862   5.705
 8579SOL     OW26635   3.305   6.283   2.752
 8579SOL    HW126636   3.218   6.309   2.709
 8579SOL    HW226637   3.379   6.291   2.686
 8580SOL     OW26638   2.149   0.723   1.808
 8580SOL    HW126639   2.226   0.768   1.853
 8580SOL    HW226640   2.096   0.672   1.876
 8581SOL     OW26641   3.195   4.818   1.089
 8581SOL    HW126642   3.148   4.731   1.101
 8581SOL    HW226643   3.242   4.819   1.001
 8582SOL     OW26644   4.099   4.564   6.037
 8582SOL    HW126645   4.017   4.619   6.051
 8582SOL    HW226646   4.179   4.613   6.073
 8583SOL     OW26647   4.255   0.619   2.842
 8583SOL    HW126648   4.340   0.645   2.887
 8583SOL    HW226649   4.240   0.679   2.763
 8584SOL     OW26650   6.400   1.114   4.396
 8584SOL    HW126651   6.430   1.071   4.311
 8584SOL    HW226652   6.421   1.054   4.473
 8585SOL     OW26653   5.150   1.600   2.256
 8585SOL    HW126654   5.111   1.686   2.222
 8585SOL    HW226655   5.084   1.526   2.245
 8586SOL     OW26656   6.074   5.772   1.338
 8586SOL    HW126657   6.120   5.757   1.425
 8586SOL    HW226658   6.134   5.822   1.276
 8587SOL     OW26659   2.051   1.664   5.859
 8587SOL    HW126660   2.128   1.602   5.874
 8587SOL    HW226661   2.085   1.758   5.852
 8588SOL     OW26662   2.783   1.366   6.832
 8588SOL    HW126663   2.801   1.453   6.876
 8588SOL    HW226664   2.866   1.311   6.829
 8589SOL     OW26665   6.729   2.994   6.443
 8589SOL    HW126666   6.739   3.009   6.344
 8589SOL    HW226667   6.697   2.901   6.459
 8590SOL     OW26668   1.413   1.395   2.835
 8590SOL    HW126669   1.502   1.359   2.864
 8590SOL    HW226670   1.426   1.480   2.785
 8591SOL     OW26671   6.807   4.460   0.278
 8591SOL    HW126672   6.844   4.450   0.371
 8591SOL    HW226673   6.714   4.496   0.283
 8592SOL     OW26674   1.477   1.741   6.290
 8592SOL    HW126675   1.454   1.660   6.236
 8592SOL    HW226676   1.553   1.719   6.352
 8593SOL     OW26677   3.746   0.842   6.379
 8593SOL    HW126678   3.718   0.907   6.449
 8593SOL    HW226679   3.751   0.888   6.291
 8594SOL     OW26680   6.714   2.513   5.564
 8594SOL    HW126681   6.797   2.504   5.509
 8594SOL    HW226682   6.711   2.604   5.606
 8595SOL     OW26683   5.339   6.490   2.579
 8595SOL    HW126684   5.427   6.444   2.569
 8595SOL    HW226685   5.267   6.432   2.541
 8596SOL     OW26686   0.700   2.121   3.670
 8596SOL    HW126687   0.695   2.040   3.611
 8596SOL    HW226688   0.688   2.203   3.615
 8597SOL     OW26689   5.923   3.661   0.415
 8597SOL    HW126690   5.876   3.606   0.346
 8597SOL    HW226691   5.934   3.607   0.498
 8598SOL     OW26692   5.813   6.689   3.781
 8598SOL    HW126693   5.826   6.597   3.819
 8598SOL    HW226694   5.715   6.705   3.768
 8599SOL     OW26695   1.125   3.047   4.019
 8599SOL    HW126696   1.084   2.956   4.018
 8599SOL    HW226697   1.112   3.090   3.930
 8600SOL     OW26698   4.000   2.598   1.095
 8600SOL    HW126699   3.934   2.523   1.086
 8600SOL    HW226700   4.059   2.582   1.174
 8601SOL     OW26701   0.809   6.864   3.668
 8601SOL    HW126702   0.730   6.805   3.648
 8601SOL    HW226703   0.790   6.916   3.751
 8602SOL     OW26704   2.191   6.583   4.366
 8602SOL    HW126705   2.112   6.546   4.416
 8602SOL    HW226706   2.173   6.580   4.268
 8603SOL     OW26707   7.013   0.583   0.786
 8603SOL    HW126708   6.922   0.565   0.824
 8603SOL    HW226709   0.062   0.573   0.858
 8604SOL     OW26710   0.238   4.379   6.158
 8604SOL    HW126711   0.193   4.468   6.155
 8604SOL    HW226712   0.331   4.387   6.123
 8605SOL     OW26713   6.777   5.359   3.944
 8605SOL    HW126714   6.853   5.423   3.942
 8605SOL    HW226715   6.811   5.267   3.961
 8606SOL     OW26716   2.202   3.064   6.988
 8606SOL    HW126717   2.199   3.004   0.049
 8606SOL    HW226718   2.128   3.040   6.925
 8607SOL     OW26719   2.365   4.352   1.759
 8607SOL    HW126720   2.327   4.312   1.843
 8607SOL    HW226721   2.340   4.294   1.681
 8608SOL     OW26722   2.284   5.159   3.129
 8608SOL    HW126723   2.357   5.145   3.062
 8608SOL    HW226724   2.324   5.188   3.216
 8609SOL     OW26725   4.585   1.193   4.435
 8609SOL    HW126726   4.599   1.167   4.340
 8609SOL    HW226727   4.508   1.257   4.440
 8610SOL     OW26728   0.914   6.814   2.858
 8610SOL    HW126729   0.861   6.898   2.860
 8610SOL    HW226730   0.995   6.823   2.916
 8611SOL     OW26731   2.700   1.057   4.728
 8611SOL    HW126732   2.642   1.084   4.804
 8611SOL    HW226733   2.689   0.959   4.709
 8612SOL     OW26734   3.863   3.997   3.372
 8612SOL    HW126735   3.810   4.052   3.437
 8612SOL    HW226736   3.902   3.918   3.421
 8613SOL     OW26737   3.323   3.070   1.446
 8613SOL    HW126738   3.355   3.066   1.541
 8613SOL    HW226739   3.375   3.139   1.396
 8614SOL     OW26740   1.095   2.294   2.618
 8614SOL    HW126741   1.188   2.272   2.647
 8614SOL    HW226742   1.040   2.211   2.614
 8615SOL     OW26743   3.968   1.050   3.591
 8615SOL    HW126744   4.049   1.092   3.633
 8615SOL    HW226745   3.888   1.068   3.648
 8616SOL     OW26746   4.115   4.746   2.812
 8616SOL    HW126747   4.130   4.690   2.731
 8616SOL    HW226748   4.017   4.754   2.830
 8617SOL     OW26749   4.158   0.278   3.803
 8617SOL    HW126750   4.135   0.373   3.823
 8617SOL    HW226751   4.232   0.247   3.862
 8618SOL     OW26752   5.584   4.028   1.047
 8618SOL    HW126753   5.507   3.979   1.007
 8618SOL    HW226754   5.557   4.069   1.134
 8619SOL     OW26755   5.479   4.315   0.606
 8619SOL    HW126756   5.560   4.369   0.631
 8619SOL    HW226757   5.508   4.232   0.558
 8620SOL     OW26758   1.633   0.667   4.557
 8620SOL    HW126759   1.553   0.726   4.568
 8620SOL    HW226760   1.715   0.723   4.550
 8621SOL     OW26761   5.193   2.676   1.678
 8621SOL    HW126762   5.135   2.722   1.611
 8621SOL    HW226763   5.173   2.712   1.769
 8622SOL     OW26764   6.305   5.022   3.015
 8622SOL    HW126765   6.316   4.923   3.014
 8622SOL    HW226766   6.340   5.059   3.102
 8623SOL     OW26767   6.722   3.473   4.313
 8623SOL    HW126768   6.633   3.514   4.334
 8623SOL    HW226769   6.748   3.410   4.387
 8624SOL     OW26770   2.898   4.024   5.813
 8624SOL    HW126771   2.965   3.958   5.846
 8624SOL    HW226772   2.826   4.036   5.882
 8625SOL     OW26773   3.649   2.125   6.044
 8625SOL    HW126774   3.592   2.184   5.986
 8625SOL    HW226775   3.618   2.132   6.139
 8626SOL     OW26776   4.092   4.295   0.522
 8626SOL    HW126777   4.152   4.258   0.593
 8626SOL    HW226778   4.052   4.381   0.553
 8627SOL     OW26779   1.889   0.557   2.745
 8627SOL    HW126780   1.857   0.471   2.784
 8627SOL    HW226781   1.909   0.622   2.818
 8628SOL     OW26782   0.757   6.472   0.594
 8628SOL    HW126783   0.734   6.565   0.566
 8628SOL    HW226784   0.857   6.461   0.595
 8629SOL     OW26785   0.161   0.292   4.224
 8629SOL    HW126786   0.135   0.227   4.295
 8629SOL    HW226787   0.224   0.248   4.160
 8630SOL     OW26788   5.185   3.012   2.201
 8630SOL    HW126789   5.158   3.061   2.118
 8630SOL    HW226790   5.143   3.056   2.280
 8631SOL     OW26791   3.164   6.485   0.132
 8631SOL    HW126792   3.193   6.463   0.039
 8631SOL    HW226793   3.240   6.467   0.195
 8632SOL     OW26794   4.775   4.543   5.434
 8632SOL    HW126795   4.701   4.482   5.407
 8632SOL    HW226796   4.756   4.635   5.400
 8633SOL     OW26797   5.554   3.331   6.111
 8633SOL    HW126798   5.580   3.332   6.208
 8633SOL    HW226799   5.542   3.237   6.081
 8634SOL     OW26800   5.279   4.446   0.453
 8634SOL    HW126801   5.220   4.368   0.434
 8634SOL    HW226802   5.367   4.413   0.488
 8635SOL     OW26803   5.709   2.586   6.526
 8635SOL    HW126804   5.721   2.667   6.583
 8635SOL    HW226805   5.657   2.609   6.444
 8636SOL     OW26806   4.953   6.666   1.186
 8636SOL    HW126807   4.878   6.718   1.144
 8636SOL    HW226808   5.040   6.710   1.161
 8637SOL     OW26809   2.229   1.433   6.561
 8637SOL    HW126810   2.300   1.460   6.627
 8637SOL    HW226811   2.141   1.429   6.608
 8638SOL     OW26812   4.572   2.734   5.114
 8638SOL    HW126813   4.519   2.779   5.042
 8638SOL    HW226814   4.559   2.782   5.200
 8639SOL     OW26815   4.044   3.693   6.304
 8639SOL    HW126816   4.040   3.790   6.327
 8639SOL    HW226817   4.092   3.682   6.217
 8640SOL     OW26818   2.798   3.471   1.517
 8640SOL    HW126819   2.718   3.475   1.576
 8640SOL    HW226820   2.881   3.484   1.573
 8641SOL     OW26821   4.474   5.847   2.470
 8641SOL    HW126822   4.495   5.845   2.372
 8641SOL    HW226823   4.536   5.909   2.517
 8642SOL     OW26824   1.160   6.321   4.468
 8642SOL    HW126825   1.094   6.346   4.539
 8642SOL    HW226826   1.237   6.272   4.510
 8643SOL     OW26827   4.178   6.969   0.850
 8643SOL    HW126828   4.088   6.931   0.869
 8643SOL    HW226829   4.207   0.007   0.926
 8644SOL     OW26830   6.008   1.632   6.870
 8644SOL    HW126831   5.918   1.603   6.901
 8644SOL    HW226832   6.078   1.591   6.930
 8645SOL     OW26833   5.948   3.579   1.961
 8645SOL    HW126834   5.888   3.509   1.922
 8645SOL    HW226835   5.909   3.669   1.943
 8646SOL     OW26836   0.032   1.755   5.377
 8646SOL    HW126837   6.967   1.785   5.333
 8646SOL    HW226838   0.021   1.757   5.476
 8647SOL     OW26839   2.386   4.777   1.875
 8647SOL    HW126840   2.445   4.856   1.887
 8647SOL    HW226841   2.429   4.696   1.915
 8648SOL     OW26842   5.826   5.457   0.915
 8648SOL    HW126843   5.902   5.491   0.972
 8648SOL    HW226844   5.861   5.388   0.851
 8649SOL     OW26845   4.507   6.956   1.033
 8649SOL    HW126846   4.435   0.000   1.060
 8649SOL    HW226847   4.470   6.864   1.028
 8650SOL     OW26848   1.921   6.718   4.229
 8650SOL    HW126849   1.857   6.647   4.258
 8650SOL    HW226850   1.936   6.782   4.304
 8651SOL     OW26851   3.498   1.891   0.856
 8651SOL    HW126852   3.481   1.878   0.758
 8651SOL    HW226853   3.475   1.807   0.905
 8652SOL     OW26854   1.593   3.820   4.023
 8652SOL    HW126855   1.499   3.786   4.033
 8652SOL    HW226856   1.617   3.824   3.926
 8653SOL     OW26857   0.191   1.403   6.098
 8653SOL    HW126858   0.217   1.346   6.020
 8653SOL    HW226859   0.224   1.362   6.182
 8654SOL     OW26860   0.883   4.404   1.577
 8654SOL    HW126861   0.883   4.504   1.572
 8654SOL    HW226862   0.894   4.375   1.672
 8655SOL     OW26863   0.284   0.950   5.376
 8655SOL    HW126864   0.314   0.870   5.429
 8655SOL    HW226865   0.219   1.004   5.430
 8656SOL     OW26866   5.024   0.207   1.796
 8656SOL    HW126867   5.037   0.170   1.704
 8656SOL    HW226868   5.089   0.281   1.811
 8657SOL     OW26869   5.218   1.058   2.720
 8657SOL    HW126870   5.252   0.966   2.741
 8657SOL    HW226871   5.216   1.113   2.804
 8658SOL     OW26872   0.065   4.785   0.894
 8658SOL    HW126873   0.025   4.866   0.937
 8658SOL    HW226874   7.015   4.714   0.883
 8659SOL     OW26875   4.797   1.049   2.281
 8659SOL    HW126876   4.841   1.103   2.352
 8659SOL    HW226877   4.706   1.021   2.312
 8660SOL     OW26878   0.331   3.450   1.583
 8660SOL    HW126879   0.318   3.352   1.576
 8660SOL    HW226880   0.416   3.468   1.634
 8661SOL     OW26881   6.718   3.350   3.104
 8661SOL    HW126882   6.699   3.443   3.136
 8661SOL    HW226883   6.674   3.334   3.016
 8662SOL     OW26884   2.831   5.247   2.890
 8662SOL    HW126885   2.787   5.185   2.955
 8662SOL    HW226886   2.927   5.258   2.916
 8663SOL     OW26887   3.794   5.863   3.106
 8663SOL    HW126888   3.768   5.767   3.100
 8663SOL    HW226889   3.813   5.887   3.201
 8664SOL     OW26890   2.612   5.197   3.527
 8664SOL    HW126891   2.608   5.099   3.543
 8664SOL    HW226892   2.664   5.216   3.444
 8665SOL     OW26893   5.523   3.056   5.857
 8665SOL    HW126894   5.431   3.063   5.819
 8665SOL    HW226895   5.518   3.029   5.953
 8666SOL     OW26896   4.626   6.192   2.714
 8666SOL    HW126897   4.620   6.095   2.692
 8666SOL    HW226898   4.542   6.220   2.762
 8667SOL     OW26899   5.008   2.156   4.438
 8667SOL    HW126900   5.072   2.085   4.469
 8667SOL    HW226901   5.045   2.199   4.356
 8668SOL     OW26902   5.000   3.067   5.698
 8668SOL    HW126903   4.946   3.031   5.622
 8668SOL    HW226904   4.941   3.079   5.778
 8669SOL     OW26905   6.537   6.319   5.879
 8669SOL    HW126906   6.556   6.312   5.976
 8669SOL    HW226907   6.492   6.407   5.860
 8670SOL     OW26908   6.361   4.592   6.002
 8670SOL    HW126909   6.391   4.496   6.002
 8670SOL    HW226910   6.267   4.597   5.969
 8671SOL     OW26911   0.049   1.939   2.626
 8671SOL    HW126912   0.077   2.007   2.694
 8671SOL    HW226913   6.982   1.898   2.654
 8672SOL     OW26914   0.403   1.469   3.585
 8672SOL    HW126915   0.431   1.449   3.491
 8672SOL    HW226916   0.423   1.391   3.643
 8673SOL     OW26917   1.015   1.763   1.166
 8673SOL    HW126918   1.114   1.775   1.163
 8673SOL    HW226919   0.982   1.741   1.074
 8674SOL     OW26920   6.502   4.758   3.143
 8674SOL    HW126921   6.576   4.704   3.181
 8674SOL    HW226922   6.416   4.708   3.150
 8675SOL     OW26923   3.832   2.097   5.722
 8675SOL    HW126924   3.831   2.186   5.676
 8675SOL    HW226925   3.838   2.111   5.821
 8676SOL     OW26926   5.362   0.818   0.923
 8676SOL    HW126927   5.273   0.853   0.954
 8676SOL    HW226928   5.357   0.718   0.917
 8677SOL     OW26929   1.742   6.798   5.677
 8677SOL    HW126930   1.716   6.769   5.769
 8677SOL    HW226931   1.808   6.733   5.639
 8678SOL     OW26932   1.672   1.066   1.231
 8678SOL    HW126933   1.740   1.137   1.253
 8678SOL    HW226934   1.719   0.986   1.193
 8679SOL     OW26935   1.717   1.361   4.788
 8679SOL    HW126936   1.728   1.459   4.775
 8679SOL    HW226937   1.802   1.322   4.822
 8680SOL     OW26938   6.588   2.050   6.417
 8680SOL    HW126939   6.679   2.043   6.375
 8680SOL    HW226940   6.598   2.056   6.516
 8681SOL     OW26941   5.405   5.884   0.870
 8681SOL    HW126942   5.495   5.926   0.859
 8681SOL    HW226943   5.336   5.940   0.825
 8682SOL     OW26944   0.768   1.014   1.104
 8682SOL    HW126945   0.714   1.097   1.098
 8682SOL    HW226946   0.865   1.036   1.095
 8683SOL     OW26947   2.353   4.442   4.625
 8683SOL    HW126948   2.286   4.373   4.597
 8683SOL    HW226949   2.385   4.491   4.545
 8684SOL     OW26950   0.582   3.701   4.465
 8684SOL    HW126951   0.554   3.618   4.418
 8684SOL    HW226952   0.652   3.749   4.411
 8685SOL     OW26953   4.829   2.149   5.026
 8685SOL    HW126954   4.862   2.058   5.049
 8685SOL    HW226955   4.805   2.198   5.110
 8686SOL     OW26956   7.010   6.015   3.063
 8686SOL    HW126957   6.985   5.958   2.985
 8686SOL    HW226958   0.083   6.050   3.051
 8687SOL     OW26959   6.064   3.331   3.751
 8687SOL    HW126960   6.128   3.360   3.679
 8687SOL    HW226961   6.098   3.362   3.840
 8688SOL     OW26962   0.914   4.585   6.332
 8688SOL    HW126963   0.931   4.496   6.374
 8688SOL    HW226964   0.820   4.588   6.298
 8689SOL     OW26965   4.721   3.811   6.585
 8689SOL    HW126966   4.645   3.783   6.526
 8689SOL    HW226967   4.743   3.907   6.567
 8690SOL     OW26968   2.153   2.110   3.826
 8690SOL    HW126969   2.144   2.122   3.925
 8690SOL    HW226970   2.077   2.055   3.791
 8691SOL     OW26971   2.904   2.173   5.123
 8691SOL    HW126972   2.975   2.212   5.064
 8691SOL    HW226973   2.827   2.142   5.068
 8692SOL     OW26974   4.515   2.005   5.840
 8692SOL    HW126975   4.589   1.999   5.773
 8692SOL    HW226976   4.456   1.924   5.832
 8693SOL     OW26977   6.726   0.436   6.448
 8693SOL    HW126978   6.754   0.371   6.519
 8693SOL    HW226979   6.794   0.509   6.442
 8694SOL     OW26980   5.440   3.424   4.135
 8694SOL    HW126981   5.516   3.400   4.075
 8694SOL    HW226982   5.417   3.521   4.123
 8695SOL     OW26983   3.596   4.359   6.166
 8695SOL    HW126984   3.583   4.299   6.087
 8695SOL    HW226985   3.692   4.357   6.194
 8696SOL     OW26986   3.353   5.874   6.349
 8696SOL    HW126987   3.409   5.793   6.369
 8696SOL    HW226988   3.270   5.845   6.301
 8697SOL     OW26989   1.770   3.690   5.677
 8697SOL    HW126990   1.698   3.710   5.610
 8697SOL    HW226991   1.826   3.772   5.691
 8698SOL     OW26992   5.326   5.296   4.876
 8698SOL    HW126993   5.303   5.293   4.973
 8698SOL    HW226994   5.253   5.253   4.823
 8699SOL     OW26995   1.885   3.160   0.088
 8699SOL    HW126996   1.857   3.067   0.064
 8699SOL    HW226997   1.814   3.204   0.143
 8700SOL     OW26998   0.758   0.371   5.142
 8700SOL    HW126999   0.752   0.282   5.187
 8700SOL    HW227000   0.777   0.359   5.045
 8701SOL     OW27001   0.605   2.110   6.918
 8701SOL    HW127002   0.507   2.090   6.909
 8701SOL    HW227003   0.618   2.207   6.939
 8702SOL     OW27004   5.995   4.110   1.274
 8702SOL    HW127005   6.069   4.094   1.208
 8702SOL    HW227006   5.923   4.043   1.260
 8703SOL     OW27007   2.661   4.770   1.335
 8703SOL    HW127008   2.736   4.830   1.361
 8703SOL    HW227009   2.606   4.747   1.416
 8704SOL     OW27010   1.225   2.044   3.674
 8704SOL    HW127011   1.182   1.971   3.727
 8704SOL    HW227012   1.321   2.053   3.701
 8705SOL     OW27013   4.088   2.276   0.105
 8705SOL    HW127014   4.014   2.340   0.125
 8705SOL    HW227015   4.099   2.267   0.006
 8706SOL     OW27016   4.299   3.416   6.145
 8706SOL    HW127017   4.298   3.325   6.103
 8706SOL    HW227018   4.278   3.407   6.243
 8707SOL     OW27019   1.692   1.996   4.901
 8707SOL    HW127020   1.605   2.031   4.870
 8707SOL    HW227021   1.677   1.919   4.963
 8708SOL     OW27022   5.786   2.141   1.867
 8708SOL    HW127023   5.780   2.049   1.905
 8708SOL    HW227024   5.771   2.208   1.941
 8709SOL     OW27025   6.588   0.266   5.543
 8709SOL    HW127026   6.686   0.247   5.542
 8709SOL    HW227027   6.569   0.350   5.492
 8710SOL     OW27028   2.450   1.404   3.667
 8710SOL    HW127029   2.427   1.380   3.762
 8710SOL    HW227030   2.370   1.389   3.609
 8711SOL     OW27031   1.497   0.440   2.163
 8711SOL    HW127032   1.515   0.509   2.234
 8711SOL    HW227033   1.583   0.416   2.118
 8712SOL     OW27034   1.405   2.906   6.045
 8712SOL    HW127035   1.489   2.923   5.994
 8712SOL    HW227036   1.408   2.815   6.086
 8713SOL     OW27037   0.642   4.863   1.800
 8713SOL    HW127038   0.684   4.773   1.793
 8713SOL    HW227039   0.553   4.855   1.846
 8714SOL     OW27040   6.680   6.537   7.006
 8714SOL    HW127041   6.674   6.473   6.929
 8714SOL    HW227042   6.607   6.517   0.052
 8715SOL     OW27043   2.315   2.136   0.702
 8715SOL    HW127044   2.391   2.103   0.758
 8715SOL    HW227045   2.230   2.092   0.732
 8716SOL     OW27046   6.708   6.503   1.594
 8716SOL    HW127047   6.671   6.454   1.515
 8716SOL    HW227048   6.784   6.451   1.633
 8717SOL     OW27049   2.831   4.142   0.648
 8717SOL    HW127050   2.774   4.110   0.724
 8717SOL    HW227051   2.925   4.111   0.662
 8718SOL     OW27052   2.282   4.720   6.211
 8718SOL    HW127053   2.357   4.655   6.220
 8718SOL    HW227054   2.196   4.670   6.200
 8719SOL     OW27055   4.225   1.072   5.752
 8719SOL    HW127056   4.259   1.163   5.773
 8719SOL    HW227057   4.302   1.008   5.742
 8720SOL     OW27058   7.014   4.507   4.883
 8720SOL    HW127059   6.961   4.499   4.968
 8720SOL    HW227060   6.954   4.495   4.805
 8721SOL     OW27061   0.673   6.893   6.105
 8721SOL    HW127062   0.583   6.931   6.124
 8721SOL    HW227063   0.678   6.800   6.143
 8722SOL     OW27064   4.191   0.859   1.569
 8722SOL    HW127065   4.179   0.859   1.470
 8722SOL    HW227066   4.102   0.868   1.614
 8723SOL     OW27067   4.644   6.775   2.518
 8723SOL    HW127068   4.610   6.842   2.584
 8723SOL    HW227069   4.737   6.801   2.490
 8724SOL     OW27070   4.149   0.933   4.792
 8724SOL    HW127071   4.149   0.841   4.833
 8724SOL    HW227072   4.240   0.954   4.758
 8725SOL     OW27073   0.195   6.408   3.874
 8725SOL    HW127074   0.221   6.346   3.948
 8725SOL    HW227075   0.250   6.492   3.879
 8726SOL     OW27076   1.097   1.229   0.609
 8726SOL    HW127077   1.120   1.280   0.691
 8726SOL    HW227078   1.045   1.146   0.635
 8727SOL     OW27079   4.570   5.165   6.346
 8727SOL    HW127080   4.634   5.152   6.421
 8727SOL    HW227081   4.612   5.137   6.260
 8728SOL     OW27082   6.563   1.076   3.438
 8728SOL    HW127083   6.556   1.124   3.351
 8728SOL    HW227084   6.541   0.979   3.424
 8729SOL     OW27085   3.633   5.868   6.646
 8729SOL    HW127086   3.568   5.927   6.694
 8729SOL    HW227087   3.705   5.924   6.605
 8730SOL     OW27088   4.680   4.756   2.098
 8730SOL    HW127089   4.682   4.676   2.038
 8730SOL    HW227090   4.646   4.835   2.047
 8731SOL     OW27091   0.705   1.928   3.501
 8731SOL    HW127092   0.768   1.904   3.428
 8731SOL    HW227093   0.618   1.879   3.488
 8732SOL     OW27094   5.703   5.792   0.801
 8732SOL    HW127095   5.640   5.720   0.831
 8732SOL    HW227096   5.738   5.769   0.710
 8733SOL     OW27097   6.354   5.482   2.015
 8733SOL    HW127098   6.289   5.486   1.939
 8733SOL    HW227099   6.327   5.548   2.085
 8734SOL     OW27100   0.216   3.426   2.080
 8734SOL    HW127101   0.134   3.436   2.136
 8734SOL    HW227102   0.191   3.384   1.992
 8735SOL     OW27103   1.811   4.153   5.741
 8735SOL    HW127104   1.848   4.215   5.810
 8735SOL    HW227105   1.882   4.088   5.714
 8736SOL     OW27106   1.326   5.877   2.440
 8736SOL    HW127107   1.249   5.900   2.500
 8736SOL    HW227108   1.399   5.945   2.452
 8737SOL     OW27109   1.853   5.958   6.670
 8737SOL    HW127110   1.875   6.055   6.669
 8737SOL    HW227111   1.918   5.909   6.728
 8738SOL     OW27112   1.079   3.581   3.685
 8738SOL    HW127113   1.152   3.514   3.700
 8738SOL    HW227114   1.077   3.606   3.588
 8739SOL     OW27115   5.685   4.289   5.074
 8739SOL    HW127116   5.771   4.331   5.103
 8739SOL    HW227117   5.608   4.344   5.108
 8740SOL     OW27118   3.251   1.494   4.365
 8740SOL    HW127119   3.333   1.552   4.363
 8740SOL    HW227120   3.170   1.551   4.356
 8741SOL     OW27121   0.948   0.174   2.679
 8741SOL    HW127122   1.016   0.104   2.660
 8741SOL    HW227123   0.897   0.150   2.762
 8742SOL     OW27124   3.033   1.538   2.758
 8742SOL    HW127125   3.053   1.622   2.709
 8742SOL    HW227126   2.970   1.482   2.704
 8743SOL     OW27127   1.380   1.311   1.453
 8743SOL    HW127128   1.407   1.215   1.451
 8743SOL    HW227129   1.451   1.365   1.497
 8744SOL     OW27130   3.415   4.362   6.695
 8744SOL    HW127131   3.380   4.400   6.780
 8744SOL    HW227132   3.431   4.435   6.629
 8745SOL     OW27133   6.244   1.528   6.313
 8745SOL    HW127134   6.246   1.603   6.246
 8745SOL    HW227135   6.321   1.539   6.377
 8746SOL     OW27136   4.615   5.015   4.549
 8746SOL    HW127137   4.631   5.031   4.451
 8746SOL    HW227138   4.538   5.070   4.580
 8747SOL     OW27139   0.523   0.866   1.812
 8747SOL    HW127140   0.511   0.821   1.900
 8747SOL    HW227141   0.538   0.797   1.741
 8748SOL     OW27142   0.955   2.300   3.741
 8748SOL    HW127143   0.981   2.304   3.644
 8748SOL    HW227144   0.977   2.210   3.778
 8749SOL     OW27145   2.920   1.284   5.378
 8749SOL    HW127146   2.944   1.374   5.343
 8749SOL    HW227147   3.002   1.228   5.387
 8750SOL     OW27148   3.999   2.777   5.972
 8750SOL    HW127149   3.902   2.803   5.966
 8750SOL    HW227150   4.005   2.677   5.975
 8751SOL     OW27151   0.896   5.753   1.836
 8751SOL    HW127152   0.948   5.716   1.913
 8751SOL    HW227153   0.955   5.761   1.756
 8752SOL     OW27154   4.678   3.487   6.457
 8752SOL    HW127155   4.614   3.411   6.447
 8752SOL    HW227156   4.637   3.570   6.420
 8753SOL     OW27157   1.942   2.976   0.583
 8753SOL    HW127158   1.846   2.994   0.563
 8753SOL    HW227159   1.953   2.881   0.612
 8754SOL     OW27160   2.948   5.492   6.857
 8754SOL    HW127161   3.004   5.566   6.895
 8754SOL    HW227162   2.978   5.473   6.763
 8755SOL     OW27163   6.996   2.329   2.322
 8755SOL    HW127164   0.042   2.308   2.394
 8755SOL    HW227165   6.985   2.249   2.263
 8756SOL     OW27166   2.056   2.053   3.163
 8756SOL    HW127167   2.005   2.072   3.079
 8756SOL    HW227168   2.126   2.123   3.176
 8757SOL     OW27169   4.917   6.566   5.268
 8757SOL    HW127170   4.964   6.552   5.355
 8757SOL    HW227171   4.825   6.526   5.272
 8758SOL     OW27172   3.509   6.692   4.338
 8758SOL    HW127173   3.474   6.721   4.249
 8758SOL    HW227174   3.468   6.748   4.410
 8759SOL     OW27175   5.723   1.571   0.604
 8759SOL    HW127176   5.674   1.625   0.673
 8759SOL    HW227177   5.672   1.487   0.586
 8760SOL     OW27178   2.229   2.254   4.530
 8760SOL    HW127179   2.132   2.274   4.544
 8760SOL    HW227180   2.242   2.156   4.515
 8761SOL     OW27181   4.724   0.582   2.260
 8761SOL    HW127182   4.729   0.639   2.178
 8761SOL    HW227183   4.815   0.548   2.283
 8762SOL     OW27184   1.205   5.056   3.081
 8762SOL    HW127185   1.256   4.975   3.052
 8762SOL    HW227186   1.154   5.092   3.003
 8763SOL     OW27187   0.931   1.417   6.235
 8763SOL    HW127188   0.873   1.368   6.171
 8763SOL    HW227189   0.874   1.470   6.298
 8764SOL     OW27190   3.394   5.014   5.782
 8764SOL    HW127191   3.380   5.113   5.784
 8764SOL    HW227192   3.464   4.992   5.714
 8765SOL     OW27193   4.938   6.871   4.903
 8765SOL    HW127194   5.024   6.849   4.948
 8765SOL    HW227195   4.940   6.837   4.808
 8766SOL     OW27196   5.049   4.644   5.620
 8766SOL    HW127197   5.057   4.605   5.529
 8766SOL    HW227198   4.979   4.596   5.672
 8767SOL     OW27199   2.942   0.999   3.986
 8767SOL    HW127200   2.900   0.923   3.936
 8767SOL    HW227201   2.881   1.078   3.983
 8768SOL     OW27202   6.445   2.328   0.069
 8768SOL    HW127203   6.496   2.362   7.010
 8768SOL    HW227204   6.360   2.380   0.080
 8769SOL     OW27205   6.468   0.889   0.474
 8769SOL    HW127206   6.465   0.798   0.434
 8769SOL    HW227207   6.489   0.956   0.403
 8770SOL     OW27208   4.908   4.152   1.592
 8770SOL    HW127209   4.861   4.205   1.662
 8770SOL    HW227210   4.861   4.065   1.579
 8771SOL     OW27211   7.011   3.487   0.116
 8771SOL    HW127212   6.938   3.502   0.049
 8771SOL    HW227213   0.003   3.389   0.131
 8772SOL     OW27214   5.507   6.721   3.555
 8772SOL    HW127215   5.522   6.754   3.648
 8772SOL    HW227216   5.575   6.652   3.533
 8773SOL     OW27217   0.141   1.700   4.068
 8773SOL    HW127218   0.059   1.653   4.101
 8773SOL    HW227219   0.219   1.673   4.125
 8774SOL     OW27220   1.774   0.578   0.881
 8774SOL    HW127221   1.871   0.557   0.864
 8774SOL    HW227222   1.767   0.672   0.917
 8775SOL     OW27223   4.987   1.870   4.642
 8775SOL    HW127224   5.086   1.863   4.635
 8775SOL    HW227225   4.952   1.798   4.702
 8776SOL     OW27226   4.096   2.905   0.192
 8776SOL    HW127227   4.047   2.853   0.122
 8776SOL    HW227228   4.094   3.002   0.168
 8777SOL     OW27229   1.046   2.019   3.449
 8777SOL    HW127230   1.116   2.053   3.512
 8777SOL    HW227231   1.084   1.946   3.393
 8778SOL     OW27232   3.902   4.990   6.628
 8778SOL    HW127233   3.953   5.030   6.704
 8778SOL    HW227234   3.952   4.910   6.593
 8779SOL     OW27235   3.488   5.007   2.782
 8779SOL    HW127236   3.537   5.005   2.870
 8779SOL    HW227237   3.554   4.998   2.707
 8780SOL     OW27238   6.036   5.270   3.423
 8780SOL    HW127239   6.073   5.204   3.489
 8780SOL    HW227240   6.091   5.269   3.340
 8781SOL     OW27241   3.618   6.420   2.205
 8781SOL    HW127242   3.675   6.451   2.281
 8781SOL    HW227243   3.551   6.354   2.238
 8782SOL     OW27244   5.186   0.823   1.794
 8782SOL    HW127245   5.261   0.846   1.857
 8782SOL    HW227246   5.213   0.843   1.700
 8783SOL     OW27247   5.086   3.629   5.038
 8783SOL    HW127248   4.988   3.614   5.046
 8783SOL    HW227249   5.126   3.558   4.979
 8784SOL     OW27250   5.796   6.120   0.590
 8784SOL    HW127251   5.883   6.088   0.629
 8784SOL    HW227252   5.720   6.082   0.642
 8785SOL     OW27253   0.765   5.842   6.318
 8785SOL    HW127254   0.719   5.848   6.229
 8785SOL    HW227255   0.699   5.853   6.391
 8786SOL     OW27256   4.262   1.674   2.115
 8786SOL    HW127257   4.264   1.740   2.190
 8786SOL    HW227258   4.168   1.642   2.101
 8787SOL     OW27259   3.426   0.049   1.644
 8787SOL    HW127260   3.474   0.001   1.571
 8787SOL    HW227261   3.395   7.002   1.713
 8788SOL     OW27262   0.561   0.336   4.373
 8788SOL    HW127263   0.600   0.301   4.287
 8788SOL    HW227264   0.511   0.421   4.354
 8789SOL     OW27265   6.901   2.802   4.909
 8789SOL    HW127266   6.859   2.817   4.998
 8789SOL    HW227267   6.947   2.886   4.879
 8790SOL     OW27268   5.531   2.608   6.299
 8790SOL    HW127269   5.457   2.541   6.292
 8790SOL    HW227270   5.499   2.697   6.269
 8791SOL     OW27271   4.223   5.223   6.016
 8791SOL    HW127272   4.322   5.207   6.012
 8791SOL    HW227273   4.175   5.136   6.013
 8792SOL     OW27274   5.511   5.300   1.276
 8792SOL    HW127275   5.455   5.370   1.231
 8792SOL    HW227276   5.599   5.293   1.230
 8793SOL     OW27277   0.080   4.662   3.978
 8793SOL    HW127278   0.147   4.736   3.988
 8793SOL    HW227279   0.127   4.574   3.987
 8794SOL     OW27280   0.434   0.760   2.359
 8794SOL    HW127281   0.366   0.741   2.430
 8794SOL    HW227282   0.502   0.825   2.394
 8795SOL     OW27283   1.522   5.400   5.742
 8795SOL    HW127284   1.547   5.315   5.787
 8795SOL    HW227285   1.446   5.443   5.792
 8796SOL     OW27286   6.537   3.628   3.619
 8796SOL    HW127287   6.609   3.560   3.629
 8796SOL    HW227288   6.474   3.622   3.696
 8797SOL     OW27289   4.829   6.584   3.973
 8797SOL    HW127290   4.851   6.578   4.070
 8797SOL    HW227291   4.890   6.525   3.920
 8798SOL     OW27292   3.793   6.360   5.841
 8798SOL    HW127293   3.757   6.366   5.934
 8798SOL    HW227294   3.785   6.450   5.797
 8799SOL     OW27295   1.575   5.537   1.987
 8799SOL    HW127296   1.642   5.476   1.944
 8799SOL    HW227297   1.554   5.613   1.925
 8800SOL     OW27298   0.238   6.058   5.373
 8800SOL    HW127299   0.285   6.068   5.461
 8800SOL    HW227300   0.265   6.132   5.312
 8801SOL     OW27301   6.449   2.708   5.077
 8801SOL    HW127302   6.360   2.753   5.073
 8801SOL    HW227303   6.490   2.707   4.985
 8802SOL     OW27304   1.571   6.580   5.890
 8802SOL    HW127305   1.598   6.515   5.819
 8802SOL    HW227306   1.540   6.530   5.971
 8803SOL     OW27307   6.491   0.219   6.632
 8803SOL    HW127308   6.524   0.302   6.677
 8803SOL    HW227309   6.418   0.242   6.568
 8804SOL     OW27310   1.371   6.266   2.466
 8804SOL    HW127311   1.417   6.179   2.485
 8804SOL    HW227312   1.438   6.340   2.462
 8805SOL     OW27313   4.684   5.171   2.885
 8805SOL    HW127314   4.779   5.171   2.854
 8805SOL    HW227315   4.623   5.184   2.807
 8806SOL     OW27316   1.911   6.811   0.636
 8806SOL    HW127317   1.838   6.871   0.666
 8806SOL    HW227318   1.944   6.757   0.714
 8807SOL     OW27319   4.845   2.852   1.098
 8807SOL    HW127320   4.943   2.865   1.107
 8807SOL    HW227321   4.821   2.758   1.125
 8808SOL     OW27322   2.101   2.412   1.064
 8808SOL    HW127323   2.110   2.336   1.001
 8808SOL    HW227324   2.051   2.382   1.146
 8809SOL     OW27325   1.352   4.143   3.501
 8809SOL    HW127326   1.255   4.164   3.492
 8809SOL    HW227327   1.393   4.134   3.410
 8810SOL     OW27328   0.728   0.546   5.922
 8810SOL    HW127329   0.653   0.549   5.989
 8810SOL    HW227330   0.690   0.550   5.830
 8811SOL     OW27331   3.672   5.662   2.559
 8811SOL    HW127332   3.750   5.605   2.533
 8811SOL    HW227333   3.622   5.691   2.478
 8812SOL     OW27334   4.573   1.422   6.654
 8812SOL    HW127335   4.507   1.350   6.630
 8812SOL    HW227336   4.650   1.381   6.703
 8813SOL     OW27337   2.266   4.776   3.807
 8813SOL    HW127338   2.237   4.777   3.903
 8813SOL    HW227339   2.280   4.869   3.775
 8814SOL     OW27340   5.043   6.247   6.419
 8814SOL    HW127341   5.133   6.211   6.397
 8814SOL    HW227342   4.973   6.204   6.362
 8815SOL     OW27343   5.477   1.334   0.498
 8815SOL    HW127344   5.448   1.424   0.464
 8815SOL    HW227345   5.469   1.267   0.425
 8816SOL     OW27346   0.776   6.474   5.072
 8816SOL    HW127347   0.825   6.397   5.031
 8816SOL    HW227348   0.842   6.543   5.101
 8817SOL     OW27349   1.767   3.136   4.341
 8817SOL    HW127350   1.840   3.204   4.332
 8817SOL    HW227351   1.774   3.092   4.431
 8818SOL     OW27352   1.936   6.923   4.456
 8818SOL    HW127353   1.844   6.962   4.452
 8818SOL    HW227354   2.003   6.997   4.461
 8819SOL     OW27355   6.110   4.542   5.896
 8819SOL    HW127356   6.043   4.471   5.914
 8819SOL    HW227357   6.137   4.538   5.800
 8820SOL     OW27358   3.270   0.335   4.499
 8820SOL    HW127359   3.195   0.321   4.563
 8820SOL    HW227360   3.314   0.423   4.517
 8821SOL     OW27361   0.443   4.262   6.962
 8821SOL    HW127362   0.398   4.352   6.953
 8821SOL    HW227363   0.376   4.196   6.996
 8822SOL     OW27364   6.451   6.808   3.800
 8822SOL    HW127365   6.430   6.755   3.883
 8822SOL    HW227366   6.512   6.883   3.824
 8823SOL     OW27367   3.788   1.034   3.103
 8823SOL    HW127368   3.825   1.059   3.014
 8823SOL    HW227369   3.794   0.935   3.115
 8824SOL     OW27370   1.956   1.027   1.968
 8824SOL    HW127371   1.865   0.998   1.996
 8824SOL    HW227372   1.976   0.992   1.877
 8825SOL     OW27373   6.874   6.746   0.021
 8825SOL    HW127374   6.920   6.786   6.960
 8825SOL    HW227375   6.793   6.696   7.011
 8826SOL     OW27376   1.096   3.285   0.550
 8826SOL    HW127377   1.164   3.310   0.619
 8826SOL    HW227378   1.108   3.189   0.525
 8827SOL     OW27379   4.025   0.004   2.428
 8827SOL    HW127380   4.053   0.090   2.471
 8827SOL    HW227381   4.105   6.970   2.404
 8828SOL     OW27382   3.660   2.976   6.179
 8828SOL    HW127383   3.680   2.973   6.277
 8828SOL    HW227384   3.593   3.047   6.160
 8829SOL     OW27385   0.480   1.809   2.219
 8829SOL    HW127386   0.444   1.856   2.139
 8829SOL    HW227387   0.432   1.840   2.301
 8830SOL     OW27388   3.012   1.796   4.007
 8830SOL    HW127389   2.931   1.840   4.046
 8830SOL    HW227390   3.094   1.826   4.055
 8831SOL     OW27391   0.502   2.782   2.309
 8831SOL    HW127392   0.557   2.751   2.232
 8831SOL    HW227393   0.454   2.866   2.284
 8832SOL     OW27394   6.258   0.522   4.209
 8832SOL    HW127395   6.345   0.475   4.224
 8832SOL    HW227396   6.270   0.620   4.223
 8833SOL     OW27397   3.258   2.930   0.900
 8833SOL    HW127398   3.310   3.013   0.878
 8833SOL    HW227399   3.284   2.857   0.837
 8834SOL     OW27400   5.165   3.374   5.596
 8834SOL    HW127401   5.078   3.391   5.642
 8834SOL    HW227402   5.234   3.345   5.663
 8835SOL     OW27403   6.007   0.991   5.500
 8835SOL    HW127404   6.068   1.052   5.450
 8835SOL    HW227405   6.000   1.022   5.595
 8836SOL     OW27406   5.454   1.895   0.377
 8836SOL    HW127407   5.547   1.894   0.340
 8836SOL    HW227408   5.394   1.948   0.317
 8837SOL     OW27409   5.892   6.756   1.579
 8837SOL    HW127410   5.927   6.696   1.507
 8837SOL    HW227411   5.892   6.851   1.547
 8838SOL     OW27412   0.358   3.963   2.943
 8838SOL    HW127413   0.303   3.959   3.026
 8838SOL    HW227414   0.303   4.001   2.868
 8839SOL     OW27415   5.173   5.847   3.459
 8839SOL    HW127416   5.264   5.878   3.486
 8839SOL    HW227417   5.181   5.764   3.404
 8840SOL     OW27418   6.995   1.471   1.577
 8840SOL    HW127419   0.008   1.385   1.616
 8840SOL    HW227420   6.928   1.512   1.639
 8841SOL     OW27421   3.735   1.210   1.583
 8841SOL    HW127422   3.750   1.151   1.504
 8841SOL    HW227423   3.769   1.302   1.562
 8842SOL     OW27424   3.794   3.604   4.239
 8842SOL    HW127425   3.841   3.692   4.236
 8842SOL    HW227426   3.806   3.562   4.329
 8843SOL     OW27427   1.690   4.703   5.646
 8843SOL    HW127428   1.738   4.641   5.584
 8843SOL    HW227429   1.752   4.731   5.720
 8844SOL     OW27430   4.771   1.705   5.142
 8844SOL    HW127431   4.783   1.646   5.221
 8844SOL    HW227432   4.785   1.652   5.058
 8845SOL     OW27433   0.285   4.709   1.720
 8845SOL    HW127434   0.223   4.756   1.658
 8845SOL    HW227435   0.302   4.766   1.801
 8846SOL     OW27436   5.906   4.986   3.381
 8846SOL    HW127437   5.820   4.953   3.421
 8846SOL    HW227438   5.956   5.040   3.449
 8847SOL     OW27439   2.323   2.384   3.048
 8847SOL    HW127440   2.396   2.444   3.079
 8847SOL    HW227441   2.356   2.329   2.971
 8848SOL     OW27442   3.854   1.853   1.214
 8848SOL    HW127443   3.769   1.902   1.233
 8848SOL    HW227444   3.931   1.917   1.222
 8849SOL     OW27445   2.758   5.201   4.712
 8849SOL    HW127446   2.798   5.174   4.800
 8849SOL    HW227447   2.671   5.152   4.700
 8850SOL     OW27448   3.112   1.717   1.313
 8850SOL    HW127449   3.135   1.624   1.341
 8850SOL    HW227450   3.182   1.780   1.347
 8851SOL     OW27451   0.040   5.204   3.204
 8851SOL    HW127452   0.110   5.218   3.133
 8851SOL    HW227453   0.083   5.170   3.287
 8852SOL     OW27454   5.408   2.278   5.561
 8852SOL    HW127455   5.347   2.276   5.483
 8852SOL    HW227456   5.357   2.306   5.643
 8853SOL     OW27457   4.847   0.830   5.422
 8853SOL    HW127458   4.826   0.796   5.330
 8853SOL    HW227459   4.766   0.821   5.480
 8854SOL     OW27460   1.976   1.655   6.259
 8854SOL    HW127461   2.063   1.689   6.222
 8854SOL    HW227462   1.976   1.555   6.259
 8855SOL     OW27463   6.214   5.242   6.386
 8855SOL    HW127464   6.241   5.307   6.457
 8855SOL    HW227465   6.147   5.285   6.326
 8856SOL     OW27466   5.860   0.531   5.011
 8856SOL    HW127467   5.912   0.575   4.938
 8856SOL    HW227468   5.878   0.578   5.098
 8857SOL     OW27469   6.266   1.937   3.854
 8857SOL    HW127470   6.330   2.009   3.830
 8857SOL    HW227471   6.201   1.923   3.779
 8858SOL     OW27472   0.373   3.478   6.120
 8858SOL    HW127473   0.427   3.447   6.042
 8858SOL    HW227474   0.418   3.555   6.165
 8859SOL     OW27475   1.629   5.442   6.285
 8859SOL    HW127476   1.712   5.464   6.233
 8859SOL    HW227477   1.617   5.510   6.357
 8860SOL     OW27478   1.206   1.740   3.006
 8860SOL    HW127479   1.305   1.754   3.002
 8860SOL    HW227480   1.172   1.763   3.097
 8861SOL     OW27481   4.338   3.233   0.044
 8861SOL    HW127482   4.384   3.253   0.130
 8861SOL    HW227483   4.385   3.280   6.989
 8862SOL     OW27484   5.687   1.263   4.362
 8862SOL    HW127485   5.632   1.185   4.392
 8862SOL    HW227486   5.626   1.334   4.327
 8863SOL     OW27487   2.272   5.702   5.204
 8863SOL    HW127488   2.322   5.758   5.138
 8863SOL    HW227489   2.336   5.644   5.255
 8864SOL     OW27490   1.213   2.577   6.813
 8864SOL    HW127491   1.213   2.547   6.909
 8864SOL    HW227492   1.306   2.603   6.786
 8865SOL     OW27493   2.650   2.262   6.153
 8865SOL    HW127494   2.587   2.198   6.110
 8865SOL    HW227495   2.693   2.319   6.083
 8866SOL     OW27496   3.396   6.448   4.150
 8866SOL    HW127497   3.451   6.514   4.099
 8866SOL    HW227498   3.312   6.428   4.099
 8867SOL     OW27499   6.436   2.941   3.573
 8867SOL    HW127500   6.470   2.918   3.664
 8867SOL    HW227501   6.349   2.989   3.581
 8868SOL     OW27502   4.639   3.997   0.017
 8868SOL    HW127503   4.543   4.015   0.038
 8868SOL    HW227504   4.679   4.075   6.989
 8869SOL     OW27505   4.761   2.749   3.648
 8869SOL    HW127506   4.713   2.765   3.734
 8869SOL    HW227507   4.848   2.702   3.666
 8870SOL     OW27508   4.195   1.477   0.946
 8870SOL    HW127509   4.260   1.476   1.022
 8870SOL    HW227510   4.237   1.522   0.867
 8871SOL     OW27511   2.337   1.974   3.485
 8871SOL    HW127512   2.364   1.999   3.393
 8871SOL    HW227513   2.282   2.047   3.525
 8872SOL     OW27514   1.328   3.782   4.000
 8872SOL    HW127515   1.292   3.791   3.907
 8872SOL    HW227516   1.266   3.827   4.065
 8873SOL     OW27517   0.145   5.337   4.317
 8873SOL    HW127518   0.225   5.277   4.322
 8873SOL    HW227519   0.173   5.431   4.339
 8874SOL     OW27520   2.860   0.656   1.200
 8874SOL    HW127521   2.819   0.746   1.210
 8874SOL    HW227522   2.847   0.623   1.106
 8875SOL     OW27523   1.883   2.905   4.158
 8875SOL    HW127524   1.811   2.848   4.197
 8875SOL    HW227525   1.876   2.997   4.196
 8876SOL     OW27526   0.648   0.568   4.714
 8876SOL    HW127527   0.591   0.645   4.744
 8876SOL    HW227528   0.681   0.584   4.621
 8877SOL     OW27529   2.974   0.309   4.472
 8877SOL    HW127530   2.957   0.287   4.568
 8877SOL    HW227531   2.991   0.407   4.462
 8878SOL     OW27532   6.891   4.196   6.634
 8878SOL    HW127533   6.989   4.179   6.633
 8878SOL    HW227534   6.862   4.221   6.726
 8879SOL     OW27535   5.658   6.450   6.265
 8879SOL    HW127536   5.619   6.536   6.233
 8879SOL    HW227537   5.748   6.466   6.304
 8880SOL     OW27538   0.022   4.919   4.467
 8880SOL    HW127539   6.964   4.981   4.451
 8880SOL    HW227540   0.073   4.907   4.382
 8881SOL     OW27541   6.659   1.534   1.529
 8881SOL    HW127542   6.668   1.439   1.559
 8881SOL    HW227543   6.564   1.552   1.503
 8882SOL     OW27544   5.373   1.868   6.548
 8882SOL    HW127545   5.449   1.813   6.584
 8882SOL    HW227546   5.358   1.947   6.607
 8883SOL     OW27547   6.594   1.000   5.420
 8883SOL    HW127548   6.516   0.941   5.397
 8883SOL    HW227549   6.562   1.094   5.431
 8884SOL     OW27550   6.501   0.522   6.293
 8884SOL    HW127551   6.590   0.504   6.335
 8884SOL    HW227552   6.505   0.607   6.241
 8885SOL     OW27553   5.553   3.588   1.612
 8885SOL    HW127554   5.496   3.540   1.679
 8885SOL    HW227555   5.497   3.613   1.533
 8886SOL     OW27556   3.201   6.857   5.781
 8886SOL    HW127557   3.127   6.849   5.715
 8886SOL    HW227558   3.261   6.777   5.774
 8887SOL     OW27559   2.543   1.159   0.698
 8887SOL    HW127560   2.498   1.098   0.763
 8887SOL    HW227561   2.550   1.250   0.737
 8888SOL     OW27562   3.215   1.911   1.955
 8888SOL    HW127563   3.277   1.978   1.915
 8888SOL    HW227564   3.149   1.958   2.014
 8889SOL     OW27565   3.791   6.655   4.346
 8889SOL    HW127566   3.693   6.635   4.356
 8889SOL    HW227567   3.803   6.728   4.279
 8890SOL     OW27568   0.894   5.387   4.649
 8890SOL    HW127569   0.867   5.297   4.684
 8890SOL    HW227570   0.955   5.431   4.714
 8891SOL     OW27571   5.030   2.851   6.349
 8891SOL    HW127572   5.066   2.761   6.326
 8891SOL    HW227573   4.958   2.876   6.285
 8892SOL     OW27574   2.099   0.113   2.653
 8892SOL    HW127575   2.074   0.210   2.658
 8892SOL    HW227576   2.123   0.081   2.745
 8893SOL     OW27577   0.272   1.509   1.198
 8893SOL    HW127578   0.264   1.410   1.188
 8893SOL    HW227579   0.250   1.554   1.112
 8894SOL     OW27580   3.796   2.605   6.111
 8894SOL    HW127581   3.854   2.644   6.182
 8894SOL    HW227582   3.725   2.548   6.153
 8895SOL     OW27583   0.333   6.968   2.233
 8895SOL    HW127584   0.410   6.933   2.287
 8895SOL    HW227585   0.255   6.906   2.243
 8896SOL     OW27586   1.740   4.068   4.533
 8896SOL    HW127587   1.734   4.096   4.629
 8896SOL    HW227588   1.649   4.061   4.495
 8897SOL     OW27589   1.861   1.748   1.573
 8897SOL    HW127590   1.885   1.834   1.528
 8897SOL    HW227591   1.941   1.687   1.573
 8898SOL     OW27592   5.742   3.806   4.066
 8898SOL    HW127593   5.835   3.841   4.081
 8898SOL    HW227594   5.718   3.818   3.969
 8899SOL     OW27595   1.351   4.693   0.408
 8899SOL    HW127596   1.256   4.689   0.438
 8899SOL    HW227597   1.355   4.698   0.308
 8900SOL     OW27598   5.314   2.350   3.281
 8900SOL    HW127599   5.256   2.278   3.318
 8900SOL    HW227600   5.270   2.439   3.295
 8901SOL     OW27601   1.046   0.369   2.824
 8901SOL    HW127602   1.137   0.410   2.818
 8901SOL    HW227603   1.036   0.299   2.754
 8902SOL     OW27604   1.258   5.798   6.133
 8902SOL    HW127605   1.160   5.777   6.132
 8902SOL    HW227606   1.274   5.881   6.078
 8903SOL     OW27607   1.915   1.977   3.701
 8903SOL    HW127608   1.881   1.909   3.766
 8903SOL    HW227609   1.943   1.931   3.616
 8904SOL     OW27610   0.454   6.473   3.729
 8904SOL    HW127611   0.366   6.468   3.681
 8904SOL    HW227612   0.485   6.381   3.753
 8905SOL     OW27613   2.410   3.651   5.460
 8905SOL    HW127614   2.334   3.707   5.425
 8905SOL    HW227615   2.375   3.578   5.518
 8906SOL     OW27616   6.763   6.466   5.972
 8906SOL    HW127617   6.713   6.439   5.890
 8906SOL    HW227618   6.852   6.502   5.947
 8907SOL     OW27619   3.325   2.661   5.391
 8907SOL    HW127620   3.333   2.562   5.408
 8907SOL    HW227621   3.232   2.682   5.360
 8908SOL     OW27622   1.440   2.320   1.727
 8908SOL    HW127623   1.392   2.232   1.719
 8908SOL    HW227624   1.453   2.359   1.637
 8909SOL     OW27625   2.222   0.556   6.795
 8909SOL    HW127626   2.181   0.514   6.877
 8909SOL    HW227627   2.298   0.615   6.822
 8910SOL     OW27628   2.599   3.481   6.738
 8910SOL    HW127629   2.555   3.442   6.819
 8910SOL    HW227630   2.529   3.524   6.681
 8911SOL     OW27631   3.599   2.107   4.558
 8911SOL    HW127632   3.552   2.128   4.473
 8911SOL    HW227633   3.665   2.179   4.579
 8912SOL     OW27634   4.746   1.993   6.029
 8912SOL    HW127635   4.675   1.976   5.962
 8912SOL    HW227636   4.798   2.075   6.004
 8913SOL     OW27637   5.228   4.270   1.324
 8913SOL    HW127638   5.219   4.260   1.423
 8913SOL    HW227639   5.325   4.281   1.300
 8914SOL     OW27640   3.240   1.602   4.841
 8914SOL    HW127641   3.257   1.669   4.913
 8914SOL    HW227642   3.188   1.646   4.767
 8915SOL     OW27643   1.514   3.791   2.634
 8915SOL    HW127644   1.586   3.859   2.644
 8915SOL    HW227645   1.467   3.779   2.722
 8916SOL     OW27646   6.646   3.717   2.952
 8916SOL    HW127647   6.551   3.684   2.958
 8916SOL    HW227648   6.686   3.689   2.865
 8917SOL     OW27649   6.429   5.987   0.238
 8917SOL    HW127650   6.461   6.035   0.319
 8917SOL    HW227651   6.347   5.934   0.261
 8918SOL     OW27652   5.386   5.339   6.479
 8918SOL    HW127653   5.439   5.304   6.402
 8918SOL    HW227654   5.430   5.421   6.515
 8919SOL     OW27655   3.435   5.201   1.395
 8919SOL    HW127656   3.340   5.184   1.368
 8919SOL    HW227657   3.454   5.298   1.389
 8920SOL     OW27658   5.952   5.409   5.388
 8920SOL    HW127659   5.963   5.322   5.340
 8920SOL    HW227660   5.857   5.439   5.383
 8921SOL     OW27661   1.232   0.479   3.747
 8921SOL    HW127662   1.187   0.453   3.832
 8921SOL    HW227663   1.163   0.493   3.676
 8922SOL     OW27664   1.142   4.161   0.650
 8922SOL    HW127665   1.201   4.181   0.572
 8922SOL    HW227666   1.158   4.230   0.722
 8923SOL     OW27667   1.977   4.355   6.414
 8923SOL    HW127668   1.902   4.408   6.374
 8923SOL    HW227669   2.005   4.396   6.500
 8924SOL     OW27670   2.913   5.290   5.360
 8924SOL    HW127671   2.994   5.313   5.412
 8924SOL    HW227672   2.937   5.224   5.288
 8925SOL     OW27673   6.773   0.473   2.399
 8925SOL    HW127674   6.759   0.509   2.491
 8925SOL    HW227675   6.722   0.530   2.334
 8926SOL     OW27676   5.506   2.378   1.269
 8926SOL    HW127677   5.569   2.353   1.343
 8926SOL    HW227678   5.529   2.468   1.234
 8927SOL     OW27679   2.017   2.594   5.088
 8927SOL    HW127680   2.019   2.644   5.174
 8927SOL    HW227681   2.108   2.591   5.048
 8928SOL     OW27682   0.583   6.695   5.224
 8928SOL    HW127683   0.653   6.686   5.152
 8928SOL    HW227684   0.594   6.783   5.270
 8929SOL     OW27685   6.464   3.975   3.877
 8929SOL    HW127686   6.556   3.985   3.915
 8929SOL    HW227687   6.461   4.016   3.786
 8930SOL     OW27688   1.529   4.827   4.601
 8930SOL    HW127689   1.440   4.793   4.573
 8930SOL    HW227690   1.567   4.885   4.529
 8931SOL     OW27691   4.513   1.386   0.873
 8931SOL    HW127692   4.476   1.471   0.837
 8931SOL    HW227693   4.608   1.400   0.900
 8932SOL     OW27694   6.981   0.553   6.453
 8932SOL    HW127695   0.032   0.488   6.422
 8932SOL    HW227696   6.972   0.545   6.553
 8933SOL     OW27697   1.624   0.576   5.032
 8933SOL    HW127698   1.560   0.653   5.022
 8933SOL    HW227699   1.653   0.546   4.941
 8934SOL     OW27700   3.266   5.873   2.701
 8934SOL    HW127701   3.309   5.963   2.712
 8934SOL    HW227702   3.180   5.870   2.751
 8935SOL     OW27703   4.990   2.603   2.895
 8935SOL    HW127704   4.954   2.515   2.864
 8935SOL    HW227705   4.921   2.674   2.881
 8936SOL     OW27706   1.099   5.792   1.649
 8936SOL    HW127707   1.177   5.780   1.711
 8936SOL    HW227708   1.120   5.751   1.560
 8937SOL     OW27709   6.457   6.702   4.052
 8937SOL    HW127710   6.470   6.756   4.135
 8937SOL    HW227711   6.406   6.618   4.075
 8938SOL     OW27712   6.228   0.955   0.605
 8938SOL    HW127713   6.317   0.927   0.569
 8938SOL    HW227714   6.157   0.894   0.569
 8939SOL     OW27715   0.782   2.911   3.931
 8939SOL    HW127716   0.756   3.005   3.950
 8939SOL    HW227717   0.779   2.894   3.832
 8940SOL     OW27718   6.585   3.249   1.402
 8940SOL    HW127719   6.625   3.334   1.369
 8940SOL    HW227720   6.631   3.221   1.486
 8941SOL     OW27721   4.799   2.215   1.286
 8941SOL    HW127722   4.736   2.277   1.239
 8941SOL    HW227723   4.815   2.247   1.380
 8942SOL     OW27724   5.743   4.359   3.874
 8942SOL    HW127725   5.771   4.278   3.925
 8942SOL    HW227726   5.812   4.379   3.804
 8943SOL     OW27727   5.001   3.927   6.992
 8943SOL    HW127728   4.910   3.968   6.998
 8943SOL    HW227729   5.041   3.921   0.063
 8944SOL     OW27730   5.042   5.511   4.446
 8944SOL    HW127731   4.970   5.453   4.484
 8944SOL    HW227732   5.086   5.562   4.520
 8945SOL     OW27733   5.806   3.741   5.491
 8945SOL    HW127734   5.774   3.657   5.535
 8945SOL    HW227735   5.836   3.720   5.398
 8946SOL     OW27736   5.258   0.560   4.667
 8946SOL    HW127737   5.180   0.517   4.623
 8946SOL    HW227738   5.293   0.633   4.609
 8947SOL     OW27739   1.925   4.987   6.738
 8947SOL    HW127740   1.974   4.977   6.652
 8947SOL    HW227741   1.974   5.050   6.798
 8948SOL     OW27742   6.585   1.194   3.201
 8948SOL    HW127743   6.652   1.251   3.155
 8948SOL    HW227744   6.524   1.152   3.134
 8949SOL     OW27745   3.070   6.013   0.957
 8949SOL    HW127746   3.138   5.988   0.889
 8949SOL    HW227747   3.091   5.967   1.044
 8950SOL     OW27748   4.995   4.042   1.237
 8950SOL    HW127749   5.021   4.139   1.241
 8950SOL    HW227750   4.896   4.035   1.224
 8951SOL     OW27751   1.806   1.832   4.579
 8951SOL    HW127752   1.847   1.890   4.649
 8951SOL    HW227753   1.721   1.874   4.546
 8952SOL     OW27754   2.053   4.416   3.973
 8952SOL    HW127755   2.135   4.361   3.990
 8952SOL    HW227756   2.079   4.510   3.950
 8953SOL     OW27757   1.593   5.074   1.853
 8953SOL    HW127758   1.558   5.103   1.764
 8953SOL    HW227759   1.689   5.104   1.863
 8954SOL     OW27760   1.670   5.400   4.924
 8954SOL    HW127761   1.622   5.332   4.979
 8954SOL    HW227762   1.751   5.358   4.883
 8955SOL     OW27763   5.804   2.642   4.308
 8955SOL    HW127764   5.829   2.737   4.287
 8955SOL    HW227765   5.798   2.630   4.407
 8956SOL     OW27766   0.857   5.693   5.874
 8956SOL    HW127767   0.877   5.664   5.781
 8956SOL    HW227768   0.869   5.793   5.881
 8957SOL     OW27769   1.111   5.871   2.626
 8957SOL    HW127770   1.114   5.954   2.681
 8957SOL    HW227771   1.094   5.792   2.686
 8958SOL     OW27772   1.899   4.095   5.034
 8958SOL    HW127773   1.881   4.034   4.957
 8958SOL    HW227774   1.971   4.055   5.091
 8959SOL     OW27775   0.044   2.891   2.916
 8959SOL    HW127776   6.974   2.919   2.950
 8959SOL    HW227777   0.114   2.909   2.985
 8960SOL     OW27778   5.116   4.180   3.443
 8960SOL    HW127779   5.209   4.209   3.466
 8960SOL    HW227780   5.079   4.124   3.517
 8961SOL     OW27781   2.559   6.304   5.474
 8961SOL    HW127782   2.569   6.274   5.380
 8961SOL    HW227783   2.649   6.317   5.516
 8962SOL     OW27784   0.680   6.067   1.557
 8962SOL    HW127785   0.722   6.101   1.641
 8962SOL    HW227786   0.734   5.990   1.522
 8963SOL     OW27787   3.969   5.976   4.431
 8963SOL    HW127788   4.021   5.891   4.430
 8963SOL    HW227789   4.007   6.039   4.499
 8964SOL     OW27790   0.632   3.348   4.526
 8964SOL    HW127791   0.600   3.408   4.599
 8964SOL    HW227792   0.611   3.253   4.550
 8965SOL     OW27793   4.297   4.885   0.722
 8965SOL    HW127794   4.279   4.877   0.623
 8965SOL    HW227795   4.357   4.810   0.750
 8966SOL     OW27796   4.879   4.870   6.325
 8966SOL    HW127797   4.816   4.816   6.270
 8966SOL    HW227798   4.928   4.935   6.266
 8967SOL     OW27799   2.714   0.063   3.233
 8967SOL    HW127800   2.721   7.010   3.165
 8967SOL    HW227801   2.627   0.111   3.221
 8968SOL     OW27802   3.278   4.993   1.875
 8968SOL    HW127803   3.324   4.909   1.845
 8968SOL    HW227804   3.228   5.033   1.799
 8969SOL     OW27805   0.016   1.173   2.869
 8969SOL    HW127806   0.092   1.145   2.928
 8969SOL    HW227807   0.007   1.273   2.871
 8970SOL     OW27808   1.982   0.785   5.301
 8970SOL    HW127809   2.049   0.751   5.235
 8970SOL    HW227810   1.930   0.708   5.338
 8971SOL     OW27811   4.489   5.488   0.822
 8971SOL    HW127812   4.528   5.433   0.747
 8971SOL    HW227813   4.461   5.427   0.896
 8972SOL     OW27814   6.447   4.757   0.728
 8972SOL    HW127815   6.358   4.712   0.727
 8972SOL    HW227816   6.438   4.851   0.693
 8973SOL     OW27817   1.054   2.550   2.479
 8973SOL    HW127818   1.085   2.471   2.531
 8973SOL    HW227819   0.981   2.596   2.529
 8974SOL     OW27820   2.069   4.455   4.728
 8974SOL    HW127821   2.087   4.381   4.793
 8974SOL    HW227822   2.152   4.511   4.718
 8975SOL     OW27823   0.534   6.536   6.184
 8975SOL    HW127824   0.520   6.520   6.086
 8975SOL    HW227825   0.468   6.482   6.236
 8976SOL     OW27826   6.769   6.865   1.843
 8976SOL    HW127827   6.728   6.923   1.914
 8976SOL    HW227828   6.778   6.918   1.758
 8977SOL     OW27829   0.007   4.989   6.029
 8977SOL    HW127830   0.024   5.001   5.931
 8977SOL    HW227831   7.013   4.892   6.048
 8978SOL     OW27832   5.563   5.546   5.712
 8978SOL    HW127833   5.636   5.556   5.644
 8978SOL    HW227834   5.495   5.480   5.678
 8979SOL     OW27835   0.804   4.803   5.899
 8979SOL    HW127836   0.746   4.881   5.921
 8979SOL    HW227837   0.756   4.742   5.837
 8980SOL     OW27838   3.373   0.750   5.009
 8980SOL    HW127839   3.411   0.804   4.934
 8980SOL    HW227840   3.278   0.776   5.024
 8981SOL     OW27841   3.835   2.719   6.987
 8981SOL    HW127842   3.847   2.659   0.047
 8981SOL    HW227843   3.925   2.753   6.958
 8982SOL     OW27844   0.815   1.410   1.353
 8982SOL    HW127845   0.879   1.486   1.344
 8982SOL    HW227846   0.863   1.329   1.386
 8983SOL     OW27847   0.979   0.486   2.251
 8983SOL    HW127848   0.953   0.418   2.183
 8983SOL    HW227849   0.995   0.442   2.339
 8984SOL     OW27850   5.942   0.341   3.993
 8984SOL    HW127851   5.971   0.246   3.988
 8984SOL    HW227852   5.851   0.350   3.951
 8985SOL     OW27853   4.437   2.833   0.703
 8985SOL    HW127854   4.510   2.797   0.645
 8985SOL    HW227855   4.348   2.805   0.666
 8986SOL     OW27856   6.960   5.602   0.357
 8986SOL    HW127857   6.942   5.590   0.455
 8986SOL    HW227858   6.974   5.699   0.337
 8987SOL     OW27859   1.969   0.623   1.411
 8987SOL    HW127860   2.015   0.628   1.323
 8987SOL    HW227861   1.941   0.529   1.428
 8988SOL     OW27862   1.215   5.357   1.456
 8988SOL    HW127863   1.165   5.425   1.402
 8988SOL    HW227864   1.150   5.303   1.509
 8989SOL     OW27865   4.688   1.669   1.567
 8989SOL    HW127866   4.711   1.749   1.511
 8989SOL    HW227867   4.771   1.622   1.595
 8990SOL     OW27868   3.919   0.447   1.964
 8990SOL    HW127869   3.857   0.380   2.004
 8990SOL    HW227870   4.008   0.404   1.945
 8991SOL     OW27871   2.044   2.795   6.914
 8991SOL    HW127872   1.994   2.742   6.846
 8991SOL    HW227873   2.143   2.779   6.903
 8992SOL     OW27874   0.545   3.602   0.365
 8992SOL    HW127875   0.515   3.532   0.301
 8992SOL    HW227876   0.600   3.671   0.317
 8993SOL     OW27877   5.653   3.097   3.763
 8993SOL    HW127878   5.626   3.143   3.848
 8993SOL    HW227879   5.660   2.998   3.779
 8994SOL     OW27880   0.590   5.261   3.066
 8994SOL    HW127881   0.519   5.325   3.093
 8994SOL    HW227882   0.636   5.293   2.984
 8995SOL     OW27883   1.901   3.873   4.857
 8995SOL    HW127884   1.816   3.887   4.805
 8995SOL    HW227885   1.967   3.824   4.799
 8996SOL     OW27886   0.512   4.345   2.699
 8996SOL    HW127887   0.604   4.333   2.661
 8996SOL    HW227888   0.446   4.298   2.640
 8997SOL     OW27889   4.654   1.862   5.442
 8997SOL    HW127890   4.662   1.962   5.450
 8997SOL    HW227891   4.621   1.839   5.351
 8998SOL     OW27892   1.305   2.714   6.516
 8998SOL    HW127893   1.358   2.673   6.442
 8998SOL    HW227894   1.330   2.810   6.526
 8999SOL     OW27895   6.274   1.374   4.507
 8999SOL    HW127896   6.315   1.290   4.473
 8999SOL    HW227897   6.189   1.352   4.555
 9000SOL     OW27898   3.248   3.599   0.564
 9000SOL    HW127899   3.311   3.676   0.551
 9000SOL    HW227900   3.176   3.626   0.629
 9001SOL     OW27901   1.615   5.390   3.473
 9001SOL    HW127902   1.566   5.321   3.527
 9001SOL    HW227903   1.556   5.470   3.460
 9002SOL     OW27904   5.639   4.402   5.509
 9002SOL    HW127905   5.603   4.341   5.579
 9002SOL    HW227906   5.694   4.473   5.553
 9003SOL     OW27907   5.560   2.822   6.658
 9003SOL    HW127908   5.486   2.794   6.597
 9003SOL    HW227909   5.529   2.816   6.753
 9004SOL     OW27910   4.432   6.701   1.021
 9004SOL    HW127911   4.346   6.675   0.976
 9004SOL    HW227912   4.423   6.686   1.120
 9005SOL     OW27913   5.112   1.959   3.537
 9005SOL    HW127914   5.081   1.967   3.631
 9005SOL    HW227915   5.106   1.863   3.508
 9006SOL     OW27916   0.822   5.157   1.049
 9006SOL    HW127917   0.754   5.228   1.027
 9006SOL    HW227918   0.910   5.201   1.068
 9007SOL     OW27919   2.751   6.824   4.104
 9007SOL    HW127920   2.670   6.795   4.155
 9007SOL    HW227921   2.817   6.864   4.166
 9008SOL     OW27922   6.919   4.426   2.473
 9008SOL    HW127923   6.901   4.329   2.493
 9008SOL    HW227924   6.998   4.457   2.527
 9009SOL     OW27925   2.786   6.096   0.973
 9009SOL    HW127926   2.870   6.058   0.935
 9009SOL    HW227927   2.804   6.186   1.012
 9010SOL     OW27928   1.107   6.383   5.155
 9010SOL    HW127929   1.148   6.296   5.185
 9010SOL    HW227930   1.075   6.373   5.061
 9011SOL     OW27931   4.680   1.934   0.974
 9011SOL    HW127932   4.703   2.030   0.989
 9011SOL    HW227933   4.732   1.877   1.037
 9012SOL     OW27934   0.138   5.422   1.546
 9012SOL    HW127935   0.083   5.433   1.628
 9012SOL    HW227936   0.203   5.498   1.539
 9013SOL     OW27937   5.975   5.624   3.675
 9013SOL    HW127938   6.019   5.712   3.659
 9013SOL    HW227939   5.922   5.598   3.594
 9014SOL     OW27940   2.975   1.018   0.871
 9014SOL    HW127941   2.955   0.993   0.966
 9014SOL    HW227942   3.070   1.049   0.865
 9015SOL     OW27943   0.372   1.014   5.838
 9015SOL    HW127944   0.400   1.006   5.934
 9015SOL    HW227945   0.289   0.961   5.823
 9016SOL     OW27946   6.244   5.678   6.672
 9016SOL    HW127947   6.236   5.764   6.621
 9016SOL    HW227948   6.318   5.686   6.738
 9017SOL     OW27949   6.685   2.608   3.667
 9017SOL    HW127950   6.728   2.533   3.717
 9017SOL    HW227951   6.612   2.647   3.722
 9018SOL     OW27952   3.688   2.512   5.323
 9018SOL    HW127953   3.611   2.533   5.383
 9018SOL    HW227954   3.701   2.587   5.259
 9019SOL     OW27955   2.301   0.054   0.848
 9019SOL    HW127956   2.352   0.092   0.770
 9019SOL    HW227957   2.354   0.069   0.932
 9020SOL     OW27958   0.309   4.857   3.246
 9020SOL    HW127959   0.377   4.827   3.313
 9020SOL    HW227960   0.288   4.782   3.183
 9021SOL     OW27961   6.535   5.697   5.252
 9021SOL    HW127962   6.450   5.737   5.284
 9021SOL    HW227963   6.519   5.649   5.165
 9022SOL     OW27964   3.594   0.510   0.202
 9022SOL    HW127965   3.535   0.565   0.262
 9022SOL    HW227966   3.552   0.421   0.187
 9023SOL     OW27967   3.434   3.170   3.380
 9023SOL    HW127968   3.499   3.242   3.356
 9023SOL    HW227969   3.427   3.105   3.305
 9024SOL     OW27970   2.160   6.570   6.862
 9024SOL    HW127971   2.192   6.619   6.781
 9024SOL    HW227972   2.202   6.610   6.944
 9025SOL     OW27973   6.032   5.061   1.213
 9025SOL    HW127974   6.089   5.004   1.272
 9025SOL    HW227975   6.053   5.157   1.229
 9026SOL     OW27976   3.609   2.880   4.969
 9026SOL    HW127977   3.614   2.816   5.046
 9026SOL    HW227978   3.537   2.850   4.906
 9027SOL     OW27979   2.168   3.006   3.646
 9027SOL    HW127980   2.100   2.973   3.712
 9027SOL    HW227981   2.181   2.937   3.575
 9028SOL     OW27982   2.921   4.871   5.059
 9028SOL    HW127983   2.917   4.907   5.153
 9028SOL    HW227984   2.875   4.782   5.056
 9029SOL     OW27985   4.989   6.398   2.985
 9029SOL    HW127986   4.906   6.439   3.021
 9029SOL    HW227987   5.052   6.471   2.957
 9030SOL     OW27988   2.913   1.102   1.853
 9030SOL    HW127989   2.979   1.159   1.902
 9030SOL    HW227990   2.821   1.121   1.887
 9031SOL     OW27991   2.522   5.938   6.368
 9031SOL    HW127992   2.603   5.978   6.410
 9031SOL    HW227993   2.447   6.004   6.369
 9032SOL     OW27994   2.346   1.766   1.903
 9032SOL    HW127995   2.445   1.756   1.910
 9032SOL    HW227996   2.320   1.783   1.808
 9033SOL     OW27997   1.744   3.899   2.708
 9033SOL    HW127998   1.797   3.984   2.701
 9033SOL    HW227999   1.756   3.860   2.800
 9034SOL     OW28000   3.388   6.650   5.746
 9034SOL    HW128001   3.411   6.559   5.710
 9034SOL    HW228002   3.454   6.675   5.817
 9035SOL     OW28003   0.030   1.218   4.376
 9035SOL    HW128004   0.110   1.202   4.318
 9035SOL    HW228005   0.049   1.293   4.440
 9036SOL     OW28006   0.625   2.146   5.861
 9036SOL    HW128007   0.718   2.112   5.845
 9036SOL    HW228008   0.581   2.165   5.773
 9037SOL     OW28009   2.055   4.472   6.642
 9037SOL    HW128010   2.130   4.503   6.700
 9037SOL    HW228011   1.977   4.534   6.653
 9038SOL     OW28012   4.948   6.182   5.315
 9038SOL    HW128013   4.928   6.212   5.408
 9038SOL    HW228014   5.045   6.162   5.306
 9039SOL     OW28015   2.085   5.697   5.403
 9039SOL    HW128016   2.038   5.610   5.392
 9039SOL    HW228017   2.153   5.708   5.331
 9040SOL     OW28018   1.939   1.264   2.785
 9040SOL    HW128019   1.936   1.360   2.811
 9040SOL    HW228020   1.892   1.209   2.854
 9041SOL     OW28021   1.797   3.192   0.785
 9041SOL    HW128022   1.800   3.277   0.733
 9041SOL    HW228023   1.887   3.175   0.825
 9042SOL     OW28024   2.822   4.727   3.500
 9042SOL    HW128025   2.758   4.683   3.437
 9042SOL    HW228026   2.832   4.671   3.582
 9043SOL     OW28027   0.661   2.444   5.968
 9043SOL    HW128028   0.671   2.345   5.982
 9043SOL    HW228029   0.738   2.491   6.012
 9044SOL     OW28030   6.273   6.712   0.991
 9044SOL    HW128031   6.290   6.618   1.020
 9044SOL    HW228032   6.335   6.774   1.039
 9045SOL     OW28033   2.606   6.912   3.484
 9045SOL    HW128034   2.559   6.877   3.403
 9045SOL    HW228035   2.702   6.886   3.481
 9046SOL     OW28036   3.120   4.041   4.795
 9046SOL    HW128037   3.091   4.057   4.889
 9046SOL    HW228038   3.219   4.054   4.787
 9047SOL     OW28039   1.253   4.832   4.556
 9047SOL    HW128040   1.215   4.749   4.516
 9047SOL    HW228041   1.178   4.893   4.581
 9048SOL     OW28042   0.724   3.662   4.686
 9048SOL    HW128043   0.668   3.658   4.603
 9048SOL    HW228044   0.816   3.630   4.665
 9049SOL     OW28045   5.472   5.599   6.548
 9049SOL    HW128046   5.570   5.587   6.536
 9049SOL    HW228047   5.449   5.696   6.539
 9050SOL     OW28048   6.998   5.201   6.190
 9050SOL    HW128049   0.009   5.137   6.119
 9050SOL    HW228050   6.903   5.228   6.172
 9051SOL     OW28051   5.292   6.279   6.699
 9051SOL    HW128052   5.285   6.367   6.746
 9051SOL    HW228053   5.249   6.286   6.609
 9052SOL     OW28054   2.534   5.115   4.558
 9052SOL    HW128055   2.496   5.206   4.574
 9052SOL    HW228056   2.583   5.114   4.471
 9053SOL     OW28057   2.742   2.376   4.012
 9053SOL    HW128058   2.804   2.375   4.090
 9053SOL    HW228059   2.701   2.285   4.000
 9054SOL     OW28060   2.921   0.531   1.427
 9054SOL    HW128061   2.937   0.593   1.504
 9054SOL    HW228062   2.907   0.584   1.344
 9055SOL     OW28063   1.092   2.669   4.016
 9055SOL    HW128064   1.188   2.661   3.988
 9055SOL    HW228065   1.033   2.663   3.936
 9056SOL     OW28066   5.707   0.187   3.201
 9056SOL    HW128067   5.732   0.264   3.141
 9056SOL    HW228068   5.608   0.183   3.210
 9057SOL     OW28069   5.945   5.526   6.021
 9057SOL    HW128070   6.028   5.543   5.967
 9057SOL    HW228071   5.927   5.427   6.024
 9058SOL     OW28072   1.540   2.785   4.708
 9058SOL    HW128073   1.591   2.849   4.765
 9058SOL    HW228074   1.445   2.779   4.741
 9059SOL     OW28075   6.928   1.988   3.023
 9059SOL    HW128076   6.946   1.896   3.057
 9059SOL    HW228077   6.893   2.046   3.097
 9060SOL     OW28078   0.600   3.498   1.703
 9060SOL    HW128079   0.657   3.447   1.767
 9060SOL    HW228080   0.616   3.596   1.713
 9061SOL     OW28081   5.226   5.208   1.979
 9061SOL    HW128082   5.166   5.141   1.934
 9061SOL    HW228083   5.305   5.160   2.017
 9062SOL     OW28084   0.746   5.328   3.413
 9062SOL    HW128085   0.753   5.234   3.446
 9062SOL    HW228086   0.650   5.354   3.406
 9063SOL     OW28087   3.683   0.909   2.474
 9063SOL    HW128088   3.651   0.990   2.425
 9063SOL    HW228089   3.607   0.845   2.485
 9064SOL     OW28090   0.628   4.656   3.573
 9064SOL    HW128091   0.607   4.559   3.578
 9064SOL    HW228092   0.725   4.671   3.593
 9065SOL     OW28093   2.644   5.333   5.413
 9065SOL    HW128094   2.612   5.242   5.442
 9065SOL    HW228095   2.741   5.327   5.388
 9066SOL     OW28096   5.110   4.925   5.659
 9066SOL    HW128097   5.100   4.966   5.749
 9066SOL    HW228098   5.070   4.834   5.659
 9067SOL     OW28099   0.039   0.410   4.601
 9067SOL    HW128100   0.027   0.336   4.668
 9067SOL    HW228101   0.131   0.448   4.610
 9068SOL     OW28102   4.872   6.542   4.233
 9068SOL    HW128103   4.812   6.465   4.253
 9068SOL    HW228104   4.960   6.528   4.278
 9069SOL     OW28105   4.826   2.172   1.922
 9069SOL    HW128106   4.762   2.103   1.891
 9069SOL    HW228107   4.904   2.128   1.967
 9070SOL     OW28108   1.605   1.913   5.694
 9070SOL    HW128109   1.519   1.905   5.644
 9070SOL    HW228110   1.614   2.005   5.731
 9071SOL     OW28111   5.264   1.189   5.661
 9071SOL    HW128112   5.195   1.135   5.613
 9071SOL    HW228113   5.247   1.185   5.760
 9072SOL     OW28114   5.373   0.625   2.546
 9072SOL    HW128115   5.419   0.554   2.599
 9072SOL    HW228116   5.275   0.623   2.566
 9073SOL     OW28117   4.619   0.798   6.547
 9073SOL    HW128118   4.527   0.762   6.531
 9073SOL    HW228119   4.673   0.786   6.464
 9074SOL     OW28120   1.459   0.034   1.838
 9074SOL    HW128121   1.556   0.057   1.849
 9074SOL    HW228122   1.411   0.051   1.924
 9075SOL     OW28123   6.896   0.256   1.569
 9075SOL    HW128124   6.916   0.353   1.580
 9075SOL    HW228125   6.964   0.202   1.619
 9076SOL     OW28126   6.514   0.535   2.029
 9076SOL    HW128127   6.518   0.594   2.109
 9076SOL    HW228128   6.448   0.572   1.963
 9077SOL     OW28129   6.154   1.394   5.965
 9077SOL    HW128130   6.245   1.409   6.005
 9077SOL    HW228131   6.090   1.461   6.002
 9078SOL     OW28132   5.883   5.653   0.157
 9078SOL    HW128133   5.937   5.734   0.135
 9078SOL    HW228134   5.800   5.681   0.206
 9079SOL     OW28135   1.308   0.326   6.071
 9079SOL    HW128136   1.400   0.324   6.110
 9079SOL    HW228137   1.246   0.271   6.127
 9080SOL     OW28138   6.709   3.501   1.381
 9080SOL    HW128139   6.672   3.543   1.464
 9080SOL    HW228140   6.805   3.526   1.371
 9081SOL     OW28141   3.473   1.776   0.535
 9081SOL    HW128142   3.549   1.832   0.500
 9081SOL    HW228143   3.491   1.680   0.516
 9082SOL     OW28144   3.381   5.929   5.793
 9082SOL    HW128145   3.449   6.000   5.812
 9082SOL    HW228146   3.314   5.927   5.868
 9083SOL     OW28147   4.540   4.656   6.843
 9083SOL    HW128148   4.440   4.661   6.851
 9083SOL    HW228149   4.564   4.575   6.789
 9084SOL     OW28150   0.552   2.902   5.733
 9084SOL    HW128151   0.614   2.825   5.715
 9084SOL    HW228152   0.578   2.979   5.674
 9085SOL     OW28153   2.603   5.206   6.808
 9085SOL    HW128154   2.552   5.153   6.876
 9085SOL    HW228155   2.700   5.182   6.814
 9086SOL     OW28156   6.814   4.173   0.571
 9086SOL    HW128157   6.749   4.162   0.497
 9086SOL    HW228158   6.852   4.266   0.568
 9087SOL     OW28159   5.891   1.389   1.680
 9087SOL    HW128160   5.824   1.443   1.629
 9087SOL    HW228161   5.957   1.450   1.723
 9088SOL     OW28162   6.419   0.711   1.263
 9088SOL    HW128163   6.359   0.765   1.204
 9088SOL    HW228164   6.449   0.767   1.340
 9089SOL     OW28165   4.264   5.916   3.557
 9089SOL    HW128166   4.318   5.871   3.487
 9089SOL    HW228167   4.318   5.987   3.601
 9090SOL     OW28168   5.922   6.419   5.098
 9090SOL    HW128169   5.985   6.470   5.156
 9090SOL    HW228170   5.969   6.388   5.016
 9091SOL     OW28171   3.008   1.846   0.941
 9091SOL    HW128172   2.920   1.853   0.894
 9091SOL    HW228173   3.045   1.754   0.928
 9092SOL     OW28174   1.550   6.394   5.681
 9092SOL    HW128175   1.571   6.301   5.709
 9092SOL    HW228176   1.524   6.396   5.584
 9093SOL     OW28177   1.344   5.545   0.263
 9093SOL    HW128178   1.360   5.446   0.256
 9093SOL    HW228179   1.416   5.594   0.213
 9094SOL     OW28180   0.040   5.424   2.589
 9094SOL    HW128181   0.104   5.493   2.554
 9094SOL    HW228182   0.003   5.371   2.513
 9095SOL     OW28183   4.245   3.673   6.499
 9095SOL    HW128184   4.208   3.699   6.588
 9095SOL    HW228185   4.180   3.697   6.427
 9096SOL     OW28186   5.860   2.926   2.820
 9096SOL    HW128187   5.793   2.871   2.772
 9096SOL    HW228188   5.952   2.891   2.801
 9097SOL     OW28189   0.986   3.698   6.626
 9097SOL    HW128190   0.928   3.622   6.597
 9097SOL    HW228191   0.962   3.780   6.573
 9098SOL     OW28192   3.863   3.821   2.429
 9098SOL    HW128193   3.894   3.879   2.354
 9098SOL    HW228194   3.772   3.851   2.460
 9099SOL     OW28195   2.622   3.265   1.041
 9099SOL    HW128196   2.710   3.260   0.995
 9099SOL    HW228197   2.632   3.311   1.129
 9100SOL     OW28198   0.568   3.284   1.081
 9100SOL    HW128199   0.479   3.259   1.045
 9100SOL    HW228200   0.571   3.383   1.098
 9101SOL     OW28201   1.450   2.584   2.583
 9101SOL    HW128202   1.428   2.532   2.666
 9101SOL    HW228203   1.545   2.568   2.558
 9102SOL     OW28204   3.475   5.492   1.479
 9102SOL    HW128205   3.426   5.545   1.409
 9102SOL    HW228206   3.417   5.482   1.560
 9103SOL     OW28207   0.186   3.717   0.704
 9103SOL    HW128208   0.190   3.660   0.622
 9103SOL    HW228209   0.165   3.660   0.783
 9104SOL     OW28210   4.334   5.988   1.587
 9104SOL    HW128211   4.392   5.944   1.518
 9104SOL    HW228212   4.296   5.918   1.648
 9105SOL     OW28213   1.462   0.701   6.299
 9105SOL    HW128214   1.396   0.694   6.225
 9105SOL    HW228215   1.515   0.785   6.288
 9106SOL     OW28216   5.717   4.945   6.931
 9106SOL    HW128217   5.618   4.959   6.925
 9106SOL    HW228218   5.738   4.849   6.916
 9107SOL     OW28219   3.678   6.919   0.201
 9107SOL    HW128220   3.651   7.002   0.250
 9107SOL    HW228221   3.657   6.928   0.104
 9108SOL     OW28222   4.866   4.269   5.490
 9108SOL    HW128223   4.839   4.364   5.474
 9108SOL    HW228224   4.966   4.264   5.501
 9109SOL     OW28225   2.267   2.827   3.454
 9109SOL    HW128226   2.322   2.853   3.375
 9109SOL    HW228227   2.300   2.739   3.490
 9110SOL     OW28228   1.952   5.042   3.507
 9110SOL    HW128229   1.923   5.028   3.601
 9110SOL    HW228230   1.873   5.036   3.446
 9111SOL     OW28231   3.451   4.325   1.398
 9111SOL    HW128232   3.523   4.274   1.445
 9111SOL    HW228233   3.361   4.289   1.424
 9112SOL     OW28234   0.855   4.170   3.236
 9112SOL    HW128235   0.758   4.190   3.248
 9112SOL    HW228236   0.866   4.082   3.189
 9113SOL     OW28237   5.192   0.549   0.534
 9113SOL    HW128238   5.251   0.469   0.547
 9113SOL    HW228239   5.137   0.535   0.452
 9114SOL     OW28240   2.251   4.703   2.186
 9114SOL    HW128241   2.308   4.633   2.229
 9114SOL    HW228242   2.305   4.785   2.170
 9115SOL     OW28243   1.398   4.935   4.166
 9115SOL    HW128244   1.335   5.011   4.181
 9115SOL    HW228245   1.467   4.933   4.238
 9116SOL     OW28246   6.876   1.528   6.604
 9116SOL    HW128247   6.874   1.628   6.601
 9116SOL    HW228248   6.970   1.496   6.593
 9117SOL     OW28249   6.475   3.014   5.993
 9117SOL    HW128250   6.489   3.003   6.091
 9117SOL    HW228251   6.558   3.054   5.952
 9118SOL     OW28252   6.302   0.217   1.128
 9118SOL    HW128253   6.396   0.245   1.144
 9118SOL    HW228254   6.241   0.294   1.146
 9119SOL     OW28255   5.963   0.938   2.331
 9119SOL    HW128256   5.997   0.848   2.305
 9119SOL    HW228257   5.865   0.931   2.351
 9120SOL     OW28258   5.711   2.039   6.008
 9120SOL    HW128259   5.700   1.945   6.041
 9120SOL    HW228260   5.681   2.103   6.079
 9121SOL     OW28261   0.577   2.774   5.006
 9121SOL    HW128262   0.653   2.820   5.052
 9121SOL    HW228263   0.612   2.714   4.934
 9122SOL     OW28264   1.612   2.446   2.290
 9122SOL    HW128265   1.685   2.496   2.244
 9122SOL    HW228266   1.619   2.460   2.389
 9123SOL     OW28267   3.180   6.248   5.225
 9123SOL    HW128268   3.175   6.149   5.211
 9123SOL    HW228269   3.145   6.295   5.144
 9124SOL     OW28270   6.213   5.767   5.234
 9124SOL    HW128271   6.260   5.835   5.289
 9124SOL    HW228272   6.253   5.765   5.142
 9125SOL     OW28273   4.487   4.490   3.687
 9125SOL    HW128274   4.562   4.424   3.692
 9125SOL    HW228275   4.496   4.556   3.761
 9126SOL     OW28276   6.229   0.983   1.869
 9126SOL    HW128277   6.223   1.082   1.878
 9126SOL    HW228278   6.323   0.953   1.886
 9127SOL     OW28279   6.011   6.859   6.033
 9127SOL    HW128280   5.947   6.782   6.040
 9127SOL    HW228281   6.037   6.890   6.124
 9128SOL     OW28282   4.283   1.594   5.189
 9128SOL    HW128283   4.373   1.550   5.198
 9128SOL    HW228284   4.213   1.524   5.177
 9129SOL     OW28285   2.059   3.280   6.905
 9129SOL    HW128286   2.004   3.277   6.821
 9129SOL    HW228287   2.007   3.240   6.980
 9130SOL     OW28288   0.004   4.476   6.565
 9130SOL    HW128289   0.062   4.395   6.570
 9130SOL    HW228290   7.015   4.516   6.656
 9131SOL     OW28291   0.594   4.352   4.995
 9131SOL    HW128292   0.512   4.350   5.052
 9131SOL    HW228293   0.602   4.266   4.945
 9132SOL     OW28294   6.423   4.290   3.994
 9132SOL    HW128295   6.500   4.229   4.013
 9132SOL    HW228296   6.338   4.246   4.021
 9133SOL     OW28297   2.612   4.655   0.573
 9133SOL    HW128298   2.566   4.618   0.654
 9133SOL    HW228299   2.566   4.739   0.544
 9134SOL     OW28300   3.311   6.426   0.746
 9134SOL    HW128301   3.344   6.353   0.686
 9134SOL    HW228302   3.383   6.494   0.759
 9135SOL     OW28303   0.105   0.199   2.484
 9135SOL    HW128304   0.183   0.240   2.435
 9135SOL    HW228305   0.020   0.231   2.443
 9136SOL     OW28306   4.750   5.152   5.833
 9136SOL    HW128307   4.816   5.226   5.823
 9136SOL    HW228308   4.774   5.077   5.771
 9137SOL     OW28309   5.721   1.299   1.183
 9137SOL    HW128310   5.695   1.381   1.133
 9137SOL    HW228311   5.732   1.223   1.119
 9138SOL     OW28312   6.326   5.222   5.666
 9138SOL    HW128313   6.256   5.241   5.735
 9138SOL    HW228314   6.416   5.224   5.709
 9139SOL     OW28315   2.477   1.635   5.318
 9139SOL    HW128316   2.548   1.569   5.343
 9139SOL    HW228317   2.516   1.727   5.312
 9140SOL     OW28318   6.548   2.688   2.809
 9140SOL    HW128319   6.472   2.634   2.845
 9140SOL    HW228320   6.553   2.775   2.857
 9141SOL     OW28321   5.372   6.501   6.401
 9141SOL    HW128322   5.355   6.402   6.398
 9141SOL    HW228323   5.465   6.518   6.431
 9142SOL     OW28324   0.239   2.442   5.036
 9142SOL    HW128325   0.258   2.508   5.108
 9142SOL    HW228326   0.272   2.352   5.064
 9143SOL     OW28327   4.304   3.737   0.330
 9143SOL    HW128328   4.342   3.828   0.312
 9143SOL    HW228329   4.235   3.744   0.402
 9144SOL     OW28330   2.113   5.776   6.361
 9144SOL    HW128331   2.116   5.779   6.261
 9144SOL    HW228332   2.203   5.751   6.397
 9145SOL     OW28333   0.329   5.476   1.039
 9145SOL    HW128334   0.420   5.478   1.079
 9145SOL    HW228335   0.261   5.486   1.112
 9146SOL     OW28336   5.186   2.023   1.287
 9146SOL    HW128337   5.240   1.953   1.334
 9146SOL    HW228338   5.112   2.054   1.346
 9147SOL     OW28339   5.559   6.549   4.621
 9147SOL    HW128340   5.513   6.572   4.706
 9147SOL    HW228341   5.593   6.633   4.578
 9148SOL     OW28342   6.179   6.502   1.672
 9148SOL    HW128343   6.206   6.462   1.585
 9148SOL    HW228344   6.084   6.476   1.693
 9149SOL     OW28345   4.946   2.505   4.198
 9149SOL    HW128346   4.964   2.511   4.100
 9149SOL    HW228347   5.016   2.447   4.241
 9150SOL     OW28348   3.862   5.934   3.396
 9150SOL    HW128349   3.772   5.909   3.432
 9150SOL    HW228350   3.909   5.851   3.365
 9151SOL     OW28351   1.025   4.130   2.945
 9151SOL    HW128352   1.067   4.063   2.884
 9151SOL    HW228353   1.084   4.145   3.024
 9152SOL     OW28354   2.600   5.954   3.974
 9152SOL    HW128355   2.618   5.895   3.896
 9152SOL    HW228356   2.599   5.899   4.058
 9153SOL     OW28357   1.599   3.222   0.518
 9153SOL    HW128358   1.609   3.123   0.523
 9153SOL    HW228359   1.660   3.265   0.584
 9154SOL     OW28360   2.363   5.355   6.446
 9154SOL    HW128361   2.367   5.272   6.502
 9154SOL    HW228362   2.455   5.394   6.438
 9155SOL     OW28363   2.057   3.691   0.462
 9155SOL    HW128364   2.137   3.633   0.478
 9155SOL    HW228365   1.979   3.634   0.436
 9156SOL     OW28366   2.904   2.853   1.289
 9156SOL    HW128367   2.833   2.913   1.253
 9156SOL    HW228368   2.976   2.843   1.220
 9157SOL     OW28369   5.943   4.684   5.498
 9157SOL    HW128370   6.041   4.667   5.505
 9157SOL    HW228371   5.897   4.649   5.580
 9158SOL     OW28372   6.200   3.654   4.656
 9158SOL    HW128373   6.107   3.670   4.689
 9158SOL    HW228374   6.256   3.618   4.731
 9159SOL     OW28375   0.125   6.197   3.315
 9159SOL    HW128376   0.122   6.127   3.387
 9159SOL    HW228377   0.060   6.270   3.337
 9160SOL     OW28378   0.030   0.196   4.808
 9160SOL    HW128379   0.094   0.137   4.759
 9160SOL    HW228380   0.071   0.227   4.894
 9161SOL     OW28381   4.855   3.933   4.436
 9161SOL    HW128382   4.873   3.960   4.530
 9161SOL    HW228383   4.932   3.878   4.402
 9162SOL     OW28384   4.636   2.219   3.416
 9162SOL    HW128385   4.690   2.278   3.476
 9162SOL    HW228386   4.545   2.206   3.455
 9163SOL     OW28387   2.051   3.290   3.785
 9163SOL    HW128388   1.976   3.226   3.774
 9163SOL    HW228389   2.074   3.331   3.696
 9164SOL     OW28390   2.929   0.941   0.051
 9164SOL    HW128391   2.934   0.973   0.145
 9164SOL    HW228392   2.928   0.841   0.049
 9165SOL     OW28393   6.285   1.276   6.244
 9165SOL    HW128394   6.254   1.371   6.255
 9165SOL    HW228395   6.320   1.264   6.151
 9166SOL     OW28396   4.851   6.246   0.979
 9166SOL    HW128397   4.815   6.307   0.909
 9166SOL    HW228398   4.840   6.289   1.069
 9167SOL     OW28399   1.750   3.494   6.279
 9167SOL    HW128400   1.740   3.592   6.299
 9167SOL    HW228401   1.695   3.471   6.198
 9168SOL     OW28402   1.456   6.370   5.402
 9168SOL    HW128403   1.493   6.364   5.309
 9168SOL    HW228404   1.385   6.441   5.405
 9169SOL     OW28405   0.268   1.526   5.074
 9169SOL    HW128406   0.338   1.480   5.128
 9169SOL    HW228407   0.296   1.620   5.057
 9170SOL     OW28408   0.514   4.817   0.168
 9170SOL    HW128409   0.438   4.796   0.230
 9170SOL    HW228410   0.596   4.768   0.196
 9171SOL     OW28411   3.328   5.504   0.761
 9171SOL    HW128412   3.384   5.464   0.834
 9171SOL    HW228413   3.328   5.442   0.682
 9172SOL     OW28414   3.280   1.061   5.201
 9172SOL    HW128415   3.239   1.115   5.128
 9172SOL    HW228416   3.373   1.035   5.174
 9173SOL     OW28417   5.985   4.513   4.974
 9173SOL    HW128418   5.944   4.455   5.044
 9173SOL    HW228419   5.969   4.472   4.884
 9174SOL     OW28420   6.417   4.442   1.058
 9174SOL    HW128421   6.457   4.401   0.976
 9174SOL    HW228422   6.472   4.522   1.085
 9175SOL     OW28423   1.963   6.480   4.474
 9175SOL    HW128424   1.885   6.489   4.412
 9175SOL    HW228425   1.948   6.403   4.536
 9176SOL     OW28426   2.659   0.786   5.590
 9176SOL    HW128427   2.710   0.831   5.517
 9176SOL    HW228428   2.607   0.855   5.642
 9177SOL     OW28429   1.499   5.435   4.632
 9177SOL    HW128430   1.522   5.342   4.660
 9177SOL    HW228431   1.412   5.435   4.582
 9178SOL     OW28432   1.965   5.563   0.932
 9178SOL    HW128433   2.012   5.649   0.914
 9178SOL    HW228434   1.995   5.527   1.020
 9179SOL     OW28435   2.875   6.088   4.025
 9179SOL    HW128436   2.798   6.034   3.991
 9179SOL    HW228437   2.940   6.027   4.072
 9180SOL     OW28438   6.052   2.358   3.314
 9180SOL    HW128439   5.960   2.387   3.342
 9180SOL    HW228440   6.044   2.283   3.248
 9181SOL     OW28441   4.223   2.221   3.323
 9181SOL    HW128442   4.123   2.217   3.319
 9181SOL    HW228443   4.250   2.302   3.376
 9182SOL     OW28444   2.490   6.999   2.376
 9182SOL    HW128445   2.440   6.925   2.422
 9182SOL    HW228446   2.450   0.068   2.401
 9183SOL     OW28447   5.361   5.954   0.245
 9183SOL    HW128448   5.403   6.042   0.224
 9183SOL    HW228449   5.266   5.969   0.274
 9184SOL     OW28450   4.911   1.540   0.270
 9184SOL    HW128451   4.907   1.640   0.263
 9184SOL    HW228452   4.970   1.514   0.346
 9185SOL     OW28453   4.448   6.720   4.493
 9185SOL    HW128454   4.414   6.648   4.434
 9185SOL    HW228455   4.371   6.771   4.532
 9186SOL     OW28456   5.470   0.907   3.948
 9186SOL    HW128457   5.461   1.000   3.912
 9186SOL    HW228458   5.515   0.910   4.038
 9187SOL     OW28459   2.348   0.491   1.774
 9187SOL    HW128460   2.292   0.552   1.718
 9187SOL    HW228461   2.412   0.544   1.829
 9188SOL     OW28462   2.106   6.623   2.250
 9188SOL    HW128463   2.076   6.690   2.183
 9188SOL    HW228464   2.112   6.666   2.340
 9189SOL     OW28465   5.541   5.893   1.892
 9189SOL    HW128466   5.481   5.966   1.859
 9189SOL    HW228467   5.636   5.920   1.880
 9190SOL     OW28468   0.985   5.033   0.287
 9190SOL    HW128469   0.962   4.951   0.236
 9190SOL    HW228470   1.070   5.019   0.338
 9191SOL     OW28471   5.829   0.649   5.926
 9191SOL    HW128472   5.839   0.744   5.896
 9191SOL    HW228473   5.904   0.626   5.988
 9192SOL     OW28474   0.544   4.078   5.844
 9192SOL    HW128475   0.577   4.098   5.936
 9192SOL    HW228476   0.526   3.980   5.836
 9193SOL     OW28477   4.825   4.689   0.375
 9193SOL    HW128478   4.760   4.614   0.383
 9193SOL    HW228479   4.918   4.654   0.388
 9194SOL     OW28480   3.172   1.110   3.297
 9194SOL    HW128481   3.241   1.121   3.368
 9194SOL    HW228482   3.165   1.195   3.244
 9195SOL     OW28483   1.678   2.409   4.098
 9195SOL    HW128484   1.603   2.344   4.116
 9195SOL    HW228485   1.764   2.369   4.127
 9196SOL     OW28486   3.807   0.668   4.699
 9196SOL    HW128487   3.800   0.614   4.783
 9196SOL    HW228488   3.834   0.609   4.623
 9197SOL     OW28489   1.364   4.405   1.725
 9197SOL    HW128490   1.291   4.404   1.656
 9197SOL    HW228491   1.410   4.494   1.724
 9198SOL     OW28492   6.625   5.280   5.598
 9198SOL    HW128493   6.562   5.207   5.575
 9198SOL    HW228494   6.668   5.315   5.514
 9199SOL     OW28495   1.107   3.524   6.251
 9199SOL    HW128496   1.101   3.484   6.159
 9199SOL    HW228497   1.035   3.592   6.262
 9200SOL     OW28498   2.982   0.579   0.749
 9200SOL    HW128499   2.884   0.592   0.758
 9200SOL    HW228500   3.029   0.666   0.762
 9201SOL     OW28501   0.659   3.060   0.803
 9201SOL    HW128502   0.588   3.057   0.874
 9201SOL    HW228503   0.741   3.014   0.836
 9202SOL     OW28504   2.126   6.892   3.386
 9202SOL    HW128505   2.154   6.827   3.316
 9202SOL    HW228506   2.171   6.869   3.472
 9203SOL     OW28507   0.617   4.848   6.928
 9203SOL    HW128508   0.557   4.835   7.006
 9203SOL    HW228509   0.565   4.842   6.843
 9204SOL     OW28510   4.181   2.579   6.775
 9204SOL    HW128511   4.217   2.672   6.782
 9204SOL    HW228512   4.247   2.521   6.725
 9205SOL     OW28513   5.815   4.411   2.772
 9205SOL    HW128514   5.765   4.351   2.834
 9205SOL    HW228515   5.874   4.472   2.824
 9206SOL     OW28516   3.682   5.544   1.735
 9206SOL    HW128517   3.635   5.628   1.762
 9206SOL    HW228518   3.731   5.506   1.814
 9207SOL     OW28519   4.322   4.881   0.175
 9207SOL    HW128520   4.237   4.881   0.122
 9207SOL    HW228521   4.399   4.865   0.113
 9208SOL     OW28522   5.497   4.203   3.771
 9208SOL    HW128523   5.454   4.202   3.861
 9208SOL    HW228524   5.573   4.268   3.771
 9209SOL     OW28525   2.950   0.661   0.067
 9209SOL    HW128526   3.048   0.673   0.050
 9209SOL    HW228527   2.911   0.602   7.015
 9210SOL     OW28528   6.537   1.263   2.834
 9210SOL    HW128529   6.543   1.239   2.737
 9210SOL    HW228530   6.585   1.195   2.889
 9211SOL     OW28531   6.499   3.205   4.285
 9211SOL    HW128532   6.516   3.221   4.382
 9211SOL    HW228533   6.559   3.132   4.252
 9212SOL     OW28534   4.170   5.415   4.273
 9212SOL    HW128535   4.247   5.395   4.212
 9212SOL    HW228536   4.182   5.507   4.312
 9213SOL     OW28537   5.693   2.530   5.749
 9213SOL    HW128538   5.644   2.612   5.718
 9213SOL    HW228539   5.680   2.456   5.683
 9214SOL     OW28540   0.337   5.780   5.364
 9214SOL    HW128541   0.307   5.873   5.339
 9214SOL    HW228542   0.272   5.714   5.326
 9215SOL     OW28543   1.261   2.547   0.055
 9215SOL    HW128544   1.341   2.568   0.111
 9215SOL    HW228545   1.186   2.608   0.079
 9216SOL     OW28546   2.709   0.662   2.917
 9216SOL    HW128547   2.777   0.718   2.963
 9216SOL    HW228548   2.746   0.629   2.830
 9217SOL     OW28549   0.054   0.694   5.561
 9217SOL    HW128550   0.097   0.648   5.483
 9217SOL    HW228551   6.997   0.639   5.594
 9218SOL     OW28552   3.871   6.329   0.375
 9218SOL    HW128553   3.956   6.322   0.427
 9218SOL    HW228554   3.892   6.328   0.277
 9219SOL     OW28555   0.155   2.637   0.090
 9219SOL    HW128556   0.082   2.645   0.022
 9219SOL    HW228557   0.127   2.681   0.175
 9220SOL     OW28558   2.464   0.047   1.388
 9220SOL    HW128559   2.441   0.144   1.396
 9220SOL    HW228560   2.399   0.003   1.326
 9221SOL     OW28561   3.276   0.847   4.319
 9221SOL    HW128562   3.201   0.901   4.281
 9221SOL    HW228563   3.284   0.865   4.416
 9222SOL     OW28564   2.435   6.785   6.769
 9222SOL    HW128565   2.418   6.827   6.858
 9222SOL    HW228566   2.401   6.846   6.697
 9223SOL     OW28567   1.501   1.711   4.809
 9223SOL    HW128568   1.506   1.762   4.895
 9223SOL    HW228569   1.588   1.665   4.792
 9224SOL     OW28570   3.008   5.507   5.044
 9224SOL    HW128571   2.978   5.500   5.140
 9224SOL    HW228572   2.978   5.594   5.006
 9225SOL     OW28573   3.730   7.011   5.905
 9225SOL    HW128574   3.816   0.037   5.880
 9225SOL    HW228575   3.721   7.008   6.004
 9226SOL     OW28576   5.562   6.843   1.586
 9226SOL    HW128577   5.646   6.820   1.634
 9226SOL    HW228578   5.577   6.840   1.487
 9227SOL     OW28579   0.891   5.569   2.197
 9227SOL    HW128580   0.909   5.516   2.279
 9227SOL    HW228581   0.821   5.638   2.216
 9228SOL     OW28582   1.675   0.253   5.712
 9228SOL    HW128583   1.727   0.174   5.681
 9228SOL    HW228584   1.656   0.245   5.810
 9229SOL     OW28585   1.694   5.631   4.521
 9229SOL    HW128586   1.632   5.556   4.545
 9229SOL    HW228587   1.644   5.699   4.467
 9230SOL     OW28588   6.091   0.527   2.638
 9230SOL    HW128589   6.179   0.489   2.668
 9230SOL    HW228590   6.017   0.474   2.679
 9231SOL     OW28591   1.908   4.206   4.321
 9231SOL    HW128592   1.864   4.138   4.380
 9231SOL    HW228593   1.997   4.171   4.291
 9232SOL     OW28594   2.832   5.238   0.841
 9232SOL    HW128595   2.746   5.235   0.893
 9232SOL    HW228596   2.900   5.292   0.891
 9233SOL     OW28597   5.772   5.145   1.434
 9233SOL    HW128598   5.868   5.146   1.463
 9233SOL    HW228599   5.767   5.138   1.335
 9234SOL     OW28600   3.482   4.957   4.693
 9234SOL    HW128601   3.505   4.952   4.790
 9234SOL    HW228602   3.411   5.027   4.679
 9235SOL     OW28603   1.955   2.339   3.617
 9235SOL    HW128604   1.896   2.276   3.668
 9235SOL    HW228605   1.961   2.426   3.667
 9236SOL     OW28606   3.205   4.108   5.427
 9236SOL    HW128607   3.275   4.112   5.498
 9236SOL    HW228608   3.193   4.199   5.387
 9237SOL     OW28609   2.447   4.750   5.064
 9237SOL    HW128610   2.469   4.823   5.000
 9237SOL    HW228611   2.531   4.708   5.097
 9238SOL     OW28612   4.315   2.178   5.943
 9238SOL    HW128613   4.411   2.168   5.916
 9238SOL    HW228614   4.294   2.112   6.015
 9239SOL     OW28615   0.430   3.874   1.564
 9239SOL    HW128616   0.444   3.816   1.644
 9239SOL    HW228617   0.517   3.915   1.538
 9240SOL     OW28618   5.665   1.285   0.672
 9240SOL    HW128619   5.725   1.210   0.648
 9240SOL    HW228620   5.605   1.307   0.595
 9241SOL     OW28621   0.013   5.549   5.893
 9241SOL    HW128622   0.076   5.607   5.842
 9241SOL    HW228623   0.050   5.456   5.898
 9242SOL     OW28624   6.751   5.851   0.504
 9242SOL    HW128625   6.717   5.945   0.498
 9242SOL    HW228626   6.699   5.802   0.574
 9243SOL     OW28627   5.758   5.663   2.881
 9243SOL    HW128628   5.777   5.758   2.906
 9243SOL    HW228629   5.757   5.607   2.964
 9244SOL     OW28630   4.549   5.488   5.983
 9244SOL    HW128631   4.540   5.437   6.068
 9244SOL    HW228632   4.602   5.571   5.999
 9245SOL     OW28633   1.579   5.505   2.815
 9245SOL    HW128634   1.659   5.461   2.774
 9245SOL    HW228635   1.498   5.483   2.761
 9246SOL     OW28636   6.403   4.470   3.038
 9246SOL    HW128637   6.445   4.433   2.955
 9246SOL    HW228638   6.462   4.451   3.117
 9247SOL     OW28639   0.675   6.762   3.123
 9247SOL    HW128640   0.705   6.695   3.055
 9247SOL    HW228641   0.753   6.788   3.181
 9248SOL     OW28642   2.169   2.919   6.108
 9248SOL    HW128643   2.263   2.951   6.107
 9248SOL    HW228644   2.109   2.989   6.069
 9249SOL     OW28645   5.762   2.487   6.244
 9249SOL    HW128646   5.750   2.454   6.150
 9249SOL    HW228647   5.673   2.503   6.286
 9250SOL     OW28648   5.447   3.647   4.964
 9250SOL    HW128649   5.449   3.722   5.030
 9250SOL    HW228650   5.408   3.679   4.878
 9251SOL     OW28651   3.670   2.121   3.342
 9251SOL    HW128652   3.661   2.119   3.243
 9251SOL    HW228653   3.747   2.179   3.368
 9252SOL     OW28654   6.535   0.137   4.094
 9252SOL    HW128655   6.565   0.154   4.000
 9252SOL    HW228656   6.607   0.087   4.142
 9253SOL     OW28657   4.655   5.733   6.013
 9253SOL    HW128658   4.637   5.800   5.941
 9253SOL    HW228659   4.640   5.774   6.103
 9254SOL     OW28660   6.393   4.307   1.344
 9254SOL    HW128661   6.382   4.293   1.246
 9254SOL    HW228662   6.472   4.255   1.376
 9255SOL     OW28663   4.930   2.861   0.170
 9255SOL    HW128664   4.992   2.877   0.247
 9255SOL    HW228665   4.972   2.896   0.086
 9256SOL     OW28666   3.581   4.862   3.353
 9256SOL    HW128667   3.570   4.881   3.450
 9256SOL    HW228668   3.546   4.771   3.332
 9257SOL     OW28669   0.891   3.826   2.653
 9257SOL    HW128670   0.829   3.766   2.704
 9257SOL    HW228671   0.839   3.901   2.613
 9258SOL     OW28672   4.077   3.149   3.585
 9258SOL    HW128673   4.161   3.165   3.533
 9258SOL    HW228674   4.018   3.086   3.534
 9259SOL     OW28675   1.727   2.523   0.903
 9259SOL    HW128676   1.630   2.506   0.886
 9259SOL    HW228677   1.782   2.468   0.840
 9260SOL     OW28678   5.119   1.630   5.513
 9260SOL    HW128679   5.066   1.708   5.547
 9260SOL    HW228680   5.056   1.560   5.479
 9261SOL     OW28681   4.548   6.778   6.293
 9261SOL    HW128682   4.547   6.689   6.246
 9261SOL    HW228683   4.598   6.770   6.379
 9262SOL     OW28684   6.430   2.670   5.617
 9262SOL    HW128685   6.352   2.690   5.676
 9262SOL    HW228686   6.450   2.749   5.559
 9263SOL     OW28687   6.129   4.395   0.682
 9263SOL    HW128688   6.064   4.353   0.618
 9263SOL    HW228689   6.209   4.336   0.692
 9264SOL     OW28690   6.030   3.908   0.440
 9264SOL    HW128691   6.007   3.810   0.442
 9264SOL    HW228692   6.116   3.923   0.490
 9265SOL     OW28693   3.192   1.523   0.631
 9265SOL    HW128694   3.194   1.557   0.537
 9265SOL    HW228695   3.236   1.434   0.635
 9266SOL     OW28696   2.362   6.152   2.344
 9266SOL    HW128697   2.443   6.210   2.348
 9266SOL    HW228698   2.375   6.071   2.402
 9267SOL     OW28699   0.291   4.037   5.447
 9267SOL    HW128700   0.249   3.948   5.466
 9267SOL    HW228701   0.368   4.026   5.385
 9268SOL     OW28702   0.814   6.550   2.030
 9268SOL    HW128703   0.739   6.573   1.967
 9268SOL    HW228704   0.825   6.623   2.097
 9269SOL     OW28705   2.844   2.606   6.590
 9269SOL    HW128706   2.870   2.589   6.495
 9269SOL    HW228707   2.812   2.521   6.632
 9270SOL     OW28708   4.885   6.337   5.554
 9270SOL    HW128709   4.888   6.379   5.645
 9270SOL    HW228710   4.823   6.389   5.495
 9271SOL     OW28711   1.330   6.179   1.019
 9271SOL    HW128712   1.422   6.218   1.020
 9271SOL    HW228713   1.263   6.250   0.996
 9272SOL     OW28714   3.060   4.966   5.799
 9272SOL    HW128715   3.093   4.873   5.815
 9272SOL    HW228716   2.973   4.963   5.750
 9273SOL     OW28717   4.924   5.663   3.810
 9273SOL    HW128718   4.911   5.684   3.907
 9273SOL    HW228719   4.901   5.567   3.794
 9274SOL     OW28720   6.155   2.128   6.742
 9274SOL    HW128721   6.111   2.217   6.755
 9274SOL    HW228722   6.114   2.061   6.803
 9275SOL     OW28723   0.371   1.587   0.505
 9275SOL    HW128724   0.428   1.626   0.577
 9275SOL    HW228725   0.397   1.626   0.417
 9276SOL     OW28726   2.376   5.107   4.148
 9276SOL    HW128727   2.458   5.100   4.205
 9276SOL    HW228728   2.297   5.073   4.200
 9277SOL     OW28729   3.721   3.802   0.179
 9277SOL    HW128730   3.819   3.796   0.195
 9277SOL    HW228731   3.677   3.716   0.208
 9278SOL     OW28732   2.044   0.910   3.979
 9278SOL    HW128733   2.056   0.936   3.883
 9278SOL    HW228734   1.953   0.871   3.992
 9279SOL     OW28735   4.725   0.911   1.502
 9279SOL    HW128736   4.670   0.929   1.420
 9279SOL    HW228737   4.745   0.998   1.548
 9280SOL     OW28738   2.073   0.325   3.673
 9280SOL    HW128739   2.059   0.423   3.662
 9280SOL    HW228740   2.163   0.300   3.638
 9281SOL     OW28741   3.338   3.549   0.943
 9281SOL    HW128742   3.316   3.646   0.932
 9281SOL    HW228743   3.316   3.519   1.036
 9282SOL     OW28744   4.762   2.218   4.426
 9282SOL    HW128745   4.749   2.317   4.438
 9282SOL    HW228746   4.859   2.197   4.431
 9283SOL     OW28747   6.097   0.787   2.554
 9283SOL    HW128748   6.010   0.836   2.547
 9283SOL    HW228749   6.083   0.701   2.603
 9284SOL     OW28750   3.800   5.014   0.226
 9284SOL    HW128751   3.835   5.083   0.289
 9284SOL    HW228752   3.838   5.029   0.135
 9285SOL     OW28753   4.770   3.241   6.942
 9285SOL    HW128754   4.742   3.300   7.018
 9285SOL    HW228755   4.782   3.297   6.860
 9286SOL     OW28756   5.729   6.968   5.517
 9286SOL    HW128757   5.737   6.939   5.612
 9286SOL    HW228758   5.787   0.028   5.501
 9287SOL     OW28759   3.037   5.697   0.877
 9287SOL    HW128760   3.105   5.748   0.824
 9287SOL    HW228761   2.951   5.694   0.826
 9288SOL     OW28762   2.808   1.347   5.613
 9288SOL    HW128763   2.839   1.334   5.518
 9288SOL    HW228764   2.888   1.361   5.672
 9289SOL     OW28765   3.694   1.698   2.373
 9289SOL    HW128766   3.692   1.599   2.358
 9289SOL    HW228767   3.785   1.725   2.403
 9290SOL     OW28768   4.641   1.608   4.740
 9290SOL    HW128769   4.601   1.633   4.652
 9290SOL    HW228770   4.633   1.684   4.804
 9291SOL     OW28771   2.589   0.250   5.576
 9291SOL    HW128772   2.568   0.345   5.598
 9291SOL    HW228773   2.643   0.246   5.492
 9292SOL     OW28774   6.509   3.597   6.023
 9292SOL    HW128775   6.449   3.607   6.103
 9292SOL    HW228776   6.563   3.514   6.032
 9293SOL     OW28777   6.500   4.002   1.120
 9293SOL    HW128778   6.579   4.061   1.104
 9293SOL    HW228779   6.506   3.963   1.213
 9294SOL     OW28780   3.830   6.154   5.678
 9294SOL    HW128781   3.920   6.110   5.670
 9294SOL    HW228782   3.840   6.239   5.730
 9295SOL     OW28783   5.066   2.271   3.556
 9295SOL    HW128784   4.984   2.294   3.608
 9295SOL    HW228785   5.049   2.189   3.501
 9296SOL     OW28786   6.750   5.986   6.445
 9296SOL    HW128787   6.823   6.023   6.503
 9296SOL    HW228788   6.790   5.947   6.362
 9297SOL     OW28789   0.220   0.601   1.020
 9297SOL    HW128790   0.256   0.592   1.112
 9297SOL    HW228791   0.293   0.587   0.953
 9298SOL     OW28792   1.876   6.208   5.977
 9298SOL    HW128793   1.908   6.293   5.936
 9298SOL    HW228794   1.874   6.136   5.908
 9299SOL     OW28795   1.033   3.650   4.733
 9299SOL    HW128796   1.096   3.583   4.771
 9299SOL    HW228797   1.046   3.656   4.634
 9300SOL     OW28798   6.940   5.130   4.011
 9300SOL    HW128799   6.911   5.080   3.930
 9300SOL    HW228800   7.016   5.081   4.054
 9301SOL     OW28801   4.824   4.782   3.245
 9301SOL    HW128802   4.834   4.698   3.300
 9301SOL    HW228803   4.881   4.854   3.284
 9302SOL     OW28804   2.239   2.969   3.981
 9302SOL    HW128805   2.164   3.024   4.017
 9302SOL    HW228806   2.304   3.027   3.933
 9303SOL     OW28807   3.889   5.873   0.613
 9303SOL    HW128808   3.979   5.905   0.643
 9303SOL    HW228809   3.837   5.951   0.577
 9304SOL     OW28810   4.361   4.220   1.033
 9304SOL    HW128811   4.363   4.252   0.938
 9304SOL    HW228812   4.455   4.204   1.064
 9305SOL     OW28813   4.550   1.477   1.414
 9305SOL    HW128814   4.592   1.542   1.477
 9305SOL    HW228815   4.523   1.525   1.330
 9306SOL     OW28816   0.492   5.001   4.736
 9306SOL    HW128817   0.447   4.967   4.819
 9306SOL    HW228818   0.542   4.926   4.693
 9307SOL     OW28819   1.451   3.499   1.397
 9307SOL    HW128820   1.362   3.462   1.424
 9307SOL    HW228821   1.504   3.429   1.350
 9308SOL     OW28822   0.978   4.005   1.503
 9308SOL    HW128823   0.936   4.066   1.436
 9308SOL    HW228824   1.074   3.992   1.481
 9309SOL     OW28825   3.658   5.050   5.344
 9309SOL    HW128826   3.568   5.008   5.332
 9309SOL    HW228827   3.659   5.139   5.299
 9310SOL     OW28828   4.343   5.837   6.593
 9310SOL    HW128829   4.327   5.880   6.504
 9310SOL    HW228830   4.404   5.758   6.581
 9311SOL     OW28831   6.450   4.752   1.382
 9311SOL    HW128832   6.393   4.670   1.387
 9311SOL    HW228833   6.473   4.782   1.474
 9312SOL     OW28834   1.997   3.971   0.966
 9312SOL    HW128835   1.950   3.920   1.039
 9312SOL    HW228836   1.957   3.946   0.878
 9313SOL     OW28837   0.189   0.840   1.120
 9313SOL    HW128838   0.285   0.856   1.142
 9313SOL    HW228839   0.182   0.758   1.063
 9314SOL     OW28840   4.107   5.276   6.439
 9314SOL    HW128841   4.100   5.327   6.353
 9314SOL    HW228842   4.119   5.339   6.515
 9315SOL     OW28843   6.557   0.730   5.275
 9315SOL    HW128844   6.490   0.797   5.305
 9315SOL    HW228845   6.565   0.732   5.175
 9316SOL     OW28846   4.397   5.774   5.725
 9316SOL    HW128847   4.472   5.827   5.765
 9316SOL    HW228848   4.347   5.728   5.798
 9317SOL     OW28849   6.558   5.978   2.885
 9317SOL    HW128850   6.500   5.916   2.939
 9317SOL    HW228851   6.539   6.072   2.911
 9318SOL     OW28852   6.795   1.242   4.919
 9318SOL    HW128853   6.826   1.302   4.992
 9318SOL    HW228854   6.772   1.152   4.956
 9319SOL     OW28855   0.566   2.826   6.027
 9319SOL    HW128856   0.666   2.827   6.015
 9319SOL    HW228857   0.523   2.855   5.942
 9320SOL     OW28858   4.474   1.929   6.634
 9320SOL    HW128859   4.563   1.885   6.648
 9320SOL    HW228860   4.401   1.867   6.664
 9321SOL     OW28861   6.493   6.882   2.039
 9321SOL    HW128862   6.421   6.826   2.080
 9321SOL    HW228863   6.453   6.947   1.975
 9322SOL     OW28864   6.979   6.158   6.333
 9322SOL    HW128865   7.009   6.169   6.239
 9322SOL    HW228866   6.911   6.228   6.355
 9323SOL     OW28867   2.004   0.082   5.625
 9323SOL    HW128868   2.057   0.076   5.540
 9323SOL    HW228869   1.906   0.075   5.603
 9324SOL     OW28870   1.410   4.873   0.651
 9324SOL    HW128871   1.365   4.904   0.735
 9324SOL    HW228872   1.344   4.875   0.575
 9325SOL     OW28873   4.838   1.794   0.739
 9325SOL    HW128874   4.853   1.883   0.783
 9325SOL    HW228875   4.772   1.741   0.792
 9326SOL     OW28876   2.847   0.136   1.192
 9326SOL    HW128877   2.801   0.190   1.263
 9326SOL    HW228878   2.857   0.190   1.109
 9327SOL     OW28879   5.067   6.464   2.393
 9327SOL    HW128880   4.988   6.521   2.415
 9327SOL    HW228881   5.048   6.369   2.416
 9328SOL     OW28882   4.284   1.478   5.919
 9328SOL    HW128883   4.204   1.526   5.882
 9328SOL    HW228884   4.266   1.451   6.014
 9329SOL     OW28885   6.922   3.814   2.835
 9329SOL    HW128886   6.934   3.839   2.931
 9329SOL    HW228887   6.844   3.864   2.797
 9330SOL     OW28888   0.092   5.960   0.474
 9330SOL    HW128889   0.129   5.897   0.543
 9330SOL    HW228890   0.154   6.038   0.462
 9331SOL     OW28891   0.803   1.219   6.049
 9331SOL    HW128892   0.831   1.144   6.108
 9331SOL    HW228893   0.723   1.191   5.995
 9332SOL     OW28894   3.251   4.123   2.972
 9332SOL    HW128895   3.209   4.210   2.994
 9332SOL    HW228896   3.201   4.049   3.017
 9333SOL     OW28897   5.036   3.886   1.482
 9333SOL    HW128898   5.068   3.941   1.560
 9333SOL    HW228899   5.001   3.947   1.411
 9334SOL     OW28900   3.661   6.752   3.733
 9334SOL    HW128901   3.592   6.815   3.697
 9334SOL    HW228902   3.735   6.742   3.667
 9335SOL     OW28903   1.305   1.026   5.831
 9335SOL    HW128904   1.312   0.988   5.739
 9335SOL    HW228905   1.223   0.991   5.875
 9336SOL     OW28906   3.388   5.974   6.830
 9336SOL    HW128907   3.406   6.068   6.861
 9336SOL    HW228908   3.296   5.968   6.792
 9337SOL     OW28909   5.041   0.622   2.908
 9337SOL    HW128910   5.016   0.705   2.959
 9337SOL    HW228911   4.974   0.550   2.927
 9338SOL     OW28912   4.698   0.720   1.746
 9338SOL    HW128913   4.612   0.683   1.782
 9338SOL    HW228914   4.686   0.746   1.650
 9339SOL     OW28915   5.410   6.941   0.473
 9339SOL    HW128916   5.326   6.976   0.430
 9339SOL    HW228917   5.477   7.015   0.480
 9340SOL     OW28918   5.300   3.904   5.479
 9340SOL    HW128919   5.390   3.944   5.463
 9340SOL    HW228920   5.281   3.901   5.578
 9341SOL     OW28921   0.573   5.987   6.494
 9341SOL    HW128922   0.571   6.082   6.526
 9341SOL    HW228923   0.479   5.952   6.487
 9342SOL     OW28924   2.113   0.751   4.445
 9342SOL    HW128925   2.206   0.748   4.483
 9342SOL    HW228926   2.101   0.835   4.393
 9343SOL     OW28927   6.278   4.374   3.398
 9343SOL    HW128928   6.294   4.334   3.488
 9343SOL    HW228929   6.261   4.472   3.408
 9344SOL     OW28930   4.300   5.752   1.750
 9344SOL    HW128931   4.389   5.740   1.793
 9344SOL    HW228932   4.252   5.664   1.746
 9345SOL     OW28933   6.182   3.238   1.783
 9345SOL    HW128934   6.125   3.255   1.703
 9345SOL    HW228935   6.274   3.211   1.753
 9346SOL     OW28936   6.012   0.774   0.935
 9346SOL    HW128937   6.017   0.678   0.906
 9346SOL    HW228938   5.947   0.823   0.877
 9347SOL     OW28939   1.665   5.351   0.922
 9347SOL    HW128940   1.760   5.363   0.952
 9347SOL    HW228941   1.646   5.253   0.911
 9348SOL     OW28942   4.581   5.605   1.531
 9348SOL    HW128943   4.513   5.546   1.575
 9348SOL    HW228944   4.542   5.644   1.447
 9349SOL     OW28945   0.621   0.294   2.280
 9349SOL    HW128946   0.708   0.274   2.325
 9349SOL    HW228947   0.614   0.392   2.262
 9350SOL     OW28948   0.794   2.689   5.696
 9350SOL    HW128949   0.829   2.778   5.726
 9350SOL    HW228950   0.826   2.618   5.760
 9351SOL     OW28951   3.489   1.534   6.965
 9351SOL    HW128952   3.417   1.525   6.896
 9351SOL    HW228953   3.489   1.453   0.004
 9352SOL     OW28954   2.754   3.492   0.136
 9352SOL    HW128955   2.817   3.569   0.134
 9352SOL    HW228956   2.669   3.517   0.090
 9353SOL     OW28957   0.889   5.202   1.886
 9353SOL    HW128958   0.866   5.113   1.925
 9353SOL    HW228959   0.987   5.217   1.892
 9354SOL     OW28960   6.749   2.514   6.247
 9354SOL    HW128961   6.720   2.453   6.321
 9354SOL    HW228962   6.726   2.472   6.159
 9355SOL     OW28963   1.051   2.247   4.779
 9355SOL    HW128964   1.015   2.317   4.841
 9355SOL    HW228965   1.118   2.288   4.718
 9356SOL     OW28966   4.059   0.127   1.300
 9356SOL    HW128967   3.987   0.058   1.308
 9356SOL    HW228968   4.129   0.110   1.370
 9357SOL     OW28969   0.693   2.383   0.126
 9357SOL    HW128970   0.711   2.471   0.168
 9357SOL    HW228971   0.773   2.324   0.136
 9358SOL     OW28972   0.214   4.344   2.570
 9358SOL    HW128973   0.212   4.387   2.660
 9358SOL    HW228974   0.200   4.246   2.580
 9359SOL     OW28975   1.860   5.743   6.449
 9359SOL    HW128976   1.952   5.743   6.408
 9359SOL    HW228977   1.855   5.814   6.519
 9360SOL     OW28978   1.878   6.338   6.479
 9360SOL    HW128979   1.955   6.298   6.429
 9360SOL    HW228980   1.792   6.306   6.438
 9361SOL     OW28981   1.863   6.217   3.784
 9361SOL    HW128982   1.780   6.198   3.835
 9361SOL    HW228983   1.943   6.204   3.843
 9362SOL     OW28984   1.855   1.341   2.087
 9362SOL    HW128985   1.800   1.320   2.006
 9362SOL    HW228986   1.942   1.381   2.059
 9363SOL     OW28987   3.033   5.356   1.923
 9363SOL    HW128988   3.117   5.408   1.944
 9363SOL    HW228989   3.057   5.261   1.903
 9364SOL     OW28990   2.798   2.524   1.696
 9364SOL    HW128991   2.850   2.456   1.749
 9364SOL    HW228992   2.701   2.498   1.697
 9365SOL     OW28993   2.790   1.984   4.531
 9365SOL    HW128994   2.831   2.005   4.620
 9365SOL    HW228995   2.716   1.918   4.544
 9366SOL     OW28996   4.032   5.467   0.637
 9366SOL    HW128997   4.106   5.403   0.618
 9366SOL    HW228998   3.944   5.422   0.621
 9367SOL     OW28999   5.156   0.241   1.075
 9367SOL    HW129000   5.151   0.296   0.992
 9367SOL    HW229001   5.138   0.300   1.154
 9368SOL     OW29002   3.771   0.232   2.578
 9368SOL    HW129003   3.864   0.256   2.604
 9368SOL    HW229004   3.765   0.133   2.561
 9369SOL     OW29005   0.722   5.488   5.487
 9369SOL    HW129006   0.783   5.551   5.534
 9369SOL    HW229007   0.682   5.533   5.408
 9370SOL     OW29008   4.341   1.450   4.190
 9370SOL    HW129009   4.309   1.530   4.140
 9370SOL    HW229010   4.436   1.432   4.166
 9371SOL     OW29011   3.500   5.567   1.130
 9371SOL    HW129012   3.455   5.499   1.072
 9371SOL    HW229013   3.550   5.632   1.072
 9372SOL     OW29014   4.674   6.854   1.844
 9372SOL    HW129015   4.731   6.785   1.887
 9372SOL    HW229016   4.725   6.939   1.833
 9373SOL     OW29017   5.893   2.383   0.365
 9373SOL    HW129018   5.804   2.360   0.325
 9373SOL    HW229019   5.932   2.461   0.316
 9374SOL     OW29020   0.187   4.637   5.470
 9374SOL    HW129021   0.216   4.580   5.547
 9374SOL    HW229022   0.208   4.591   5.384
 9375SOL     OW29023   6.436   1.731   6.887
 9375SOL    HW129024   6.428   1.826   6.858
 9375SOL    HW229025   6.529   1.713   6.918
 9376SOL     OW29026   2.064   3.500   2.221
 9376SOL    HW129027   2.144   3.514   2.162
 9376SOL    HW229028   1.996   3.571   2.203
 9377SOL     OW29029   1.719   5.225   2.119
 9377SOL    HW129030   1.783   5.187   2.052
 9377SOL    HW229031   1.764   5.232   2.208
 9378SOL     OW29032   3.903   0.719   4.003
 9378SOL    HW129033   3.842   0.644   3.977
 9378SOL    HW229034   3.874   0.803   3.957
 9379SOL     OW29035   3.771   6.847   4.572
 9379SOL    HW129036   3.770   6.765   4.515
 9379SOL    HW229037   3.738   6.925   4.519
 9380SOL     OW29038   4.054   5.367   6.166
 9380SOL    HW129039   3.999   5.409   6.094
 9380SOL    HW229040   4.138   5.330   6.126
 9381SOL     OW29041   5.140   1.417   4.370
 9381SOL    HW129042   5.125   1.336   4.313
 9381SOL    HW229043   5.060   1.477   4.362
 9382SOL     OW29044   3.451   0.816   4.088
 9382SOL    HW129045   3.433   0.718   4.072
 9382SOL    HW229046   3.385   0.851   4.155
 9383SOL     OW29047   5.045   3.915   3.550
 9383SOL    HW129048   5.096   3.832   3.575
 9383SOL    HW229049   5.011   3.906   3.457
 9384SOL     OW29050   1.692   6.867   1.987
 9384SOL    HW129051   1.661   6.829   2.074
 9384SOL    HW229052   1.693   6.967   1.993
 9385SOL     OW29053   4.403   1.632   3.746
 9385SOL    HW129054   4.317   1.591   3.776
 9385SOL    HW229055   4.407   1.632   3.646
 9386SOL     OW29056   3.694   5.601   5.315
 9386SOL    HW129057   3.711   5.504   5.300
 9386SOL    HW229058   3.767   5.639   5.371
 9387SOL     OW29059   3.849   1.606   6.798
 9387SOL    HW129060   3.926   1.548   6.822
 9387SOL    HW229061   3.872   1.661   6.717
 9388SOL     OW29062   2.069   7.018   3.984
 9388SOL    HW129063   2.127   7.017   4.065
 9388SOL    HW229064   1.974   7.008   4.011
 9389SOL     OW29065   3.416   5.338   2.357
 9389SOL    HW129066   3.424   5.376   2.449
 9389SOL    HW229067   3.337   5.379   2.311
 9390SOL     OW29068   5.321   4.485   5.532
 9390SOL    HW129069   5.391   4.454   5.468
 9390SOL    HW229070   5.250   4.535   5.483
 9391SOL     OW29071   1.352   6.738   4.707
 9391SOL    HW129072   1.436   6.790   4.691
 9391SOL    HW229073   1.339   6.726   4.805
 9392SOL     OW29074   5.084   4.121   2.726
 9392SOL    HW129075   5.180   4.129   2.700
 9392SOL    HW229076   5.047   4.035   2.692
 9393SOL     OW29077   3.222   6.062   6.471
 9393SOL    HW129078   3.131   6.070   6.430
 9393SOL    HW229079   3.271   5.986   6.428
 9394SOL     OW29080   5.028   0.193   1.529
 9394SOL    HW129081   5.039   0.283   1.485
 9394SOL    HW229082   5.000   0.126   1.460
 9395SOL     OW29083   2.930   1.506   0.496
 9395SOL    HW129084   3.011   1.499   0.438
 9395SOL    HW229085   2.926   1.428   0.558
 9396SOL     OW29086   1.982   5.796   6.869
 9396SOL    HW129087   2.073   5.757   6.854
 9396SOL    HW229088   1.923   5.727   6.911
 9397SOL     OW29089   4.275   0.325   6.346
 9397SOL    HW129090   4.296   0.269   6.266
 9397SOL    HW229091   4.178   0.350   6.344
 9398SOL     OW29092   0.123   1.433   6.566
 9398SOL    HW129093   0.197   1.479   6.518
 9398SOL    HW229094   0.143   1.429   6.664
 9399SOL     OW29095   1.922   2.851   3.886
 9399SOL    HW129096   2.014   2.811   3.878
 9399SOL    HW229097   1.903   2.870   3.983
 9400SOL     OW29098   5.187   1.165   0.865
 9400SOL    HW129099   5.108   1.217   0.899
 9400SOL    HW229100   5.160   1.070   0.852
 9401SOL     OW29101   1.046   1.633   2.788
 9401SOL    HW129102   0.977   1.700   2.759
 9401SOL    HW229103   1.099   1.670   2.864
 9402SOL     OW29104   1.260   5.831   3.029
 9402SOL    HW129105   1.226   5.742   3.061
 9402SOL    HW229106   1.298   5.821   2.937
 9403SOL     OW29107   6.721   1.903   1.998
 9403SOL    HW129108   6.799   1.883   2.058
 9403SOL    HW229109   6.680   1.818   1.967
 9404SOL     OW29110   2.064   3.301   0.826
 9404SOL    HW129111   2.119   3.283   0.908
 9404SOL    HW229112   2.113   3.268   0.745
 9405SOL     OW29113   0.152   4.851   5.049
 9405SOL    HW129114   0.075   4.903   5.011
 9405SOL    HW229115   0.163   4.874   5.146
 9406SOL     OW29116   6.993   3.076   6.523
 9406SOL    HW129117   6.902   3.076   6.481
 9406SOL    HW229118   6.995   3.141   6.599
 9407SOL     OW29119   2.170   5.050   5.089
 9407SOL    HW129120   2.152   4.958   5.053
 9407SOL    HW229121   2.107   5.069   5.164
 9408SOL     OW29122   6.880   4.431   4.668
 9408SOL    HW129123   6.800   4.492   4.670
 9408SOL    HW229124   6.915   4.424   4.575
 9409SOL     OW29125   6.760   5.139   2.215
 9409SOL    HW129126   6.762   5.054   2.163
 9409SOL    HW229127   6.781   5.120   2.311
 9410SOL     OW29128   3.916   0.690   1.852
 9410SOL    HW129129   3.899   0.598   1.889
 9410SOL    HW229130   3.932   0.684   1.754
 9411SOL     OW29131   3.874   3.338   3.177
 9411SOL    HW129132   3.832   3.311   3.090
 9411SOL    HW229133   3.811   3.319   3.252
 9412SOL     OW29134   0.057   1.006   1.295
 9412SOL    HW129135   6.992   0.972   1.336
 9412SOL    HW229136   0.095   0.937   1.233
 9413SOL     OW29137   4.017   4.793   3.909
 9413SOL    HW129138   4.087   4.722   3.905
 9413SOL    HW229139   4.025   4.843   3.995
 9414SOL     OW29140   2.282   2.291   5.563
 9414SOL    HW129141   2.377   2.272   5.589
 9414SOL    HW229142   2.223   2.282   5.643
 9415SOL     OW29143   3.813   0.815   2.251
 9415SOL    HW129144   3.797   0.738   2.312
 9415SOL    HW229145   3.803   0.901   2.303
 9416SOL     OW29146   0.259   5.733   6.070
 9416SOL    HW129147   0.220   5.763   5.983
 9416SOL    HW229148   0.185   5.718   6.136
 9417SOL     OW29149   3.013   6.183   1.301
 9417SOL    HW129150   2.991   6.241   1.223
 9417SOL    HW229151   3.086   6.120   1.276
 9418SOL     OW29152   3.053   1.756   4.692
 9418SOL    HW129153   3.106   1.840   4.707
 9418SOL    HW229154   2.956   1.775   4.706
 9419SOL     OW29155   3.046   2.678   0.109
 9419SOL    HW129156   3.078   2.770   0.132
 9419SOL    HW229157   3.050   2.666   0.010
 9420SOL     OW29158   5.605   3.243   0.123
 9420SOL    HW129159   5.675   3.180   0.092
 9420SOL    HW229160   5.515   3.210   0.095
 9421SOL     OW29161   3.915   6.521   5.502
 9421SOL    HW129162   3.971   6.438   5.491
 9421SOL    HW229163   3.957   6.596   5.451
 9422SOL     OW29164   2.557   5.946   4.395
 9422SOL    HW129165   2.576   6.039   4.425
 9422SOL    HW229166   2.636   5.888   4.415
 9423SOL     OW29167   4.147   5.867   3.169
 9423SOL    HW129168   4.074   5.900   3.109
 9423SOL    HW229169   4.140   5.767   3.179
 9424SOL     OW29170   5.551   0.549   4.572
 9424SOL    HW129171   5.509   0.465   4.539
 9424SOL    HW229172   5.483   0.622   4.572
 9425SOL     OW29173   6.799   4.922   0.664
 9425SOL    HW129174   6.864   4.980   0.615
 9425SOL    HW229175   6.758   4.973   0.739
 9426SOL     OW29176   0.045   1.766   6.403
 9426SOL    HW129177   0.116   1.696   6.402
 9426SOL    HW229178   0.000   1.769   6.314
 9427SOL     OW29179   3.452   5.873   2.917
 9427SOL    HW129180   3.400   5.837   2.840
 9427SOL    HW229181   3.433   5.971   2.927
 9428SOL     OW29182   6.600   0.447   6.698
 9428SOL    HW129183   6.652   0.464   6.782
 9428SOL    HW229184   6.624   0.517   6.631
 9429SOL     OW29185   1.850   2.560   4.389
 9429SOL    HW129186   1.797   2.497   4.445
 9429SOL    HW229187   1.931   2.590   4.439
 9430SOL     OW29188   0.754   2.159   3.934
 9430SOL    HW129189   0.748   2.180   3.837
 9430SOL    HW229190   0.662   2.141   3.970
 9431SOL     OW29191   0.325   5.096   6.480
 9431SOL    HW129192   0.227   5.079   6.472
 9431SOL    HW229193   0.353   5.086   6.576
 9432SOL     OW29194   6.761   1.785   3.457
 9432SOL    HW129195   6.702   1.775   3.537
 9432SOL    HW229196   6.732   1.865   3.404
 9433SOL     OW29197   3.576   6.352   3.005
 9433SOL    HW129198   3.634   6.397   2.937
 9433SOL    HW229199   3.594   6.253   3.005
 9434SOL     OW29200   5.459   5.688   3.942
 9434SOL    HW129201   5.359   5.687   3.948
 9434SOL    HW229202   5.497   5.633   4.016
 9435SOL     OW29203   0.893   2.953   1.818
 9435SOL    HW129204   0.984   2.981   1.848
 9435SOL    HW229205   0.830   3.031   1.820
 9436SOL     OW29206   0.996   0.539   3.565
 9436SOL    HW129207   1.067   0.576   3.505
 9436SOL    HW229208   0.936   0.479   3.512
 9437SOL     OW29209   6.928   5.163   4.296
 9437SOL    HW129210   6.936   5.166   4.197
 9437SOL    HW229211   7.005   5.212   4.337
 9438SOL     OW29212   2.586   6.379   1.869
 9438SOL    HW129213   2.553   6.323   1.945
 9438SOL    HW229214   2.508   6.425   1.825
 9439SOL     OW29215   1.041   2.995   0.245
 9439SOL    HW129216   0.957   3.040   0.216
 9439SOL    HW229217   1.058   3.014   0.342
 9440SOL     OW29218   3.099   5.224   3.019
 9440SOL    HW129219   3.063   5.185   3.104
 9440SOL    HW229220   3.189   5.184   3.000
 9441SOL     OW29221   6.604   6.349   4.493
 9441SOL    HW129222   6.559   6.413   4.555
 9441SOL    HW229223   6.596   6.256   4.528
 9442SOL     OW29224   4.601   3.649   0.253
 9442SOL    HW129225   4.630   3.686   0.341
 9442SOL    HW229226   4.515   3.598   0.265
 9443SOL     OW29227   2.528   4.522   2.856
 9443SOL    HW129228   2.449   4.558   2.806
 9443SOL    HW229229   2.506   4.431   2.892
 9444SOL     OW29230   1.182   4.088   0.193
 9444SOL    HW129231   1.278   4.065   0.204
 9444SOL    HW229232   1.129   4.004   0.180
 9445SOL     OW29233   0.265   1.927   3.955
 9445SOL    HW129234   0.248   1.845   4.010
 9445SOL    HW229235   0.305   1.901   3.867
 9446SOL     OW29236   6.415   5.203   3.207
 9446SOL    HW129237   6.463   5.123   3.243
 9446SOL    HW229238   6.448   5.285   3.254
 9447SOL     OW29239   5.343   4.918   2.295
 9447SOL    HW129240   5.369   4.825   2.321
 9447SOL    HW229241   5.278   4.954   2.363
 9448SOL     OW29242   5.516   0.075   6.101
 9448SOL    HW129243   5.421   0.104   6.087
 9448SOL    HW229244   5.560   0.136   6.167
 9449SOL     OW29245   6.184   6.941   1.910
 9449SOL    HW129246   6.085   6.937   1.892
 9449SOL    HW229247   6.228   6.860   1.871
 9450SOL     OW29248   1.738   5.925   4.100
 9450SOL    HW129249   1.730   5.977   4.185
 9450SOL    HW229250   1.792   5.842   4.116
 9451SOL     OW29251   3.453   5.692   6.889
 9451SOL    HW129252   3.481   5.788   6.879
 9451SOL    HW229253   3.407   5.662   6.806
 9452SOL     OW29254   0.008   4.151   1.045
 9452SOL    HW129255   0.067   4.163   1.125
 9452SOL    HW229256   0.043   4.078   0.987
 9453SOL     OW29257   3.894   5.645   3.576
 9453SOL    HW129258   3.928   5.550   3.580
 9453SOL    HW229259   3.795   5.645   3.591
 9454SOL     OW29260   4.411   4.421   0.793
 9454SOL    HW129261   4.337   4.488   0.794
 9454SOL    HW229262   4.489   4.457   0.844
 9455SOL     OW29263   2.708   2.182   2.257
 9455SOL    HW129264   2.735   2.088   2.237
 9455SOL    HW229265   2.748   2.243   2.189
 9456SOL     OW29266   5.892   2.641   2.521
 9456SOL    HW129267   5.979   2.643   2.570
 9456SOL    HW229268   5.878   2.729   2.474
 9457SOL     OW29269   0.229   4.856   3.693
 9457SOL    HW129270   0.263   4.925   3.629
 9457SOL    HW229271   0.151   4.893   3.743
 9458SOL     OW29272   6.592   4.205   6.986
 9458SOL    HW129273   6.618   4.163   0.053
 9458SOL    HW229274   6.590   4.135   6.914
 9459SOL     OW29275   5.101   4.885   5.029
 9459SOL    HW129276   5.067   4.796   4.998
 9459SOL    HW229277   5.109   4.884   5.129
 9460SOL     OW29278   0.886   2.274   3.071
 9460SOL    HW129279   0.859   2.233   3.158
 9460SOL    HW229280   0.933   2.205   3.016
 9461SOL     OW29281   1.759   2.349   1.854
 9461SOL    HW129282   1.843   2.397   1.881
 9461SOL    HW229283   1.681   2.387   1.904
 9462SOL     OW29284   1.784   1.628   4.778
 9462SOL    HW129285   1.869   1.629   4.830
 9462SOL    HW229286   1.793   1.686   4.697
 9463SOL     OW29287   5.518   6.244   0.869
 9463SOL    HW129288   5.569   6.198   0.942
 9463SOL    HW229289   5.526   6.191   0.784
 9464SOL     OW29290   0.405   1.134   1.708
 9464SOL    HW129291   0.341   1.123   1.632
 9464SOL    HW229292   0.433   1.044   1.742
 9465SOL     OW29293   0.200   4.067   1.460
 9465SOL    HW129294   0.289   4.069   1.504
 9465SOL    HW229295   0.142   3.999   1.504
 9466SOL     OW29296   3.872   5.342   6.942
 9466SOL    HW129297   3.856   5.380   0.013
 9466SOL    HW229298   3.856   5.413   6.873
 9467SOL     OW29299   2.267   3.222   1.024
 9467SOL    HW129300   2.242   3.158   1.096
 9467SOL    HW229301   2.343   3.184   0.971
 9468SOL     OW29302   6.233   3.253   0.687
 9468SOL    HW129303   6.278   3.313   0.754
 9468SOL    HW229304   6.219   3.304   0.602
 9469SOL     OW29305   0.421   6.286   0.862
 9469SOL    HW129306   0.415   6.187   0.848
 9469SOL    HW229307   0.328   6.324   0.866
 9470SOL     OW29308   3.847   4.167   0.731
 9470SOL    HW129309   3.887   4.097   0.671
 9470SOL    HW229310   3.808   4.123   0.812
 9471SOL     OW29311   6.258   2.498   5.195
 9471SOL    HW129312   6.298   2.436   5.263
 9471SOL    HW229313   6.320   2.575   5.179
 9472SOL     OW29314   1.739   3.750   6.325
 9472SOL    HW129315   1.806   3.779   6.394
 9472SOL    HW229316   1.723   3.823   6.259
 9473SOL     OW29317   2.743   4.597   0.350
 9473SOL    HW129318   2.674   4.624   0.417
 9473SOL    HW229319   2.772   4.503   0.368
 9474SOL     OW29320   5.683   3.390   1.505
 9474SOL    HW129321   5.631   3.309   1.531
 9474SOL    HW229322   5.641   3.471   1.545
 9475SOL     OW29323   4.791   3.715   5.819
 9475SOL    HW129324   4.799   3.749   5.912
 9475SOL    HW229325   4.708   3.661   5.810
 9476SOL     OW29326   3.598   3.765   6.304
 9476SOL    HW129327   3.657   3.749   6.382
 9476SOL    HW229328   3.638   3.836   6.245
 9477SOL     OW29329   1.750   3.919   1.912
 9477SOL    HW129330   1.820   3.905   1.842
 9477SOL    HW229331   1.791   3.963   1.992
 9478SOL     OW29332   5.464   2.547   0.326
 9478SOL    HW129333   5.483   2.542   0.228
 9478SOL    HW229334   5.370   2.580   0.340
 9479SOL     OW29335   4.223   0.769   1.827
 9479SOL    HW129336   4.140   0.798   1.873
 9479SOL    HW229337   4.216   0.789   1.729
 9480SOL     OW29338   6.171   6.934   6.926
 9480SOL    HW129339   6.104   6.866   6.954
 9480SOL    HW229340   6.152   6.964   6.832
 9481SOL     OW29341   4.303   1.785   2.731
 9481SOL    HW129342   4.244   1.865   2.740
 9481SOL    HW229343   4.248   1.704   2.715
 9482SOL     OW29344   6.082   0.340   0.843
 9482SOL    HW129345   6.016   0.383   0.905
 9482SOL    HW229346   6.053   0.245   0.825
 9483SOL     OW29347   6.968   0.896   0.969
 9483SOL    HW129348   0.020   0.887   1.038
 9483SOL    HW229349   6.908   0.972   0.993
 9484SOL     OW29350   3.310   5.630   4.590
 9484SOL    HW129351   3.403   5.665   4.594
 9484SOL    HW229352   3.250   5.687   4.646
 9485SOL     OW29353   6.960   1.403   6.972
 9485SOL    HW129354   0.010   1.418   6.903
 9485SOL    HW229355   6.986   1.449   0.037
 9486SOL     OW29356   4.625   5.572   0.144
 9486SOL    HW129357   4.704   5.513   0.129
 9486SOL    HW229358   4.542   5.517   0.144
 9487SOL     OW29359   3.699   3.226   3.897
 9487SOL    HW129360   3.664   3.244   3.805
 9487SOL    HW229361   3.756   3.144   3.895
 9488SOL     OW29362   1.476   1.467   0.856
 9488SOL    HW129363   1.437   1.399   0.793
 9488SOL    HW229364   1.414   1.544   0.865
 9489SOL     OW29365   4.668   4.482   0.370
 9489SOL    HW129366   4.732   4.426   0.423
 9489SOL    HW229367   4.617   4.423   0.307
 9490SOL     OW29368   5.818   3.973   3.171
 9490SOL    HW129369   5.721   3.992   3.185
 9490SOL    HW229370   5.868   3.985   3.257
 9491SOL     OW29371   5.267   6.594   3.052
 9491SOL    HW129372   5.227   6.562   2.966
 9491SOL    HW229373   5.268   6.694   3.054
 9492SOL     OW29374   4.691   2.597   4.729
 9492SOL    HW129375   4.756   2.618   4.656
 9492SOL    HW229376   4.702   2.663   4.803
 9493SOL     OW29377   4.497   6.903   3.156
 9493SOL    HW129378   4.551   6.881   3.238
 9493SOL    HW229379   4.402   6.915   3.182
 9494SOL     OW29380   5.231   2.419   1.808
 9494SOL    HW129381   5.265   2.485   1.740
 9494SOL    HW229382   5.276   2.331   1.794
 9495SOL     OW29383   0.593   0.947   2.506
 9495SOL    HW129384   0.673   0.966   2.448
 9495SOL    HW229385   0.621   0.888   2.582
 9496SOL     OW29386   4.041   2.227   2.487
 9496SOL    HW129387   4.092   2.240   2.402
 9496SOL    HW229388   3.944   2.215   2.466
 9497SOL     OW29389   5.924   4.783   4.343
 9497SOL    HW129390   5.847   4.720   4.340
 9497SOL    HW229391   6.010   4.731   4.340
 9498SOL     OW29392   6.360   5.031   4.180
 9498SOL    HW129393   6.328   5.038   4.275
 9498SOL    HW229394   6.283   5.005   4.121
 9499SOL     OW29395   5.570   5.968   5.512
 9499SOL    HW129396   5.531   5.877   5.518
 9499SOL    HW229397   5.670   5.962   5.504
 9500SOL     OW29398   4.281   0.852   0.923
 9500SOL    HW129399   4.245   0.944   0.906
 9500SOL    HW229400   4.335   0.822   0.844
 9501SOL     OW29401   1.720   2.547   4.763
 9501SOL    HW129402   1.704   2.494   4.846
 9501SOL    HW229403   1.645   2.612   4.749
 9502SOL     OW29404   6.218   4.511   5.645
 9502SOL    HW129405   6.217   4.432   5.584
 9502SOL    HW229406   6.309   4.520   5.686
 9503SOL     OW29407   0.492   2.249   6.696
 9503SOL    HW129408   0.511   2.310   6.773
 9503SOL    HW229409   0.577   2.213   6.660
 9504SOL     OW29410   6.205   5.087   2.030
 9504SOL    HW129411   6.148   5.007   2.011
 9504SOL    HW229412   6.270   5.066   2.102
 9505SOL     OW29413   4.359   4.796   5.236
 9505SOL    HW129414   4.399   4.886   5.252
 9505SOL    HW229415   4.268   4.792   5.279
 9506SOL     OW29416   3.197   2.189   1.219
 9506SOL    HW129417   3.166   2.262   1.158
 9506SOL    HW229418   3.120   2.154   1.271
 9507SOL     OW29419   6.024   0.178   1.903
 9507SOL    HW129420   5.964   0.103   1.873
 9507SOL    HW229421   6.092   0.142   1.967
 9508SOL     OW29422   4.869   1.565   3.356
 9508SOL    HW129423   4.887   1.528   3.265
 9508SOL    HW229424   4.953   1.602   3.394
 9509SOL     OW29425   6.437   0.152   2.321
 9509SOL    HW129426   6.490   0.071   2.294
 9509SOL    HW229427   6.369   0.127   2.390
 9510SOL     OW29428   0.591   2.766   3.458
 9510SOL    HW129429   0.521   2.837   3.455
 9510SOL    HW229430   0.647   2.771   3.375
 9511SOL     OW29431   1.394   1.020   0.319
 9511SOL    HW129432   1.367   1.114   0.338
 9511SOL    HW229433   1.386   0.965   0.402
 9512SOL     OW29434   6.202   2.300   1.269
 9512SOL    HW129435   6.243   2.229   1.212
 9512SOL    HW229436   6.109   2.272   1.295
 9513SOL     OW29437   3.845   5.040   6.961
 9513SOL    HW129438   3.824   5.136   6.939
 9513SOL    HW229439   3.761   4.986   6.958
 9514SOL     OW29440   3.467   3.226   6.641
 9514SOL    HW129441   3.494   3.282   6.719
 9514SOL    HW229442   3.368   3.232   6.629
 9515SOL     OW29443   2.616   5.044   3.779
 9515SOL    HW129444   2.522   5.075   3.772
 9515SOL    HW229445   2.620   4.945   3.762
 9516SOL     OW29446   6.648   3.812   0.458
 9516SOL    HW129447   6.616   3.820   0.363
 9516SOL    HW229448   6.747   3.824   0.460
 9517SOL     OW29449   0.550   4.629   1.246
 9517SOL    HW129450   0.603   4.660   1.168
 9517SOL    HW229451   0.573   4.684   1.326
 9518SOL     OW29452   2.362   1.427   0.300
 9518SOL    HW129453   2.374   1.334   0.335
 9518SOL    HW229454   2.272   1.462   0.328
 9519SOL     OW29455   0.756   2.878   5.190
 9519SOL    HW129456   0.781   2.975   5.195
 9519SOL    HW229457   0.834   2.821   5.215
 9520SOL     OW29458   2.211   6.852   2.639
 9520SOL    HW129459   2.267   6.787   2.587
 9520SOL    HW229460   2.271   6.917   2.686
 9521SOL     OW29461   5.361   5.669   4.272
 9521SOL    HW129462   5.315   5.628   4.193
 9521SOL    HW229463   5.306   5.745   4.307
 9522SOL     OW29464   3.411   6.148   1.126
 9522SOL    HW129465   3.500   6.160   1.081
 9522SOL    HW229466   3.404   6.210   1.204
 9523SOL     OW29467   3.541   5.002   4.960
 9523SOL    HW129468   3.491   5.085   4.984
 9523SOL    HW229469   3.536   4.936   5.036
 9524SOL     OW29470   4.212   3.479   1.109
 9524SOL    HW129471   4.270   3.557   1.086
 9524SOL    HW229472   4.141   3.507   1.173
 9525SOL     OW29473   2.512   0.825   6.109
 9525SOL    HW129474   2.612   0.827   6.111
 9525SOL    HW229475   2.476   0.883   6.182
 9526SOL     OW29476   5.134   5.751   2.848
 9526SOL    HW129477   5.196   5.822   2.814
 9526SOL    HW229478   5.080   5.787   2.924
 9527SOL     OW29479   0.925   1.392   2.327
 9527SOL    HW129480   1.015   1.366   2.291
 9527SOL    HW229481   0.892   1.322   2.389
 9528SOL     OW29482   6.620   0.676   2.269
 9528SOL    HW129483   6.665   0.758   2.234
 9528SOL    HW229484   6.551   0.702   2.337
 9529SOL     OW29485   0.961   2.906   6.043
 9529SOL    HW129486   0.915   2.943   6.124
 9529SOL    HW229487   1.054   2.942   6.038
 9530SOL     OW29488   1.222   2.311   3.275
 9530SOL    HW129489   1.194   2.230   3.223
 9530SOL    HW229490   1.319   2.328   3.260
 9531SOL     OW29491   3.607   0.002   3.168
 9531SOL    HW129492   3.679   6.987   3.228
 9531SOL    HW229493   3.647   0.063   3.099
 9532SOL     OW29494   2.015   6.821   2.042
 9532SOL    HW129495   2.057   6.910   2.062
 9532SOL    HW229496   1.916   6.833   2.036
 9533SOL     OW29497   1.551   0.926   5.943
 9533SOL    HW129498   1.463   0.957   5.906
 9533SOL    HW229499   1.552   0.938   6.042
 9534SOL     OW29500   5.707   2.113   5.342
 9534SOL    HW129501   5.719   2.020   5.307
 9534SOL    HW229502   5.612   2.141   5.331
 9535SOL     OW29503   2.685   1.151   5.365
 9535SOL    HW129504   2.625   1.173   5.442
 9535SOL    HW229505   2.773   1.196   5.378
 9536SOL     OW29506   1.503   5.682   5.520
 9536SOL    HW129507   1.511   5.686   5.620
 9536SOL    HW229508   1.588   5.713   5.478
 9537SOL     OW29509   2.863   0.296   1.733
 9537SOL    HW129510   2.868   0.235   1.654
 9537SOL    HW229511   2.806   0.254   1.804
 9538SOL     OW29512   6.731   2.362   4.877
 9538SOL    HW129513   6.728   2.459   4.851
 9538SOL    HW229514   6.825   2.337   4.901
 9539SOL     OW29515   0.647   5.650   0.308
 9539SOL    HW129516   0.746   5.640   0.317
 9539SOL    HW229517   0.627   5.719   0.239
 9540SOL     OW29518   5.006   4.859   4.409
 9540SOL    HW129519   4.912   4.840   4.438
 9540SOL    HW229520   5.006   4.893   4.315
 9541SOL     OW29521   2.069   2.698   4.203
 9541SOL    HW129522   2.010   2.779   4.202
 9541SOL    HW229523   2.165   2.727   4.204
 9542SOL     OW29524   4.947   3.398   4.686
 9542SOL    HW129525   4.889   3.352   4.752
 9542SOL    HW229526   4.956   3.495   4.711
 9543SOL     OW29527   5.326   1.489   3.260
 9543SOL    HW129528   5.353   1.551   3.333
 9543SOL    HW229529   5.408   1.455   3.213
 9544SOL     OW29530   4.925   1.489   2.760
 9544SOL    HW129531   4.970   1.413   2.808
 9544SOL    HW229532   4.975   1.510   2.676
 9545SOL     OW29533   6.659   1.182   3.711
 9545SOL    HW129534   6.563   1.182   3.684
 9545SOL    HW229535   6.683   1.091   3.746
 9546SOL     OW29536   2.716   5.281   0.366
 9546SOL    HW129537   2.757   5.190   0.355
 9546SOL    HW229538   2.780   5.350   0.332
 9547SOL     OW29539   0.812   6.618   4.202
 9547SOL    HW129540   0.869   6.665   4.134
 9547SOL    HW229541   0.732   6.578   4.156
 9548SOL     OW29542   4.907   5.725   4.059
 9548SOL    HW129543   4.835   5.660   4.085
 9548SOL    HW229544   4.900   5.806   4.117
 9549SOL     OW29545   2.314   6.255   0.870
 9549SOL    HW129546   2.226   6.236   0.913
 9549SOL    HW229547   2.325   6.354   0.860
 9550SOL     OW29548   1.410   1.594   0.108
 9550SOL    HW129549   1.489   1.537   0.127
 9550SOL    HW229550   1.429   1.688   0.136
 9551SOL     OW29551   1.021   6.751   4.875
 9551SOL    HW129552   0.953   6.699   4.822
 9551SOL    HW229553   1.003   6.738   4.973
 9552SOL     OW29554   1.586   6.148   3.051
 9552SOL    HW129555   1.594   6.206   3.132
 9552SOL    HW229556   1.670   6.156   2.996
 9553SOL     OW29557   5.973   4.181   5.728
 9553SOL    HW129558   5.936   4.134   5.648
 9553SOL    HW229559   6.073   4.174   5.726
 9554SOL     OW29560   2.391   1.452   1.970
 9554SOL    HW129561   2.429   1.488   1.885
 9554SOL    HW229562   2.462   1.403   2.020
 9555SOL     OW29563   6.805   2.378   0.495
 9555SOL    HW129564   6.768   2.298   0.543
 9555SOL    HW229565   6.905   2.371   0.492
 9556SOL     OW29566   2.090   1.550   1.548
 9556SOL    HW129567   2.017   1.496   1.589
 9556SOL    HW229568   2.114   1.512   1.459
 9557SOL     OW29569   5.363   0.340   2.285
 9557SOL    HW129570   5.428   0.414   2.303
 9557SOL    HW229571   5.410   0.252   2.290
 9558SOL     OW29572   6.205   4.994   2.644
 9558SOL    HW129573   6.149   4.933   2.700
 9558SOL    HW229574   6.183   4.981   2.548
 9559SOL     OW29575   6.798   3.171   1.558
 9559SOL    HW129576   6.862   3.247   1.574
 9559SOL    HW229577   6.787   3.119   1.642
 9560SOL     OW29578   3.066   1.833   3.731
 9560SOL    HW129579   3.165   1.842   3.724
 9560SOL    HW229580   3.041   1.803   3.824
 9561SOL     OW29581   4.307   6.491   0.654
 9561SOL    HW129582   4.359   6.570   0.688
 9561SOL    HW229583   4.362   6.442   0.586
 9562SOL     OW29584   5.286   4.771   2.769
 9562SOL    HW129585   5.314   4.852   2.819
 9562SOL    HW229586   5.191   4.780   2.740
 9563SOL     OW29587   6.323   5.754   6.989
 9563SOL    HW129588   6.350   5.817   0.042
 9563SOL    HW229589   6.268   5.680   0.009
 9564SOL     OW29590   2.928   6.605   0.180
 9564SOL    HW129591   2.934   6.688   0.234
 9564SOL    HW229592   3.020   6.569   0.164
 9565SOL     OW29593   3.789   5.669   4.620
 9565SOL    HW129594   3.714   5.727   4.651
 9565SOL    HW229595   3.768   5.632   4.529
 9566SOL     OW29596   2.708   4.412   5.351
 9566SOL    HW129597   2.721   4.319   5.384
 9566SOL    HW229598   2.791   4.442   5.303
 9567SOL     OW29599   5.971   5.356   5.690
 9567SOL    HW129600   5.927   5.270   5.713
 9567SOL    HW229601   5.957   5.376   5.593
 9568SOL     OW29602   4.682   3.720   6.071
 9568SOL    HW129603   4.749   3.747   6.141
 9568SOL    HW229604   4.675   3.621   6.069
 9569SOL     OW29605   5.942   0.916   0.154
 9569SOL    HW129606   6.039   0.937   0.165
 9569SOL    HW229607   5.894   0.997   0.120
 9570SOL     OW29608   1.040   1.070   0.068
 9570SOL    HW129609   1.081   1.100   0.154
 9570SOL    HW229610   1.111   1.029   0.010
 9571SOL     OW29611   2.107   3.788   0.119
 9571SOL    HW129612   2.077   3.696   0.096
 9571SOL    HW229613   2.081   3.851   0.045
 9572SOL     OW29614   1.542   4.527   1.425
 9572SOL    HW129615   1.620   4.464   1.424
 9572SOL    HW229616   1.569   4.614   1.384
 9573SOL     OW29617   1.939   1.368   0.585
 9573SOL    HW129618   1.978   1.383   0.676
 9573SOL    HW229619   2.004   1.399   0.515
 9574SOL     OW29620   2.697   2.810   5.826
 9574SOL    HW129621   2.754   2.741   5.782
 9574SOL    HW229622   2.702   2.896   5.774
 9575SOL     OW29623   5.683   0.850   2.410
 9575SOL    HW129624   5.665   0.870   2.507
 9575SOL    HW229625   5.742   0.770   2.404
 9576SOL     OW29626   3.280   1.550   5.242
 9576SOL    HW129627   3.194   1.542   5.192
 9576SOL    HW229628   3.264   1.530   5.339
 9577SOL     OW29629   0.844   6.258   3.348
 9577SOL    HW129630   0.778   6.275   3.421
 9577SOL    HW229631   0.899   6.177   3.370
 9578SOL     OW29632   6.199   2.797   2.445
 9578SOL    HW129633   6.176   2.725   2.511
 9578SOL    HW229634   6.210   2.884   2.493
 9579SOL     OW29635   1.075   6.542   2.431
 9579SOL    HW129636   1.132   6.624   2.421
 9579SOL    HW229637   1.107   6.472   2.366
 9580SOL     OW29638   4.357   3.164   5.850
 9580SOL    HW129639   4.370   3.162   5.949
 9580SOL    HW229640   4.305   3.247   5.825
 9581SOL     OW29641   1.000   4.368   5.880
 9581SOL    HW129642   1.015   4.462   5.850
 9581SOL    HW229643   1.079   4.338   5.934
 9582SOL     OW29644   4.111   4.822   4.714
 9582SOL    HW129645   4.176   4.806   4.639
 9582SOL    HW229646   4.151   4.789   4.799
 9583SOL     OW29647   2.076   4.221   1.717
 9583SOL    HW129648   2.109   4.210   1.624
 9583SOL    HW229649   2.017   4.301   1.723
 9584SOL     OW29650   6.095   5.906   6.099
 9584SOL    HW129651   6.085   5.856   6.013
 9584SOL    HW229652   6.187   5.892   6.135
 9585SOL     OW29653   6.080   0.315   4.912
 9585SOL    HW129654   6.028   0.395   4.882
 9585SOL    HW229655   6.163   0.344   4.959
 9586SOL     OW29656   5.841   3.455   3.306
 9586SOL    HW129657   5.766   3.492   3.251
 9586SOL    HW229658   5.808   3.376   3.358
 9587SOL     OW29659   4.871   6.894   2.425
 9587SOL    HW129660   4.908   6.844   2.346
 9587SOL    HW229661   4.946   6.941   2.472
 9588SOL     OW29662   0.648   0.566   1.863
 9588SOL    HW129663   0.674   0.548   1.768
 9588SOL    HW229664   0.665   0.483   1.917
 9589SOL     OW29665   2.565   1.398   6.581
 9589SOL    HW129666   2.607   1.487   6.597
 9589SOL    HW229667   2.519   1.368   6.665
 9590SOL     OW29668   6.408   4.235   4.340
 9590SOL    HW129669   6.503   4.242   4.308
 9590SOL    HW229670   6.346   4.237   4.262
 9591SOL     OW29671   1.425   5.173   1.398
 9591SOL    HW129672   1.453   5.224   1.317
 9591SOL    HW229673   1.350   5.221   1.444
 9592SOL     OW29674   4.835   5.118   1.731
 9592SOL    HW129675   4.855   5.165   1.645
 9592SOL    HW229676   4.777   5.039   1.713
 9593SOL     OW29677   0.711   3.094   4.298
 9593SOL    HW129678   0.689   3.089   4.395
 9593SOL    HW229679   0.793   3.149   4.284
 9594SOL     OW29680   6.240   6.922   2.339
 9594SOL    HW129681   6.197   6.979   2.270
 9594SOL    HW229682   6.265   6.834   2.299
 9595SOL     OW29683   1.157   5.278   3.952
 9595SOL    HW129684   1.129   5.329   4.034
 9595SOL    HW229685   1.226   5.332   3.903
 9596SOL     OW29686   5.658   6.243   5.026
 9596SOL    HW129687   5.684   6.220   4.932
 9596SOL    HW229688   5.735   6.287   5.071
 9597SOL     OW29689   2.046   3.686   1.065
 9597SOL    HW129690   2.032   3.693   1.164
 9597SOL    HW229691   2.141   3.706   1.044
 9598SOL     OW29692   0.128   5.376   5.619
 9598SOL    HW129693   0.132   5.347   5.714
 9598SOL    HW229694   0.221   5.385   5.584
 9599SOL     OW29695   4.723   1.467   4.974
 9599SOL    HW129696   4.693   1.518   4.894
 9599SOL    HW229697   4.775   1.387   4.945
 9600SOL     OW29698   1.382   0.121   6.703
 9600SOL    HW129699   1.402   0.207   6.749
 9600SOL    HW229700   1.351   0.054   6.769
 9601SOL     OW29701   0.296   5.257   5.259
 9601SOL    HW129702   0.202   5.245   5.294
 9601SOL    HW229703   0.293   5.265   5.160
 9602SOL     OW29704   1.130   5.753   0.188
 9602SOL    HW129705   1.201   5.729   0.254
 9602SOL    HW229706   1.044   5.771   0.237
 9603SOL     OW29707   1.888   5.875   3.882
 9603SOL    HW129708   1.968   5.868   3.941
 9603SOL    HW229709   1.818   5.929   3.928
 9604SOL     OW29710   6.298   1.305   6.883
 9604SOL    HW129711   6.255   1.305   6.792
 9604SOL    HW229712   6.356   1.224   6.893
 9605SOL     OW29713   2.195   6.328   6.749
 9605SOL    HW129714   2.174   6.424   6.768
 9605SOL    HW229715   2.235   6.286   6.831
 9606SOL     OW29716   6.326   6.460   4.070
 9606SOL    HW129717   6.389   6.411   4.130
 9606SOL    HW229718   6.324   6.415   3.981
 9607SOL     OW29719   1.278   2.108   1.707
 9607SOL    HW129720   1.213   2.077   1.777
 9607SOL    HW229721   1.238   2.096   1.617
 9608SOL     OW29722   0.526   6.753   2.127
 9608SOL    HW129723   0.559   6.809   2.050
 9608SOL    HW229724   0.524   6.810   2.209
 9609SOL     OW29725   1.449   3.582   4.542
 9609SOL    HW129726   1.449   3.664   4.486
 9609SOL    HW229727   1.391   3.596   4.622
 9610SOL     OW29728   2.398   1.847   6.285
 9610SOL    HW129729   2.424   1.893   6.370
 9610SOL    HW229730   2.388   1.749   6.302
 9611SOL     OW29731   6.600   0.032   1.248
 9611SOL    HW129732   6.672   6.984   1.265
 9611SOL    HW229733   6.640   0.123   1.237
 9612SOL     OW29734   5.629   2.596   1.644
 9612SOL    HW129735   5.614   2.550   1.732
 9612SOL    HW229736   5.623   2.695   1.657
 9613SOL     OW29737   5.911   6.242   5.593
 9613SOL    HW129738   5.843   6.314   5.580
 9613SOL    HW229739   5.939   6.240   5.689
 9614SOL     OW29740   3.788   3.266   2.325
 9614SOL    HW129741   3.823   3.215   2.403
 9614SOL    HW229742   3.840   3.242   2.243
 9615SOL     OW29743   0.921   6.006   3.400
 9615SOL    HW129744   0.829   5.971   3.383
 9615SOL    HW229745   0.988   5.941   3.365
 9616SOL     OW29746   3.044   3.233   0.638
 9616SOL    HW129747   3.043   3.272   0.546
 9616SOL    HW229748   3.080   3.300   0.703
 9617SOL     OW29749   0.503   4.228   3.817
 9617SOL    HW129750   0.579   4.236   3.881
 9617SOL    HW229751   0.473   4.133   3.812
 9618SOL     OW29752   4.439   6.112   0.010
 9618SOL    HW129753   4.483   6.174   0.075
 9618SOL    HW229754   4.508   6.055   6.985
 9619SOL     OW29755   2.578   6.831   0.232
 9619SOL    HW129756   2.667   6.819   0.277
 9619SOL    HW229757   2.521   6.891   0.288
 9620SOL     OW29758   3.486   1.206   6.381
 9620SOL    HW129759   3.395   1.224   6.419
 9620SOL    HW229760   3.512   1.111   6.400
 9621SOL     OW29761   1.027   1.084   1.159
 9621SOL    HW129762   1.094   1.031   1.210
 9621SOL    HW229763   1.041   1.181   1.176
 9622SOL     OW29764   6.465   0.273   6.147
 9622SOL    HW129765   6.543   0.245   6.091
 9622SOL    HW229766   6.497   0.331   6.222
 9623SOL     OW29767   4.103   6.188   6.682
 9623SOL    HW129768   4.113   6.104   6.734
 9623SOL    HW229769   4.016   6.232   6.705
 9624SOL     OW29770   4.121   5.284   4.838
 9624SOL    HW129771   4.123   5.246   4.745
 9624SOL    HW229772   4.074   5.220   4.899
 9625SOL     OW29773   4.881   4.069   6.030
 9625SOL    HW129774   4.917   4.161   6.048
 9625SOL    HW229775   4.800   4.053   6.086
 9626SOL     OW29776   2.330   3.829   6.286
 9626SOL    HW129777   2.245   3.813   6.235
 9626SOL    HW229778   2.397   3.872   6.227
 9627SOL     OW29779   0.991   5.515   6.763
 9627SOL    HW129780   1.051   5.587   6.799
 9627SOL    HW229781   0.990   5.519   6.663
 9628SOL     OW29782   5.801   2.154   6.608
 9628SOL    HW129783   5.869   2.203   6.663
 9628SOL    HW229784   5.843   2.072   6.569
 9629SOL     OW29785   6.910   5.749   3.519
 9629SOL    HW129786   6.895   5.667   3.464
 9629SOL    HW229787   6.830   5.765   3.577
 9630SOL     OW29788   6.124   5.949   6.415
 9630SOL    HW129789   6.059   5.979   6.345
 9630SOL    HW229790   6.149   6.026   6.473
 9631SOL     OW29791   4.429   0.852   0.351
 9631SOL    HW129792   4.381   0.769   0.381
 9631SOL    HW229793   4.528   0.839   0.360
 9632SOL     OW29794   3.504   6.133   1.947
 9632SOL    HW129795   3.562   6.173   2.018
 9632SOL    HW229796   3.523   6.178   1.859
 9633SOL     OW29797   3.155   3.083   1.937
 9633SOL    HW129798   3.083   3.146   1.910
 9633SOL    HW229799   3.154   3.073   2.037
 9634SOL     OW29800   5.268   4.295   2.478
 9634SOL    HW129801   5.307   4.237   2.549
 9634SOL    HW229802   5.276   4.391   2.504
 9635SOL     OW29803   0.390   4.368   4.093
 9635SOL    HW129804   0.379   4.420   4.177
 9635SOL    HW229805   0.362   4.273   4.108
 9636SOL     OW29806   4.765   2.807   4.926
 9636SOL    HW129807   4.771   2.904   4.904
 9636SOL    HW229808   4.696   2.793   4.997
 9637SOL     OW29809   2.288   2.661   0.465
 9637SOL    HW129810   2.220   2.717   0.416
 9637SOL    HW229811   2.277   2.674   0.563
 9638SOL     OW29812   6.618   4.785   5.361
 9638SOL    HW129813   6.657   4.819   5.447
 9638SOL    HW229814   6.613   4.685   5.363
 9639SOL     OW29815   3.755   1.345   2.912
 9639SOL    HW129816   3.773   1.402   2.832
 9639SOL    HW229817   3.826   1.360   2.980
 9640SOL     OW29818   4.205   0.420   3.163
 9640SOL    HW129819   4.167   0.509   3.137
 9640SOL    HW229820   4.154   0.347   3.119
 9641SOL     OW29821   6.006   3.912   2.633
 9641SOL    HW129822   5.954   3.998   2.637
 9641SOL    HW229823   5.942   3.835   2.624
 9642SOL     OW29824   1.657   0.286   3.838
 9642SOL    HW129825   1.610   0.229   3.905
 9642SOL    HW229826   1.745   0.245   3.815
 9643SOL     OW29827   4.934   4.870   3.817
 9643SOL    HW129828   4.959   4.855   3.722
 9643SOL    HW229829   4.898   4.785   3.856
 9644SOL     OW29830   1.443   6.007   4.855
 9644SOL    HW129831   1.499   5.924   4.852
 9644SOL    HW229832   1.361   5.990   4.910
 9645SOL     OW29833   0.454   5.297   0.207
 9645SOL    HW129834   0.517   5.317   0.132
 9645SOL    HW229835   0.426   5.382   0.251
 9646SOL     OW29836   3.639   6.005   6.186
 9646SOL    HW129837   3.597   5.916   6.202
 9646SOL    HW229838   3.634   6.060   6.270
 9647SOL     OW29839   6.333   7.017   3.200
 9647SOL    HW129840   6.329   0.042   3.111
 9647SOL    HW229841   6.407   6.951   3.201
 9648SOL     OW29842   4.029   2.333   1.214
 9648SOL    HW129843   4.083   2.257   1.177
 9648SOL    HW229844   4.085   2.387   1.277
 9649SOL     OW29845   1.394   5.139   6.910
 9649SOL    HW129846   1.315   5.188   6.871
 9649SOL    HW229847   1.477   5.166   6.861
 9650SOL     OW29848   6.908   5.414   4.810
 9650SOL    HW129849   6.853   5.356   4.750
 9650SOL    HW229850   7.004   5.387   4.803
 9651SOL     OW29851   4.024   1.172   0.251
 9651SOL    HW129852   4.036   1.263   0.292
 9651SOL    HW229853   4.086   1.108   0.295
 9652SOL     OW29854   6.909   3.829   0.451
 9652SOL    HW129855   6.931   3.749   0.395
 9652SOL    HW229856   6.949   3.911   0.410
 9653SOL     OW29857   3.861   4.219   6.135
 9653SOL    HW129858   3.949   4.194   6.175
 9653SOL    HW229859   3.874   4.243   6.039
 9654SOL     OW29860   3.631   3.354   3.312
 9654SOL    HW129861   3.558   3.355   3.244
 9654SOL    HW229862   3.647   3.447   3.345
 9655SOL     OW29863   4.117   1.390   1.970
 9655SOL    HW129864   4.032   1.436   1.949
 9655SOL    HW229865   4.194   1.443   1.934
 9656SOL     OW29866   5.817   4.079   0.885
 9656SOL    HW129867   5.729   4.056   0.927
 9656SOL    HW229868   5.825   4.179   0.877
 9657SOL     OW29869   5.885   3.652   3.655
 9657SOL    HW129870   5.904   3.695   3.567
 9657SOL    HW229871   5.944   3.572   3.667
 9658SOL     OW29872   5.233   2.024   2.320
 9658SOL    HW129873   5.305   1.956   2.334
 9658SOL    HW229874   5.148   1.992   2.362
 9659SOL     OW29875   2.869   3.032   0.688
 9659SOL    HW129876   2.841   2.961   0.623
 9659SOL    HW229877   2.925   3.100   0.641
 9660SOL     OW29878   0.472   5.975   1.416
 9660SOL    HW129879   0.494   6.032   1.337
 9660SOL    HW229880   0.534   5.997   1.491
 9661SOL     OW29881   5.351   4.806   0.843
 9661SOL    HW129882   5.252   4.819   0.837
 9661SOL    HW229883   5.372   4.740   0.914
 9662SOL     OW29884   5.322   4.895   6.466
 9662SOL    HW129885   5.248   4.933   6.410
 9662SOL    HW229886   5.309   4.797   6.475
 9663SOL     OW29887   0.812   5.125   3.148
 9663SOL    HW129888   0.752   5.205   3.148
 9663SOL    HW229889   0.896   5.146   3.198
 9664SOL     OW29890   5.125   3.854   2.935
 9664SOL    HW129891   5.047   3.916   2.925
 9664SOL    HW229892   5.092   3.762   2.956
 9665SOL     OW29893   5.560   5.601   6.206
 9665SOL    HW129894   5.611   5.620   6.122
 9665SOL    HW229895   5.623   5.575   6.279
 9666SOL     OW29896   5.513   3.517   0.276
 9666SOL    HW129897   5.551   3.493   0.186
 9666SOL    HW229898   5.497   3.615   0.281
 9667SOL     OW29899   5.984   5.897   0.123
 9667SOL    HW129900   5.925   5.935   0.194
 9667SOL    HW229901   5.935   5.897   0.035
 9668SOL     OW29902   7.019   0.022   5.694
 9668SOL    HW129903   0.072   0.084   5.724
 9668SOL    HW229904   0.021   6.948   5.724
 9669SOL     OW29905   3.625   0.130   0.318
 9669SOL    HW129906   3.584   0.105   0.405
 9669SOL    HW229907   3.554   0.159   0.254
 9670SOL     OW29908   0.601   0.011   6.442
 9670SOL    HW129909   0.664   6.964   6.482
 9670SOL    HW229910   0.516   6.984   6.416
 9671SOL     OW29911   1.189   5.081   5.922
 9671SOL    HW129912   1.205   5.143   5.999
 9671SOL    HW229913   1.113   5.114   5.868
 9672SOL     OW29914   0.502   3.517   4.754
 9672SOL    HW129915   0.551   3.602   4.734
 9672SOL    HW229916   0.431   3.503   4.686
 9673SOL     OW29917   2.492   4.099   1.267
 9673SOL    HW129918   2.502   4.022   1.331
 9673SOL    HW229919   2.409   4.086   1.213
 9674SOL     OW29920   2.578   6.540   4.121
 9674SOL    HW129921   2.530   6.467   4.170
 9674SOL    HW229922   2.676   6.518   4.117
 9675SOL     OW29923   4.603   4.113   1.312
 9675SOL    HW129924   4.612   4.101   1.411
 9675SOL    HW229925   4.656   4.042   1.265
 9676SOL     OW29926   1.187   3.034   6.044
 9676SOL    HW129927   1.195   3.089   5.960
 9676SOL    HW229928   1.275   2.994   6.066
 9677SOL     OW29929   6.654   5.654   0.794
 9677SOL    HW129930   6.642   5.592   0.871
 9677SOL    HW229931   6.686   5.602   0.715
 9678SOL     OW29932   3.641   3.349   4.886
 9678SOL    HW129933   3.701   3.428   4.888
 9678SOL    HW229934   3.687   3.271   4.929
 9679SOL     OW29935   1.985   1.354   5.007
 9679SOL    HW129936   2.063   1.308   5.050
 9679SOL    HW229937   1.957   1.303   4.925
 9680SOL     OW29938   4.382   5.662   2.908
 9680SOL    HW129939   4.362   5.596   2.980
 9680SOL    HW229940   4.468   5.709   2.929
 9681SOL     OW29941   1.779   1.689   2.694
 9681SOL    HW129942   1.720   1.627   2.642
 9681SOL    HW229943   1.726   1.767   2.726
 9682SOL     OW29944   4.960   5.341   5.261
 9682SOL    HW129945   4.962   5.441   5.267
 9682SOL    HW229946   4.931   5.314   5.169
 9683SOL     OW29947   2.827   5.997   1.651
 9683SOL    HW129948   2.754   6.058   1.622
 9683SOL    HW229949   2.878   5.965   1.571
 9684SOL     OW29950   0.909   4.230   5.671
 9684SOL    HW129951   0.956   4.142   5.681
 9684SOL    HW229952   0.943   4.293   5.741
 9685SOL     OW29953   3.965   4.941   1.658
 9685SOL    HW129954   3.932   4.982   1.573
 9685SOL    HW229955   4.042   4.879   1.638
 9686SOL     OW29956   0.265   1.715   6.049
 9686SOL    HW129957   0.165   1.711   6.057
 9686SOL    HW229958   0.297   1.802   6.087
 9687SOL     OW29959   5.708   0.784   2.014
 9687SOL    HW129960   5.699   0.859   2.080
 9687SOL    HW229961   5.688   0.817   1.922
 9688SOL     OW29962   0.373   4.331   1.393
 9688SOL    HW129963   0.302   4.374   1.449
 9688SOL    HW229964   0.463   4.364   1.422
 9689SOL     OW29965   1.083   6.759   1.041
 9689SOL    HW129966   1.145   6.837   1.040
 9689SOL    HW229967   1.053   6.738   0.948
 9690SOL     OW29968   5.606   5.398   5.200
 9690SOL    HW129969   5.588   5.300   5.195
 9690SOL    HW229970   5.630   5.432   5.109
 9691SOL     OW29971   3.007   3.840   1.778
 9691SOL    HW129972   3.013   3.753   1.827
 9691SOL    HW229973   3.063   3.908   1.824
 9692SOL     OW29974   5.042   5.134   0.768
 9692SOL    HW129975   4.980   5.212   0.779
 9692SOL    HW229976   5.068   5.099   0.858
 9693SOL     OW29977   5.192   3.822   4.188
 9693SOL    HW129978   5.123   3.790   4.253
 9693SOL    HW229979   5.149   3.883   4.121
 9694SOL     OW29980   3.473   6.635   2.396
 9694SOL    HW129981   3.519   6.596   2.316
 9694SOL    HW229982   3.387   6.677   2.367
 9695SOL     OW29983   0.942   2.639   3.776
 9695SOL    HW129984   0.876   2.709   3.748
 9695SOL    HW229985   0.998   2.613   3.697
 9696SOL     OW29986   5.431   1.830   2.400
 9696SOL    HW129987   5.472   1.772   2.329
 9696SOL    HW229988   5.435   1.783   2.488
 9697SOL     OW29989   0.259   6.186   0.148
 9697SOL    HW129990   0.237   6.093   0.177
 9697SOL    HW229991   0.223   6.251   0.215
 9698SOL     OW29992   6.047   3.677   0.120
 9698SOL    HW129993   6.012   3.767   0.146
 9698SOL    HW229994   5.987   3.607   0.157
 9699SOL     OW29995   0.828   5.002   0.750
 9699SOL    HW129996   0.815   5.083   0.807
 9699SOL    HW229997   0.747   4.943   0.757
 9700SOL     OW29998   5.694   6.605   5.004
 9700SOL    HW129999   5.730   6.513   5.021
 9700SOL    HW230000   5.684   6.653   5.090
 9701SOL     OW30001   4.659   3.187   6.199
 9701SOL    HW130002   4.599   3.133   6.140
 9701SOL    HW230003   4.620   3.192   6.291
 9702SOL     OW30004   3.487   3.251   1.349
 9702SOL    HW130005   3.511   3.335   1.301
 9702SOL    HW230006   3.570   3.209   1.385
 9703SOL     OW30007   6.312   3.973   5.175
 9703SOL    HW130008   6.293   3.878   5.151
 9703SOL    HW230009   6.400   4.001   5.137
 9704SOL     OW30010   2.253   4.118   3.169
 9704SOL    HW130011   2.220   4.068   3.089
 9704SOL    HW230012   2.301   4.055   3.230
 9705SOL     OW30013   5.989   3.613   5.679
 9705SOL    HW130014   6.060   3.572   5.621
 9705SOL    HW230015   5.938   3.680   5.626
 9706SOL     OW30016   1.517   1.775   2.182
 9706SOL    HW130017   1.584   1.804   2.250
 9706SOL    HW230018   1.565   1.739   2.101
 9707SOL     OW30019   6.498   5.110   2.589
 9707SOL    HW130020   6.526   5.181   2.525
 9707SOL    HW230021   6.574   5.089   2.651
 9708SOL     OW30022   2.089   0.706   2.245
 9708SOL    HW130023   2.188   0.718   2.236
 9708SOL    HW230024   2.065   0.702   2.342
 9709SOL     OW30025   5.602   2.059   2.472
 9709SOL    HW130026   5.556   1.990   2.416
 9709SOL    HW230027   5.597   2.147   2.426
 9710SOL     OW30028   5.863   5.326   4.417
 9710SOL    HW130029   5.849   5.272   4.333
 9710SOL    HW230030   5.885   5.420   4.392
 9711SOL     OW30031   3.869   0.045   6.804
 9711SOL    HW130032   3.805   0.060   6.879
 9711SOL    HW230033   3.930   6.989   6.826
 9712SOL     OW30034   5.858   2.229   0.026
 9712SOL    HW130035   5.855   2.130   0.038
 9712SOL    HW230036   5.794   2.272   0.089
 9713SOL     OW30037   1.298   6.382   3.908
 9713SOL    HW130038   1.331   6.453   3.845
 9713SOL    HW230039   1.258   6.306   3.856
 9714SOL     OW30040   3.182   4.916   4.994
 9714SOL    HW130041   3.084   4.906   5.012
 9714SOL    HW230042   3.212   4.841   4.934
 9715SOL     OW30043   6.300   3.912   0.523
 9715SOL    HW130044   6.348   3.850   0.585
 9715SOL    HW230045   6.309   4.006   0.556
 9716SOL     OW30046   3.022   4.895   6.859
 9716SOL    HW130047   3.006   4.812   6.804
 9716SOL    HW230048   2.962   4.894   6.938
 9717SOL     OW30049   4.586   0.890   5.501
 9717SOL    HW130050   4.600   0.985   5.530
 9717SOL    HW230051   4.587   0.830   5.581
 9718SOL     OW30052   2.771   1.878   0.514
 9718SOL    HW130053   2.840   1.841   0.576
 9718SOL    HW230054   2.784   1.839   0.422
 9719SOL     OW30055   4.700   6.424   5.366
 9719SOL    HW130056   4.622   6.408   5.426
 9719SOL    HW230057   4.680   6.389   5.274
 9720SOL     OW30058   2.054   3.691   3.170
 9720SOL    HW130059   2.011   3.602   3.185
 9720SOL    HW230060   2.084   3.698   3.074
 9721SOL     OW30061   0.705   1.955   0.715
 9721SOL    HW130062   0.649   2.033   0.688
 9721SOL    HW230063   0.796   1.964   0.675
 9722SOL     OW30064   3.824   3.040   4.801
 9722SOL    HW130065   3.774   2.954   4.790
 9722SOL    HW230066   3.817   3.071   4.896
 9723SOL     OW30067   6.345   5.590   4.297
 9723SOL    HW130068   6.413   5.632   4.357
 9723SOL    HW230069   6.390   5.528   4.233
 9724SOL     OW30070   0.731   5.478   0.021
 9724SOL    HW130071   0.664   5.549   0.004
 9724SOL    HW230072   0.818   5.519   0.048
 9725SOL     OW30073   3.236   5.374   5.710
 9725SOL    HW130074   3.304   5.326   5.653
 9725SOL    HW230075   3.212   5.317   5.788
 9726SOL     OW30076   5.844   1.204   4.570
 9726SOL    HW130077   5.869   1.108   4.555
 9726SOL    HW230078   5.785   1.235   4.496
 9727SOL     OW30079   1.273   1.290   6.799
 9727SOL    HW130080   1.194   1.229   6.796
 9727SOL    HW230081   1.330   1.267   6.878
 9728SOL     OW30082   5.259   6.862   6.096
 9728SOL    HW130083   5.271   6.932   6.166
 9728SOL    HW230084   5.349   6.826   6.070
 9729SOL     OW30085   0.448   5.127   3.266
 9729SOL    HW130086   0.502   5.187   3.206
 9729SOL    HW230087   0.421   5.046   3.215
 9730SOL     OW30088   0.064   4.340   3.225
 9730SOL    HW130089   0.089   4.247   3.199
 9730SOL    HW230090   0.102   4.361   3.315
 9731SOL     OW30091   5.381   3.663   2.702
 9731SOL    HW130092   5.301   3.659   2.762
 9731SOL    HW230093   5.357   3.712   2.618
 9732SOL     OW30094   1.149   3.344   2.546
 9732SOL    HW130095   1.228   3.308   2.597
 9732SOL    HW230096   1.177   3.426   2.496
 9733SOL     OW30097   6.279   5.311   2.613
 9733SOL    HW130098   6.359   5.263   2.575
 9733SOL    HW230099   6.216   5.333   2.539
 9734SOL     OW30100   6.248   6.633   6.046
 9734SOL    HW130101   6.204   6.723   6.045
 9734SOL    HW230102   6.269   6.607   6.141
 9735SOL     OW30103   1.571   2.197   2.209
 9735SOL    HW130104   1.568   2.296   2.222
 9735SOL    HW230105   1.585   2.153   2.298
 9736SOL     OW30106   4.819   2.652   5.251
 9736SOL    HW130107   4.774   2.602   5.325
 9736SOL    HW230108   4.751   2.678   5.182
 9737SOL     OW30109   6.044   2.002   2.474
 9737SOL    HW130110   5.967   1.939   2.463
 9737SOL    HW230111   6.017   2.094   2.445
 9738SOL     OW30112   1.472   6.165   1.798
 9738SOL    HW130113   1.465   6.092   1.731
 9738SOL    HW230114   1.516   6.245   1.757
 9739SOL     OW30115   5.579   0.073   0.052
 9739SOL    HW130116   5.495   0.029   0.084
 9739SOL    HW230117   5.658   0.027   0.093
 9740SOL     OW30118   6.872   0.874   2.446
 9740SOL    HW130119   6.940   0.862   2.374
 9740SOL    HW230120   6.909   0.932   2.518
 9741SOL     OW30121   3.149   1.022   4.527
 9741SOL    HW130122   3.135   1.094   4.459
 9741SOL    HW230123   3.245   1.021   4.555
 9742SOL     OW30124   4.048   2.217   5.885
 9742SOL    HW130125   4.147   2.208   5.897
 9742SOL    HW230126   4.029   2.269   5.802
 9743SOL     OW30127   6.257   3.240   3.354
 9743SOL    HW130128   6.202   3.167   3.393
 9743SOL    HW230129   6.317   3.279   3.424
 9744SOL     OW30130   1.850   0.133   3.743
 9744SOL    HW130131   1.914   0.202   3.708
 9744SOL    HW230132   1.853   0.053   3.683
 9745SOL     OW30133   6.428   0.793   5.726
 9745SOL    HW130134   6.483   0.826   5.802
 9745SOL    HW230135   6.482   0.731   5.670
 9746SOL     OW30136   4.429   5.373   6.187
 9746SOL    HW130137   4.379   5.311   6.127
 9746SOL    HW230138   4.469   5.321   6.262
 9747SOL     OW30139   2.438   2.581   2.273
 9747SOL    HW130140   2.391   2.493   2.275
 9747SOL    HW230141   2.537   2.567   2.277
 9748SOL     OW30142   1.180   0.645   3.383
 9748SOL    HW130143   1.151   0.626   3.289
 9748SOL    HW230144   1.270   0.605   3.398
 9749SOL     OW30145   6.805   1.848   2.468
 9749SOL    HW130146   6.823   1.803   2.380
 9749SOL    HW230147   6.832   1.788   2.543
 9750SOL     OW30148   6.283   4.222   3.707
 9750SOL    HW130149   6.218   4.185   3.774
 9750SOL    HW230150   6.311   4.313   3.736
 9751SOL     OW30151   2.684   1.225   1.951
 9751SOL    HW130152   2.669   1.244   1.854
 9751SOL    HW230153   2.694   1.312   2.000
 9752SOL     OW30154   3.833   2.941   0.414
 9752SOL    HW130155   3.785   2.863   0.455
 9752SOL    HW230156   3.930   2.917   0.402
 9753SOL     OW30157   6.010   5.982   5.209
 9753SOL    HW130158   6.036   6.065   5.259
 9753SOL    HW230159   6.065   5.905   5.242
 9754SOL     OW30160   3.615   0.190   1.295
 9754SOL    HW130161   3.637   0.263   1.360
 9754SOL    HW230162   3.516   0.183   1.285
 9755SOL     OW30163   3.426   4.107   6.487
 9755SOL    HW130164   3.507   4.090   6.543
 9755SOL    HW230165   3.376   4.186   6.523
 9756SOL     OW30166   6.015   0.802   6.272
 9756SOL    HW130167   5.960   0.788   6.354
 9756SOL    HW230168   6.103   0.843   6.297
 9757SOL     OW30169   4.839   3.648   3.472
 9757SOL    HW130170   4.844   3.621   3.376
 9757SOL    HW230171   4.808   3.571   3.527
 9758SOL     OW30172   2.084   0.419   0.867
 9758SOL    HW130173   2.059   0.323   0.870
 9758SOL    HW230174   2.181   0.428   0.845
 9759SOL     OW30175   1.354   1.360   0.279
 9759SOL    HW130176   1.337   1.451   0.241
 9759SOL    HW230177   1.444   1.357   0.321
 9760SOL     OW30178   4.509   1.851   0.762
 9760SOL    HW130179   4.568   1.861   0.843
 9760SOL    HW230180   4.417   1.824   0.791
 9761SOL     OW30181   1.966   1.317   1.694
 9761SOL    HW130182   1.877   1.273   1.704
 9761SOL    HW230183   2.021   1.301   1.776
 9762SOL     OW30184   2.710   2.085   5.865
 9762SOL    HW130185   2.645   2.095   5.941
 9762SOL    HW230186   2.801   2.113   5.896
 9763SOL     OW30187   6.471   1.718   1.381
 9763SOL    HW130188   6.508   1.802   1.419
 9763SOL    HW230189   6.371   1.718   1.393
 9764SOL     OW30190   5.609   1.565   2.217
 9764SOL    HW130191   5.515   1.544   2.245
 9764SOL    HW230192   5.637   1.502   2.145
 9765SOL     OW30193   6.862   1.456   1.899
 9765SOL    HW130194   6.892   1.549   1.879
 9765SOL    HW230195   6.942   1.395   1.901
 9766SOL     OW30196   2.020   0.957   4.304
 9766SOL    HW130197   1.923   0.948   4.328
 9766SOL    HW230198   2.033   1.037   4.246
 9767SOL     OW30199   2.248   3.279   5.767
 9767SOL    HW130200   2.189   3.210   5.808
 9767SOL    HW230201   2.192   3.351   5.726
 9768SOL     OW30202   5.809   2.479   0.922
 9768SOL    HW130203   5.903   2.491   0.953
 9768SOL    HW230204   5.806   2.478   0.822
 9769SOL     OW30205   2.865   1.756   5.082
 9769SOL    HW130206   2.884   1.739   4.985
 9769SOL    HW230207   2.927   1.827   5.116
 9770SOL     OW30208   3.007   2.270   6.412
 9770SOL    HW130209   2.959   2.318   6.485
 9770SOL    HW230210   3.026   2.176   6.440
 9771SOL     OW30211   2.630   6.122   2.799
 9771SOL    HW130212   2.698   6.052   2.823
 9771SOL    HW230213   2.552   6.078   2.755
 9772SOL     OW30214   0.794   6.367   1.738
 9772SOL    HW130215   0.869   6.426   1.767
 9772SOL    HW230216   0.740   6.339   1.818
 9773SOL     OW30217   4.749   5.353   2.240
 9773SOL    HW130218   4.737   5.291   2.163
 9773SOL    HW230219   4.663   5.360   2.291
 9774SOL     OW30220   0.921   5.731   4.332
 9774SOL    HW130221   0.893   5.636   4.318
 9774SOL    HW230222   0.909   5.783   4.247
 9775SOL     OW30223   2.548   0.946   3.911
 9775SOL    HW130224   2.455   0.915   3.890
 9775SOL    HW230225   2.567   1.029   3.859
 9776SOL     OW30226   1.619   5.599   6.513
 9776SOL    HW130227   1.717   5.620   6.512
 9776SOL    HW230228   1.579   5.629   6.600
 9777SOL     OW30229   4.916   6.869   6.272
 9777SOL    HW130230   4.903   6.805   6.196
 9777SOL    HW230231   4.995   6.840   6.326
 9778SOL     OW30232   0.522   2.150   4.503
 9778SOL    HW130233   0.609   2.104   4.517
 9778SOL    HW230234   0.473   2.156   4.590
 9779SOL     OW30235   0.988   1.870   3.728
 9779SOL    HW130236   0.960   1.922   3.809
 9779SOL    HW230237   0.949   1.912   3.646
 9780SOL     OW30238   1.824   1.738   1.151
 9780SOL    HW130239   1.796   1.678   1.076
 9780SOL    HW230240   1.858   1.682   1.227
 9781SOL     OW30241   1.207   3.102   3.505
 9781SOL    HW130242   1.128   3.040   3.512
 9781SOL    HW230243   1.187   3.186   3.556
 9782SOL     OW30244   0.055   2.406   1.012
 9782SOL    HW130245   0.012   2.390   0.923
 9782SOL    HW230246   0.129   2.472   1.002
 9783SOL     OW30247   3.629   1.418   3.566
 9783SOL    HW130248   3.590   1.437   3.476
 9783SOL    HW230249   3.601   1.488   3.631
 9784SOL     OW30250   2.112   1.494   0.400
 9784SOL    HW130251   2.081   1.572   0.455
 9784SOL    HW230252   2.063   1.493   0.313
 9785SOL     OW30253   6.910   2.171   4.667
 9785SOL    HW130254   6.959   2.103   4.612
 9785SOL    HW230255   6.909   2.259   4.619
 9786SOL     OW30256   2.032   4.307   0.955
 9786SOL    HW130257   2.039   4.390   0.899
 9786SOL    HW230258   2.014   4.229   0.896
 9787SOL     OW30259   3.877   2.976   2.784
 9787SOL    HW130260   3.881   2.934   2.875
 9787SOL    HW230261   3.814   2.924   2.726
 9788SOL     OW30262   0.201   6.664   1.967
 9788SOL    HW130263   0.206   6.584   2.027
 9788SOL    HW230264   0.107   6.675   1.935
 9789SOL     OW30265   3.266   6.994   6.687
 9789SOL    HW130266   3.279   6.938   6.769
 9789SOL    HW230267   3.171   0.007   6.684
 9790SOL     OW30268   6.660   4.329   4.316
 9790SOL    HW130269   6.598   4.390   4.365
 9790SOL    HW230270   6.755   4.350   4.340
 9791SOL     OW30271   1.132   6.398   0.958
 9791SOL    HW130272   1.036   6.378   0.935
 9791SOL    HW230273   1.136   6.440   1.049
 9792SOL     OW30274   4.044   5.919   1.007
 9792SOL    HW130275   4.059   5.857   0.930
 9792SOL    HW230276   4.117   5.987   1.010
 9793SOL     OW30277   4.757   1.858   2.522
 9793SOL    HW130278   4.712   1.948   2.513
 9793SOL    HW230279   4.732   1.817   2.610
 9794SOL     OW30280   4.896   4.412   4.855
 9794SOL    HW130281   4.887   4.501   4.809
 9794SOL    HW230282   4.816   4.356   4.836
 9795SOL     OW30283   0.817   3.653   3.861
 9795SOL    HW130284   0.865   3.631   3.776
 9795SOL    HW230285   0.844   3.744   3.892
 9796SOL     OW30286   3.214   3.932   3.587
 9796SOL    HW130287   3.283   3.924   3.659
 9796SOL    HW230288   3.252   3.982   3.510
 9797SOL     OW30289   2.853   6.462   6.814
 9797SOL    HW130290   2.774   6.415   6.775
 9797SOL    HW230291   2.821   6.530   6.881
 9798SOL     OW30292   1.383   3.212   0.969
 9798SOL    HW130293   1.375   3.113   0.981
 9798SOL    HW230294   1.358   3.236   0.876
 9799SOL     OW30295   2.879   6.170   6.664
 9799SOL    HW130296   2.854   6.162   6.761
 9799SOL    HW230297   2.973   6.138   6.651
 9800SOL     OW30298   5.859   3.250   4.223
 9800SOL    HW130299   5.779   3.203   4.262
 9800SOL    HW230300   5.875   3.216   4.131
 9801SOL     OW30301   5.933   5.002   6.157
 9801SOL    HW130302   5.907   4.918   6.109
 9801SOL    HW230303   6.013   4.983   6.215
 9802SOL     OW30304   4.306   5.132   1.496
 9802SOL    HW130305   4.252   5.048   1.493
 9802SOL    HW230306   4.403   5.110   1.510
 9803SOL     OW30307   0.881   4.008   5.995
 9803SOL    HW130308   0.940   4.055   6.060
 9803SOL    HW230309   0.786   4.013   6.025
 9804SOL     OW30310   6.377   5.747   3.002
 9804SOL    HW130311   6.362   5.659   3.046
 9804SOL    HW230312   6.289   5.785   2.973
 9805SOL     OW30313   0.133   6.897   3.842
 9805SOL    HW130314   0.062   6.881   3.773
 9805SOL    HW230315   0.189   6.815   3.853
 9806SOL     OW30316   3.414   2.779   6.151
 9806SOL    HW130317   3.482   2.847   6.178
 9806SOL    HW230318   3.413   2.770   6.052
 9807SOL     OW30319   2.889   3.458   2.120
 9807SOL    HW130320   2.911   3.388   2.053
 9807SOL    HW230321   2.822   3.422   2.186
 9808SOL     OW30322   4.306   6.594   3.891
 9808SOL    HW130323   4.401   6.601   3.922
 9808SOL    HW230324   4.283   6.498   3.876
 9809SOL     OW30325   0.291   2.740   0.552
 9809SOL    HW130326   0.340   2.816   0.594
 9809SOL    HW230327   0.209   2.719   0.605
 9810SOL     OW30328   2.248   1.520   6.080
 9810SOL    HW130329   2.220   1.610   6.116
 9810SOL    HW230330   2.340   1.527   6.041
 9811SOL     OW30331   5.989   3.894   4.120
 9811SOL    HW130332   6.074   3.889   4.067
 9811SOL    HW230333   6.010   3.917   4.215
 9812SOL     OW30334   2.562   6.970   4.549
 9812SOL    HW130335   2.464   6.960   4.531
 9812SOL    HW230336   2.579   0.038   4.594
 9813SOL     OW30337   5.141   2.374   0.430
 9813SOL    HW130338   5.092   2.419   0.505
 9813SOL    HW230339   5.102   2.284   0.414
 9814SOL     OW30340   5.896   1.944   0.100
 9814SOL    HW130341   5.878   1.847   0.115
 9814SOL    HW230342   5.936   1.984   0.183
 9815SOL     OW30343   4.808   2.991   4.624
 9815SOL    HW130344   4.832   3.060   4.556
 9815SOL    HW230345   4.834   3.023   4.715
 9816SOL     OW30346   1.364   0.467   0.598
 9816SOL    HW130347   1.458   0.495   0.619
 9816SOL    HW230348   1.365   0.404   0.521
 9817SOL     OW30349   0.377   0.078   3.402
 9817SOL    HW130350   0.403   0.174   3.410
 9817SOL    HW230351   0.369   0.053   3.305
 9818SOL     OW30352   6.318   2.210   4.751
 9818SOL    HW130353   6.404   2.240   4.710
 9818SOL    HW230354   6.328   2.209   4.851
 9819SOL     OW30355   3.640   1.857   3.350
 9819SOL    HW130356   3.585   1.843   3.267
 9819SOL    HW230357   3.674   1.951   3.351
 9820SOL     OW30358   3.505   4.400   5.740
 9820SOL    HW130359   3.497   4.368   5.646
 9820SOL    HW230360   3.535   4.325   5.799
 9821SOL     OW30361   5.268   5.697   6.933
 9821SOL    HW130362   5.262   5.766   6.861
 9821SOL    HW230363   5.313   5.615   6.898
 9822SOL     OW30364   0.534   7.019   2.607
 9822SOL    HW130365   0.510   0.096   2.611
 9822SOL    HW230366   0.456   6.964   2.635
 9823SOL     OW30367   3.554   0.817   2.858
 9823SOL    HW130368   3.535   0.885   2.787
 9823SOL    HW230369   3.548   0.862   2.948
 9824SOL     OW30370   0.874   4.399   5.444
 9824SOL    HW130371   0.858   4.345   5.527
 9824SOL    HW230372   0.864   4.340   5.364
 9825SOL     OW30373   3.589   4.923   5.583
 9825SOL    HW130374   3.654   4.943   5.510
 9825SOL    HW230375   3.538   4.840   5.561
 9826SOL     OW30376   4.272   5.934   6.357
 9826SOL    HW130377   4.268   5.874   6.277
 9826SOL    HW230378   4.286   6.029   6.327
 9827SOL     OW30379   1.791   4.356   4.692
 9827SOL    HW130380   1.861   4.386   4.757
 9827SOL    HW230381   1.721   4.302   4.740
 9828SOL     OW30382   3.971   2.712   6.607
 9828SOL    HW130383   3.973   2.800   6.655
 9828SOL    HW230384   4.040   2.651   6.646
 9829SOL     OW30385   2.912   6.330   0.600
 9829SOL    HW130386   2.818   6.330   0.635
 9829SOL    HW230387   2.913   6.294   0.507
 9830SOL     OW30388   5.592   1.769   0.764
 9830SOL    HW130389   5.517   1.750   0.700
 9830SOL    HW230390   5.583   1.862   0.799
 9831SOL     OW30391   1.161   6.464   1.222
 9831SOL    HW130392   1.136   6.553   1.261
 9831SOL    HW230393   1.256   6.444   1.245
 9832SOL     OW30394   4.307   5.287   2.470
 9832SOL    HW130395   4.322   5.359   2.538
 9832SOL    HW230396   4.350   5.313   2.384
 9833SOL     OW30397   3.433   3.769   4.682
 9833SOL    HW130398   3.435   3.725   4.772
 9833SOL    HW230399   3.339   3.795   4.661
 9834SOL     OW30400   2.626   3.984   5.571
 9834SOL    HW130401   2.725   3.998   5.584
 9834SOL    HW230402   2.603   3.889   5.594
 9835SOL     OW30403   4.975   1.632   4.396
 9835SOL    HW130404   5.010   1.724   4.414
 9835SOL    HW230405   4.975   1.616   4.298
 9836SOL     OW30406   5.614   3.567   3.227
 9836SOL    HW130407   5.527   3.526   3.197
 9836SOL    HW230408   5.595   3.637   3.296
 9837SOL     OW30409   2.273   0.359   3.965
 9837SOL    HW130410   2.185   0.318   3.988
 9837SOL    HW230411   2.337   0.287   3.937
 9838SOL     OW30412   1.313   6.706   6.011
 9838SOL    HW130413   1.290   6.725   6.106
 9838SOL    HW230414   1.356   6.616   6.005
 9839SOL     OW30415   0.010   1.951   1.963
 9839SOL    HW130416   0.068   2.000   1.898
 9839SOL    HW230417   0.068   1.897   2.025
 9840SOL     OW30418   0.213   0.780   0.675
 9840SOL    HW130419   0.156   0.862   0.672
 9840SOL    HW230420   0.157   0.702   0.703
 9841SOL     OW30421   1.344   4.254   4.796
 9841SOL    HW130422   1.263   4.241   4.854
 9841SOL    HW230423   1.331   4.202   4.711
 9842SOL     OW30424   3.525   3.260   3.628
 9842SOL    HW130425   3.612   3.298   3.596
 9842SOL    HW230426   3.472   3.228   3.549
 9843SOL     OW30427   6.235   2.015   1.393
 9843SOL    HW130428   6.229   2.068   1.477
 9843SOL    HW230429   6.186   2.062   1.320
 9844SOL     OW30430   4.394   0.039   2.846
 9844SOL    HW130431   4.298   0.066   2.838
 9844SOL    HW230432   4.437   0.090   2.920
 9845SOL     OW30433   2.556   1.653   4.975
 9845SOL    HW130434   2.552   1.617   5.068
 9845SOL    HW230435   2.636   1.713   4.966
 9846SOL     OW30436   2.923   3.810   3.325
 9846SOL    HW130437   2.872   3.812   3.240
 9846SOL    HW230438   2.901   3.727   3.376
 9847SOL     OW30439   2.714   3.241   6.020
 9847SOL    HW130440   2.709   3.183   5.938
 9847SOL    HW230441   2.622   3.266   6.048
 9848SOL     OW30442   4.172   2.499   6.280
 9848SOL    HW130443   4.208   2.482   6.188
 9848SOL    HW230444   4.245   2.486   6.347
 9849SOL     OW30445   6.280   0.566   6.604
 9849SOL    HW130446   6.343   0.643   6.611
 9849SOL    HW230447   6.196   0.596   6.557
 9850SOL     OW30448   4.365   6.410   2.512
 9850SOL    HW130449   4.310   6.345   2.565
 9850SOL    HW230450   4.446   6.364   2.477
 9851SOL     OW30451   4.320   1.875   5.276
 9851SOL    HW130452   4.407   1.893   5.229
 9851SOL    HW230453   4.306   1.776   5.284
 9852SOL     OW30454   4.416   1.676   3.475
 9852SOL    HW130455   4.473   1.654   3.396
 9852SOL    HW230456   4.382   1.770   3.467
 9853SOL     OW30457   5.242   3.692   2.433
 9853SOL    HW130458   5.246   3.789   2.408
 9853SOL    HW230459   5.149   3.658   2.420
 9854SOL     OW30460   6.031   5.110   4.957
 9854SOL    HW130461   6.002   5.023   4.918
 9854SOL    HW230462   6.000   5.185   4.898
 9855SOL     OW30463   0.621   4.414   1.514
 9855SOL    HW130464   0.592   4.475   1.588
 9855SOL    HW230465   0.719   4.396   1.522
 9856SOL     OW30466   4.060   4.360   0.024
 9856SOL    HW130467   3.979   4.418   0.031
 9856SOL    HW230468   4.103   4.352   0.114
 9857SOL     OW30469   4.983   1.735   3.007
 9857SOL    HW130470   4.947   1.644   3.027
 9857SOL    HW230471   4.997   1.744   2.908
 9858SOL     OW30472   5.287   0.469   2.050
 9858SOL    HW130473   5.287   0.397   2.119
 9858SOL    HW230474   5.313   0.556   2.093
 9859SOL     OW30475   6.518   0.083   1.530
 9859SOL    HW130476   6.606   0.051   1.566
 9859SOL    HW230477   6.474   0.009   1.479
 9860SOL     OW30478   0.413   1.306   1.919
 9860SOL    HW130479   0.435   1.257   1.835
 9860SOL    HW230480   0.407   1.404   1.899
 9861SOL     OW30481   3.528   6.640   4.694
 9861SOL    HW130482   3.452   6.673   4.749
 9861SOL    HW230483   3.599   6.711   4.689
 9862SOL     OW30484   2.440   3.323   0.435
 9862SOL    HW130485   2.519   3.337   0.494
 9862SOL    HW230486   2.467   3.273   0.353
 9863SOL     OW30487   2.782   6.985   2.793
 9863SOL    HW130488   2.746   0.044   2.844
 9863SOL    HW230489   2.881   6.993   2.786
 9864SOL     OW30490   4.248   6.311   3.516
 9864SOL    HW130491   4.204   6.239   3.462
 9864SOL    HW230492   4.195   6.396   3.509
 9865SOL     OW30493   1.000   0.858   3.452
 9865SOL    HW130494   0.955   0.802   3.383
 9865SOL    HW230495   1.094   0.826   3.464
 9866SOL     OW30496   4.991   4.477   4.436
 9866SOL    HW130497   5.033   4.438   4.518
 9866SOL    HW230498   4.898   4.440   4.427
 9867SOL     OW30499   4.110   1.083   0.884
 9867SOL    HW130500   4.190   1.130   0.845
 9867SOL    HW230501   4.064   1.144   0.949
 9868SOL     OW30502   1.237   4.941   6.588
 9868SOL    HW130503   1.176   5.013   6.622
 9868SOL    HW230504   1.265   4.882   6.664
 9869SOL     OW30505   1.955   4.241   3.493
 9869SOL    HW130506   2.020   4.172   3.459
 9869SOL    HW230507   2.002   4.307   3.550
 9870SOL     OW30508   4.550   5.934   2.205
 9870SOL    HW130509   4.635   5.984   2.224
 9870SOL    HW230510   4.488   5.992   2.152
 9871SOL     OW30511   1.254   6.995   6.092
 9871SOL    HW130512   1.183   6.962   6.154
 9871SOL    HW230513   1.256   6.939   6.010
 9872SOL     OW30514   2.462   5.410   3.060
 9872SOL    HW130515   2.387   5.472   3.039
 9872SOL    HW230516   2.476   5.346   2.984
 9873SOL     OW30517   2.342   2.593   1.099
 9873SOL    HW130518   2.350   2.507   1.048
 9873SOL    HW230519   2.269   2.648   1.059
 9874SOL     OW30520   0.816   1.870   4.281
 9874SOL    HW130521   0.881   1.863   4.357
 9874SOL    HW230522   0.801   1.967   4.259
 9875SOL     OW30523   0.226   0.509   2.326
 9875SOL    HW130524   0.286   0.433   2.303
 9875SOL    HW230525   0.211   0.511   2.425
 9876SOL     OW30526   6.789   0.679   2.622
 9876SOL    HW130527   6.866   0.664   2.683
 9876SOL    HW230528   6.814   0.744   2.551
 9877SOL     OW30529   1.666   5.801   2.573
 9877SOL    HW130530   1.571   5.772   2.558
 9877SOL    HW230531   1.728   5.741   2.523
 9878SOL     OW30532   2.408   5.358   5.876
 9878SOL    HW130533   2.418   5.433   5.940
 9878SOL    HW230534   2.317   5.362   5.833
 9879SOL     OW30535   5.581   5.255   4.533
 9879SOL    HW130536   5.591   5.252   4.632
 9879SOL    HW230537   5.551   5.347   4.505
 9880SOL     OW30538   1.678   3.196   5.051
 9880SOL    HW130539   1.683   3.295   5.050
 9880SOL    HW230540   1.670   3.163   5.145
 9881SOL     OW30541   1.791   2.458   5.131
 9881SOL    HW130542   1.873   2.512   5.114
 9881SOL    HW230543   1.780   2.389   5.059
 9882SOL     OW30544   1.499   2.090   3.765
 9882SOL    HW130545   1.579   2.095   3.706
 9882SOL    HW230546   1.528   2.081   3.860
 9883SOL     OW30547   0.695   6.152   0.910
 9883SOL    HW130548   0.772   6.100   0.948
 9883SOL    HW230549   0.650   6.098   0.839
 9884SOL     OW30550   4.065   1.786   3.431
 9884SOL    HW130551   4.153   1.822   3.399
 9884SOL    HW230552   4.032   1.716   3.367
 9885SOL     OW30553   0.404   3.604   5.532
 9885SOL    HW130554   0.356   3.588   5.619
 9885SOL    HW230555   0.350   3.564   5.457
 9886SOL     OW30556   0.194   4.739   2.307
 9886SOL    HW130557   0.262   4.796   2.261
 9886SOL    HW230558   0.233   4.703   2.392
 9887SOL     OW30559   3.995   1.502   5.854
 9887SOL    HW130560   3.947   1.433   5.908
 9887SOL    HW230561   3.934   1.580   5.839
 9888SOL     OW30562   0.516   4.102   1.259
 9888SOL    HW130563   0.448   4.071   1.192
 9888SOL    HW230564   0.486   4.188   1.299
 9889SOL     OW30565   6.789   5.163   1.015
 9889SOL    HW130566   6.726   5.146   0.939
 9889SOL    HW230567   6.846   5.082   1.030
 9890SOL     OW30568   1.728   1.973   0.454
 9890SOL    HW130569   1.684   1.927   0.531
 9890SOL    HW230570   1.770   1.904   0.394
 9891SOL     OW30571   5.985   3.128   0.615
 9891SOL    HW130572   6.068   3.160   0.661
 9891SOL    HW230573   5.986   3.029   0.608
 9892SOL     OW30574   6.522   6.217   0.060
 9892SOL    HW130575   6.458   6.285   0.027
 9892SOL    HW230576   6.471   6.143   0.106
 9893SOL     OW30577   1.655   0.377   1.009
 9893SOL    HW130578   1.645   0.315   0.931
 9893SOL    HW230579   1.697   0.462   0.978
 9894SOL     OW30580   2.071   1.934   1.037
 9894SOL    HW130581   2.100   2.018   0.992
 9894SOL    HW230582   1.994   1.953   1.098
 9895SOL     OW30583   5.258   3.194   5.187
 9895SOL    HW130584   5.194   3.260   5.226
 9895SOL    HW230585   5.350   3.234   5.184
 9896SOL     OW30586   6.087   6.925   6.293
 9896SOL    HW130587   6.145   6.880   6.361
 9896SOL    HW230588   6.113   0.001   6.285
 9897SOL     OW30589   5.717   5.490   3.118
 9897SOL    HW130590   5.789   5.422   3.112
 9897SOL    HW230591   5.628   5.447   3.103
 9898SOL     OW30592   2.420   5.695   6.434
 9898SOL    HW130593   2.457   5.615   6.387
 9898SOL    HW230594   2.456   5.779   6.392
 9899SOL     OW30595   6.962   5.894   0.715
 9899SOL    HW130596   0.024   5.838   0.728
 9899SOL    HW230597   6.919   5.871   0.627
 9900SOL     OW30598   1.468   4.144   3.910
 9900SOL    HW130599   1.444   4.049   3.889
 9900SOL    HW230600   1.465   4.198   3.826
 9901SOL     OW30601   2.918   1.564   5.911
 9901SOL    HW130602   2.861   1.487   5.939
 9901SOL    HW230603   2.861   1.639   5.879
 9902SOL     OW30604   2.750   5.001   0.279
 9902SOL    HW130605   2.675   5.012   0.213
 9902SOL    HW230606   2.822   4.945   0.238
 9903SOL     OW30607   5.107   1.082   1.955
 9903SOL    HW130608   5.011   1.113   1.955
 9903SOL    HW230609   5.110   0.983   1.943
 9904SOL     OW30610   1.164   3.056   6.849
 9904SOL    HW130611   1.134   2.966   6.880
 9904SOL    HW230612   1.123   3.076   6.760
 9905SOL     OW30613   3.608   0.874   0.055
 9905SOL    HW130614   3.645   0.827   6.995
 9905SOL    HW230615   3.683   0.909   0.111
 9906SOL     OW30616   3.074   3.510   1.597
 9906SOL    HW130617   3.042   3.544   1.686
 9906SOL    HW230618   3.127   3.427   1.611
 9907SOL     OW30619   6.527   1.057   0.272
 9907SOL    HW130620   6.460   1.131   0.265
 9907SOL    HW230621   6.570   1.042   0.183
 9908SOL     OW30622   5.377   1.832   3.813
 9908SOL    HW130623   5.397   1.734   3.814
 9908SOL    HW230624   5.400   1.870   3.723
 9909SOL     OW30625   3.787   6.891   4.170
 9909SOL    HW130626   3.873   6.942   4.169
 9909SOL    HW230627   3.710   6.955   4.167
 9910SOL     OW30628   0.685   3.736   2.126
 9910SOL    HW130629   0.683   3.646   2.170
 9910SOL    HW230630   0.592   3.772   2.119
 9911SOL     OW30631   3.286   6.781   2.237
 9911SOL    HW130632   3.221   6.852   2.208
 9911SOL    HW230633   3.366   6.784   2.177
 9912SOL     OW30634   3.899   1.744   2.091
 9912SOL    HW130635   3.933   1.795   2.170
 9912SOL    HW230636   3.857   1.808   2.027
 9913SOL     OW30637   6.371   4.262   0.511
 9913SOL    HW130638   6.380   4.361   0.503
 9913SOL    HW230639   6.458   4.219   0.489
 9914SOL     OW30640   5.775   2.957   5.117
 9914SOL    HW130641   5.772   2.964   5.217
 9914SOL    HW230642   5.816   2.870   5.090
 9915SOL     OW30643   4.973   0.837   3.482
 9915SOL    HW130644   4.992   0.749   3.438
 9915SOL    HW230645   4.883   0.871   3.454
 9916SOL     OW30646   2.106   3.259   2.892
 9916SOL    HW130647   2.022   3.214   2.924
 9916SOL    HW230648   2.162   3.285   2.971
 9917SOL     OW30649   5.788   3.869   6.945
 9917SOL    HW130650   5.830   3.892   0.013
 9917SOL    HW230651   5.709   3.809   6.960
 9918SOL     OW30652   3.233   1.620   3.141
 9918SOL    HW130653   3.278   1.613   3.230
 9918SOL    HW230654   3.148   1.671   3.151
 9919SOL     OW30655   5.791   5.703   1.402
 9919SOL    HW130656   5.777   5.771   1.474
 9919SOL    HW230657   5.884   5.710   1.366
 9920SOL     OW30658   4.677   2.011   1.656
 9920SOL    HW130659   4.648   2.045   1.745
 9920SOL    HW230660   4.714   2.087   1.602
 9921SOL     OW30661   4.790   5.853   6.276
 9921SOL    HW130662   4.863   5.862   6.209
 9921SOL    HW230663   4.799   5.766   6.324
 9922SOL     OW30664   1.668   4.892   0.524
 9922SOL    HW130665   1.648   4.920   0.430
 9922SOL    HW230666   1.582   4.873   0.572
 9923SOL     OW30667   4.837   4.482   0.027
 9923SOL    HW130668   4.934   4.497   0.044
 9923SOL    HW230669   4.783   4.520   0.104
 9924SOL     OW30670   6.965   2.365   4.995
 9924SOL    HW130671   0.038   2.401   4.989
 9924SOL    HW230672   6.948   2.331   5.088
 9925SOL     OW30673   6.338   3.877   4.130
 9925SOL    HW130674   6.414   3.819   4.161
 9925SOL    HW230675   6.361   3.917   4.041
 9926SOL     OW30676   2.738   3.070   0.310
 9926SOL    HW130677   2.683   3.124   0.246
 9926SOL    HW230678   2.835   3.093   0.299
 9927SOL     OW30679   6.800   0.284   1.291
 9927SOL    HW130680   6.721   0.343   1.309
 9927SOL    HW230681   6.859   0.282   1.371
 9928SOL     OW30682   4.977   6.173   1.642
 9928SOL    HW130683   5.028   6.099   1.685
 9928SOL    HW230684   4.879   6.150   1.641
 9929SOL     OW30685   1.954   5.202   4.902
 9929SOL    HW130686   1.914   5.110   4.908
 9929SOL    HW230687   2.052   5.198   4.922
 9930SOL     OW30688   6.259   6.959   5.127
 9930SOL    HW130689   6.305   6.886   5.077
 9930SOL    HW230690   6.299   0.028   5.102
 9931SOL     OW30691   0.891   4.567   4.671
 9931SOL    HW130692   0.963   4.511   4.630
 9931SOL    HW230693   0.877   4.540   4.766
 9932SOL     OW30694   2.059   5.156   6.910
 9932SOL    HW130695   2.008   5.148   6.995
 9932SOL    HW230696   2.096   5.248   6.902
 9933SOL     OW30697   1.542   5.152   2.637
 9933SOL    HW130698   1.633   5.188   2.618
 9933SOL    HW230699   1.548   5.083   2.710
 9934SOL     OW30700   6.085   1.267   5.445
 9934SOL    HW130701   6.003   1.289   5.391
 9934SOL    HW230702   6.094   1.333   5.519
 9935SOL     OW30703   3.181   0.353   6.818
 9935SOL    HW130704   3.119   0.311   6.885
 9935SOL    HW230705   3.275   0.326   6.838
 9936SOL     OW30706   6.822   5.107   5.863
 9936SOL    HW130707   6.903   5.095   5.920
 9936SOL    HW230708   6.743   5.064   5.908
 9937SOL     OW30709   6.651   1.952   6.077
 9937SOL    HW130710   6.598   1.950   6.162
 9937SOL    HW230711   6.622   1.877   6.018
 9938SOL     OW30712   6.602   5.540   3.164
 9938SOL    HW130713   6.683   5.530   3.221
 9938SOL    HW230714   6.626   5.583   3.077
 9939SOL     OW30715   3.759   2.044   0.191
 9939SOL    HW130716   3.817   2.102   0.248
 9939SOL    HW230717   3.784   2.058   0.095
 9940SOL     OW30718   1.151   1.054   0.899
 9940SOL    HW130719   1.082   1.033   0.829
 9940SOL    HW230720   1.106   1.064   0.988
 9941SOL     OW30721   3.171   3.730   5.093
 9941SOL    HW130722   3.077   3.724   5.128
 9941SOL    HW230723   3.197   3.827   5.088
 9942SOL     OW30724   2.233   5.204   2.785
 9942SOL    HW130725   2.300   5.152   2.837
 9942SOL    HW230726   2.245   5.186   2.687
 9943SOL     OW30727   7.015   5.789   5.162
 9943SOL    HW130728   0.035   5.815   5.075
 9943SOL    HW230729   0.060   5.732   5.213
 9944SOL     OW30730   1.955   4.792   6.176
 9944SOL    HW130731   2.013   4.828   6.102
 9944SOL    HW230732   1.929   4.698   6.155
 9945SOL     OW30733   6.212   5.545   0.091
 9945SOL    HW130734   6.196   5.458   0.043
 9945SOL    HW230735   6.194   5.532   0.188
 9946SOL     OW30736   5.021   0.990   4.716
 9946SOL    HW130737   5.010   1.087   4.735
 9946SOL    HW230738   4.964   0.936   4.779
 9947SOL     OW30739   1.201   3.762   5.456
 9947SOL    HW130740   1.116   3.720   5.424
 9947SOL    HW230741   1.225   3.839   5.397
 9948SOL     OW30742   4.964   4.574   3.961
 9948SOL    HW130743   5.058   4.572   3.925
 9948SOL    HW230744   4.927   4.481   3.961
 9949SOL     OW30745   5.358   5.235   3.425
 9949SOL    HW130746   5.375   5.261   3.330
 9949SOL    HW230747   5.352   5.317   3.482
 9950SOL     OW30748   5.838   5.970   5.531
 9950SOL    HW130749   5.865   6.060   5.564
 9950SOL    HW230750   5.916   5.925   5.488
 9951SOL     OW30751   5.939   1.749   4.410
 9951SOL    HW130752   5.909   1.716   4.321
 9951SOL    HW230753   5.929   1.848   4.414
 9952SOL     OW30754   0.304   3.401   0.804
 9952SOL    HW130755   0.260   3.482   0.842
 9952SOL    HW230756   0.370   3.429   0.734
 9953SOL     OW30757   6.280   2.702   3.927
 9953SOL    HW130758   6.215   2.777   3.918
 9953SOL    HW230759   6.252   2.641   4.001
 9954SOL     OW30760   5.665   6.171   6.221
 9954SOL    HW130761   5.653   6.188   6.123
 9954SOL    HW230762   5.644   6.255   6.272
 9955SOL     OW30763   6.290   3.565   4.901
 9955SOL    HW130764   6.216   3.498   4.898
 9955SOL    HW230765   6.376   3.519   4.878
 9956SOL     OW30766   2.309   0.059   1.710
 9956SOL    HW130767   2.349   0.103   1.630
 9956SOL    HW230768   2.210   0.048   1.696
 9957SOL     OW30769   5.190   5.187   2.642
 9957SOL    HW130770   5.191   5.095   2.603
 9957SOL    HW230771   5.165   5.253   2.571
 9958SOL     OW30772   3.057   5.181   0.543
 9958SOL    HW130773   2.969   5.169   0.589
 9958SOL    HW230774   3.128   5.131   0.592
 9959SOL     OW30775   4.040   3.705   5.633
 9959SOL    HW130776   4.098   3.738   5.707
 9959SOL    HW230777   4.060   3.755   5.550
 9960SOL     OW30778   0.003   0.454   1.895
 9960SOL    HW130779   6.996   0.382   1.960
 9960SOL    HW230780   7.018   0.543   1.940
 9961SOL     OW30781   1.942   6.285   4.176
 9961SOL    HW130782   1.983   6.249   4.260
 9961SOL    HW230783   1.842   6.280   4.184
 9962SOL     OW30784   6.794   6.824   2.994
 9962SOL    HW130785   6.854   6.894   2.957
 9962SOL    HW230786   6.761   6.766   2.919
 9963SOL     OW30787   3.199   3.187   6.645
 9963SOL    HW130788   3.118   3.172   6.588
 9963SOL    HW230789   3.177   3.253   6.717
 9964SOL     OW30790   4.421   5.109   4.704
 9964SOL    HW130791   4.414   5.165   4.787
 9964SOL    HW230792   4.333   5.066   4.685
 9965SOL     OW30793   3.555   6.788   6.701
 9965SOL    HW130794   3.604   6.724   6.643
 9965SOL    HW230795   3.478   6.742   6.745
 9966SOL     OW30796   1.122   5.141   1.618
 9966SOL    HW130797   1.203   5.087   1.641
 9966SOL    HW230798   1.055   5.135   1.692
 9967SOL     OW30799   0.149   5.684   2.694
 9967SOL    HW130800   0.074   5.621   2.674
 9967SOL    HW230801   0.199   5.651   2.775
 9968SOL     OW30802   3.687   4.153   1.650
 9968SOL    HW130803   3.761   4.152   1.583
 9968SOL    HW230804   3.608   4.104   1.613
 9969SOL     OW30805   2.074   3.898   2.298
 9969SOL    HW130806   2.123   3.844   2.229
 9969SOL    HW230807   2.040   3.837   2.369
 9970SOL     OW30808   5.129   4.314   1.965
 9970SOL    HW130809   5.161   4.223   1.942
 9970SOL    HW230810   5.044   4.333   1.916
 9971SOL     OW30811   1.878   5.077   1.306
 9971SOL    HW130812   1.790   5.031   1.296
 9971SOL    HW230813   1.921   5.087   1.217
 9972SOL     OW30814   5.664   4.700   1.220
 9972SOL    HW130815   5.743   4.756   1.196
 9972SOL    HW230816   5.667   4.680   1.318
 9973SOL     OW30817   5.696   1.759   3.234
 9973SOL    HW130818   5.758   1.684   3.210
 9973SOL    HW230819   5.718   1.793   3.325
 9974SOL     OW30820   0.722   2.317   2.484
 9974SOL    HW130821   0.798   2.319   2.549
 9974SOL    HW230822   0.670   2.402   2.491
 9975SOL     OW30823   6.175   3.413   0.466
 9975SOL    HW130824   6.093   3.442   0.515
 9975SOL    HW230825   6.216   3.492   0.420
 9976SOL     OW30826   1.041   5.910   5.240
 9976SOL    HW130827   1.055   5.896   5.338
 9976SOL    HW230828   1.097   5.846   5.188
 9977SOL     OW30829   6.031   5.788   5.432
 9977SOL    HW130830   6.016   5.706   5.486
 9977SOL    HW230831   6.094   5.768   5.357
 9978SOL     OW30832   0.728   2.646   4.811
 9978SOL    HW130833   0.735   2.550   4.837
 9978SOL    HW230834   0.745   2.656   4.713
 9979SOL     OW30835   6.310   4.463   5.348
 9979SOL    HW130836   6.252   4.396   5.393
 9979SOL    HW230837   6.276   4.478   5.255
 9980SOL     OW30838   2.721   6.566   0.018
 9980SOL    HW130839   2.670   6.652   0.013
 9980SOL    HW230840   2.804   6.580   0.073
 9981SOL     OW30841   2.732   1.747   3.308
 9981SOL    HW130842   2.790   1.678   3.352
 9981SOL    HW230843   2.672   1.703   3.241
 9982SOL     OW30844   5.963   5.194   3.934
 9982SOL    HW130845   5.933   5.180   3.839
 9982SOL    HW230846   5.973   5.291   3.952
 9983SOL     OW30847   0.016   1.705   3.037
 9983SOL    HW130848   0.051   1.657   3.117
 9983SOL    HW230849   0.088   1.763   2.999
 9984SOL     OW30850   2.625   1.957   6.856
 9984SOL    HW130851   2.542   2.012   6.843
 9984SOL    HW230852   2.599   1.864   6.884
 9985SOL     OW30853   2.261   0.713   0.966
 9985SOL    HW130854   2.171   0.689   0.930
 9985SOL    HW230855   2.250   0.764   1.051
 9986SOL     OW30856   6.264   3.972   5.669
 9986SOL    HW130857   6.272   4.035   5.592
 9986SOL    HW230858   6.321   3.892   5.653
 9987SOL     OW30859   5.635   3.165   5.635
 9987SOL    HW130860   5.611   3.152   5.731
 9987SOL    HW230861   5.553   3.188   5.582
 9988SOL     OW30862   0.051   6.478   4.685
 9988SOL    HW130863   0.061   6.577   4.682
 9988SOL    HW230864   0.141   6.435   4.691
 9989SOL     OW30865   6.802   3.034   3.765
 9989SOL    HW130866   6.763   3.075   3.682
 9989SOL    HW230867   6.902   3.026   3.755
 9990SOL     OW30868   1.402   5.652   3.719
 9990SOL    HW130869   1.486   5.682   3.672
 9990SOL    HW230870   1.324   5.701   3.682
 9991SOL     OW30871   2.851   2.307   4.812
 9991SOL    HW130872   2.917   2.288   4.739
 9991SOL    HW230873   2.901   2.332   4.895
 9992SOL     OW30874   5.849   5.075   6.660
 9992SOL    HW130875   5.786   4.999   6.678
 9992SOL    HW230876   5.848   5.138   6.737
 9993SOL     OW30877   2.620   1.534   1.081
 9993SOL    HW130878   2.567   1.618   1.090
 9993SOL    HW230879   2.699   1.550   1.022
 9994SOL     OW30880   6.129   4.290   2.832
 9994SOL    HW130881   6.140   4.227   2.909
 9994SOL    HW230882   6.033   4.296   2.808
 9995SOL     OW30883   4.735   1.592   3.640
 9995SOL    HW130884   4.729   1.678   3.589
 9995SOL    HW230885   4.687   1.601   3.727
 9996SOL     OW30886   2.848   4.337   0.327
 9996SOL    HW130887   2.932   4.322   0.378
 9996SOL    HW230888   2.777   4.275   0.360
 9997SOL     OW30889   3.409   1.385   6.092
 9997SOL    HW130890   3.372   1.336   6.013
 9997SOL    HW230891   3.344   1.381   6.168
 9998SOL     OW30892   5.980   5.372   4.838
 9998SOL    HW130893   6.001   5.436   4.764
 9998SOL    HW230894   5.964   5.423   4.923
 9999SOL     OW30895   6.188   2.679   5.718
 9999SOL    HW130896   6.115   2.612   5.729
 9999SOL    HW230897   6.200   2.730   5.803
10000SOL     OW30898   6.498   3.211   0.235
10000SOL    HW130899   6.574   3.268   0.201
10000SOL    HW230900   6.508   3.118   0.199
10001SOL     OW30901   4.737   0.801   2.098
10001SOL    HW130902   4.775   0.864   2.030
10001SOL    HW230903   4.644   0.828   2.120
10002SOL     OW30904   1.340   6.626   2.295
10002SOL    HW130905   1.340   6.553   2.363
10002SOL    HW230906   1.288   6.597   2.215
10003SOL     OW30907   3.441   2.088   4.036
10003SOL    HW130908   3.429   2.088   3.936
10003SOL    HW230909   3.532   2.122   4.058
10004SOL     OW30910   6.711   2.467   3.931
10004SOL    HW130911   6.743   2.405   4.003
10004SOL    HW230912   6.637   2.524   3.966
10005SOL     OW30913   5.247   0.300   3.530
10005SOL    HW130914   5.342   0.292   3.560
10005SOL    HW230915   5.219   0.396   3.533
10006SOL     OW30916   3.997   0.023   4.150
10006SOL    HW130917   4.030   0.029   4.056
10006SOL    HW230918   4.034   0.100   4.203
10007SOL     OW30919   0.097   3.996   4.772
10007SOL    HW130920   0.124   4.055   4.848
10007SOL    HW230921   0.012   4.029   4.732
10008SOL     OW30922   3.527   0.749   4.569
10008SOL    HW130923   3.587   0.777   4.494
10008SOL    HW230924   3.574   0.683   4.628
10009SOL     OW30925   1.667   4.314   2.383
10009SOL    HW130926   1.684   4.283   2.289
10009SOL    HW230927   1.754   4.335   2.427
10010SOL     OW30928   2.371   1.040   6.780
10010SOL    HW130929   2.315   1.040   6.863
10010SOL    HW230930   2.456   1.090   6.797
10011SOL     OW30931   6.873   0.731   5.288
10011SOL    HW130932   6.850   0.764   5.379
10011SOL    HW230933   6.795   0.745   5.227
10012SOL     OW30934   6.353   0.975   3.191
10012SOL    HW130935   6.298   0.892   3.184
10012SOL    HW230936   6.301   1.046   3.240
10013SOL     OW30937   0.425   1.176   2.812
10013SOL    HW130938   0.427   1.099   2.747
10013SOL    HW230939   0.479   1.153   2.893
10014SOL     OW30940   0.823   4.242   6.287
10014SOL    HW130941   0.805   4.143   6.288
10014SOL    HW230942   0.797   4.279   6.198
10015SOL     OW30943   1.711   5.153   0.590
10015SOL    HW130944   1.624   5.203   0.592
10015SOL    HW230945   1.696   5.063   0.551
10016SOL     OW30946   1.790   1.001   6.486
10016SOL    HW130947   1.718   1.022   6.553
10016SOL    HW230948   1.871   0.968   6.533
10017SOL     OW30949   2.656   2.392   4.626
10017SOL    HW130950   2.606   2.473   4.657
10017SOL    HW230951   2.726   2.368   4.693
10018SOL     OW30952   5.585   0.006   6.569
10018SOL    HW130953   5.544   0.045   6.486
10018SOL    HW230954   5.520   0.013   6.644
10019SOL     OW30955   1.089   1.292   3.292
10019SOL    HW130956   1.141   1.376   3.272
10019SOL    HW230957   1.135   1.214   3.251
10020SOL     OW30958   1.426   2.686   1.777
10020SOL    HW130959   1.369   2.633   1.840
10020SOL    HW230960   1.522   2.662   1.791
10021SOL     OW30961   6.933   3.497   0.576
10021SOL    HW130962   0.005   3.518   0.543
10021SOL    HW230963   6.923   3.528   0.671
10022SOL     OW30964   2.158   1.047   6.281
10022SOL    HW130965   2.090   0.975   6.295
10022SOL    HW230966   2.191   1.079   6.370
10023SOL     OW30967   6.455   4.073   0.832
10023SOL    HW130968   6.449   4.016   0.913
10023SOL    HW230969   6.551   4.085   0.805
10024SOL     OW30970   1.368   5.407   3.837
10024SOL    HW130971   1.419   5.395   3.922
10024SOL    HW230972   1.397   5.492   3.792
10025SOL     OW30973   2.197   0.393   1.320
10025SOL    HW130974   2.189   0.297   1.347
10025SOL    HW230975   2.286   0.410   1.280
10026SOL     OW30976   5.933   0.259   3.320
10026SOL    HW130977   5.953   0.356   3.303
10026SOL    HW230978   5.834   0.244   3.311
10027SOL     OW30979   5.828   3.486   4.031
10027SOL    HW130980   5.873   3.434   4.104
10027SOL    HW230981   5.863   3.579   4.030
10028SOL     OW30982   2.120   0.706   0.387
10028SOL    HW130983   2.056   0.635   0.415
10028SOL    HW230984   2.120   0.779   0.455
10029SOL     OW30985   5.388   1.687   3.437
10029SOL    HW130986   5.439   1.642   3.511
10029SOL    HW230987   5.448   1.752   3.390
10030SOL     OW30988   2.293   0.844   3.886
10030SOL    HW130989   2.276   0.782   3.809
10030SOL    HW230990   2.213   0.846   3.946
10031SOL     OW30991   5.078   4.464   3.232
10031SOL    HW130992   5.138   4.510   3.166
10031SOL    HW230993   5.030   4.389   3.188
10032SOL     OW30994   2.468   2.256   5.263
10032SOL    HW130995   2.548   2.302   5.223
10032SOL    HW230996   2.483   2.244   5.361
10033SOL     OW30997   5.776   2.968   4.055
10033SOL    HW130998   5.705   3.014   4.108
10033SOL    HW230999   5.733   2.907   3.988
10034SOL     OW31000   3.731   0.301   5.175
10034SOL    HW131001   3.714   0.393   5.209
10034SOL    HW231002   3.654   0.241   5.198
10035SOL     OW31003   6.651   4.864   1.623
10035SOL    HW131004   6.654   4.764   1.619
10035SOL    HW231005   6.731   4.897   1.672
10036SOL     OW31006   6.708   1.728   6.953
10036SOL    HW131007   6.773   1.654   6.934
10036SOL    HW231008   6.753   1.816   6.943
10037SOL     OW31009   0.139   0.336   6.407
10037SOL    HW131010   0.128   0.329   6.506
10037SOL    HW231011   0.176   0.251   6.370
10038SOL     OW31012   6.488   6.661   1.388
10038SOL    HW131013   6.533   6.689   1.303
10038SOL    HW231014   6.548   6.598   1.437
10039SOL     OW31015   2.932   0.816   3.766
10039SOL    HW131016   2.910   0.808   3.668
10039SOL    HW231017   3.031   0.813   3.777
10040SOL     OW31018   6.788   3.309   0.687
10040SOL    HW131019   6.843   3.374   0.635
10040SOL    HW231020   6.704   3.289   0.636
10041SOL     OW31021   3.273   6.715   0.378
10041SOL    HW131022   3.364   6.697   0.339
10041SOL    HW231023   3.252   6.645   0.446
10042SOL     OW31024   6.884   2.185   2.658
10042SOL    HW131025   6.808   2.209   2.598
10042SOL    HW231026   6.863   2.099   2.706
10043SOL     OW31027   0.015   1.594   6.052
10043SOL    HW131028   0.007   1.612   5.954
10043SOL    HW231029   0.092   1.533   6.069
10044SOL     OW31030   2.583   2.453   5.513
10044SOL    HW131031   2.580   2.405   5.601
10044SOL    HW231032   2.678   2.463   5.484
10045SOL     OW31033   4.236   1.072   0.379
10045SOL    HW131034   4.197   1.041   0.466
10045SOL    HW231035   4.304   1.005   0.347
10046SOL     OW31036   1.268   5.104   1.116
10046SOL    HW131037   1.219   5.076   1.199
10046SOL    HW231038   1.346   5.161   1.142
10047SOL     OW31039   0.524   3.395   6.744
10047SOL    HW131040   0.502   3.301   6.769
10047SOL    HW231041   0.624   3.407   6.742
10048SOL     OW31042   6.192   6.569   2.505
10048SOL    HW131043   6.262   6.534   2.444
10048SOL    HW231044   6.167   6.499   2.572
10049SOL     OW31045   6.844   1.762   5.143
10049SOL    HW131046   6.748   1.776   5.119
10049SOL    HW231047   6.869   1.667   5.123
10050SOL     OW31048   5.798   3.448   5.470
10050SOL    HW131049   5.897   3.455   5.463
10050SOL    HW231050   5.773   3.360   5.511
10051SOL     OW31051   0.748   4.259   3.976
10051SOL    HW131052   0.808   4.189   3.937
10051SOL    HW231053   0.796   4.346   3.980
10052SOL     OW31054   1.313   0.289   3.470
10052SOL    HW131055   1.307   0.240   3.557
10052SOL    HW231056   1.368   0.371   3.482
10053SOL     OW31057   4.898   5.497   4.787
10053SOL    HW131058   4.846   5.488   4.702
10053SOL    HW231059   4.903   5.593   4.814
10054SOL     OW31060   5.323   4.000   4.408
10054SOL    HW131061   5.308   3.940   4.329
10054SOL    HW231062   5.246   4.063   4.417
10055SOL     OW31063   0.208   1.682   0.017
10055SOL    HW131064   0.307   1.697   0.010
10055SOL    HW231065   0.160   1.769   0.007
10056SOL     OW31066   5.274   3.092   3.293
10056SOL    HW131067   5.239   3.107   3.200
10056SOL    HW231068   5.374   3.093   3.292
10057SOL     OW31069   5.788   4.850   6.339
10057SOL    HW131070   5.839   4.925   6.299
10057SOL    HW231071   5.691   4.874   6.343
10058SOL     OW31072   6.291   3.697   5.125
10058SOL    HW131073   6.285   3.690   5.025
10058SOL    HW231074   6.243   3.619   5.166
10059SOL     OW31075   0.135   0.712   6.657
10059SOL    HW131076   0.146   0.757   6.568
10059SOL    HW231077   0.153   0.777   6.730
10060SOL     OW31078   2.518   2.180   2.853
10060SOL    HW131079   2.603   2.200   2.901
10060SOL    HW231080   2.520   2.087   2.818
10061SOL     OW31081   3.747   0.162   3.011
10061SOL    HW131082   3.786   0.081   2.967
10061SOL    HW231083   3.714   0.226   2.942
10062SOL     OW31084   6.800   0.238   3.989
10062SOL    HW131085   6.749   0.324   3.999
10062SOL    HW231086   6.810   0.194   4.078
10063SOL     OW31087   1.469   3.217   4.885
10063SOL    HW131088   1.382   3.215   4.933
10063SOL    HW231089   1.544   3.220   4.951
10064SOL     OW31090   2.645   6.241   0.688
10064SOL    HW131091   2.583   6.170   0.722
10064SOL    HW231092   2.649   6.317   0.753
10065SOL     OW31093   0.611   1.633   2.001
10065SOL    HW131094   0.610   1.696   2.079
10065SOL    HW231095   0.676   1.559   2.019
10066SOL     OW31096   6.541   3.686   4.127
10066SOL    HW131097   6.542   3.604   4.070
10066SOL    HW231098   6.532   3.659   4.223
10067SOL     OW31099   6.835   2.100   4.962
10067SOL    HW131100   6.898   2.121   5.037
10067SOL    HW231101   6.873   2.135   4.877
10068SOL     OW31102   2.373   2.362   2.695
10068SOL    HW131103   2.417   2.448   2.669
10068SOL    HW231104   2.434   2.310   2.755
10069SOL     OW31105   3.152   5.399   1.416
10069SOL    HW131106   3.178   5.488   1.377
10069SOL    HW231107   3.190   5.326   1.360
10070SOL     OW31108   3.634   5.529   5.620
10070SOL    HW131109   3.616   5.572   5.531
10070SOL    HW231110   3.568   5.564   5.687
10071SOL     OW31111   6.327   0.218   3.363
10071SOL    HW131112   6.420   0.195   3.394
10071SOL    HW231113   6.289   0.141   3.312
10072SOL     OW31114   6.654   2.210   2.253
10072SOL    HW131115   6.749   2.201   2.225
10072SOL    HW231116   6.612   2.289   2.207
10073SOL     OW31117   6.445   4.481   4.859
10073SOL    HW131118   6.508   4.516   4.789
10073SOL    HW231119   6.459   4.383   4.871
10074SOL     OW31120   1.082   4.723   0.441
10074SOL    HW131121   1.053   4.767   0.526
10074SOL    HW231122   1.029   4.762   0.364
10075SOL     OW31123   1.862   3.284   1.837
10075SOL    HW131124   1.904   3.250   1.921
10075SOL    HW231125   1.860   3.384   1.838
10076SOL     OW31126   5.218   5.613   4.017
10076SOL    HW131127   5.230   5.559   3.934
10076SOL    HW231128   5.123   5.643   4.024
10077SOL     OW31129   6.216   2.862   5.923
10077SOL    HW131130   6.139   2.922   5.901
10077SOL    HW231131   6.297   2.918   5.942
10078SOL     OW31132   6.555   6.517   4.723
10078SOL    HW131133   6.483   6.520   4.792
10078SOL    HW231134   6.632   6.463   4.757
10079SOL     OW31135   4.706   2.388   2.674
10079SOL    HW131136   4.782   2.382   2.739
10079SOL    HW231137   4.740   2.377   2.581
10080SOL     OW31138   5.422   0.152   6.399
10080SOL    HW131139   5.324   0.146   6.417
10080SOL    HW231140   5.446   0.247   6.378
10081SOL     OW31141   2.161   2.926   0.812
10081SOL    HW131142   2.222   2.895   0.884
10081SOL    HW231143   2.204   3.001   0.762
10082SOL     OW31144   1.387   4.271   1.159
10082SOL    HW131145   1.342   4.182   1.157
10082SOL    HW231146   1.321   4.341   1.190
10083SOL     OW31147   3.243   5.026   3.624
10083SOL    HW131148   3.208   5.023   3.718
10083SOL    HW231149   3.168   5.007   3.561
10084SOL     OW31150   1.077   0.765   4.507
10084SOL    HW131151   1.117   0.743   4.597
10084SOL    HW231152   1.037   0.856   4.510
10085SOL     OW31153   4.758   0.039   0.629
10085SOL    HW131154   4.708   0.107   0.683
10085SOL    HW231155   4.856   0.054   0.638
10086SOL     OW31156   0.197   6.776   2.722
10086SOL    HW131157   0.226   6.871   2.712
10086SOL    HW231158   0.119   6.757   2.662
10087SOL     OW31159   1.700   6.579   5.108
10087SOL    HW131160   1.739   6.518   5.177
10087SOL    HW231161   1.727   6.673   5.129
10088SOL     OW31162   0.167   2.294   7.015
10088SOL    HW131163   0.069   2.275   7.003
10088SOL    HW231164   0.178   2.375   0.054
10089SOL     OW31165   3.995   1.588   2.303
10089SOL    HW131166   3.937   1.603   2.222
10089SOL    HW231167   4.003   1.673   2.354
10090SOL     OW31168   2.153   6.136   2.134
10090SOL    HW131169   2.079   6.069   2.134
10090SOL    HW231170   2.227   6.104   2.194
10091SOL     OW31171   6.650   4.121   5.416
10091SOL    HW131172   6.706   4.141   5.336
10091SOL    HW231173   6.687   4.042   5.465
10092SOL     OW31174   0.743   1.547   4.381
10092SOL    HW131175   0.736   1.630   4.326
10092SOL    HW231176   0.656   1.529   4.426
10093SOL     OW31177   5.276   4.099   5.681
10093SOL    HW131178   5.251   4.052   5.766
10093SOL    HW231179   5.375   4.097   5.670
10094SOL     OW31180   3.243   1.111   0.871
10094SOL    HW131181   3.318   1.083   0.811
10094SOL    HW231182   3.273   1.185   0.931
10095SOL     OW31183   5.209   2.639   5.187
10095SOL    HW131184   5.160   2.552   5.198
10095SOL    HW231185   5.146   2.708   5.150
10096SOL     OW31186   5.251   1.691   3.045
10096SOL    HW131187   5.264   1.644   3.132
10096SOL    HW231188   5.153   1.707   3.031
10097SOL     OW31189   0.781   1.922   6.995
10097SOL    HW131190   0.813   1.873   6.913
10097SOL    HW231191   0.709   1.985   6.969
10098SOL     OW31192   3.297   5.904   3.703
10098SOL    HW131193   3.254   5.977   3.650
10098SOL    HW231194   3.394   5.926   3.717
10099SOL     OW31195   6.859   4.644   1.096
10099SOL    HW131196   6.761   4.629   1.114
10099SOL    HW231197   6.895   4.565   1.046
10100SOL     OW31198   4.485   4.843   4.322
10100SOL    HW131199   4.576   4.807   4.300
10100SOL    HW231200   4.483   4.942   4.304
10101SOL     OW31201   1.083   2.040   1.487
10101SOL    HW131202   1.154   1.983   1.445
10101SOL    HW231203   0.993   2.009   1.459
10102SOL     OW31204   6.668   6.483   2.404
10102SOL    HW131205   6.688   6.543   2.327
10102SOL    HW231206   6.706   6.523   2.488
10103SOL     OW31207   6.458   6.093   6.395
10103SOL    HW131208   6.412   6.152   6.461
10103SOL    HW231209   6.556   6.090   6.416
10104SOL     OW31210   2.154   0.330   4.824
10104SOL    HW131211   2.092   0.299   4.752
10104SOL    HW231212   2.102   0.369   4.899
10105SOL     OW31213   3.002   0.841   6.169
10105SOL    HW131214   2.990   0.940   6.166
10105SOL    HW231215   2.913   0.797   6.185
10106SOL     OW31216   5.313   5.833   1.705
10106SOL    HW131217   5.298   5.814   1.802
10106SOL    HW231218   5.233   5.804   1.652
10107SOL     OW31219   4.807   4.497   6.744
10107SOL    HW131220   4.774   4.504   6.838
10107SOL    HW231221   4.816   4.589   6.705
10108SOL     OW31222   1.897   2.676   6.715
10108SOL    HW131223   1.849   2.600   6.758
10108SOL    HW231224   1.832   2.748   6.692
10109SOL     OW31225   1.487   2.318   1.209
10109SOL    HW131226   1.447   2.313   1.300
10109SOL    HW231227   1.417   2.346   1.143
10110SOL     OW31228   4.876   6.283   2.527
10110SOL    HW131229   4.860   6.382   2.534
10110SOL    HW231230   4.896   6.246   2.618
10111SOL     OW31231   1.929   1.692   1.998
10111SOL    HW131232   2.002   1.624   2.000
10111SOL    HW231233   1.961   1.775   1.952
10112SOL     OW31234   6.819   2.325   3.484
10112SOL    HW131235   6.724   2.338   3.454
10112SOL    HW231236   6.823   2.246   3.545
10113SOL     OW31237   6.642   0.882   5.895
10113SOL    HW131238   6.669   0.885   5.992
10113SOL    HW231239   6.702   0.818   5.846
10114SOL     OW31240   4.694   1.775   2.058
10114SOL    HW131241   4.643   1.689   2.063
10114SOL    HW231242   4.638   1.845   2.016
10115SOL     OW31243   3.506   2.518   6.165
10115SOL    HW131244   3.456   2.605   6.167
10115SOL    HW231245   3.535   2.495   6.258
10116SOL     OW31246   6.404   0.800   4.921
10116SOL    HW131247   6.374   0.722   4.866
10116SOL    HW231248   6.325   0.841   4.967
10117SOL     OW31249   5.853   4.156   4.038
10117SOL    HW131250   5.884   4.117   3.952
10117SOL    HW231251   5.930   4.202   4.084
10118SOL     OW31252   4.159   5.641   4.455
10118SOL    HW131253   4.094   5.652   4.380
10118SOL    HW231254   4.181   5.730   4.495
10119SOL     OW31255   0.014   5.390   5.234
10119SOL    HW131256   0.011   5.309   5.292
10119SOL    HW231257   6.966   5.380   5.161
10120SOL     OW31258   2.045   3.320   2.447
10120SOL    HW131259   2.050   3.368   2.535
10120SOL    HW231260   2.077   3.381   2.374
10121SOL     OW31261   6.732   3.876   0.940
10121SOL    HW131262   6.722   3.958   0.883
10121SOL    HW231263   6.728   3.901   1.036
10122SOL     OW31264   1.084   0.145   3.854
10122SOL    HW131265   1.076   0.230   3.906
10122SOL    HW231266   1.026   0.149   3.772
10123SOL     OW31267   6.427   5.047   6.711
10123SOL    HW131268   6.383   4.969   6.666
10123SOL    HW231269   6.518   5.060   6.673
10124SOL     OW31270   1.022   5.180   2.901
10124SOL    HW131271   1.062   5.265   2.867
10124SOL    HW231272   0.936   5.201   2.948
10125SOL     OW31273   1.935   1.280   5.641
10125SOL    HW131274   1.922   1.275   5.740
10125SOL    HW231275   1.877   1.210   5.597
10126SOL     OW31276   6.245   0.080   0.090
10126SOL    HW131277   6.294   0.040   0.166
10126SOL    HW231278   6.215   0.008   0.027
10127SOL     OW31279   2.248   6.008   6.449
10127SOL    HW131280   2.174   5.951   6.413
10127SOL    HW231281   2.249   6.002   6.549
10128SOL     OW31282   2.647   1.709   6.650
10128SOL    HW131283   2.580   1.771   6.609
10128SOL    HW231284   2.738   1.732   6.616
10129SOL     OW31285   6.043   1.368   4.681
10129SOL    HW131286   6.007   1.460   4.664
10129SOL    HW231287   5.975   1.300   4.652
10130SOL     OW31288   1.185   1.647   2.556
10130SOL    HW131289   1.143   1.718   2.499
10130SOL    HW231290   1.127   1.630   2.636
10131SOL     OW31291   1.661   6.287   4.160
10131SOL    HW131292   1.631   6.273   4.066
10131SOL    HW231293   1.604   6.233   4.222
10132SOL     OW31294   6.743   0.981   1.602
10132SOL    HW131295   6.787   0.916   1.541
10132SOL    HW231296   6.686   1.044   1.549
10133SOL     OW31297   6.150   6.263   0.299
10133SOL    HW131298   6.152   6.363   0.299
10133SOL    HW231299   6.153   6.229   0.205
10134SOL     OW31300   6.300   6.709   2.176
10134SOL    HW131301   6.345   6.620   2.179
10134SOL    HW231302   6.202   6.696   2.163
10135SOL     OW31303   6.232   0.137   2.555
10135SOL    HW131304   6.224   0.221   2.500
10135SOL    HW231305   6.151   0.080   2.541
10136SOL     OW31306   5.225   1.164   2.321
10136SOL    HW131307   5.287   1.138   2.395
10136SOL    HW231308   5.156   1.093   2.309
10137SOL     OW31309   6.245   5.409   5.443
10137SOL    HW131310   6.153   5.401   5.403
10137SOL    HW231311   6.248   5.356   5.527
10138SOL     OW31312   0.464   1.980   0.582
10138SOL    HW131313   0.518   1.896   0.587
10138SOL    HW231314   0.431   2.005   0.673
10139SOL     OW31315   3.436   2.943   6.552
10139SOL    HW131316   3.418   2.970   6.646
10139SOL    HW231317   3.350   2.927   6.504
10140SOL     OW31318   0.974   6.540   5.495
10140SOL    HW131319   0.910   6.483   5.442
10140SOL    HW231320   0.958   6.636   5.475
10141SOL     OW31321   2.083   2.621   4.538
10141SOL    HW131322   2.176   2.585   4.533
10141SOL    HW231323   2.040   2.589   4.622
10142SOL     OW31324   4.044   6.604   4.107
10142SOL    HW131325   4.039   6.504   4.109
10142SOL    HW231326   3.954   6.641   4.083
10143SOL     OW31327   5.168   3.033   6.492
10143SOL    HW131328   5.194   3.129   6.480
10143SOL    HW231329   5.108   3.005   6.417
10144SOL     OW31330   3.615   6.977   6.337
10144SOL    HW131331   3.602   6.878   6.333
10144SOL    HW231332   3.613   7.007   6.432
10145SOL     OW31333   5.348   6.237   6.425
10145SOL    HW131334   5.340   6.169   6.498
10145SOL    HW231335   5.376   6.192   6.341
10146SOL     OW31336   0.317   2.702   4.342
10146SOL    HW131337   0.377   2.781   4.331
10146SOL    HW231338   0.332   2.638   4.266
10147SOL     OW31339   4.745   4.747   6.124
10147SOL    HW131340   4.761   4.754   6.026
10147SOL    HW231341   4.655   4.783   6.147
10148SOL     OW31342   0.687   4.757   1.026
10148SOL    HW131343   0.665   4.741   0.930
10148SOL    HW231344   0.784   4.783   1.034
10149SOL     OW31345   3.482   4.631   0.191
10149SOL    HW131346   3.511   4.719   0.229
10149SOL    HW231347   3.540   4.558   0.228
10150SOL     OW31348   3.943   4.652   0.925
10150SOL    HW131349   4.009   4.642   0.999
10150SOL    HW231350   3.989   4.691   0.845
10151SOL     OW31351   6.177   6.872   5.817
10151SOL    HW131352   6.218   6.959   5.788
10151SOL    HW231353   6.121   6.887   5.898
10152SOL     OW31354   4.178   6.623   2.587
10152SOL    HW131355   4.227   6.697   2.543
10152SOL    HW231356   4.188   6.539   2.532
10153SOL     OW31357   4.683   4.310   2.757
10153SOL    HW131358   4.673   4.210   2.754
10153SOL    HW231359   4.689   4.346   2.664
10154SOL     OW31360   4.772   5.057   5.378
10154SOL    HW131361   4.785   5.043   5.280
10154SOL    HW231362   4.759   5.154   5.397
10155SOL     OW31363   3.845   1.838   4.921
10155SOL    HW131364   3.882   1.753   4.884
10155SOL    HW231365   3.909   1.913   4.903
10156SOL     OW31366   4.924   1.914   0.009
10156SOL    HW131367   5.007   1.868   6.996
10156SOL    HW231368   4.939   2.013   0.008
10157SOL     OW31369   0.291   3.180   1.588
10157SOL    HW131370   0.365   3.143   1.533
10157SOL    HW231371   0.301   3.149   1.683
10158SOL     OW31372   6.175   4.970   0.277
10158SOL    HW131373   6.090   4.939   0.235
10158SOL    HW231374   6.224   5.029   0.213
10159SOL     OW31375   2.994   3.179   1.656
10159SOL    HW131376   2.939   3.181   1.573
10159SOL    HW231377   3.018   3.084   1.678
10160SOL     OW31378   1.202   4.978   2.512
10160SOL    HW131379   1.281   4.935   2.469
10160SOL    HW231380   1.219   5.076   2.523
10161SOL     OW31381   5.415   3.000   5.392
10161SOL    HW131382   5.412   2.976   5.295
10161SOL    HW231383   5.394   3.097   5.403
10162SOL     OW31384   1.480   3.004   2.385
10162SOL    HW131385   1.459   3.102   2.389
10162SOL    HW231386   1.440   2.965   2.302
10163SOL     OW31387   1.909   6.354   5.590
10163SOL    HW131388   1.900   6.400   5.678
10163SOL    HW231389   1.883   6.258   5.600
10164SOL     OW31390   1.384   2.660   3.104
10164SOL    HW131391   1.458   2.593   3.098
10164SOL    HW231392   1.299   2.619   3.071
10165SOL     OW31393   6.941   3.650   4.340
10165SOL    HW131394   6.874   3.579   4.314
10165SOL    HW231395   7.013   3.608   4.395
10166SOL     OW31396   2.597   0.558   1.906
10166SOL    HW131397   2.598   0.468   1.950
10166SOL    HW231398   2.651   0.554   1.822
10167SOL     OW31399   2.596   0.618   6.441
10167SOL    HW131400   2.668   0.581   6.501
10167SOL    HW231401   2.560   0.545   6.383
10168SOL     OW31402   0.020   0.952   6.795
10168SOL    HW131403   0.046   1.001   6.877
10168SOL    HW231404   6.945   0.976   6.770
10169SOL     OW31405   5.821   2.955   3.413
10169SOL    HW131406   5.861   3.025   3.473
10169SOL    HW231407   5.817   2.989   3.320
10170SOL     OW31408   5.935   5.440   6.529
10170SOL    HW131409   5.965   5.485   6.613
10170SOL    HW231410   6.005   5.451   6.458
10171SOL     OW31411   2.359   3.704   5.901
10171SOL    HW131412   2.298   3.670   5.973
10171SOL    HW231413   2.307   3.717   5.817
10172SOL     OW31414   6.256   0.364   2.903
10172SOL    HW131415   6.300   0.376   2.814
10172SOL    HW231416   6.199   0.282   2.900
10173SOL     OW31417   3.328   3.980   5.057
10173SOL    HW131418   3.362   4.021   5.142
10173SOL    HW231419   3.397   3.920   5.019
10174SOL     OW31420   4.151   5.593   3.105
10174SOL    HW131421   4.227   5.529   3.099
10174SOL    HW231422   4.104   5.598   3.016
10175SOL     OW31423   0.082   1.556   3.255
10175SOL    HW131424   0.166   1.509   3.226
10175SOL    HW231425   0.043   1.509   3.335
10176SOL     OW31426   6.599   1.456   5.808
10176SOL    HW131427   6.623   1.363   5.777
10176SOL    HW231428   6.580   1.513   5.728
10177SOL     OW31429   2.783   1.204   4.005
10177SOL    HW131430   2.739   1.189   3.917
10177SOL    HW231431   2.736   1.278   4.053
10178SOL     OW31432   1.409   2.270   0.766
10178SOL    HW131433   1.498   2.225   0.768
10178SOL    HW231434   1.389   2.299   0.672
10179SOL     OW31435   0.074   4.463   1.124
10179SOL    HW131436   0.044   4.381   1.075
10179SOL    HW231437   0.071   4.542   1.064
10180SOL     OW31438   4.503   6.841   5.515
10180SOL    HW131439   4.419   6.891   5.494
10180SOL    HW231440   4.567   6.849   5.439
10181SOL     OW31441   6.425   3.332   2.365
10181SOL    HW131442   6.513   3.318   2.409
10181SOL    HW231443   6.418   3.271   2.286
10182SOL     OW31444   5.657   2.274   0.255
10182SOL    HW131445   5.565   2.305   0.278
10182SOL    HW231446   5.680   2.193   0.309
10183SOL     OW31447   5.581   1.694   6.638
10183SOL    HW131448   5.632   1.713   6.722
10183SOL    HW231449   5.566   1.595   6.631
10184SOL     OW31450   5.766   2.411   5.989
10184SOL    HW131451   5.716   2.438   5.906
10184SOL    HW231452   5.840   2.348   5.964
10185SOL     OW31453   3.615   5.796   1.839
10185SOL    HW131454   3.516   5.794   1.823
10185SOL    HW231455   3.663   5.801   1.751
10186SOL     OW31456   3.587   3.718   5.999
10186SOL    HW131457   3.547   3.749   6.085
10186SOL    HW231458   3.534   3.755   5.923
10187SOL     OW31459   1.843   4.629   6.668
10187SOL    HW131460   1.752   4.590   6.677
10187SOL    HW231461   1.845   4.693   6.591
10188SOL     OW31462   3.289   0.780   6.459
10188SOL    HW131463   3.208   0.832   6.433
10188SOL    HW231464   3.263   0.706   6.521
10189SOL     OW31465   1.082   2.098   6.509
10189SOL    HW131466   1.128   2.017   6.473
10189SOL    HW231467   1.035   2.145   6.434
10190SOL     OW31468   4.031   5.667   1.972
10190SOL    HW131469   4.060   5.622   1.887
10190SOL    HW231470   4.043   5.605   2.049
10191SOL     OW31471   5.871   6.321   6.648
10191SOL    HW131472   5.772   6.309   6.655
10191SOL    HW231473   5.907   6.355   6.735
10192SOL     OW31474   1.903   1.728   4.358
10192SOL    HW131475   1.857   1.783   4.428
10192SOL    HW231476   1.999   1.715   4.383
10193SOL     OW31477   3.413   3.540   3.597
10193SOL    HW131478   3.498   3.527   3.649
10193SOL    HW231479   3.340   3.569   3.659
10194SOL     OW31480   2.829   0.512   3.171
10194SOL    HW131481   2.928   0.522   3.157
10194SOL    HW231482   2.786   0.602   3.166
10195SOL     OW31483   3.871   6.455   2.087
10195SOL    HW131484   3.794   6.442   2.149
10195SOL    HW231485   3.850   6.415   1.998
10196SOL     OW31486   5.872   2.164   3.572
10196SOL    HW131487   5.875   2.237   3.505
10196SOL    HW231488   5.778   2.133   3.584
10197SOL     OW31489   5.853   0.209   1.640
10197SOL    HW131490   5.870   0.306   1.657
10197SOL    HW231491   5.755   0.193   1.627
10198SOL     OW31492   2.683   0.114   0.862
10198SOL    HW131493   2.733   0.028   0.854
10198SOL    HW231494   2.743   0.185   0.899
10199SOL     OW31495   1.124   1.192   0.341
10199SOL    HW131496   1.148   1.286   0.318
10199SOL    HW231497   1.114   1.184   0.440
10200SOL     OW31498   4.826   4.209   4.235
10200SOL    HW131499   4.769   4.290   4.243
10200SOL    HW231500   4.770   4.132   4.203
10201SOL     OW31501   1.576   4.943   2.788
10201SOL    HW131502   1.654   4.969   2.844
10201SOL    HW231503   1.572   4.844   2.778
10202SOL     OW31504   0.825   3.375   2.525
10202SOL    HW131505   0.878   3.362   2.441
10202SOL    HW231506   0.888   3.391   2.602
10203SOL     OW31507   1.790   3.256   2.466
10203SOL    HW131508   1.871   3.310   2.444
10203SOL    HW231509   1.811   3.158   2.456
10204SOL     OW31510   3.204   4.838   5.269
10204SOL    HW131511   3.131   4.770   5.278
10204SOL    HW231512   3.200   4.879   5.178
10205SOL     OW31513   4.637   1.427   2.941
10205SOL    HW131514   4.598   1.474   2.861
10205SOL    HW231515   4.578   1.350   2.966
10206SOL     OW31516   5.175   6.677   6.790
10206SOL    HW131517   5.113   6.634   6.856
10206SOL    HW231518   5.121   6.726   6.722
10207SOL     OW31519   4.192   0.856   3.003
10207SOL    HW131520   4.171   0.948   3.036
10207SOL    HW231521   4.200   0.858   2.903
10208SOL     OW31522   5.964   3.914   4.969
10208SOL    HW131523   5.936   3.820   4.990
10208SOL    HW231524   5.980   3.922   4.870
10209SOL     OW31525   5.893   0.367   6.301
10209SOL    HW131526   5.927   0.461   6.303
10209SOL    HW231527   5.854   0.344   6.390
10210SOL     OW31528   4.845   5.548   2.077
10210SOL    HW131529   4.913   5.502   2.021
10210SOL    HW231530   4.804   5.483   2.141
10211SOL     OW31531   4.107   5.352   5.528
10211SOL    HW131532   4.044   5.291   5.481
10211SOL    HW231533   4.201   5.329   5.502
10212SOL     OW31534   6.993   0.305   5.280
10212SOL    HW131535   0.006   0.398   5.265
10212SOL    HW231536   6.903   0.294   5.239
10213SOL     OW31537   6.259   1.282   2.832
10213SOL    HW131538   6.352   1.254   2.856
10213SOL    HW231539   6.261   1.327   2.742
10214SOL     OW31540   6.970   0.904   1.789
10214SOL    HW131541   0.007   0.821   1.784
10214SOL    HW231542   6.883   0.887   1.743
10215SOL     OW31543   4.077   3.890   6.729
10215SOL    HW131544   4.063   3.961   6.798
10215SOL    HW231545   4.102   3.804   6.774
10216SOL     OW31546   5.323   0.048   1.528
10216SOL    HW131547   5.327   0.001   1.616
10216SOL    HW231548   5.269   0.132   1.537
10217SOL     OW31549   2.357   1.863   4.889
10217SOL    HW131550   2.397   1.952   4.906
10217SOL    HW231551   2.421   1.791   4.917
10218SOL     OW31552   2.610   1.430   0.711
10218SOL    HW131553   2.620   1.471   0.620
10218SOL    HW231554   2.683   1.464   0.771
10219SOL     OW31555   1.043   3.462   0.356
10219SOL    HW131556   1.066   3.386   0.416
10219SOL    HW231557   1.071   3.548   0.399
10220SOL     OW31558   4.420   2.076   0.988
10220SOL    HW131559   4.439   1.991   1.037
10220SOL    HW231560   4.505   2.115   0.954
10221SOL     OW31561   3.024   0.005   5.287
10221SOL    HW131562   3.076   0.038   5.208
10221SOL    HW231563   3.081   0.010   5.369
10222SOL     OW31564   1.742   5.560   5.751
10222SOL    HW131565   1.819   5.534   5.692
10222SOL    HW231566   1.667   5.496   5.739
10223SOL     OW31567   0.492   4.272   0.605
10223SOL    HW131568   0.547   4.228   0.676
10223SOL    HW231569   0.397   4.242   0.613
10224SOL     OW31570   1.518   0.112   4.018
10224SOL    HW131571   1.426   0.073   4.025
10224SOL    HW231572   1.544   0.152   4.106
10225SOL     OW31573   6.514   5.765   4.440
10225SOL    HW131574   6.510   5.754   4.539
10225SOL    HW231575   6.518   5.863   4.418
10226SOL     OW31576   1.636   1.427   0.138
10226SOL    HW131577   1.655   1.404   0.233
10226SOL    HW231578   1.710   1.391   0.080
10227SOL     OW31579   5.276   4.777   6.878
10227SOL    HW131580   5.295   4.741   6.970
10227SOL    HW231581   5.350   4.753   6.816
10228SOL     OW31582   0.777   5.365   2.892
10228SOL    HW131583   0.804   5.461   2.898
10228SOL    HW231584   0.762   5.341   2.796
10229SOL     OW31585   1.415   0.322   2.720
10229SOL    HW131586   1.448   0.322   2.626
10229SOL    HW231587   1.348   0.395   2.732
10230SOL     OW31588   6.476   0.828   3.607
10230SOL    HW131589   6.544   0.868   3.668
10230SOL    HW231590   6.425   0.757   3.657
10231SOL     OW31591   5.217   6.639   4.610
10231SOL    HW131592   5.264   6.622   4.697
10231SOL    HW231593   5.269   6.706   4.556
10232SOL     OW31594   3.247   2.074   4.963
10232SOL    HW131595   3.294   2.068   4.875
10232SOL    HW231596   3.178   2.146   4.960
10233SOL     OW31597   4.986   1.388   5.775
10233SOL    HW131598   5.040   1.359   5.854
10233SOL    HW231599   4.954   1.482   5.790
10234SOL     OW31600   5.065   6.378   1.827
10234SOL    HW131601   4.986   6.436   1.844
10234SOL    HW231602   5.045   6.313   1.754
10235SOL     OW31603   5.929   1.167   6.755
10235SOL    HW131604   5.896   1.163   6.849
10235SOL    HW231605   5.975   1.082   6.732
10236SOL     OW31606   2.257   5.437   1.905
10236SOL    HW131607   2.234   5.531   1.927
10236SOL    HW231608   2.352   5.419   1.931
10237SOL     OW31609   5.831   3.267   2.262
10237SOL    HW131610   5.758   3.201   2.245
10237SOL    HW231611   5.851   3.271   2.360
10238SOL     OW31612   5.119   4.602   4.695
10238SOL    HW131613   5.032   4.627   4.738
10238SOL    HW231614   5.128   4.650   4.608
10239SOL     OW31615   0.352   4.101   4.477
10239SOL    HW131616   0.311   4.022   4.522
10239SOL    HW231617   0.452   4.091   4.476
10240SOL     OW31618   6.901   4.482   3.749
10240SOL    HW131619   6.851   4.484   3.836
10240SOL    HW231620   6.920   4.576   3.720
10241SOL     OW31621   1.869   0.954   2.319
10241SOL    HW131622   1.958   0.909   2.307
10241SOL    HW231623   1.882   1.052   2.328
10242SOL     OW31624   6.952   6.849   6.034
10242SOL    HW131625   0.008   6.785   6.019
10242SOL    HW231626   6.890   6.847   5.956
10243SOL     OW31627   1.434   5.693   1.569
10243SOL    HW131628   1.519   5.733   1.535
10243SOL    HW231629   1.445   5.595   1.583
10244SOL     OW31630   1.968   6.165   0.170
10244SOL    HW131631   1.984   6.072   0.136
10244SOL    HW231632   1.913   6.216   0.103
10245SOL     OW31633   2.488   2.350   6.872
10245SOL    HW131634   2.417   2.392   6.929
10245SOL    HW231635   2.573   2.402   6.881
10246SOL     OW31636   3.152   4.068   4.457
10246SOL    HW131637   3.073   4.116   4.496
10246SOL    HW231638   3.235   4.097   4.503
10247SOL     OW31639   0.624   4.152   5.340
10247SOL    HW131640   0.558   4.206   5.289
10247SOL    HW231641   0.604   4.159   5.438
10248SOL     OW31642   3.734   0.250   2.022
10248SOL    HW131643   3.674   0.315   1.976
10248SOL    HW231644   3.736   0.165   1.970
10249SOL     OW31645   5.203   1.210   5.925
10249SOL    HW131646   5.260   1.140   5.968
10249SOL    HW231647   5.202   1.292   5.982
10250SOL     OW31648   6.243   1.002   0.128
10250SOL    HW131649   6.265   0.922   0.185
10250SOL    HW231650   6.274   0.986   0.035
10251SOL     OW31651   2.444   3.740   6.805
10251SOL    HW131652   2.426   3.709   6.712
10251SOL    HW231653   2.361   3.778   6.845
10252SOL     OW31654   6.593   5.462   1.857
10252SOL    HW131655   6.613   5.381   1.803
10252SOL    HW231656   6.511   5.445   1.912
10253SOL     OW31657   4.098   5.380   6.696
10253SOL    HW131658   4.115   5.477   6.713
10253SOL    HW231659   4.166   5.326   6.744
10254SOL     OW31660   2.060   2.267   5.301
10254SOL    HW131661   2.094   2.174   5.291
10254SOL    HW231662   2.118   2.317   5.366
10255SOL     OW31663   3.026   6.137   2.586
10255SOL    HW131664   3.036   6.236   2.592
10255SOL    HW231665   3.054   6.095   2.672
10256SOL     OW31666   6.058   7.012   6.680
10256SOL    HW131667   6.098   0.082   6.661
10256SOL    HW231668   5.960   0.002   6.695
10257SOL     OW31669   1.117   5.489   5.643
10257SOL    HW131670   1.162   5.513   5.730
10257SOL    HW231671   1.179   5.433   5.588
10258SOL     OW31672   4.140   7.011   3.243
10258SOL    HW131673   4.101   6.998   3.152
10258SOL    HW231674   4.193   0.076   3.245
10259SOL     OW31675   6.693   3.886   3.639
10259SOL    HW131676   6.632   3.965   3.641
10259SOL    HW231677   6.639   3.802   3.629
10260SOL     OW31678   1.039   0.281   2.009
10260SOL    HW131679   1.037   0.237   2.099
10260SOL    HW231680   1.109   0.353   2.010
10261SOL     OW31681   1.058   5.426   2.422
10261SOL    HW131682   1.148   5.464   2.400
10261SOL    HW231683   1.011   5.487   2.486
10262SOL     OW31684   1.982   4.597   4.973
10262SOL    HW131685   2.039   4.548   5.039
10262SOL    HW231686   2.000   4.563   4.881
10263SOL     OW31687   6.079   1.571   5.571
10263SOL    HW131688   6.067   1.599   5.666
10263SOL    HW231689   5.997   1.594   5.519
10264SOL     OW31690   7.000   0.423   5.887
10264SOL    HW131691   6.928   0.404   5.954
10264SOL    HW231692   0.011   0.518   5.896
10265SOL     OW31693   3.718   1.432   2.281
10265SOL    HW131694   3.693   1.386   2.196
10265SOL    HW231695   3.759   1.365   2.344
10266SOL     OW31696   2.988   4.015   6.352
10266SOL    HW131697   3.036   4.064   6.279
10266SOL    HW231698   3.014   3.918   6.349
10267SOL     OW31699   6.850   2.049   6.310
10267SOL    HW131700   6.863   1.999   6.224
10267SOL    HW231701   6.931   2.037   6.368
10268SOL     OW31702   5.209   6.064   1.776
10268SOL    HW131703   5.234   6.133   1.708
10268SOL    HW231704   5.243   5.975   1.748
10269SOL     OW31705   2.524   2.731   6.213
10269SOL    HW131706   2.555   2.645   6.253
10269SOL    HW231707   2.483   2.788   6.284
10270SOL     OW31708   1.509   5.800   0.601
10270SOL    HW131709   1.421   5.759   0.626
10270SOL    HW231710   1.506   5.898   0.619
10271SOL     OW31711   4.614   4.587   1.694
10271SOL    HW131712   4.662   4.582   1.606
10271SOL    HW231713   4.532   4.643   1.683
10272SOL     OW31714   0.879   1.210   5.748
10272SOL    HW131715   0.931   1.294   5.766
10272SOL    HW231716   0.807   1.200   5.816
10273SOL     OW31717   3.937   5.425   5.152
10273SOL    HW131718   3.976   5.516   5.163
10273SOL    HW231719   3.877   5.424   5.072
10274SOL     OW31720   0.745   4.995   5.572
10274SOL    HW131721   0.703   5.085   5.564
10274SOL    HW231722   0.843   5.004   5.590
10275SOL     OW31723   1.179   6.336   2.622
10275SOL    HW131724   1.256   6.319   2.561
10275SOL    HW231725   1.102   6.371   2.569
10276SOL     OW31726   6.165   5.542   5.886
10276SOL    HW131727   6.147   5.574   5.793
10276SOL    HW231728   6.231   5.603   5.930
10277SOL     OW31729   2.681   6.612   4.495
10277SOL    HW131730   2.690   6.711   4.484
10277SOL    HW231731   2.765   6.568   4.464
10278SOL     OW31732   6.291   0.505   6.050
10278SOL    HW131733   6.366   0.570   6.060
10278SOL    HW231734   6.324   0.412   6.068
10279SOL     OW31735   3.415   6.816   4.108
10279SOL    HW131736   3.453   6.767   4.029
10279SOL    HW231737   3.315   6.803   4.110
10280SOL     OW31738   1.775   4.407   0.039
10280SOL    HW131739   1.868   4.419   0.074
10280SOL    HW231740   1.717   4.369   0.111
10281SOL     OW31741   4.650   0.611   3.582
10281SOL    HW131742   4.620   0.681   3.517
10281SOL    HW231743   4.572   0.574   3.631
10282SOL     OW31744   1.124   1.896   4.345
10282SOL    HW131745   1.207   1.872   4.395
10282SOL    HW231746   1.135   1.985   4.302
10283SOL     OW31747   1.515   3.813   0.249
10283SOL    HW131748   1.508   3.770   0.339
10283SOL    HW231749   1.469   3.755   0.182
10284SOL     OW31750   5.762   2.989   5.387
10284SOL    HW131751   5.665   3.009   5.399
10284SOL    HW231752   5.803   2.968   5.476
10285SOL     OW31753   5.983   0.060   0.778
10285SOL    HW131754   5.897   0.024   0.741
10285SOL    HW231755   6.023   7.013   0.840
10286SOL     OW31756   4.012   0.265   3.487
10286SOL    HW131757   3.964   0.227   3.409
10286SOL    HW231758   4.085   0.202   3.515
10287SOL     OW31759   1.735   6.483   1.899
10287SOL    HW131760   1.642   6.514   1.880
10287SOL    HW231761   1.795   6.562   1.909
10288SOL     OW31762   6.021   6.475   3.431
10288SOL    HW131763   6.030   6.570   3.402
10288SOL    HW231764   5.995   6.419   3.353
10289SOL     OW31765   3.535   1.268   1.832
10289SOL    HW131766   3.602   1.292   1.903
10289SOL    HW231767   3.580   1.215   1.760
10290SOL     OW31768   4.143   3.634   2.628
10290SOL    HW131769   4.240   3.637   2.603
10290SOL    HW231770   4.127   3.556   2.690
10291SOL     OW31771   3.137   0.819   5.101
10291SOL    HW131772   3.050   0.841   5.056
10291SOL    HW231773   3.172   0.900   5.148
10292SOL     OW31774   0.807   1.012   4.481
10292SOL    HW131775   0.723   1.032   4.430
10292SOL    HW231776   0.809   1.068   4.564
10293SOL     OW31777   2.310   6.170   3.349
10293SOL    HW131778   2.405   6.197   3.332
10293SOL    HW231779   2.268   6.234   3.413
10294SOL     OW31780   5.569   1.571   3.612
10294SOL    HW131781   5.635   1.597   3.683
10294SOL    HW231782   5.590   1.479   3.579
10295SOL     OW31783   0.446   5.690   6.263
10295SOL    HW131784   0.388   5.680   6.182
10295SOL    HW231785   0.445   5.606   6.316
10296SOL     OW31786   6.913   3.128   0.448
10296SOL    HW131787   6.997   3.176   0.474
10296SOL    HW231788   6.835   3.171   0.494
10297SOL     OW31789   1.503   5.171   4.681
10297SOL    HW131790   1.413   5.182   4.723
10297SOL    HW231791   1.554   5.101   4.731
10298SOL     OW31792   4.909   3.322   3.687
10298SOL    HW131793   4.877   3.316   3.592
10298SOL    HW231794   4.869   3.247   3.740
10299SOL     OW31795   4.955   4.173   2.983
10299SOL    HW131796   5.019   4.159   3.059
10299SOL    HW231797   4.999   4.149   2.897
10300SOL     OW31798   0.839   4.353   2.907
10300SOL    HW131799   0.915   4.289   2.913
10300SOL    HW231800   0.839   4.412   2.988
10301SOL     OW31801   5.375   1.677   1.153
10301SOL    HW131802   5.295   1.657   1.211
10301SOL    HW231803   5.365   1.629   1.066
10302SOL     OW31804   1.361   5.793   2.787
10302SOL    HW131805   1.461   5.798   2.789
10302SOL    HW231806   1.331   5.742   2.706
10303SOL     OW31807   3.865   3.900   1.675
10303SOL    HW131808   3.909   3.980   1.715
10303SOL    HW231809   3.863   3.826   1.742
10304SOL     OW31810   6.937   6.830   2.538
10304SOL    HW131811   6.995   6.808   2.459
10304SOL    HW231812   6.887   6.915   2.520
10305SOL     OW31813   0.936   5.640   0.974
10305SOL    HW131814   0.947   5.628   1.073
10305SOL    HW231815   0.970   5.559   0.927
10306SOL     OW31816   4.638   6.308   0.526
10306SOL    HW131817   4.684   6.387   0.568
10306SOL    HW231818   4.633   6.233   0.593
10307SOL     OW31819   1.931   1.306   5.927
10307SOL    HW131820   1.974   1.321   6.016
10307SOL    HW231821   1.841   1.263   5.941
10308SOL     OW31822   3.339   6.192   3.260
10308SOL    HW131823   3.294   6.155   3.340
10308SOL    HW231824   3.317   6.289   3.251
10309SOL     OW31825   7.005   6.414   2.974
10309SOL    HW131826   6.906   6.405   2.961
10309SOL    HW231827   0.008   6.507   3.002
10310SOL     OW31828   3.332   4.133   3.426
10310SOL    HW131829   3.310   4.213   3.370
10310SOL    HW231830   3.421   4.097   3.398
10311SOL     OW31831   6.681   5.578   0.333
10311SOL    HW131832   6.772   5.607   0.304
10311SOL    HW231833   6.612   5.627   0.281
10312SOL     OW31834   2.324   4.474   0.623
10312SOL    HW131835   2.323   4.478   0.523
10312SOL    HW231836   2.384   4.400   0.653
10313SOL     OW31837   5.564   6.957   3.062
10313SOL    HW131838   5.585   6.891   3.135
10313SOL    HW231839   5.587   0.029   3.093
10314SOL     OW31840   6.627   6.394   1.119
10314SOL    HW131841   6.656   6.489   1.135
10314SOL    HW231842   6.685   6.354   1.048
10315SOL     OW31843   6.696   5.333   4.372
10315SOL    HW131844   6.785   5.288   4.367
10315SOL    HW231845   6.708   5.431   4.387
10316SOL     OW31846   0.060   4.349   3.499
10316SOL    HW131847   0.007   4.289   3.558
10316SOL    HW231848   0.156   4.346   3.525
10317SOL     OW31849   3.946   5.179   0.423
10317SOL    HW131850   4.021   5.201   0.361
10317SOL    HW231851   3.888   5.259   0.437
10318SOL     OW31852   5.706   5.418   2.057
10318SOL    HW131853   5.652   5.485   2.006
10318SOL    HW231854   5.746   5.353   1.993
10319SOL     OW31855   5.734   6.150   3.169
10319SOL    HW131856   5.636   6.148   3.188
10319SOL    HW231857   5.751   6.202   3.085
10320SOL     OW31858   6.924   6.519   1.329
10320SOL    HW131859   6.947   6.429   1.366
10320SOL    HW231860   6.883   6.575   1.401
10321SOL     OW31861   4.397   5.360   4.093
10321SOL    HW131862   4.414   5.325   4.001
10321SOL    HW231863   4.463   5.322   4.157
10322SOL     OW31864   6.472   3.724   0.661
10322SOL    HW131865   6.543   3.740   0.592
10322SOL    HW231866   6.514   3.719   0.752
10323SOL     OW31867   5.115   2.558   5.530
10323SOL    HW131868   5.173   2.624   5.482
10323SOL    HW231869   5.137   2.559   5.627
10324SOL     OW31870   3.404   2.867   3.647
10324SOL    HW131871   3.396   2.876   3.747
10324SOL    HW231872   3.314   2.874   3.606
10325SOL     OW31873   0.689   3.042   2.814
10325SOL    HW131874   0.589   3.049   2.813
10325SOL    HW231875   0.722   3.048   2.908
10326SOL     OW31876   5.893   1.837   0.912
10326SOL    HW131877   5.840   1.902   0.857
10326SOL    HW231878   5.897   1.870   1.007
10327SOL     OW31879   0.228   1.142   3.038
10327SOL    HW131880   0.314   1.159   2.990
10327SOL    HW231881   0.244   1.141   3.137
10328SOL     OW31882   5.921   2.500   2.100
10328SOL    HW131883   5.951   2.547   2.183
10328SOL    HW231884   5.993   2.507   2.030
10329SOL     OW31885   3.066   6.725   2.846
10329SOL    HW131886   3.117   6.747   2.763
10329SOL    HW231887   2.995   6.659   2.825
10330SOL     OW31888   3.605   5.238   1.647
10330SOL    HW131889   3.545   5.168   1.687
10330SOL    HW231890   3.692   5.237   1.696
10331SOL     OW31891   6.213   0.661   3.351
10331SOL    HW131892   6.237   0.610   3.268
10331SOL    HW231893   6.205   0.598   3.428
10332SOL     OW31894   6.842   2.626   5.904
10332SOL    HW131895   6.884   2.690   5.968
10332SOL    HW231896   6.809   2.675   5.824
10333SOL     OW31897   5.248   4.748   4.418
10333SOL    HW131898   5.158   4.792   4.410
10333SOL    HW231899   5.249   4.664   4.364
10334SOL     OW31900   1.885   4.967   4.246
10334SOL    HW131901   1.975   5.006   4.267
10334SOL    HW231902   1.824   5.040   4.215
10335SOL     OW31903   1.604   5.174   1.612
10335SOL    HW131904   1.555   5.146   1.529
10335SOL    HW231905   1.697   5.139   1.609
10336SOL     OW31906   3.918   6.606   2.676
10336SOL    HW131907   3.848   6.676   2.664
10336SOL    HW231908   4.004   6.636   2.634
10337SOL     OW31909   0.830   4.408   4.909
10337SOL    HW131910   0.739   4.395   4.949
10337SOL    HW231911   0.882   4.474   4.962
10338SOL     OW31912   2.934   6.223   2.972
10338SOL    HW131913   2.975   6.233   3.062
10338SOL    HW231914   2.852   6.280   2.966
10339SOL     OW31915   2.822   5.723   1.355
10339SOL    HW131916   2.771   5.772   1.285
10339SOL    HW231917   2.879   5.787   1.406
10340SOL     OW31918   2.075   0.081   0.673
10340SOL    HW131919   2.149   0.037   0.722
10340SOL    HW231920   2.010   0.120   0.738
10341SOL     OW31921   2.192   1.889   2.773
10341SOL    HW131922   2.290   1.908   2.782
10341SOL    HW231923   2.164   1.827   2.846
10342SOL     OW31924   2.522   6.917   4.894
10342SOL    HW131925   2.530   6.894   4.991
10342SOL    HW231926   2.580   6.996   4.875
10343SOL     OW31927   2.251   3.418   5.214
10343SOL    HW131928   2.174   3.468   5.253
10343SOL    HW231929   2.222   3.374   5.128
10344SOL     OW31930   3.822   4.470   5.430
10344SOL    HW131931   3.845   4.374   5.416
10344SOL    HW231932   3.902   4.527   5.409
10345SOL     OW31933   2.406   1.138   6.172
10345SOL    HW131934   2.341   1.063   6.180
10345SOL    HW231935   2.436   1.147   6.077
10346SOL     OW31936   5.425   5.718   0.121
10346SOL    HW131937   5.360   5.712   0.046
10346SOL    HW231938   5.407   5.802   0.174
10347SOL     OW31939   5.502   1.511   1.942
10347SOL    HW131940   5.564   1.433   1.952
10347SOL    HW231941   5.409   1.479   1.926
10348SOL     OW31942   0.532   6.369   5.429
10348SOL    HW131943   0.516   6.428   5.509
10348SOL    HW231944   0.630   6.361   5.414
10349SOL     OW31945   0.022   1.717   0.754
10349SOL    HW131946   0.049   1.784   0.824
10349SOL    HW231947   6.942   1.709   0.754
10350SOL     OW31948   2.456   5.084   5.032
10350SOL    HW131949   2.364   5.122   5.031
10350SOL    HW231950   2.469   5.027   4.950
10351SOL     OW31951   5.109   4.325   4.640
10351SOL    HW131952   5.173   4.401   4.651
10351SOL    HW231953   5.040   4.330   4.713
10352SOL     OW31954   5.980   2.073   0.355
10352SOL    HW131955   5.898   2.061   0.410
10352SOL    HW231956   6.029   2.156   0.385
10353SOL     OW31957   6.719   2.883   3.971
10353SOL    HW131958   6.759   2.911   3.884
10353SOL    HW231959   6.783   2.823   4.019
10354SOL     OW31960   0.663   3.265   0.634
10354SOL    HW131961   0.650   3.215   0.548
10354SOL    HW231962   0.666   3.199   0.710
10355SOL     OW31963   1.410   1.080   0.794
10355SOL    HW131964   1.461   1.145   0.851
10355SOL    HW231965   1.316   1.074   0.827
10356SOL     OW31966   6.281   3.715   6.440
10356SOL    HW131967   6.362   3.772   6.452
10356SOL    HW231968   6.208   3.748   6.500
10357SOL     OW31969   1.199   2.684   5.927
10357SOL    HW131970   1.262   2.609   5.907
10357SOL    HW231971   1.234   2.769   5.887
10358SOL     OW31972   0.909   2.388   2.255
10358SOL    HW131973   0.821   2.386   2.301
10358SOL    HW231974   0.979   2.419   2.319
10359SOL     OW31975   5.881   1.725   2.197
10359SOL    HW131976   5.790   1.684   2.208
10359SOL    HW231977   5.913   1.759   2.285
10360SOL     OW31978   6.138   4.009   1.916
10360SOL    HW131979   6.194   3.930   1.940
10360SOL    HW231980   6.088   3.989   1.832
10361SOL     OW31981   0.762   1.723   1.421
10361SOL    HW131982   0.713   1.643   1.455
10361SOL    HW231983   0.859   1.700   1.412
10362SOL     OW31984   1.379   5.116   2.061
10362SOL    HW131985   1.353   5.020   2.074
10362SOL    HW231986   1.475   5.122   2.035
10363SOL     OW31987   5.062   4.574   0.110
10363SOL    HW131988   5.147   4.598   0.062
10363SOL    HW231989   5.074   4.588   0.208
10364SOL     OW31990   6.114   4.463   2.402
10364SOL    HW131991   6.154   4.414   2.480
10364SOL    HW231992   6.187   4.485   2.337
10365SOL     OW31993   6.552   6.084   0.472
10365SOL    HW131994   6.510   6.142   0.542
10365SOL    HW231995   6.602   6.142   0.407
10366SOL     OW31996   2.618   6.307   3.363
10366SOL    HW131997   2.673   6.236   3.405
10366SOL    HW231998   2.590   6.278   3.271
10367SOL     OW31999   5.919   1.596   1.090
10367SOL    HW132000   5.991   1.622   1.027
10367SOL    HW232001   5.839   1.563   1.039
10368SOL     OW32002   1.979   5.890   2.384
10368SOL    HW132003   1.931   5.819   2.437
10368SOL    HW232004   1.957   5.879   2.287
10369SOL     OW32005   3.355   0.321   5.982
10369SOL    HW132006   3.454   0.321   5.962
10369SOL    HW232007   3.305   0.345   5.899
10370SOL     OW32008   0.852   1.216   5.479
10370SOL    HW132009   0.802   1.129   5.472
10370SOL    HW232010   0.879   1.230   5.575
10371SOL     OW32011   3.466   5.306   3.226
10371SOL    HW132012   3.445   5.327   3.130
10371SOL    HW232013   3.511   5.385   3.268
10372SOL     OW32014   2.726   6.432   1.624
10372SOL    HW132015   2.679   6.394   1.704
10372SOL    HW232016   2.783   6.362   1.583
10373SOL     OW32017   0.613   1.825   5.503
10373SOL    HW132018   0.679   1.892   5.538
10373SOL    HW232019   0.625   1.815   5.405
10374SOL     OW32020   3.396   6.325   4.811
10374SOL    HW132021   3.369   6.409   4.859
10374SOL    HW232022   3.332   6.251   4.835
10375SOL     OW32023   2.416   3.741   0.469
10375SOL    HW132024   2.379   3.648   0.463
10375SOL    HW232025   2.398   3.790   0.383
10376SOL     OW32026   1.969   4.619   2.898
10376SOL    HW132027   1.978   4.716   2.872
10376SOL    HW232028   1.935   4.614   2.992
10377SOL     OW32029   1.343   0.895   3.227
10377SOL    HW132030   1.351   0.803   3.266
10377SOL    HW232031   1.378   0.961   3.293
10378SOL     OW32032   0.190   4.466   4.303
10378SOL    HW132033   0.167   4.415   4.386
10378SOL    HW232034   0.118   4.534   4.285
10379SOL     OW32035   1.652   6.144   4.604
10379SOL    HW132036   1.575   6.099   4.560
10379SOL    HW232037   1.651   6.122   4.702
10380SOL     OW32038   2.239   2.845   4.590
10380SOL    HW132039   2.227   2.900   4.508
10380SOL    HW232040   2.218   2.749   4.570
10381SOL     OW32041   4.220   4.766   2.188
10381SOL    HW132042   4.248   4.746   2.094
10381SOL    HW232043   4.297   4.750   2.249
10382SOL     OW32044   3.368   5.707   1.793
10382SOL    HW132045   3.272   5.715   1.767
10382SOL    HW232046   3.394   5.611   1.798
10383SOL     OW32047   2.149   4.281   0.451
10383SOL    HW132048   2.103   4.243   0.532
10383SOL    HW232049   2.194   4.207   0.401
10384SOL     OW32050   5.960   6.362   1.812
10384SOL    HW132051   5.985   6.383   1.906
10384SOL    HW232052   5.864   6.332   1.809
10385SOL     OW32053   3.828   4.430   6.714
10385SOL    HW132054   3.784   4.430   6.624
10385SOL    HW232055   3.882   4.346   6.724
10386SOL     OW32056   0.058   0.547   0.524
10386SOL    HW132057   7.004   0.584   0.468
10386SOL    HW232058   0.047   0.579   0.619
10387SOL     OW32059   4.834   3.081   2.252
10387SOL    HW132060   4.831   3.033   2.164
10387SOL    HW232061   4.768   3.040   2.314
10388SOL     OW32062   2.840   0.468   5.879
10388SOL    HW132063   2.918   0.528   5.894
10388SOL    HW232064   2.776   0.476   5.956
10389SOL     OW32065   1.029   3.140   0.884
10389SOL    HW132066   1.050   3.169   0.978
10389SOL    HW232067   0.976   3.212   0.838
10390SOL     OW32068   3.119   2.740   1.517
10390SOL    HW132069   3.185   2.770   1.448
10390SOL    HW232070   3.042   2.694   1.473
10391SOL     OW32071   5.999   6.264   4.259
10391SOL    HW132072   6.017   6.188   4.197
10391SOL    HW232073   6.007   6.351   4.209
10392SOL     OW32074   6.545   5.003   3.938
10392SOL    HW132075   6.557   4.905   3.954
10392SOL    HW232076   6.515   5.046   4.023
10393SOL     OW32077   1.888   4.057   3.911
10393SOL    HW132078   1.880   4.067   4.010
10393SOL    HW232079   1.822   3.989   3.879
10394SOL     OW32080   2.861   5.878   4.391
10394SOL    HW132081   2.930   5.910   4.326
10394SOL    HW232082   2.885   5.787   4.424
10395SOL     OW32083   0.279   7.000   0.343
10395SOL    HW132084   0.299   6.906   0.370
10395SOL    HW232085   0.233   0.028   0.418
10396SOL     OW32086   2.724   1.517   4.689
10396SOL    HW132087   2.754   1.482   4.601
10396SOL    HW232088   2.780   1.478   4.762
10397SOL     OW32089   3.251   2.132   2.647
10397SOL    HW132090   3.303   2.111   2.565
10397SOL    HW232091   3.177   2.195   2.625
10398SOL     OW32092   0.310   2.948   2.041
10398SOL    HW132093   0.234   2.998   1.999
10398SOL    HW232094   0.345   2.880   1.975
10399SOL     OW32095   6.764   3.180   2.051
10399SOL    HW132096   6.715   3.268   2.047
10399SOL    HW232097   6.762   3.137   1.961
10400SOL     OW32098   4.095   6.694   0.544
10400SOL    HW132099   4.185   6.658   0.517
10400SOL    HW232100   4.043   6.719   0.463
10401SOL     OW32101   6.521   0.684   4.434
10401SOL    HW132102   6.621   0.688   4.430
10401SOL    HW232103   6.487   0.758   4.492
10402SOL     OW32104   6.454   2.769   4.247
10402SOL    HW132105   6.483   2.701   4.179
10402SOL    HW232106   6.489   2.743   4.337
10403SOL     OW32107   2.871   0.794   3.503
10403SOL    HW132108   2.934   0.814   3.428
10403SOL    HW232109   2.830   0.704   3.489
10404SOL     OW32110   6.968   0.103   6.014
10404SOL    HW132111   7.010   0.014   6.033
10404SOL    HW232112   0.020   0.167   5.986
10405SOL     OW32113   0.642   1.559   5.593
10405SOL    HW132114   0.629   1.658   5.579
10405SOL    HW232115   0.648   1.513   5.505
10406SOL     OW32116   3.161   4.999   1.576
10406SOL    HW132117   3.118   4.931   1.635
10406SOL    HW232118   3.175   4.961   1.485
10407SOL     OW32119   3.377   6.285   6.462
10407SOL    HW132120   3.459   6.255   6.414
10407SOL    HW232121   3.317   6.207   6.478
10408SOL     OW32122   5.112   0.894   0.456
10408SOL    HW132123   5.075   0.879   0.364
10408SOL    HW232124   5.210   0.875   0.456
10409SOL     OW32125   6.625   4.865   0.403
10409SOL    HW132126   6.569   4.945   0.425
10409SOL    HW232127   6.714   4.873   0.448
10410SOL     OW32128   5.505   1.767   0.064
10410SOL    HW132129   5.414   1.733   0.087
10410SOL    HW232130   5.496   1.846   0.003
10411SOL     OW32131   2.950   5.725   3.016
10411SOL    HW132132   2.992   5.798   3.070
10411SOL    HW232133   2.875   5.685   3.069
10412SOL     OW32134   6.123   1.259   0.514
10412SOL    HW132135   6.185   1.214   0.449
10412SOL    HW232136   6.173   1.282   0.597
10413SOL     OW32137   0.013   1.993   1.639
10413SOL    HW132138   0.042   1.900   1.617
10413SOL    HW232139   6.938   1.992   1.670
10414SOL     OW32140   4.944   3.538   5.628
10414SOL    HW132141   4.871   3.477   5.594
10414SOL    HW232142   4.905   3.601   5.695
10415SOL     OW32143   0.354   5.493   5.982
10415SOL    HW132144   0.304   5.578   6.000
10415SOL    HW232145   0.439   5.514   5.932
10416SOL     OW32146   5.871   1.983   3.918
10416SOL    HW132147   5.945   1.918   3.899
10416SOL    HW232148   5.911   2.069   3.951
10417SOL     OW32149   3.221   5.090   4.473
10417SOL    HW132150   3.175   5.060   4.557
10417SOL    HW232151   3.172   5.167   4.433
10418SOL     OW32152   6.952   4.816   5.582
10418SOL    HW132153   6.860   4.852   5.573
10418SOL    HW232154   6.993   4.807   5.491
10419SOL     OW32155   1.059   0.659   6.642
10419SOL    HW132156   1.105   0.748   6.640
10419SOL    HW232157   1.127   0.586   6.628
10420SOL     OW32158   0.295   3.219   2.643
10420SOL    HW132159   0.230   3.260   2.578
10420SOL    HW232160   0.387   3.220   2.603
10421SOL     OW32161   1.607   1.273   3.468
10421SOL    HW132162   1.563   1.359   3.495
10421SOL    HW232163   1.704   1.290   3.452
10422SOL     OW32164   6.590   2.235   5.501
10422SOL    HW132165   6.688   2.222   5.489
10422SOL    HW232166   6.541   2.184   5.431
10423SOL     OW32167   5.002   5.130   4.488
10423SOL    HW132168   5.014   5.034   4.515
10423SOL    HW232169   5.033   5.143   4.394
10424SOL     OW32170   5.152   1.810   6.925
10424SOL    HW132171   5.181   1.753   6.848
10424SOL    HW232172   5.188   1.903   6.913
10425SOL     OW32173   1.681   6.942   2.480
10425SOL    HW132174   1.760   6.895   2.440
10425SOL    HW232175   1.711   6.993   2.561
10426SOL     OW32176   0.139   3.995   0.834
10426SOL    HW132177   0.056   3.945   0.811
10426SOL    HW232178   0.202   3.991   0.756
10427SOL     OW32179   4.463   1.812   0.086
10427SOL    HW132180   4.550   1.805   0.134
10427SOL    HW232181   4.465   1.756   0.003
10428SOL     OW32182   3.522   1.141   4.791
10428SOL    HW132183   3.618   1.166   4.782
10428SOL    HW232184   3.467   1.223   4.800
10429SOL     OW32185   6.993   5.650   1.423
10429SOL    HW132186   6.981   5.648   1.324
10429SOL    HW232187   6.941   5.576   1.465
10430SOL     OW32188   4.624   0.452   3.225
10430SOL    HW132189   4.700   0.512   3.198
10430SOL    HW232190   4.550   0.460   3.158
10431SOL     OW32191   3.142   0.351   5.812
10431SOL    HW132192   3.073   0.362   5.883
10431SOL    HW232193   3.134   0.260   5.771
10432SOL     OW32194   6.200   0.832   3.950
10432SOL    HW132195   6.236   0.918   3.915
10432SOL    HW232196   6.100   0.831   3.940
10433SOL     OW32197   1.914   6.528   1.630
10433SOL    HW132198   1.954   6.597   1.691
10433SOL    HW232199   1.815   6.542   1.625
10434SOL     OW32200   3.415   0.087   3.379
10434SOL    HW132201   3.479   0.066   3.305
10434SOL    HW232202   3.322   0.064   3.351
10435SOL     OW32203   6.422   6.772   5.007
10435SOL    HW132204   6.496   6.776   5.074
10435SOL    HW232205   6.405   6.677   4.981
10436SOL     OW32206   0.498   5.263   4.637
10436SOL    HW132207   0.508   5.315   4.722
10436SOL    HW232208   0.515   5.166   4.655
10437SOL     OW32209   6.508   5.041   5.517
10437SOL    HW132210   6.442   5.003   5.582
10437SOL    HW232211   6.469   5.039   5.425
10438SOL     OW32212   5.223   6.340   7.008
10438SOL    HW132213   5.317   6.375   7.017
10438SOL    HW232214   5.220   6.245   0.018
10439SOL     OW32215   3.607   1.214   5.753
10439SOL    HW132216   3.623   1.312   5.761
10439SOL    HW232217   3.681   1.173   5.700
10440SOL     OW32218   0.596   6.665   1.022
10440SOL    HW132219   0.611   6.605   0.943
10440SOL    HW232220   0.521   6.629   1.077
10441SOL     OW32221   5.328   1.435   6.739
10441SOL    HW132222   5.315   1.531   6.763
10441SOL    HW232223   5.259   1.380   6.786
10442SOL     OW32224   3.537   5.270   5.875
10442SOL    HW132225   3.485   5.222   5.945
10442SOL    HW232226   3.567   5.359   5.911
10443SOL     OW32227   5.515   3.612   4.498
10443SOL    HW132228   5.558   3.659   4.421
10443SOL    HW232229   5.416   3.608   4.484
10444SOL     OW32230   3.858   5.449   4.835
10444SOL    HW132231   3.849   5.455   4.735
10444SOL    HW232232   3.938   5.393   4.857
10445SOL     OW32233   0.290   4.871   4.003
10445SOL    HW132234   0.386   4.855   3.983
10445SOL    HW232235   0.256   4.947   3.947
10446SOL     OW32236   0.588   4.395   6.543
10446SOL    HW132237   0.568   4.491   6.564
10446SOL    HW232238   0.594   4.343   6.629
10447SOL     OW32239   6.949   1.718   1.843
10447SOL    HW132240   6.890   1.746   1.767
10447SOL    HW232241   6.968   1.797   1.901
10448SOL     OW32242   4.385   3.663   1.025
10448SOL    HW132243   4.408   3.759   1.042
10448SOL    HW232244   4.458   3.604   1.060
10449SOL     OW32245   2.699   5.545   4.412
10449SOL    HW132246   2.792   5.582   4.407
10449SOL    HW232247   2.692   5.465   4.353
10450SOL     OW32248   0.022   2.563   6.634
10450SOL    HW132249   6.995   2.651   6.643
10450SOL    HW232250   0.119   2.574   6.657
10451SOL     OW32251   2.680   4.645   2.677
10451SOL    HW132252   2.735   4.702   2.739
10451SOL    HW232253   2.616   4.590   2.731
10452SOL     OW32254   0.314   3.380   3.512
10452SOL    HW132255   0.409   3.395   3.488
10452SOL    HW232256   0.308   3.338   3.603
10453SOL     OW32257   5.737   5.910   1.544
10453SOL    HW132258   5.682   5.890   1.625
10453SOL    HW232259   5.687   5.972   1.484
10454SOL     OW32260   5.254   3.152   1.816
10454SOL    HW132261   5.335   3.095   1.799
10454SOL    HW232262   5.183   3.130   1.750
10455SOL     OW32263   0.588   5.265   3.711
10455SOL    HW132264   0.605   5.178   3.666
10455SOL    HW232265   0.506   5.307   3.671
10456SOL     OW32266   3.012   5.887   1.468
10456SOL    HW132267   3.068   5.958   1.426
10456SOL    HW232268   3.067   5.836   1.534
10457SOL     OW32269   3.874   4.020   3.825
10457SOL    HW132270   3.829   4.001   3.738
10457SOL    HW232271   3.940   3.947   3.845
10458SOL     OW32272   0.802   0.404   0.261
10458SOL    HW132273   0.744   0.468   0.312
10458SOL    HW232274   0.747   0.356   0.193
10459SOL     OW32275   5.613   5.268   2.387
10459SOL    HW132276   5.710   5.267   2.412
10459SOL    HW232277   5.577   5.360   2.400
10460SOL     OW32278   2.642   5.769   2.149
10460SOL    HW132279   2.661   5.721   2.064
10460SOL    HW232280   2.708   5.844   2.160
10461SOL     OW32281   2.126   6.831   6.575
10461SOL    HW132282   2.097   6.752   6.520
10461SOL    HW232283   2.225   6.843   6.565
10462SOL     OW32284   5.860   0.443   1.051
10462SOL    HW132285   5.793   0.507   1.013
10462SOL    HW232286   5.916   0.490   1.119
10463SOL     OW32287   2.780   4.595   6.519
10463SOL    HW132288   2.701   4.641   6.478
10463SOL    HW232289   2.808   4.643   6.601
10464SOL     OW32290   4.421   0.314   1.441
10464SOL    HW132291   4.437   0.227   1.488
10464SOL    HW232292   4.323   0.324   1.422
10465SOL     OW32293   0.401   6.162   5.833
10465SOL    HW132294   0.424   6.099   5.907
10465SOL    HW232295   0.416   6.117   5.745
10466SOL     OW32296   4.867   5.292   4.978
10466SOL    HW132297   4.920   5.208   4.963
10466SOL    HW232298   4.858   5.342   4.892
10467SOL     OW32299   1.802   1.554   5.834
10467SOL    HW132300   1.868   1.630   5.833
10467SOL    HW232301   1.846   1.471   5.868
10468SOL     OW32302   3.578   6.342   4.315
10468SOL    HW132303   3.517   6.382   4.247
10468SOL    HW232304   3.560   6.384   4.404
10469SOL     OW32305   2.359   3.773   1.045
10469SOL    HW132306   2.378   3.775   0.947
10469SOL    HW232307   2.368   3.680   1.079
10470SOL     OW32308   2.302   1.489   4.403
10470SOL    HW132309   2.278   1.455   4.494
10470SOL    HW232310   2.246   1.441   4.335
10471SOL     OW32311   2.662   4.023   1.697
10471SOL    HW132312   2.706   4.109   1.673
10471SOL    HW232313   2.573   4.041   1.739
10472SOL     OW32314   3.784   6.954   2.556
10472SOL    HW132315   3.754   6.858   2.554
10472SOL    HW232316   3.857   6.967   2.489
10473SOL     OW32317   6.053   6.583   0.058
10473SOL    HW132318   6.032   6.679   0.078
10473SOL    HW232319   6.114   6.546   0.128
10474SOL     OW32320   3.763   1.083   4.422
10474SOL    HW132321   3.708   1.008   4.387
10474SOL    HW232322   3.795   1.061   4.514
10475SOL     OW32323   4.095   6.766   1.401
10475SOL    HW132324   4.128   6.674   1.384
10475SOL    HW232325   4.065   6.808   1.316
10476SOL     OW32326   6.468   5.290   6.315
10476SOL    HW132327   6.512   5.367   6.361
10476SOL    HW232328   6.378   5.274   6.354
10477SOL     OW32329   5.383   3.794   4.717
10477SOL    HW132330   5.387   3.736   4.635
10477SOL    HW232331   5.475   3.825   4.740
10478SOL     OW32332   0.726   6.713   0.491
10478SOL    HW132333   0.681   6.799   0.516
10478SOL    HW232334   0.806   6.733   0.434
10479SOL     OW32335   1.838   3.636   2.181
10479SOL    HW132336   1.809   3.682   2.098
10479SOL    HW232337   1.763   3.634   2.247
10480SOL     OW32338   5.428   6.876   1.966
10480SOL    HW132339   5.413   6.898   2.063
10480SOL    HW232340   5.433   6.777   1.955
10481SOL     OW32341   2.525   1.019   5.202
10481SOL    HW132342   2.427   1.036   5.207
10481SOL    HW232343   2.574   1.086   5.258
10482SOL     OW32344   0.750   6.096   4.730
10482SOL    HW132345   0.667   6.135   4.769
10482SOL    HW232346   0.774   6.147   4.647
10483SOL     OW32347   6.189   5.995   6.808
10483SOL    HW132348   6.205   5.935   6.887
10483SOL    HW232349   6.277   6.032   6.777
10484SOL     OW32350   0.270   1.096   1.478
10484SOL    HW132351   0.205   1.057   1.413
10484SOL    HW232352   0.335   1.154   1.429
10485SOL     OW32353   3.201   3.708   3.164
10485SOL    HW132354   3.209   3.660   3.251
10485SOL    HW232355   3.176   3.643   3.092
10486SOL     OW32356   6.980   6.465   5.355
10486SOL    HW132357   6.901   6.461   5.294
10486SOL    HW232358   6.994   6.560   5.385
10487SOL     OW32359   4.596   2.035   1.936
10487SOL    HW132360   4.507   1.991   1.937
10487SOL    HW232361   4.606   2.093   2.017
10488SOL     OW32362   0.290   2.029   5.909
10488SOL    HW132363   0.290   2.004   6.006
10488SOL    HW232364   0.381   2.060   5.883
10489SOL     OW32365   5.680   4.951   3.563
10489SOL    HW132366   5.674   4.863   3.611
10489SOL    HW232367   5.610   5.013   3.598
10490SOL     OW32368   6.081   0.155   0.479
10490SOL    HW132369   6.180   0.169   0.484
10490SOL    HW232370   6.035   0.242   0.498
10491SOL     OW32371   1.081   3.276   6.517
10491SOL    HW132372   1.156   3.276   6.451
10491SOL    HW232373   1.063   3.183   6.548
10492SOL     OW32374   4.576   0.587   0.711
10492SOL    HW132375   4.570   0.491   0.685
10492SOL    HW232376   4.603   0.594   0.807
10493SOL     OW32377   4.516   5.592   1.115
10493SOL    HW132378   4.598   5.535   1.128
10493SOL    HW232379   4.500   5.605   1.017
10494SOL     OW32380   0.578   4.368   5.755
10494SOL    HW132381   0.569   4.280   5.709
10494SOL    HW232382   0.492   4.418   5.748
10495SOL     OW32383   1.050   6.213   5.894
10495SOL    HW132384   1.101   6.278   5.837
10495SOL    HW232385   0.993   6.264   5.959
10496SOL     OW32386   6.791   3.788   5.382
10496SOL    HW132387   6.865   3.757   5.322
10496SOL    HW232388   6.704   3.781   5.334
10497SOL     OW32389   2.420   0.277   1.541
10497SOL    HW132390   2.509   0.296   1.583
10497SOL    HW232391   2.351   0.336   1.582
10498SOL     OW32392   4.889   5.369   0.773
10498SOL    HW132393   4.886   5.421   0.858
10498SOL    HW232394   4.796   5.356   0.739
10499SOL     OW32395   5.490   5.408   1.766
10499SOL    HW132396   5.544   5.473   1.712
10499SOL    HW232397   5.515   5.315   1.741
10500SOL     OW32398   6.691   3.851   5.049
10500SOL    HW132399   6.617   3.917   5.035
10500SOL    HW232400   6.663   3.785   5.119
10501SOL     OW32401   2.669   5.734   2.652
10501SOL    HW132402   2.683   5.639   2.626
10501SOL    HW232403   2.671   5.792   2.571
10502SOL     OW32404   2.911   3.294   2.861
10502SOL    HW132405   2.885   3.349   2.782
10502SOL    HW232406   2.968   3.217   2.832
10503SOL     OW32407   6.425   3.036   6.336
10503SOL    HW132408   6.494   2.969   6.362
10503SOL    HW232409   6.457   3.128   6.357
10504SOL     OW32410   1.707   2.720   6.430
10504SOL    HW132411   1.771   2.673   6.369
10504SOL    HW232412   1.758   2.777   6.495
10505SOL     OW32413   6.088   6.172   1.676
10505SOL    HW132414   6.166   6.211   1.628
10505SOL    HW232415   6.034   6.245   1.718
10506SOL     OW32416   1.000   2.743   0.133
10506SOL    HW132417   1.018   2.841   0.126
10506SOL    HW232418   1.038   2.709   0.219
10507SOL     OW32419   1.895   5.078   0.104
10507SOL    HW132420   1.826   5.029   0.051
10507SOL    HW232421   1.923   5.023   0.182
10508SOL     OW32422   1.260   5.156   4.793
10508SOL    HW132423   1.224   5.214   4.866
10508SOL    HW232424   1.187   5.134   4.728
10509SOL     OW32425   5.081   3.136   3.477
10509SOL    HW132426   5.120   3.173   3.561
10509SOL    HW232427   5.154   3.116   3.412
10510SOL     OW32428   4.615   5.346   4.762
10510SOL    HW132429   4.539   5.310   4.814
10510SOL    HW232430   4.600   5.443   4.743
10511SOL     OW32431   3.376   2.087   2.414
10511SOL    HW132432   3.416   2.111   2.325
10511SOL    HW232433   3.442   2.032   2.466
10512SOL     OW32434   4.644   0.691   5.207
10512SOL    HW132435   4.656   0.658   5.113
10512SOL    HW232436   4.568   0.756   5.210
10513SOL     OW32437   5.353   3.461   1.763
10513SOL    HW132438   5.277   3.524   1.777
10513SOL    HW232439   5.319   3.367   1.760
10514SOL     OW32440   1.169   3.040   1.776
10514SOL    HW132441   1.215   2.982   1.709
10514SOL    HW232442   1.103   3.098   1.729
10515SOL     OW32443   2.074   3.118   4.514
10515SOL    HW132444   2.021   3.186   4.564
10515SOL    HW232445   2.022   3.033   4.508
10516SOL     OW32446   3.735   2.727   0.567
10516SOL    HW132447   3.776   2.787   0.636
10516SOL    HW232448   3.650   2.689   0.602
10517SOL     OW32449   0.965   3.216   3.301
10517SOL    HW132450   0.908   3.183   3.375
10517SOL    HW232451   0.933   3.306   3.271
10518SOL     OW32452   0.705   5.208   2.211
10518SOL    HW132453   0.787   5.266   2.216
10518SOL    HW232454   0.628   5.262   2.175
10519SOL     OW32455   2.251   6.600   0.998
10519SOL    HW132456   2.186   6.676   1.003
10519SOL    HW232457   2.208   6.516   1.032
10520SOL     OW32458   6.955   1.751   5.683
10520SOL    HW132459   6.976   1.815   5.757
10520SOL    HW232460   6.975   1.657   5.713
10521SOL     OW32461   6.173   3.706   0.797
10521SOL    HW132462   6.261   3.754   0.799
10521SOL    HW232463   6.101   3.770   0.824
10522SOL     OW32464   5.500   2.736   3.219
10522SOL    HW132465   5.404   2.755   3.199
10522SOL    HW232466   5.558   2.802   3.171
10523SOL     OW32467   6.893   4.740   3.612
10523SOL    HW132468   6.798   4.742   3.581
10523SOL    HW232469   6.913   4.821   3.666
10524SOL     OW32470   6.347   6.420   3.752
10524SOL    HW132471   6.446   6.425   3.739
10524SOL    HW232472   6.303   6.489   3.694
10525SOL     OW32473   4.517   1.457   5.209
10525SOL    HW132474   4.564   1.473   5.296
10525SOL    HW232475   4.585   1.449   5.136
10526SOL     OW32476   0.915   5.461   0.369
10526SOL    HW132477   0.865   5.374   0.370
10526SOL    HW232478   0.928   5.491   0.274
10527SOL     OW32479   0.669   0.927   5.055
10527SOL    HW132480   0.713   0.839   5.067
10527SOL    HW232481   0.610   0.947   5.133
10528SOL     OW32482   0.647   4.554   6.319
10528SOL    HW132483   0.582   4.604   6.376
10528SOL    HW232484   0.663   4.464   6.358
10529SOL     OW32485   1.412   6.423   6.432
10529SOL    HW132486   1.492   6.438   6.490
10529SOL    HW232487   1.361   6.508   6.422
10530SOL     OW32488   0.793   6.530   0.240
10530SOL    HW132489   0.888   6.532   0.207
10530SOL    HW232490   0.791   6.495   0.334
10531SOL     OW32491   2.778   2.769   5.486
10531SOL    HW132492   2.694   2.812   5.451
10531SOL    HW232493   2.790   2.680   5.442
10532SOL     OW32494   5.840   6.062   6.674
10532SOL    HW132495   5.850   6.014   6.762
10532SOL    HW232496   5.863   6.158   6.686
10533SOL     OW32497   3.151   5.775   3.215
10533SOL    HW132498   3.104   5.699   3.260
10533SOL    HW232499   3.132   5.860   3.264
10534SOL     OW32500   1.553   6.039   2.548
10534SOL    HW132501   1.529   6.073   2.639
10534SOL    HW232502   1.613   5.959   2.556
10535SOL     OW32503   3.010   1.909   3.376
10535SOL    HW132504   2.935   1.889   3.438
10535SOL    HW232505   3.046   2.001   3.394
10536SOL     OW32506   5.461   1.092   4.153
10536SOL    HW132507   5.552   1.109   4.115
10536SOL    HW232508   5.394   1.150   4.107
10537SOL     OW32509   4.933   0.019   2.742
10537SOL    HW132510   4.959   0.023   2.645
10537SOL    HW232511   4.854   0.079   2.758
10538SOL     OW32512   6.223   3.031   2.606
10538SOL    HW132513   6.182   3.122   2.613
10538SOL    HW232514   6.323   3.038   2.609
10539SOL     OW32515   6.240   6.910   2.834
10539SOL    HW132516   6.220   6.814   2.818
10539SOL    HW232517   6.336   6.929   2.811
10540SOL     OW32518   2.608   3.796   5.897
10540SOL    HW132519   2.600   3.777   5.799
10540SOL    HW232520   2.532   3.753   5.946
10541SOL     OW32521   2.947   3.212   5.090
10541SOL    HW132522   2.956   3.150   5.167
10541SOL    HW232523   2.850   3.236   5.078
10542SOL     OW32524   5.731   6.953   4.224
10542SOL    HW132525   5.779   6.935   4.139
10542SOL    HW232526   5.638   6.917   4.218
10543SOL     OW32527   6.821   2.849   5.427
10543SOL    HW132528   6.857   2.769   5.475
10543SOL    HW232529   6.854   2.932   5.471
10544SOL     OW32530   1.447   1.175   3.945
10544SOL    HW132531   1.367   1.188   3.887
10544SOL    HW232532   1.491   1.088   3.922
10545SOL     OW32533   2.110   2.422   2.729
10545SOL    HW132534   2.053   2.403   2.649
10545SOL    HW232535   2.202   2.385   2.714
10546SOL     OW32536   3.193   6.855   1.233
10546SOL    HW132537   3.154   6.917   1.302
10546SOL    HW232538   3.126   6.839   1.161
10547SOL     OW32539   4.296   6.708   4.778
10547SOL    HW132540   4.238   6.788   4.793
10547SOL    HW232541   4.392   6.738   4.770
10548SOL     OW32542   1.283   4.462   4.054
10548SOL    HW132543   1.305   4.474   3.957
10548SOL    HW232544   1.364   4.429   4.102
10549SOL     OW32545   0.073   1.278   0.752
10549SOL    HW132546   0.056   1.296   0.849
10549SOL    HW232547   7.018   1.315   0.698
10550SOL     OW32548   3.616   6.080   3.001
10550SOL    HW132549   3.633   6.005   3.064
10550SOL    HW232550   3.644   6.054   2.909
10551SOL     OW32551   3.138   2.172   6.121
10551SOL    HW132552   3.204   2.097   6.116
10551SOL    HW232553   3.173   2.244   6.180
10552SOL     OW32554   3.396   1.001   4.594
10552SOL    HW132555   3.440   0.911   4.597
10552SOL    HW232556   3.450   1.066   4.646
10553SOL     OW32557   7.006   5.032   0.527
10553SOL    HW132558   0.076   4.988   0.529
10553SOL    HW232559   7.015   5.123   0.487
10554SOL     OW32560   5.882   4.961   2.860
10554SOL    HW132561   5.897   4.924   2.768
10554SOL    HW232562   5.944   4.916   2.924
10555SOL     OW32563   3.480   2.120   0.282
10555SOL    HW132564   3.574   2.151   0.296
10555SOL    HW232565   3.444   2.161   0.198
10556SOL     OW32566   1.879   2.088   2.930
10556SOL    HW132567   1.927   2.075   2.843
10556SOL    HW232568   1.870   2.186   2.949
10557SOL     OW32569   2.281   4.535   3.645
10557SOL    HW132570   2.266   4.619   3.698
10557SOL    HW232571   2.319   4.559   3.556
10558SOL     OW32572   3.014   5.589   5.975
10558SOL    HW132573   3.013   5.631   5.884
10558SOL    HW232574   2.940   5.628   6.030
10559SOL     OW32575   3.829   7.007   6.180
10559SOL    HW132576   3.851   0.084   6.171
10559SOL    HW232577   3.757   6.995   6.249
10560SOL     OW32578   5.261   6.557   1.801
10560SOL    HW132579   5.292   6.565   1.706
10560SOL    HW232580   5.199   6.479   1.810
10561SOL     OW32581   5.921   3.910   0.196
10561SOL    HW132582   5.953   3.924   0.289
10561SOL    HW232583   5.863   3.987   0.168
10562SOL     OW32584   3.060   6.155   1.640
10562SOL    HW132585   3.090   6.188   1.550
10562SOL    HW232586   2.960   6.156   1.645
10563SOL     OW32587   0.541   0.763   0.570
10563SOL    HW132588   0.495   0.834   0.624
10563SOL    HW232589   0.551   0.796   0.475
10564SOL     OW32590   5.823   5.976   3.710
10564SOL    HW132591   5.897   5.963   3.644
10564SOL    HW232592   5.860   6.003   3.798
10565SOL     OW32593   6.871   6.995   5.013
10565SOL    HW132594   6.877   7.009   4.914
10565SOL    HW232595   6.946   6.937   5.043
10566SOL     OW32596   2.490   2.716   0.169
10566SOL    HW132597   2.584   2.684   0.155
10566SOL    HW232598   2.492   2.809   0.206
10567SOL     OW32599   1.252   1.863   6.371
10567SOL    HW132600   1.343   1.824   6.361
10567SOL    HW232601   1.191   1.824   6.301
10568SOL     OW32602   5.337   2.438   6.138
10568SOL    HW132603   5.383   2.385   6.210
10568SOL    HW232604   5.238   2.431   6.150
10569SOL     OW32605   5.264   6.795   1.417
10569SOL    HW132606   5.303   6.815   1.327
10569SOL    HW232607   5.285   6.869   1.480
10570SOL     OW32608   0.887   5.114   4.262
10570SOL    HW132609   0.984   5.125   4.284
10570SOL    HW232610   0.872   5.022   4.225
10571SOL     OW32611   0.292   4.240   5.660
10571SOL    HW132612   0.336   4.171   5.717
10571SOL    HW232613   0.262   4.199   5.574
10572SOL     OW32614   6.248   4.562   1.367
10572SOL    HW132615   6.154   4.558   1.334
10572SOL    HW232616   6.278   4.470   1.392
10573SOL     OW32617   5.708   0.936   3.468
10573SOL    HW132618   5.747   0.867   3.529
10573SOL    HW232619   5.642   0.992   3.519
10574SOL     OW32620   0.023   1.697   3.775
10574SOL    HW132621   0.052   1.754   3.852
10574SOL    HW232622   0.034   1.748   3.690
10575SOL     OW32623   6.271   0.905   1.617
10575SOL    HW132624   6.207   0.932   1.545
10575SOL    HW232625   6.231   0.924   1.707
10576SOL     OW32626   2.218   5.076   3.669
10576SOL    HW132627   2.120   5.091   3.683
10576SOL    HW232628   2.269   5.126   3.739
10577SOL     OW32629   4.037   6.316   0.711
10577SOL    HW132630   4.117   6.369   0.681
10577SOL    HW232631   4.049   6.220   0.687
10578SOL     OW32632   6.868   2.677   4.037
10578SOL    HW132633   6.832   2.619   3.964
10578SOL    HW232634   6.930   2.623   4.094
10579SOL     OW32635   1.994   3.651   1.470
10579SOL    HW132636   1.901   3.657   1.434
10579SOL    HW232637   2.055   3.708   1.416
10580SOL     OW32638   6.622   6.908   6.276
10580SOL    HW132639   6.668   6.820   6.287
10580SOL    HW232640   6.602   6.924   6.180
10581SOL     OW32641   5.516   6.962   2.774
10581SOL    HW132642   5.534   6.919   2.863
10581SOL    HW232643   5.473   6.895   2.714
10582SOL     OW32644   5.662   4.398   6.531
10582SOL    HW132645   5.733   4.391   6.600
10582SOL    HW232646   5.584   4.342   6.557
10583SOL     OW32647   2.633   0.670   4.416
10583SOL    HW132648   2.612   0.575   4.437
10583SOL    HW232649   2.661   0.677   4.320
10584SOL     OW32650   0.148   6.956   5.062
10584SOL    HW132651   0.138   0.036   5.057
10584SOL    HW232652   0.167   6.929   5.156
10585SOL     OW32653   0.565   0.707   5.716
10585SOL    HW132654   0.638   0.767   5.684
10585SOL    HW232655   0.479   0.732   5.671
10586SOL     OW32656   4.509   4.459   5.520
10586SOL    HW132657   4.528   4.406   5.603
10586SOL    HW232658   4.463   4.400   5.453
10587SOL     OW32659   0.910   5.670   5.593
10587SOL    HW132660   0.990   5.620   5.625
10587SOL    HW232661   0.939   5.757   5.552
10588SOL     OW32662   1.313   4.506   4.442
10588SOL    HW132663   1.342   4.563   4.365
10588SOL    HW232664   1.394   4.475   4.493
10589SOL     OW32665   5.620   6.427   3.265
10589SOL    HW132666   5.674   6.343   3.271
10589SOL    HW232667   5.629   6.479   3.349
10590SOL     OW32668   0.479   5.348   2.660
10590SOL    HW132669   0.508   5.397   2.578
10590SOL    HW232670   0.459   5.413   2.733
10591SOL     OW32671   1.588   1.720   1.669
10591SOL    HW132672   1.586   1.803   1.725
10591SOL    HW232673   1.671   1.720   1.613
10592SOL     OW32674   6.067   2.289   5.524
10592SOL    HW132675   6.041   2.345   5.603
10592SOL    HW232676   6.010   2.316   5.445
10593SOL     OW32677   2.773   6.133   1.953
10593SOL    HW132678   2.806   6.219   1.993
10593SOL    HW232679   2.682   6.147   1.914
10594SOL     OW32680   3.106   0.398   3.513
10594SOL    HW132681   3.053   0.314   3.522
10594SOL    HW232682   3.064   0.456   3.443
10595SOL     OW32683   6.262   0.058   0.913
10595SOL    HW132684   6.191   7.012   0.939
10595SOL    HW232685   6.267   0.130   0.982
10596SOL     OW32686   4.891   1.488   6.801
10596SOL    HW132687   4.861   1.393   6.793
10596SOL    HW232688   4.914   1.523   6.710
10597SOL     OW32689   2.470   0.342   6.047
10597SOL    HW132690   2.384   0.307   6.085
10597SOL    HW232691   2.451   0.424   5.992
10598SOL     OW32692   2.554   1.536   5.966
10598SOL    HW132693   2.591   1.626   5.942
10598SOL    HW232694   2.563   1.522   6.065
10599SOL     OW32695   6.857   3.610   6.154
10599SOL    HW132696   6.859   3.512   6.176
10599SOL    HW232697   6.844   3.622   6.056
10600SOL     OW32698   2.837   2.159   1.618
10600SOL    HW132699   2.836   2.059   1.607
10600SOL    HW232700   2.921   2.186   1.666
10601SOL     OW32701   0.419   6.506   5.655
10601SOL    HW132702   0.367   6.501   5.570
10601SOL    HW232703   0.424   6.600   5.686
10602SOL     OW32704   0.533   0.556   0.275
10602SOL    HW132705   0.476   0.522   0.350
10602SOL    HW232706   0.509   0.651   0.256
10603SOL     OW32707   4.854   6.569   1.912
10603SOL    HW132708   4.783   6.545   1.977
10603SOL    HW232709   4.941   6.580   1.960
10604SOL     OW32710   0.132   0.112   4.456
10604SOL    HW132711   0.101   0.028   4.410
10604SOL    HW232712   0.159   0.090   4.550
10605SOL     OW32713   2.561   1.267   1.083
10605SOL    HW132714   2.606   1.356   1.083
10605SOL    HW232715   2.599   1.210   1.155
10606SOL     OW32716   6.545   0.954   1.173
10606SOL    HW132717   6.459   1.005   1.177
10606SOL    HW232718   6.542   0.890   1.097
10607SOL     OW32719   4.097   4.306   6.381
10607SOL    HW132720   4.050   4.378   6.330
10607SOL    HW232721   4.042   4.281   6.462
10608SOL     OW32722   6.104   3.265   2.811
10608SOL    HW132723   6.079   3.351   2.767
10608SOL    HW232724   6.029   3.234   2.870
10609SOL     OW32725   4.675   0.877   7.014
10609SOL    HW132726   4.708   0.829   6.933
10609SOL    HW232727   4.655   0.810   0.067
10610SOL     OW32728   0.858   1.336   4.301
10610SOL    HW132729   0.821   1.409   4.359
10610SOL    HW232730   0.829   1.351   4.207
10611SOL     OW32731   2.796   5.586   5.444
10611SOL    HW132732   2.884   5.556   5.482
10611SOL    HW232733   2.731   5.510   5.447
10612SOL     OW32734   5.354   1.551   3.812
10612SOL    HW132735   5.278   1.505   3.765
10612SOL    HW232736   5.437   1.541   3.758
10613SOL     OW32737   6.097   6.768   4.207
10613SOL    HW132738   6.005   6.756   4.170
10613SOL    HW232739   6.111   6.703   4.282
10614SOL     OW32740   5.158   0.127   6.509
10614SOL    HW132741   5.130   0.199   6.572
10614SOL    HW232742   5.087   0.112   6.441
10615SOL     OW32743   2.186   2.280   6.615
10615SOL    HW132744   2.151   2.366   6.653
10615SOL    HW232745   2.149   2.203   6.667
10616SOL     OW32746   2.343   6.533   6.511
10616SOL    HW132747   2.384   6.565   6.426
10616SOL    HW232748   2.262   6.478   6.490
10617SOL     OW32749   2.356   3.309   1.318
10617SOL    HW132750   2.381   3.392   1.367
10617SOL    HW232751   2.266   3.322   1.276
10618SOL     OW32752   0.578   5.395   4.890
10618SOL    HW132753   0.542   5.488   4.877
10618SOL    HW232754   0.657   5.399   4.951
10619SOL     OW32755   1.133   1.771   3.263
10619SOL    HW132756   1.198   1.741   3.333
10619SOL    HW232757   1.061   1.702   3.252
10620SOL     OW32758   2.816   0.505   6.563
10620SOL    HW132759   2.837   0.602   6.580
10620SOL    HW232760   2.831   0.485   6.466
10621SOL     OW32761   1.068   3.605   3.421
10621SOL    HW132762   0.997   3.583   3.355
10621SOL    HW232763   1.122   3.683   3.388
10622SOL     OW32764   4.381   3.476   0.373
10622SOL    HW132765   4.361   3.574   0.375
10622SOL    HW232766   4.298   3.425   0.391
10623SOL     OW32767   5.811   5.882   6.915
10623SOL    HW132768   5.758   5.967   6.914
10623SOL    HW232769   5.749   5.805   6.926
10624SOL     OW32770   0.324   2.187   5.231
10624SOL    HW132771   0.330   2.159   5.327
10624SOL    HW232772   0.406   2.157   5.182
10625SOL     OW32773   6.636   4.165   6.439
10625SOL    HW132774   6.674   4.118   6.360
10625SOL    HW232775   6.536   4.166   6.432
10626SOL     OW32776   4.566   3.489   1.085
10626SOL    HW132777   4.611   3.472   0.997
10626SOL    HW232778   4.554   3.402   1.134
10627SOL     OW32779   5.671   6.255   5.919
10627SOL    HW132780   5.771   6.257   5.910
10627SOL    HW232781   5.634   6.183   5.860
10628SOL     OW32782   4.790   0.603   0.545
10628SOL    HW132783   4.703   0.606   0.594
10628SOL    HW232784   4.864   0.625   0.609
10629SOL     OW32785   3.610   5.550   4.856
10629SOL    HW132786   3.578   5.592   4.771
10629SOL    HW232787   3.709   5.538   4.852
10630SOL     OW32788   4.429   0.413   2.953
10630SOL    HW132789   4.332   0.438   2.960
10630SOL    HW232790   4.441   0.318   2.981
10631SOL     OW32791   4.691   5.848   0.251
10631SOL    HW132792   4.754   5.833   0.327
10631SOL    HW232793   4.671   5.760   0.207
10632SOL     OW32794   4.634   5.656   3.279
10632SOL    HW132795   4.595   5.565   3.271
10632SOL    HW232796   4.639   5.682   3.375
10633SOL     OW32797   1.750   2.810   2.026
10633SOL    HW132798   1.720   2.748   2.098
10633SOL    HW232799   1.772   2.899   2.065
10634SOL     OW32800   0.389   4.560   6.939
10634SOL    HW132801   0.473   4.533   6.892
10634SOL    HW232802   0.358   4.649   6.905
10635SOL     OW32803   2.503   3.481   0.001
10635SOL    HW132804   2.428   3.471   0.066
10635SOL    HW232805   2.521   3.579   7.005
10636SOL     OW32806   6.392   2.019   6.222
10636SOL    HW132807   6.448   2.025   6.305
10636SOL    HW232808   6.384   2.110   6.181
10637SOL     OW32809   3.306   6.712   6.827
10637SOL    HW132810   3.218   6.680   6.790
10637SOL    HW232811   3.297   6.722   6.926
10638SOL     OW32812   0.271   5.260   1.788
10638SOL    HW132813   0.320   5.205   1.721
10638SOL    HW232814   0.322   5.344   1.806
10639SOL     OW32815   1.962   3.895   1.723
10639SOL    HW132816   2.054   3.934   1.726
10639SOL    HW232817   1.959   3.820   1.657
10640SOL     OW32818   4.581   6.833   3.387
10640SOL    HW132819   4.585   6.738   3.416
10640SOL    HW232820   4.628   6.890   3.454
10641SOL     OW32821   0.645   0.476   3.285
10641SOL    HW132822   0.561   0.451   3.332
10641SOL    HW232823   0.688   0.395   3.246
10642SOL     OW32824   5.413   2.138   6.650
10642SOL    HW132825   5.324   2.154   6.609
10642SOL    HW232826   5.475   2.212   6.627
10643SOL     OW32827   1.872   4.847   5.411
10643SOL    HW132828   1.834   4.912   5.345
10643SOL    HW232829   1.942   4.893   5.467
10644SOL     OW32830   0.073   2.437   2.541
10644SOL    HW132831   0.035   2.528   2.522
10644SOL    HW232832   0.002   2.379   2.580
10645SOL     OW32833   2.171   3.021   2.690
10645SOL    HW132834   2.091   2.997   2.745
10645SOL    HW232835   2.237   3.070   2.746
10646SOL     OW32836   5.059   0.978   4.141
10646SOL    HW132837   5.070   0.903   4.207
10646SOL    HW232838   4.965   0.978   4.107
10647SOL     OW32839   3.815   4.934   4.983
10647SOL    HW132840   3.837   4.898   4.892
10647SOL    HW232841   3.727   4.981   4.980
10648SOL     OW32842   5.696   5.076   5.014
10648SOL    HW132843   5.792   5.049   5.014
10648SOL    HW232844   5.680   5.143   4.941
10649SOL     OW32845   0.386   3.130   3.080
10649SOL    HW132846   0.354   3.038   3.102
10649SOL    HW232847   0.318   3.197   3.111
10650SOL     OW32848   6.559   0.448   4.258
10650SOL    HW132849   6.572   0.357   4.299
10650SOL    HW232850   6.534   0.513   4.330
10651SOL     OW32851   5.151   6.183   5.822
10651SOL    HW132852   5.217   6.217   5.754
10651SOL    HW232853   5.146   6.083   5.816
10652SOL     OW32854   1.769   6.781   6.330
10652SOL    HW132855   1.703   6.721   6.286
10652SOL    HW232856   1.790   6.857   6.268
10653SOL     OW32857   3.662   6.182   4.093
10653SOL    HW132858   3.604   6.102   4.106
10653SOL    HW232859   3.631   6.256   4.153
10654SOL     OW32860   5.407   1.159   4.784
10654SOL    HW132861   5.366   1.215   4.712
10654SOL    HW232862   5.391   1.062   4.765
10655SOL     OW32863   1.170   4.429   1.541
10655SOL    HW132864   1.070   4.434   1.549
10655SOL    HW232865   1.195   4.414   1.445
10656SOL     OW32866   6.778   1.773   1.648
10656SOL    HW132867   6.728   1.702   1.599
10656SOL    HW232868   6.729   1.860   1.640
10657SOL     OW32869   5.937   0.833   3.913
10657SOL    HW132870   5.927   0.850   3.815
10657SOL    HW232871   5.883   0.754   3.939
10658SOL     OW32872   6.103   3.972   4.721
10658SOL    HW132873   6.040   4.048   4.732
10658SOL    HW232874   6.123   3.959   4.623
10659SOL     OW32875   0.829   4.989   1.287
10659SOL    HW132876   0.841   4.946   1.197
10659SOL    HW232877   0.760   5.061   1.280
10660SOL     OW32878   6.420   3.335   5.394
10660SOL    HW132879   6.402   3.239   5.412
10660SOL    HW232880   6.346   3.391   5.431
10661SOL     OW32881   1.172   4.052   6.731
10661SOL    HW132882   1.167   4.136   6.785
10661SOL    HW232883   1.268   4.025   6.721
10662SOL     OW32884   2.885   1.563   3.451
10662SOL    HW132885   2.972   1.546   3.499
10662SOL    HW232886   2.814   1.582   3.519
10663SOL     OW32887   1.976   1.112   3.779
10663SOL    HW132888   1.901   1.084   3.838
10663SOL    HW232889   1.979   1.052   3.699
10664SOL     OW32890   1.281   5.434   4.466
10664SOL    HW132891   1.209   5.503   4.457
10664SOL    HW232892   1.270   5.365   4.394
10665SOL     OW32893   2.021   3.525   6.327
10665SOL    HW132894   2.053   3.536   6.421
10665SOL    HW232895   1.924   3.501   6.327
10666SOL     OW32896   3.800   3.401   2.079
10666SOL    HW132897   3.894   3.369   2.063
10666SOL    HW232898   3.737   3.342   2.029
10667SOL     OW32899   5.531   2.212   2.669
10667SOL    HW132900   5.619   2.238   2.709
10667SOL    HW232901   5.546   2.144   2.598
10668SOL     OW32902   3.114   2.180   5.342
10668SOL    HW132903   3.016   2.176   5.322
10668SOL    HW232904   3.156   2.255   5.290
10669SOL     OW32905   5.468   1.080   1.061
10669SOL    HW132906   5.445   1.017   0.987
10669SOL    HW232907   5.435   1.172   1.039
10670SOL     OW32908   4.918   3.661   4.003
10670SOL    HW132909   4.956   3.694   3.917
10670SOL    HW232910   4.922   3.561   4.005
10671SOL     OW32911   1.145   1.698   4.095
10671SOL    HW132912   1.195   1.721   4.011
10671SOL    HW232913   1.183   1.751   4.172
10672SOL     OW32914   6.317   3.888   1.403
10672SOL    HW132915   6.234   3.844   1.368
10672SOL    HW232916   6.293   3.946   1.480
10673SOL     OW32917   1.783   0.855   1.098
10673SOL    HW132918   1.857   0.806   1.145
10673SOL    HW232919   1.700   0.801   1.101
10674SOL     OW32920   3.951   3.200   4.408
10674SOL    HW132921   3.964   3.208   4.507
10674SOL    HW232922   4.012   3.264   4.361
10675SOL     OW32923   3.685   1.326   6.210
10675SOL    HW132924   3.603   1.284   6.250
10675SOL    HW232925   3.746   1.355   6.283
10676SOL     OW32926   0.969   5.924   5.524
10676SOL    HW132927   0.878   5.960   5.546
10676SOL    HW232928   1.037   5.969   5.581
10677SOL     OW32929   0.891   1.968   0.213
10677SOL    HW132930   0.908   1.887   0.269
10677SOL    HW232931   0.860   1.939   0.122
10678SOL     OW32932   4.161   5.266   3.804
10678SOL    HW132933   4.259   5.263   3.823
10678SOL    HW232934   4.139   5.204   3.729
10679SOL     OW32935   4.006   4.732   0.262
10679SOL    HW132936   4.025   4.800   0.192
10679SOL    HW232937   3.907   4.730   0.282
10680SOL     OW32938   3.438   1.694   4.300
10680SOL    HW132939   3.485   1.606   4.295
10680SOL    HW232940   3.467   1.742   4.383
10681SOL     OW32941   6.471   3.316   6.360
10681SOL    HW132942   6.451   3.351   6.452
10681SOL    HW232943   6.386   3.304   6.309
10682SOL     OW32944   5.987   3.182   4.627
10682SOL    HW132945   5.949   3.261   4.676
10682SOL    HW232946   6.006   3.207   4.532
10683SOL     OW32947   4.228   0.122   3.588
10683SOL    HW132948   4.219   0.210   3.635
10683SOL    HW232949   4.293   0.065   3.637
10684SOL     OW32950   5.238   4.488   1.106
10684SOL    HW132951   5.288   4.408   1.139
10684SOL    HW232952   5.302   4.563   1.090
10685SOL     OW32953   0.015   5.402   1.791
10685SOL    HW132954   6.967   5.361   1.852
10685SOL    HW232955   0.095   5.343   1.786
10686SOL     OW32956   2.259   3.921   6.836
10686SOL    HW132957   2.302   4.010   6.823
10686SOL    HW232958   2.162   3.932   6.855
10687SOL     OW32959   6.538   4.459   2.793
10687SOL    HW132960   6.505   4.540   2.745
10687SOL    HW232961   6.547   4.383   2.728
10688SOL     OW32962   5.493   1.207   1.840
10688SOL    HW132963   5.452   1.178   1.926
10688SOL    HW232964   5.593   1.202   1.847
10689SOL     OW32965   0.334   0.515   1.818
10689SOL    HW132966   0.416   0.560   1.782
10689SOL    HW232967   0.328   0.532   1.916
10690SOL     OW32968   6.578   5.335   3.415
10690SOL    HW132969   6.547   5.352   3.508
10690SOL    HW232970   6.618   5.418   3.377
10691SOL     OW32971   3.124   1.955   2.345
10691SOL    HW132972   3.205   2.014   2.343
10691SOL    HW232973   3.042   2.012   2.338
10692SOL     OW32974   2.921   0.688   4.556
10692SOL    HW132975   3.000   0.664   4.612
10692SOL    HW232976   2.838   0.648   4.596
10693SOL     OW32977   0.739   6.315   1.398
10693SOL    HW132978   0.828   6.291   1.358
10693SOL    HW232979   0.703   6.236   1.448
10694SOL     OW32980   4.770   6.167   6.022
10694SOL    HW132981   4.678   6.146   6.057
10694SOL    HW232982   4.778   6.136   5.928
10695SOL     OW32983   1.434   3.192   1.353
10695SOL    HW132984   1.343   3.222   1.384
10695SOL    HW232985   1.467   3.121   1.414
10696SOL     OW32986   6.295   3.893   4.880
10696SOL    HW132987   6.210   3.897   4.827
10696SOL    HW232988   6.296   3.966   4.948
10697SOL     OW32989   0.790   6.323   5.381
10697SOL    HW132990   0.833   6.260   5.316
10697SOL    HW232991   0.819   6.300   5.474
10698SOL     OW32992   4.804   4.214   6.936
10698SOL    HW132993   4.888   4.232   6.886
10698SOL    HW232994   4.779   4.294   6.990
10699SOL     OW32995   3.550   4.709   0.765
10699SOL    HW132996   3.525   4.630   0.820
10699SOL    HW232997   3.609   4.680   0.689
10700SOL     OW32998   6.324   6.723   0.710
10700SOL    HW132999   6.291   6.809   0.673
10700SOL    HW233000   6.299   6.716   0.807
10701SOL     OW33001   3.088   0.248   6.582
10701SOL    HW133002   3.108   0.291   6.670
10701SOL    HW233003   3.095   0.318   6.510
10702SOL     OW33004   5.179   2.964   2.787
10702SOL    HW133005   5.080   2.949   2.781
10702SOL    HW233006   5.225   2.909   2.717
10703SOL     OW33007   2.228   2.918   5.512
10703SOL    HW133008   2.212   2.979   5.434
10703SOL    HW233009   2.178   2.952   5.592
10704SOL     OW33010   6.638   5.327   2.893
10704SOL    HW133011   6.653   5.241   2.844
10704SOL    HW233012   6.653   5.404   2.830
10705SOL     OW33013   5.863   4.659   0.906
10705SOL    HW133014   5.810   4.729   0.857
10705SOL    HW233015   5.937   4.704   0.958
10706SOL     OW33016   4.781   0.090   1.759
10706SOL    HW133017   4.772   0.043   1.671
10706SOL    HW233018   4.869   0.138   1.762
10707SOL     OW33019   6.753   6.645   4.174
10707SOL    HW133020   6.751   6.659   4.075
10707SOL    HW233021   6.674   6.688   4.216
10708SOL     OW33022   4.929   1.487   2.023
10708SOL    HW133023   4.920   1.397   2.066
10708SOL    HW233024   4.849   1.504   1.966
10709SOL     OW33025   5.722   5.425   3.897
10709SOL    HW133026   5.661   5.414   3.975
10709SOL    HW233027   5.685   5.375   3.819
10710SOL     OW33028   5.765   0.479   3.711
10710SOL    HW133029   5.823   0.428   3.647
10710SOL    HW233030   5.746   0.422   3.791
10711SOL     OW33031   2.603   0.181   3.479
10711SOL    HW133032   2.627   0.087   3.458
10711SOL    HW233033   2.645   0.242   3.412
10712SOL     OW33034   4.045   0.437   2.896
10712SOL    HW133035   3.953   0.477   2.900
10712SOL    HW233036   4.111   0.509   2.874
10713SOL     OW33037   1.182   2.673   0.322
10713SOL    HW133038   1.155   2.583   0.356
10713SOL    HW233039   1.250   2.712   0.384
10714SOL     OW33040   4.401   3.148   5.325
10714SOL    HW133041   4.389   3.132   5.423
10714SOL    HW233042   4.401   3.246   5.307
10715SOL     OW33043   4.522   0.175   2.386
10715SOL    HW133044   4.536   0.087   2.342
10715SOL    HW233045   4.597   0.194   2.450
10716SOL     OW33046   6.338   2.581   2.979
10716SOL    HW133047   6.422   2.543   3.018
10716SOL    HW233048   6.298   2.647   3.043
10717SOL     OW33049   1.961   2.949   1.015
10717SOL    HW133050   1.870   2.916   0.991
10717SOL    HW233051   2.018   2.952   0.933
10718SOL     OW33052   0.975   4.351   6.482
10718SOL    HW133053   0.910   4.315   6.415
10718SOL    HW233054   1.067   4.321   6.459
10719SOL     OW33055   6.013   6.142   3.459
10719SOL    HW133056   6.003   6.150   3.360
10719SOL    HW233057   5.924   6.157   3.503
10720SOL     OW33058   5.877   5.045   4.291
10720SOL    HW133059   5.882   4.953   4.329
10720SOL    HW233060   5.966   5.070   4.252
10721SOL     OW33061   5.040   3.949   5.158
10721SOL    HW133062   5.105   3.993   5.096
10721SOL    HW233063   4.948   3.954   5.119
10722SOL     OW33064   6.160   4.194   0.094
10722SOL    HW133065   6.240   4.253   0.093
10722SOL    HW233066   6.096   4.224   0.165
10723SOL     OW33067   6.865   1.803   6.667
10723SOL    HW133068   6.951   1.818   6.618
10723SOL    HW233069   6.836   1.888   6.711
10724SOL     OW33070   0.051   6.469   6.194
10724SOL    HW133071   0.133   6.446   6.247
10724SOL    HW233072   0.011   6.386   6.156
10725SOL     OW33073   2.305   6.029   5.301
10725SOL    HW133074   2.237   6.084   5.351
10725SOL    HW233075   2.273   6.014   5.208
10726SOL     OW33076   4.673   0.407   4.316
10726SOL    HW133077   4.654   0.490   4.368
10726SOL    HW233078   4.696   0.333   4.379
10727SOL     OW33079   0.178   5.302   5.901
10727SOL    HW133080   0.214   5.218   5.942
10727SOL    HW233081   0.243   5.377   5.916
10728SOL     OW33082   0.765   5.056   6.819
10728SOL    HW133083   0.730   4.992   6.888
10728SOL    HW233084   0.733   5.148   6.839
10729SOL     OW33085   6.511   1.353   2.129
10729SOL    HW133086   6.523   1.267   2.178
10729SOL    HW233087   6.439   1.343   2.061
10730SOL     OW33088   3.166   6.985   0.923
10730SOL    HW133089   3.250   0.002   0.962
10730SOL    HW233090   3.188   6.910   0.860
10731SOL     OW33091   3.575   0.562   0.887
10731SOL    HW133092   3.500   0.564   0.821
10731SOL    HW233093   3.555   0.497   0.960
10732SOL     OW33094   0.569   4.786   5.595
10732SOL    HW133095   0.640   4.851   5.568
10732SOL    HW233096   0.608   4.694   5.598
10733SOL     OW33097   6.024   1.700   6.605
10733SOL    HW133098   6.121   1.680   6.589
10733SOL    HW233099   6.001   1.684   6.701
10734SOL     OW33100   1.688   1.013   0.287
10734SOL    HW133101   1.589   1.020   0.278
10734SOL    HW233102   1.732   1.044   0.202
10735SOL     OW33103   0.986   2.905   2.462
10735SOL    HW133104   1.033   2.970   2.403
10735SOL    HW233105   1.053   2.840   2.500
10736SOL     OW33106   1.425   0.552   3.438
10736SOL    HW133107   1.449   0.548   3.535
10736SOL    HW233108   1.507   0.540   3.383
10737SOL     OW33109   1.309   2.038   0.914
10737SOL    HW133110   1.356   2.119   0.879
10737SOL    HW233111   1.212   2.059   0.927
10738SOL     OW33112   2.809   6.544   2.275
10738SOL    HW133113   2.836   6.506   2.186
10738SOL    HW233114   2.801   6.644   2.266
10739SOL     OW33115   2.021   1.063   1.451
10739SOL    HW133116   2.121   1.062   1.446
10739SOL    HW233117   1.987   1.146   1.406
10740SOL     OW33118   0.051   5.143   5.367
10740SOL    HW133119   0.098   5.055   5.357
10740SOL    HW233120   0.012   5.149   5.459
10741SOL     OW33121   4.432   1.015   1.582
10741SOL    HW133122   4.336   0.991   1.597
10741SOL    HW233123   4.472   0.950   1.517
10742SOL     OW33124   6.164   0.012   1.251
10742SOL    HW133125   6.200   0.088   1.196
10742SOL    HW233126   6.150   0.043   1.345
10743SOL     OW33127   1.341   2.490   5.772
10743SOL    HW133128   1.396   2.543   5.708
10743SOL    HW233129   1.263   2.450   5.724
10744SOL     OW33130   3.608   1.197   0.582
10744SOL    HW133131   3.577   1.145   0.662
10744SOL    HW233132   3.699   1.166   0.556
10745SOL     OW33133   6.835   5.744   5.839
10745SOL    HW133134   6.866   5.810   5.770
10745SOL    HW233135   6.913   5.690   5.871
10746SOL     OW33136   1.487   4.175   0.496
10746SOL    HW133137   1.482   4.075   0.485
10746SOL    HW233138   1.412   4.217   0.444
10747SOL     OW33139   3.685   1.516   4.878
10747SOL    HW133140   3.758   1.529   4.811
10747SOL    HW233141   3.722   1.474   4.961
10748SOL     OW33142   5.337   0.729   1.264
10748SOL    HW133143   5.405   0.795   1.295
10748SOL    HW233144   5.343   0.646   1.320
10749SOL     OW33145   6.865   5.886   3.861
10749SOL    HW133146   6.928   5.926   3.795
10749SOL    HW233147   6.807   5.818   3.815
10750SOL     OW33148   3.812   6.660   4.780
10750SOL    HW133149   3.819   6.566   4.747
10750SOL    HW233150   3.776   6.719   4.707
10751SOL     OW33151   1.754   4.774   3.869
10751SOL    HW133152   1.666   4.727   3.875
10751SOL    HW233153   1.764   4.816   3.779
10752SOL     OW33154   5.950   4.799   5.053
10752SOL    HW133155   5.976   4.705   5.034
10752SOL    HW233156   5.928   4.846   4.967
10753SOL     OW33157   6.217   4.746   4.223
10753SOL    HW133158   6.254   4.817   4.282
10753SOL    HW233159   6.211   4.779   4.129
10754SOL     OW33160   0.856   6.843   3.362
10754SOL    HW133161   0.887   6.748   3.360
10754SOL    HW233162   0.812   6.862   3.450
10755SOL     OW33163   6.826   0.394   0.864
10755SOL    HW133164   6.911   0.363   0.822
10755SOL    HW233165   6.811   0.345   0.949
10756SOL     OW33166   6.870   5.419   5.698
10756SOL    HW133167   6.924   5.366   5.632
10756SOL    HW233168   6.928   5.487   5.742
10757SOL     OW33169   1.674   2.355   0.100
10757SOL    HW133170   1.591   2.300   0.093
10757SOL    HW233171   1.753   2.295   0.108
10758SOL     OW33172   1.011   6.370   4.242
10758SOL    HW133173   1.062   6.347   4.325
10758SOL    HW233174   0.946   6.444   4.263
10759SOL     OW33175   2.208   3.838   0.763
10759SOL    HW133176   2.256   3.924   0.749
10759SOL    HW233177   2.137   3.828   0.693
10760SOL     OW33178   5.927   0.543   3.264
10760SOL    HW133179   5.987   0.532   3.185
10760SOL    HW233180   5.980   0.576   3.342
10761SOL     OW33181   0.416   5.637   5.597
10761SOL    HW133182   0.411   5.539   5.578
10761SOL    HW233183   0.384   5.689   5.518
10762SOL     OW33184   2.965   1.189   4.706
10762SOL    HW133185   3.048   1.161   4.658
10762SOL    HW233186   2.885   1.159   4.654
10763SOL     OW33187   3.661   6.685   2.600
10763SOL    HW133188   3.636   6.685   2.696
10763SOL    HW233189   3.579   6.684   2.543
10764SOL     OW33190   5.168   1.737   5.226
10764SOL    HW133191   5.144   1.648   5.188
10764SOL    HW233192   5.177   1.729   5.326
10765SOL     OW33193   4.462   3.010   0.390
10765SOL    HW133194   4.538   2.950   0.367
10765SOL    HW233195   4.380   2.955   0.405
10766SOL     OW33196   4.539   4.734   0.766
10766SOL    HW133197   4.515   4.659   0.704
10766SOL    HW233198   4.590   4.804   0.716
10767SOL     OW33199   2.980   0.906   1.382
10767SOL    HW133200   2.938   0.970   1.446
10767SOL    HW233201   3.074   0.887   1.411
10768SOL     OW33202   5.235   5.288   1.382
10768SOL    HW133203   5.256   5.248   1.471
10768SOL    HW233204   5.318   5.292   1.326
10769SOL     OW33205   1.836   4.210   6.025
10769SOL    HW133206   1.920   4.154   6.025
10769SOL    HW233207   1.854   4.295   6.074
10770SOL     OW33208   4.666   6.266   3.864
10770SOL    HW133209   4.583   6.268   3.809
10770SOL    HW233210   4.746   6.270   3.804
10771SOL     OW33211   4.307   0.541   3.947
10771SOL    HW133212   4.346   0.482   4.019
10771SOL    HW233213   4.282   0.629   3.987
10772SOL     OW33214   5.877   6.689   4.789
10772SOL    HW133215   5.903   6.678   4.885
10772SOL    HW233216   5.833   6.778   4.776
10773SOL     OW33217   5.738   4.807   6.671
10773SOL    HW133218   5.656   4.798   6.728
10773SOL    HW233219   5.716   4.783   6.577
10774SOL     OW33220   2.068   1.009   5.437
10774SOL    HW133221   2.032   0.939   5.375
10774SOL    HW233222   2.007   1.088   5.437
10775SOL     OW33223   0.278   4.697   2.626
10775SOL    HW133224   0.375   4.672   2.622
10775SOL    HW233225   0.228   4.627   2.677
10776SOL     OW33226   0.902   1.256   6.953
10776SOL    HW133227   0.832   1.288   7.016
10776SOL    HW233228   0.962   1.191   7.000
10777SOL     OW33229   3.687   5.420   1.257
10777SOL    HW133230   3.611   5.471   1.217
10777SOL    HW233231   3.761   5.412   1.191
10778SOL     OW33232   5.066   7.016   3.669
10778SOL    HW133233   5.012   0.079   3.651
10778SOL    HW233234   5.065   6.958   3.588
10779SOL     OW33235   5.527   2.867   2.900
10779SOL    HW133236   5.580   2.844   2.818
10779SOL    HW233237   5.442   2.813   2.900
10780SOL     OW33238   1.344   0.433   4.166
10780SOL    HW133239   1.313   0.475   4.251
10780SOL    HW233240   1.416   0.489   4.125
10781SOL     OW33241   3.755   0.897   3.718
10781SOL    HW133242   3.674   0.903   3.660
10781SOL    HW233243   3.731   0.926   3.811
10782SOL     OW33244   0.063   0.924   3.064
10782SOL    HW133245   0.117   1.007   3.051
10782SOL    HW233246   7.000   0.945   3.115
10783SOL     OW33247   0.423   2.371   2.848
10783SOL    HW133248   0.430   2.321   2.935
10783SOL    HW233249   0.510   2.368   2.800
10784SOL     OW33250   3.664   0.952   3.993
10784SOL    HW133251   3.636   1.047   3.976
10784SOL    HW233252   3.583   0.895   4.008
10785SOL     OW33253   1.041   3.856   0.944
10785SOL    HW133254   1.042   3.872   0.846
10785SOL    HW233255   1.008   3.938   0.991
10786SOL     OW33256   5.962   4.871   3.162
10786SOL    HW133257   5.941   4.917   3.248
10786SOL    HW233258   5.884   4.814   3.135
10787SOL     OW33259   0.891   0.753   5.589
10787SOL    HW133260   0.965   0.759   5.522
10787SOL    HW233261   0.913   0.681   5.655
10788SOL     OW33262   0.714   4.177   0.761
10788SOL    HW133263   0.692   4.090   0.806
10788SOL    HW233264   0.769   4.158   0.679
10789SOL     OW33265   6.602   3.631   6.778
10789SOL    HW133266   6.648   3.552   6.737
10789SOL    HW233267   6.573   3.694   6.705
10790SOL     OW33268   0.669   6.890   1.935
10790SOL    HW133269   0.702   6.833   1.860
10790SOL    HW233270   0.607   6.960   1.900
10791SOL     OW33271   0.258   5.879   2.236
10791SOL    HW133272   0.345   5.928   2.230
10791SOL    HW233273   0.234   5.843   2.146
10792SOL     OW33274   3.193   3.090   5.024
10792SOL    HW133275   3.269   3.154   5.023
10792SOL    HW233276   3.111   3.136   5.057
10793SOL     OW33277   6.236   4.044   5.953
10793SOL    HW133278   6.140   4.019   5.968
10793SOL    HW233279   6.271   3.995   5.873
10794SOL     OW33280   3.894   3.847   4.288
10794SOL    HW133281   3.824   3.839   4.360
10794SOL    HW233282   3.860   3.907   4.216
10795SOL     OW33283   6.964   5.168   2.727
10795SOL    HW133284   6.945   5.213   2.814
10795SOL    HW233285   0.035   5.195   2.695
10796SOL     OW33286   6.367   0.171   5.040
10796SOL    HW133287   6.383   0.132   4.949
10796SOL    HW233288   6.363   0.271   5.033
10797SOL     OW33289   3.655   2.922   1.514
10797SOL    HW133290   3.716   2.879   1.581
10797SOL    HW233291   3.576   2.862   1.498
10798SOL     OW33292   2.716   1.178   0.292
10798SOL    HW133293   2.782   1.109   0.321
10798SOL    HW233294   2.765   1.254   0.249
10799SOL     OW33295   4.298   0.677   2.170
10799SOL    HW133296   4.319   0.761   2.119
10799SOL    HW233297   4.199   0.668   2.179
10800SOL     OW33298   1.251   6.053   6.020
10800SOL    HW133299   1.216   6.107   5.943
10800SOL    HW233300   1.214   6.090   6.106
10801SOL     OW33301   1.179   0.119   0.126
10801SOL    HW133302   1.236   0.063   0.185
10801SOL    HW233303   1.085   0.118   0.160
10802SOL     OW33304   0.213   0.070   2.710
10802SOL    HW133305   0.139   0.104   2.652
10802SOL    HW233306   0.281   0.142   2.724
10803SOL     OW33307   1.412   5.424   6.050
10803SOL    HW133308   1.489   5.362   6.062
10803SOL    HW233309   1.440   5.517   6.073
10804SOL     OW33310   6.709   2.637   3.345
10804SOL    HW133311   6.797   2.591   3.340
10804SOL    HW233312   6.654   2.596   3.418
10805SOL     OW33313   5.372   0.674   5.280
10805SOL    HW133314   5.279   0.685   5.245
10805SOL    HW233315   5.399   0.578   5.272
10806SOL     OW33316   3.671   4.822   6.613
10806SOL    HW133317   3.740   4.886   6.647
10806SOL    HW233318   3.625   4.862   6.534
10807SOL     OW33319   1.187   5.905   3.639
10807SOL    HW133320   1.155   5.892   3.545
10807SOL    HW233321   1.111   5.893   3.702
10808SOL     OW33322   0.162   2.526   6.013
10808SOL    HW133323   0.150   2.435   6.054
10808SOL    HW233324   0.253   2.560   6.034
10809SOL     OW33325   2.398   4.461   4.110
10809SOL    HW133326   2.313   4.498   4.147
10809SOL    HW233327   2.384   4.367   4.079
10810SOL     OW33328   6.850   0.298   3.614
10810SOL    HW133329   6.905   0.334   3.539
10810SOL    HW233330   6.911   0.266   3.687
10811SOL     OW33331   4.485   5.038   5.241
10811SOL    HW133332   4.561   5.028   5.178
10811SOL    HW233333   4.433   5.120   5.218
10812SOL     OW33334   6.660   4.041   6.211
10812SOL    HW133335   6.560   4.031   6.219
10812SOL    HW233336   6.688   4.013   6.119
10813SOL     OW33337   0.707   3.500   6.125
10813SOL    HW133338   0.748   3.552   6.200
10813SOL    HW233339   0.707   3.402   6.148
10814SOL     OW33340   2.187   6.820   0.039
10814SOL    HW133341   2.176   6.737   0.094
10814SOL    HW233342   2.284   6.846   0.036
10815SOL     OW33343   5.127   2.163   2.781
10815SOL    HW133344   5.176   2.188   2.865
10815SOL    HW233345   5.177   2.091   2.733
10816SOL     OW33346   3.461   3.542   2.752
10816SOL    HW133347   3.438   3.457   2.705
10816SOL    HW233348   3.548   3.531   2.800
10817SOL     OW33349   3.217   0.714   3.497
10817SOL    HW133350   3.157   0.770   3.440
10817SOL    HW233351   3.281   0.663   3.439
10818SOL     OW33352   4.838   4.981   5.631
10818SOL    HW133353   4.934   4.964   5.608
10818SOL    HW233354   4.788   5.006   5.547
10819SOL     OW33355   5.884   5.260   6.003
10819SOL    HW133356   5.920   5.176   6.043
10819SOL    HW233357   5.804   5.238   5.947
10820SOL     OW33358   0.225   5.583   4.392
10820SOL    HW133359   0.132   5.619   4.398
10820SOL    HW233360   0.273   5.626   4.316
10821SOL     OW33361   4.431   6.281   2.894
10821SOL    HW133362   4.423   6.285   2.993
10821SOL    HW233363   4.352   6.233   2.856
10822SOL     OW33364   6.023   1.924   1.181
10822SOL    HW133365   6.010   1.848   1.245
10822SOL    HW233366   5.953   1.993   1.197
10823SOL     OW33367   0.426   0.343   3.414
10823SOL    HW133368   0.442   0.393   3.499
10823SOL    HW233369   0.344   0.379   3.369
10824SOL     OW33370   1.104   1.647   2.151
10824SOL    HW133371   1.133   1.553   2.135
10824SOL    HW233372   1.074   1.688   2.065
10825SOL     OW33373   1.346   2.337   0.493
10825SOL    HW133374   1.401   2.420   0.497
10825SOL    HW233375   1.397   2.265   0.446
10826SOL     OW33376   0.867   1.929   2.269
10826SOL    HW133377   0.804   1.962   2.199
10826SOL    HW233378   0.817   1.917   2.355
10827SOL     OW33379   6.615   3.160   4.535
10827SOL    HW133380   6.672   3.080   4.515
10827SOL    HW233381   6.649   3.206   4.616
10828SOL     OW33382   0.045   4.011   0.307
10828SOL    HW133383   0.005   4.015   0.216
10828SOL    HW233384   0.051   4.104   0.345
10829SOL     OW33385   4.258   3.914   0.026
10829SOL    HW133386   4.202   3.836   7.017
10829SOL    HW233387   4.313   3.945   6.969
10830SOL     OW33388   4.779   1.804   4.026
10830SOL    HW133389   4.829   1.763   4.103
10830SOL    HW233390   4.843   1.850   3.965
10831SOL     OW33391   3.433   0.021   2.063
10831SOL    HW133392   3.409   0.105   2.014
10831SOL    HW233393   3.476   6.976   2.001
10832SOL     OW33394   6.393   3.510   6.604
10832SOL    HW133395   6.462   3.513   6.677
10832SOL    HW233396   6.387   3.600   6.561
10833SOL     OW33397   0.429   2.590   0.786
10833SOL    HW133398   0.399   2.683   0.763
10833SOL    HW233399   0.528   2.584   0.778
10834SOL     OW33400   6.804   1.376   0.280
10834SOL    HW133401   6.717   1.401   0.238
10834SOL    HW233402   6.833   1.449   0.342
10835SOL     OW33403   5.119   3.375   6.989
10835SOL    HW133404   5.101   3.278   6.971
10835SOL    HW233405   5.070   3.430   6.921
10836SOL     OW33406   1.191   1.264   3.012
10836SOL    HW133407   1.275   1.268   2.957
10836SOL    HW233408   1.162   1.169   3.021
10837SOL     OW33409   6.298   4.542   2.215
10837SOL    HW133410   6.367   4.514   2.282
10837SOL    HW233411   6.338   4.611   2.154
10838SOL     OW33412   5.455   6.486   3.915
10838SOL    HW133413   5.512   6.525   3.987
10838SOL    HW233414   5.399   6.412   3.953
10839SOL     OW33415   4.664   3.446   0.836
10839SOL    HW133416   4.646   3.348   0.845
10839SOL    HW233417   4.602   3.485   0.768
10840SOL     OW33418   3.653   0.353   2.867
10840SOL    HW133419   3.727   0.402   2.821
10840SOL    HW233420   3.591   0.419   2.910
10841SOL     OW33421   6.316   4.928   5.019
10841SOL    HW133422   6.364   4.935   5.106
10841SOL    HW233423   6.222   4.961   5.029
10842SOL     OW33424   4.555   2.579   1.301
10842SOL    HW133425   4.487   2.652   1.300
10842SOL    HW233426   4.552   2.533   1.390
10843SOL     OW33427   1.939   1.331   0.996
10843SOL    HW133428   2.005   1.393   0.954
10843SOL    HW233429   1.930   1.248   0.941
10844SOL     OW33430   0.114   4.632   3.589
10844SOL    HW133431   0.155   4.719   3.619
10844SOL    HW233432   0.016   4.635   3.605
10845SOL     OW33433   4.483   6.063   4.877
10845SOL    HW133434   4.575   6.023   4.876
10845SOL    HW233435   4.416   5.993   4.851
10846SOL     OW33436   5.757   6.787   6.871
10846SOL    HW133437   5.657   6.790   6.865
10846SOL    HW233438   5.794   6.741   6.790
10847SOL     OW33439   2.864   2.386   0.050
10847SOL    HW133440   2.843   2.408   0.145
10847SOL    HW233441   2.948   2.332   0.047
10848SOL     OW33442   0.616   3.950   0.887
10848SOL    HW133443   0.635   3.942   0.985
10848SOL    HW233444   0.519   3.933   0.871
10849SOL     OW33445   2.839   4.742   4.087
10849SOL    HW133446   2.744   4.711   4.083
10849SOL    HW233447   2.861   4.767   4.181
10850SOL     OW33448   4.110   6.442   0.033
10850SOL    HW133449   4.168   6.384   0.090
10850SOL    HW233450   4.059   6.506   0.090
10851SOL     OW33451   3.074   4.025   1.244
10851SOL    HW133452   3.088   3.966   1.324
10851SOL    HW233453   3.007   4.096   1.267
10852SOL     OW33454   2.185   1.443   6.968
10852SOL    HW133455   2.150   1.364   6.917
10852SOL    HW233456   2.208   1.414   0.041
10853SOL     OW33457   2.775   3.578   5.939
10853SOL    HW133458   2.720   3.658   5.915
10853SOL    HW233459   2.778   3.514   5.862
10854SOL     OW33460   4.776   5.072   5.099
10854SOL    HW133461   4.756   5.159   5.055
10854SOL    HW233462   4.813   5.008   5.031
10855SOL     OW33463   3.814   0.432   0.840
10855SOL    HW133464   3.732   0.488   0.824
10855SOL    HW233465   3.892   0.473   0.793
10856SOL     OW33466   0.246   1.064   6.633
10856SOL    HW133467   0.289   1.072   6.723
10856SOL    HW233468   0.147   1.054   6.644
10857SOL     OW33469   0.173   1.730   2.740
10857SOL    HW133470   0.117   1.775   2.670
10857SOL    HW233471   0.223   1.654   2.699
10858SOL     OW33472   2.067   7.005   0.955
10858SOL    HW133473   2.013   0.054   1.005
10858SOL    HW233474   2.147   0.030   0.914
10859SOL     OW33475   6.939   4.712   4.235
10859SOL    HW133476   6.979   4.690   4.146
10859SOL    HW233477   6.990   4.787   4.277
10860SOL     OW33478   7.014   3.563   3.952
10860SOL    HW133479   7.001   3.593   3.858
10860SOL    HW233480   6.925   3.555   3.997
10861SOL     OW33481   3.029   3.229   3.133
10861SOL    HW133482   2.943   3.273   3.157
10861SOL    HW233483   3.031   3.212   3.034
10862SOL     OW33484   2.505   0.975   5.701
10862SOL    HW133485   2.528   1.059   5.652
10862SOL    HW233486   2.423   0.934   5.662
10863SOL     OW33487   2.277   0.501   4.620
10863SOL    HW133488   2.362   0.474   4.665
10863SOL    HW233489   2.200   0.477   4.679
10864SOL     OW33490   2.633   6.520   1.163
10864SOL    HW133491   2.589   6.431   1.151
10864SOL    HW233492   2.627   6.572   1.077
10865SOL     OW33493   6.552   1.395   0.193
10865SOL    HW133494   6.524   1.491   0.203
10865SOL    HW233495   6.471   1.336   0.199
10866SOL     OW33496   5.672   4.960   0.291
10866SOL    HW133497   5.738   4.983   0.219
10866SOL    HW233498   5.583   4.940   0.249
10867SOL     OW33499   3.170   3.974   0.505
10867SOL    HW133500   3.124   3.986   0.593
10867SOL    HW233501   3.259   3.931   0.519
10868SOL     OW33502   5.095   1.912   3.853
10868SOL    HW133503   5.181   1.862   3.859
10868SOL    HW233504   5.085   1.970   3.934
10869NA      NA33505   6.486   2.446   5.554
10870NA      NA33506   4.481   4.621   5.124
10871NA      NA33507   1.890   3.098   1.672
10872NA      NA33508   5.115   3.827   5.352
10873NA      NA33509   4.146   2.235   4.917
10874NA      NA33510   3.781   4.844   1.837
10875NA      NA33511   6.709   5.323   5.834
10876NA      NA33512   3.332   3.585   4.517
10877NA      NA33513   4.794   6.022   0.104
10878NA      NA33514   3.720   6.472   5.319
10879NA      NA33515   6.265   5.155   2.796
10880NA      NA33516   2.623   0.484   3.785
10881NA      NA33517   3.685   5.437   1.517
10882NA      NA33518   3.693   3.478   2.266
   7.01951   7.01951   7.01951
